
                                 *****************
                                 * O   R   C   A *
                                 *****************

                                            #,                                       
                                            ###                                      
                                            ####                                     
                                            #####                                    
                                            ######                                   
                                           ########,                                 
                                     ,,################,,,,,                         
                               ,,#################################,,                 
                          ,,##########################################,,             
                       ,#########################################, ''#####,          
                    ,#############################################,,   '####,        
                  ,##################################################,,,,####,       
                ,###########''''           ''''###############################       
              ,#####''   ,,,,##########,,,,          '''####'''          '####       
            ,##' ,,,,###########################,,,                        '##       
           ' ,,###''''                  '''############,,,                           
         ,,##''                                '''############,,,,        ,,,,,,###''
      ,#''                                            '''#######################'''  
     '                                                          ''''####''''         
             ,#######,   #######,   ,#######,      ##                                
            ,#'     '#,  ##    ##  ,#'     '#,    #''#        ######   ,####,        
            ##       ##  ##   ,#'  ##            #'  '#       #        #'  '#        
            ##       ##  #######   ##           ,######,      #####,   #    #        
            '#,     ,#'  ##    ##  '#,     ,#' ,#      #,         ##   #,  ,#        
             '#######'   ##     ##  '#######'  #'      '#     #####' # '####'        



                  #######################################################
                  #                        -***-                        #
                  #          Department of theory and spectroscopy      #
                  #    Directorship and core code : Frank Neese         #
                  #        Max Planck Institute fuer Kohlenforschung    #
                  #                Kaiser Wilhelm Platz 1               #
                  #                 D-45470 Muelheim/Ruhr               #
                  #                      Germany                        #
                  #                                                     #
                  #                  All rights reserved                #
                  #                        -***-                        #
                  #######################################################


                         Program Version 5.0.4 -  RELEASE  -


 With contributions from (in alphabetic order):
   Daniel Aravena         : Magnetic Suceptibility
   Michael Atanasov       : Ab Initio Ligand Field Theory (pilot matlab implementation)
   Alexander A. Auer      : GIAO ZORA, VPT2 properties, NMR spectrum
   Ute Becker             : Parallelization
   Giovanni Bistoni       : ED, misc. LED, open-shell LED, HFLD
   Martin Brehm           : Molecular dynamics
   Dmytro Bykov           : SCF Hessian
   Vijay G. Chilkuri      : MRCI spin determinant printing, contributions to CSF-ICE
   Dipayan Datta          : RHF DLPNO-CCSD density
   Achintya Kumar Dutta   : EOM-CC, STEOM-CC
   Dmitry Ganyushin       : Spin-Orbit,Spin-Spin,Magnetic field MRCI
   Miquel Garcia          : C-PCM and meta-GGA Hessian, CC/C-PCM, Gaussian charge scheme
   Yang Guo               : DLPNO-NEVPT2, F12-NEVPT2, CIM, IAO-localization
   Andreas Hansen         : Spin unrestricted coupled pair/coupled cluster methods
   Benjamin Helmich-Paris : MC-RPA, TRAH-SCF, COSX integrals
   Lee Huntington         : MR-EOM, pCC
   Robert Izsak           : Overlap fitted RIJCOSX, COSX-SCS-MP3, EOM
   Marcus Kettner         : VPT2
   Christian Kollmar      : KDIIS, OOCD, Brueckner-CCSD(T), CCSD density, CASPT2, CASPT2-K
   Simone Kossmann        : Meta GGA functionals, TD-DFT gradient, OOMP2, MP2 Hessian
   Martin Krupicka        : Initial AUTO-CI
   Lucas Lang             : DCDCAS
   Marvin Lechner         : AUTO-CI (C++ implementation), FIC-MRCC
   Dagmar Lenk            : GEPOL surface, SMD
   Dimitrios Liakos       : Extrapolation schemes; Compound Job, initial MDCI parallelization
   Dimitrios Manganas     : Further ROCIS development; embedding schemes
   Dimitrios Pantazis     : SARC Basis sets
   Anastasios Papadopoulos: AUTO-CI, single reference methods and gradients
   Taras Petrenko         : DFT Hessian,TD-DFT gradient, ASA, ECA, R-Raman, ABS, FL, XAS/XES, NRVS
   Peter Pinski           : DLPNO-MP2, DLPNO-MP2 Gradient
   Christoph Reimann      : Effective Core Potentials
   Marius Retegan         : Local ZFS, SOC
   Christoph Riplinger    : Optimizer, TS searches, QM/MM, DLPNO-CCSD(T), (RO)-DLPNO pert. Triples
   Tobias Risthaus        : Range-separated hybrids, TD-DFT gradient, RPA, STAB
   Michael Roemelt        : Original ROCIS implementation
   Masaaki Saitow         : Open-shell DLPNO-CCSD energy and density
   Barbara Sandhoefer     : DKH picture change effects
   Avijit Sen             : IP-ROCIS
   Kantharuban Sivalingam : CASSCF convergence, NEVPT2, FIC-MRCI
   Bernardo de Souza      : ESD, SOC TD-DFT
   Georgi Stoychev        : AutoAux, RI-MP2 NMR, DLPNO-MP2 response
   Willem Van den Heuvel  : Paramagnetic NMR
   Boris Wezisla          : Elementary symmetry handling
   Frank Wennmohs         : Technical directorship


 We gratefully acknowledge several colleagues who have allowed us to
 interface, adapt or use parts of their codes:
   Stefan Grimme, W. Hujo, H. Kruse, P. Pracht,  : VdW corrections, initial TS optimization,
                  C. Bannwarth, S. Ehlert          DFT functionals, gCP, sTDA/sTD-DF
   Ed Valeev, F. Pavosevic, A. Kumar             : LibInt (2-el integral package), F12 methods
   Garnet Chan, S. Sharma, J. Yang, R. Olivares  : DMRG
   Ulf Ekstrom                                   : XCFun DFT Library
   Mihaly Kallay                                 : mrcc  (arbitrary order and MRCC methods)
   Jiri Pittner, Ondrej Demel                    : Mk-CCSD
   Frank Weinhold                                : gennbo (NPA and NBO analysis)
   Christopher J. Cramer and Donald G. Truhlar   : smd solvation model
   Lars Goerigk                                  : TD-DFT with DH, B97 family of functionals
   V. Asgeirsson, H. Jonsson                     : NEB implementation
   FAccTs GmbH                                   : IRC, NEB, NEB-TS, DLPNO-Multilevel, CI-OPT
                                                   MM, QMMM, 2- and 3-layer-ONIOM, Crystal-QMMM,
                                                   LR-CPCM, SF, NACMEs, symmetry and pop. for TD-DFT,
                                                   nearIR, NL-DFT gradient (VV10), updates on ESD,
                                                   ML-optimized integration grids
   S Lehtola, MJT Oliveira, MAL Marques          : LibXC Library
   Liviu Ungur et al                             : ANISO software


 Your calculation uses the libint2 library for the computation of 2-el integrals
 For citations please refer to: http://libint.valeyev.net

 Your ORCA version has been built with support for libXC version: 5.1.0
 For citations please refer to: https://tddft.org/programs/libxc/

 This ORCA versions uses:
   CBLAS   interface :  Fast vector & matrix operations
   LAPACKE interface :  Fast linear algebra routines
   SCALAPACK package :  Parallel linear algebra routines
   Shared memory     :  Shared parallel matrices
   BLAS/LAPACK       :  OpenBLAS 0.3.15  USE64BITINT DYNAMIC_ARCH NO_AFFINITY Prescott SINGLE_THREADED
        Core in use  :  Prescott
   Copyright (c) 2011-2014, The OpenBLAS Project


Your calculation utilizes the atom-pairwise dispersion correction
with the Becke-Johnson damping scheme (D3BJ)
Cite in your paper:
S.Grimme, S.Ehrlich, L.Goerigk, J Comput Chem, (2011), 32, 1456–1465 
S.Grimme, J.Antony, S.Ehrlich and H.Krieg, J.Chem.Phys., 132, (2010), 154104 
   

================================================================================

----- Orbital basis set information -----
Your calculation utilizes the basis: def2-TZVP
   F. Weigend and R. Ahlrichs, Phys. Chem. Chem. Phys. 7, 3297 (2005).

----- AuxJ basis set information -----
Your calculation utilizes the auxiliary basis: def2/J
   F. Weigend, Phys. Chem. Chem. Phys. 8, 1057 (2006).

================================================================================
                                        WARNINGS
                       Please study these warnings very carefully!
================================================================================

WARNING: Gradients needed for Numerical Frequencies
  ===> : Setting RunTyp to EnGrad

INFO   : the flag for use of the SHARK integral package has been found!

================================================================================
                                       INPUT FILE
================================================================================
NAME = /home/rudenko/mop_saddle_orca_4_serv/for_orca/ch32chno2_pyridine_new/orca/start_freq_H/start_f_H.inp
|  1> !  NUMFREQ B3LYP def2-TZVP CPCM D3 
|  2> %pal nprocs 102 end
|  3> %cpcm epsilon 78.4 end 
|  4> *xyz 0 1 
|  5> C   2.23659993915282 -0.6435112039871 -0.38255235474072
|  6> H   2.85668617077905 -0.8759348629143 -1.24802776941282
|  7> N   1.62331586348981 -3.01426313268372 -0.22972573960462
|  8> O   2.43778497458486 -3.82540835855293 -0.64386059175668
|  9> O   0.42407690929848 -3.08231850480921 -0.4462584711348
| 10> H   1.7304721762585 -0.79154448355035 2.37123656361973
| 11> C   2.1493112665321 -1.82960115020821 0.56966130979565
| 12> H   3.14402382945784 -2.1465794049607 0.86845746085814
| 13> H   1.24290488458398 -0.34293748840391 -0.71587194121276
| 14> C   1.26574013814485 -1.57819005227671 1.77612952373779
| 15> H   0.27205513719699 -1.24739740545957 1.47729201254762
| 16> C   5.80914641708498 -0.84935098919896 -0.36924728239324
| 17> C   6.16140700586554 -1.31618952923967 -1.62827324905671
| 18> C   6.43152198594683 -2.67024226133892 -1.78358288165247
| 19> C   6.34109112553602 -3.50270317204538 -0.67478318373737
| 20> C   5.98214257250945 -2.94660748318323 0.54543638904831
| 21> N   5.71937646732907 -1.64525022014113 0.70030072885059
| 22> H   6.21772448973711 -0.63213729977152 -2.46420579002491
| 23> H   6.70571577405953 -3.06980791494702 -2.75157144933179
| 24> H   6.54054474196396 -4.56307714018744 -0.75050183758097
| 25> H   2.6928321104791 0.18946743828515 0.15234382295256
| 26> H   1.17716398461417 -2.47078021636903 2.39613020105323
| 27> H   5.89450644080136 -3.56407526939661 1.43214859862943
| 28> H   5.58389729583913 0.19870163587927 -0.2096520842953
| 29> H   4.0422510524055 -1.28468683871341 3.39732639543394
| 30> H   5.08725038551477 -1.01320000041164 2.28905675396194
| 31> O   4.73506686083378 -0.66365469141359 3.14462486544623
| 32> *
| 33> 
| 34>                          ****END OF INPUT****
================================================================================

                     *******************************
                     * Energy+Gradient Calculation *
                     *******************************

---------------------------------
CARTESIAN COORDINATES (ANGSTROEM)
---------------------------------
  C      2.236600   -0.643511   -0.382552
  H      2.856686   -0.875935   -1.248028
  N      1.623316   -3.014263   -0.229726
  O      2.437785   -3.825408   -0.643861
  O      0.424077   -3.082319   -0.446258
  H      1.730472   -0.791544    2.371237
  C      2.149311   -1.829601    0.569661
  H      3.144024   -2.146579    0.868457
  H      1.242905   -0.342937   -0.715872
  C      1.265740   -1.578190    1.776130
  H      0.272055   -1.247397    1.477292
  C      5.809146   -0.849351   -0.369247
  C      6.161407   -1.316190   -1.628273
  C      6.431522   -2.670242   -1.783583
  C      6.341091   -3.502703   -0.674783
  C      5.982143   -2.946607    0.545436
  N      5.719376   -1.645250    0.700301
  H      6.217724   -0.632137   -2.464206
  H      6.705716   -3.069808   -2.751571
  H      6.540545   -4.563077   -0.750502
  H      2.692832    0.189467    0.152344
  H      1.177164   -2.470780    2.396130
  H      5.894506   -3.564075    1.432149
  H      5.583897    0.198702   -0.209652
  H      4.042251   -1.284687    3.397326
  H      5.087250   -1.013200    2.289057
  O      4.735067   -0.663655    3.144625

----------------------------
CARTESIAN COORDINATES (A.U.)
----------------------------
  NO LB      ZA    FRAG     MASS         X           Y           Z
   0 C     6.0000    0    12.011    4.226561   -1.216060   -0.722919
   1 H     1.0000    0     1.008    5.398355   -1.655277   -2.358431
   2 N     7.0000    0    14.007    3.067622   -5.696132   -0.434119
   3 O     8.0000    0    15.999    4.606746   -7.228974   -1.216720
   4 O     8.0000    0    15.999    0.801389   -5.824738   -0.843306
   5 H     1.0000    0     1.008    3.270118   -1.495802    4.480988
   6 C     6.0000    0    12.011    4.061610   -3.457445    1.076504
   7 H     1.0000    0     1.008    5.941344   -4.056447    1.641147
   8 H     1.0000    0     1.008    2.348750   -0.648058   -1.352802
   9 C     6.0000    0    12.011    2.391902   -2.982347    3.356398
  10 H     1.0000    0     1.008    0.514110   -2.357239    2.791677
  11 C     6.0000    0    12.011   10.977696   -1.605041   -0.697776
  12 C     6.0000    0    12.011   11.643372   -2.487238   -3.076991
  13 C     6.0000    0    12.011   12.153815   -5.046027   -3.370483
  14 C     6.0000    0    12.011   11.982926   -6.619150   -1.275155
  15 C     6.0000    0    12.011   11.304611   -5.568281    1.030725
  16 N     7.0000    0    14.007   10.808055   -3.109072    1.323377
  17 H     1.0000    0     1.008   11.749796   -1.194566   -4.656674
  18 H     1.0000    0     1.008   12.671966   -5.801096   -5.199716
  19 H     1.0000    0     1.008   12.359838   -8.622966   -1.418243
  20 H     1.0000    0     1.008    5.088715    0.358042    0.287888
  21 H     1.0000    0     1.008    2.224518   -4.669098    4.528030
  22 H     1.0000    0     1.008   11.139003   -6.735126    2.706369
  23 H     1.0000    0     1.008   10.552037    0.375492   -0.396185
  24 H     1.0000    0     1.008    7.638747   -2.427706    6.420016
  25 H     1.0000    0     1.008    9.613510   -1.914671    4.325690
  26 O     8.0000    0    15.999    8.947980   -1.254126    5.942480

--------------------------------
INTERNAL COORDINATES (ANGSTROEM)
--------------------------------
 C      0   0   0     0.000000000000     0.00000000     0.00000000
 H      1   0   0     1.089759324476     0.00000000     0.00000000
 N      1   2   0     2.453556202571    89.17577735     0.00000000
 O      3   1   2     1.221811845640   116.98427504    28.43175243
 O      3   1   2     1.220529404295   106.76361212   244.61438956
 H      1   2   3     2.803824632732   150.62997754    69.73590835
 C      3   1   2     1.522864022654    36.36056551   129.20165781
 H      7   3   1     1.085913181022   103.51809308   243.36016318
 H      1   2   3     1.090356073354   109.54703086   266.78821914
 C      6   1   2     1.090385026935    65.10155796   267.15268762
 H     10   6   1     1.089099405193   108.63282731   269.08778292
 C      2   1   3     3.080581658182   108.47871454   255.67189639
 C     12   2   1     1.388226253032    88.94443818   173.52039066
 C     13  12   2     1.389439450191   118.58260827   259.84236576
 C     14  13  12     1.389462370295   118.81696651   359.89205408
 C     15  14  13     1.388172282067   118.57307359     0.07749830
 N     12   2   1     1.336206263288    99.13767910    50.37340652
 H     13  12   2     1.081610985835   120.09684536    79.61912020
 H     14  13  12     1.082514116370   120.59078495   179.77819076
 H     15  14  13     1.081622860317   121.29796518   179.86259564
 H      1   2   3     1.090006941971   108.33382417   148.34546316
 H     10   6   1     1.090396155478   108.35216899   150.44424032
 H     16  15  14     1.084068771440   120.77824661   179.59600027
 H     12   2   1     1.083799842596    81.44043909   294.85950879
 H      6   1   2     2.576891790046   103.84197713    21.34346208
 H     25   6   1     1.547252502916   106.68508353    13.76409043
 O     25   6   1     0.964122780379   114.64719964    53.82278719

---------------------------
INTERNAL COORDINATES (A.U.)
---------------------------
 C      0   0   0     0.000000000000     0.00000000     0.00000000
 H      1   0   0     2.059346675148     0.00000000     0.00000000
 N      1   2   0     4.636549277043    89.17577735     0.00000000
 O      3   1   2     2.308889775440   116.98427504    28.43175243
 O      3   1   2     2.306466312516   106.76361212   244.61438956
 H      1   2   3     5.298460683406   150.62997754    69.73590835
 C      3   1   2     2.877795942017    36.36056551   129.20165781
 H      7   3   1     2.052078517347   103.51809308   243.36016318
 H      1   2   3     2.060474367097   109.54703086   266.78821914
 C      6   1   2     2.060529081435    65.10155796   267.15268762
 H     10   6   1     2.058099608431   108.63282731   269.08778292
 C      2   1   3     5.821455667144   108.47871454   255.67189639
 C     12   2   1     2.623367430151    88.94443818   173.52039066
 C     13  12   2     2.625660040527   118.58260827   259.84236576
 C     14  13  12     2.625703353246   118.81696651   359.89205408
 C     15  14  13     2.623265439808   118.57307359     0.07749830
 N     12   2   1     2.525063896044    99.13767910    50.37340652
 H     13  12   2     2.043948546669   120.09684536    79.61912020
 H     14  13  12     2.045655216043   120.59078495   179.77819076
 H     15  14  13     2.043970986187   121.29796518   179.86259564
 H      1   2   3     2.059814604399   108.33382417   148.34546316
 H     10   6   1     2.060550111333   108.35216899   150.44424032
 H     16  15  14     2.048593088359   120.77824661   179.59600027
 H     12   2   1     2.048084886494    81.44043909   294.85950879
 H      6   1   2     4.869619759938   103.84197713    21.34346208
 H     25   6   1     2.923883490535   106.68508353    13.76409043
 O     25   6   1     1.821928014391   114.64719964    53.82278719

---------------------
BASIS SET INFORMATION
---------------------
There are 4 groups of distinct atoms

 Group   1 Type C   : 11s6p2d1f contracted to 5s3p2d1f pattern {62111/411/11/1}
 Group   2 Type H   : 5s1p contracted to 3s1p pattern {311/1}
 Group   3 Type N   : 11s6p2d1f contracted to 5s3p2d1f pattern {62111/411/11/1}
 Group   4 Type O   : 11s6p2d1f contracted to 5s3p2d1f pattern {62111/411/11/1}

Atom   0C    basis set group =>   1
Atom   1H    basis set group =>   2
Atom   2N    basis set group =>   3
Atom   3O    basis set group =>   4
Atom   4O    basis set group =>   4
Atom   5H    basis set group =>   2
Atom   6C    basis set group =>   1
Atom   7H    basis set group =>   2
Atom   8H    basis set group =>   2
Atom   9C    basis set group =>   1
Atom  10H    basis set group =>   2
Atom  11C    basis set group =>   1
Atom  12C    basis set group =>   1
Atom  13C    basis set group =>   1
Atom  14C    basis set group =>   1
Atom  15C    basis set group =>   1
Atom  16N    basis set group =>   3
Atom  17H    basis set group =>   2
Atom  18H    basis set group =>   2
Atom  19H    basis set group =>   2
Atom  20H    basis set group =>   2
Atom  21H    basis set group =>   2
Atom  22H    basis set group =>   2
Atom  23H    basis set group =>   2
Atom  24H    basis set group =>   2
Atom  25H    basis set group =>   2
Atom  26O    basis set group =>   4
---------------------------------
AUXILIARY/J BASIS SET INFORMATION
---------------------------------
There are 4 groups of distinct atoms

 Group   1 Type C   : 12s5p4d2f1g contracted to 6s4p3d1f1g pattern {711111/2111/211/2/1}
 Group   2 Type H   : 5s2p1d contracted to 3s1p1d pattern {311/2/1}
 Group   3 Type N   : 12s5p4d2f1g contracted to 6s4p3d1f1g pattern {711111/2111/211/2/1}
 Group   4 Type O   : 12s5p4d2f1g contracted to 6s4p3d1f1g pattern {711111/2111/211/2/1}

Atom   0C    basis set group =>   1
Atom   1H    basis set group =>   2
Atom   2N    basis set group =>   3
Atom   3O    basis set group =>   4
Atom   4O    basis set group =>   4
Atom   5H    basis set group =>   2
Atom   6C    basis set group =>   1
Atom   7H    basis set group =>   2
Atom   8H    basis set group =>   2
Atom   9C    basis set group =>   1
Atom  10H    basis set group =>   2
Atom  11C    basis set group =>   1
Atom  12C    basis set group =>   1
Atom  13C    basis set group =>   1
Atom  14C    basis set group =>   1
Atom  15C    basis set group =>   1
Atom  16N    basis set group =>   3
Atom  17H    basis set group =>   2
Atom  18H    basis set group =>   2
Atom  19H    basis set group =>   2
Atom  20H    basis set group =>   2
Atom  21H    basis set group =>   2
Atom  22H    basis set group =>   2
Atom  23H    basis set group =>   2
Atom  24H    basis set group =>   2
Atom  25H    basis set group =>   2
Atom  26O    basis set group =>   4


           ************************************************************
           *        Program running with 102 parallel MPI-processes   *
           *              working on a common directory               *
           ************************************************************
------------------------------------------------------------------------------
                           ORCA GTO INTEGRAL CALCULATION
                           -- RI-GTO INTEGRALS CHOSEN --
------------------------------------------------------------------------------
------------------------------------------------------------------------------
                   ___                                                        
                  /   \      - P O W E R E D   B Y -                         
                 /     \                                                     
                 |  |  |   _    _      __       _____    __    __             
                 |  |  |  | |  | |    /  \     |  _  \  |  |  /  |          
                  \  \/   | |  | |   /    \    | | | |  |  | /  /          
                 / \  \   | |__| |  /  /\  \   | |_| |  |  |/  /          
                |  |  |   |  __  | /  /__\  \  |    /   |      \           
                |  |  |   | |  | | |   __   |  |    \   |  |\   \          
                \     /   | |  | | |  |  |  |  | |\  \  |  | \   \       
                 \___/    |_|  |_| |__|  |__|  |_| \__\ |__|  \__/        
                                                                              
                      - O R C A' S   B I G   F R I E N D -                    
                                      &                                       
                       - I N T E G R A L  F E E D E R -                       
                                                                              
 v1 FN, 2020, v2 2021                                                         
------------------------------------------------------------------------------


Reading SHARK input file /home/rudenko/mop_saddle_orca_4_serv/for_orca/ch32chno2_pyridine_new/orca/start_freq_H/start_f_H.SHARKINP.tmp ... ok
----------------------
SHARK INTEGRAL PACKAGE
----------------------

Number of atoms                             ...     27
Number of basis functions                   ...    487
Number of shells                            ...    199
Maximum angular momentum                    ...      3
Integral batch strategy                     ... SHARK/LIBINT Hybrid
RI-J (if used) integral strategy            ... SPLIT-RIJ (Revised 2003 algorithm where possible)
Printlevel                                  ...      1
Contraction scheme used                     ... SEGMENTED contraction
Coulomb Range Separation                    ... NOT USED
Exchange Range Separation                   ... NOT USED
Finite Nucleus Model                        ... NOT USED
Auxiliary Coulomb fitting basis             ... AVAILABLE
   # of basis functions in Aux-J            ...    791
   # of shells in Aux-J                     ...    265
   Maximum angular momentum in Aux-J        ...      4
Auxiliary J/K fitting basis                 ... NOT available
Auxiliary Correlation fitting basis         ... NOT available
Auxiliary 'external' fitting basis          ... NOT available
Integral threshold                          ...     2.500000e-11
Primitive cut-off                           ...     2.500000e-12
Primitive pair pre-selection threshold      ...     2.500000e-12

Calculating pre-screening integrals         ... done (  0.1 sec) Dimension = 199
Organizing shell pair data                  ... done (  0.4 sec)
Shell pair information
Total number of shell pairs                 ...     19900
Shell pairs after pre-screening             ...     16022
Total number of primitive shell pairs       ...     59668
Primitive shell pairs kept                  ...     33198
          la=0 lb=0:   4555 shell pairs
          la=1 lb=0:   4674 shell pairs
          la=1 lb=1:   1241 shell pairs
          la=2 lb=0:   2200 shell pairs
          la=2 lb=1:   1152 shell pairs
          la=2 lb=2:    284 shell pairs
          la=3 lb=0:   1042 shell pairs
          la=3 lb=1:    548 shell pairs
          la=3 lb=2:    257 shell pairs
          la=3 lb=3:     69 shell pairs

Calculating one electron integrals          ... done (  0.1 sec)
Calculating RI/J V-Matrix + Cholesky decomp.... done (  0.0 sec)
Calculating Nuclear repulsion               ... done (  0.0 sec) ENN=    805.655319679197 Eh

SHARK setup successfully completed in   0.9 seconds

Maximum memory used throughout the entire GTOINT-calculation: 28.1 MB


           ************************************************************
           *        Program running with 102 parallel MPI-processes   *
           *              working on a common directory               *
           ************************************************************
-------------------------------------------------------------------------------
                                 ORCA SCF
-------------------------------------------------------------------------------

------------
SCF SETTINGS
------------
Hamiltonian:
 Density Functional     Method          .... DFT(GTOs)
 Exchange Functional    Exchange        .... B88
   X-Alpha parameter    XAlpha          ....  0.666667
   Becke's b parameter  XBeta           ....  0.004200
 Correlation Functional Correlation     .... LYP
 LDA part of GGA corr.  LDAOpt          .... VWN-5
 Gradients option       PostSCFGGA      .... off
 Hybrid DFT is turned on
   Fraction HF Exchange ScalHFX         ....  0.200000
   Scaling of DF-GGA-X  ScalDFX         ....  0.720000
   Scaling of DF-GGA-C  ScalDFC         ....  0.810000
   Scaling of DF-LDA-C  ScalLDAC        ....  1.000000
   Perturbative correction              ....  0.000000
   Density functional embedding theory  .... OFF
   NL short-range parameter             ....  4.800000
 RI-approximation to the Coulomb term is turned on
   Number of AuxJ basis functions       .... 791
   RIJ-COSX (HFX calculated with COS-X)).... on


General Settings:
 Integral files         IntName         .... /home/rudenko/mop_saddle_orca_4_serv/for_orca/ch32chno2_pyridine_new/orca/start_freq_H/start_f_H
 Hartree-Fock type      HFTyp           .... RHF
 Total Charge           Charge          ....    0
 Multiplicity           Mult            ....    1
 Number of Electrons    NEL             ....  100
 Basis Dimension        Dim             ....  487
 Nuclear Repulsion      ENuc            ....    805.6553196792 Eh

Convergence Acceleration:
 DIIS                   CNVDIIS         .... on
   Start iteration      DIISMaxIt       ....    12
   Startup error        DIISStart       ....  0.200000
   # of expansion vecs  DIISMaxEq       ....     5
   Bias factor          DIISBfac        ....   1.050
   Max. coefficient     DIISMaxC        ....  10.000
 Trust-Rad. Augm. Hess. CNVTRAH         .... auto
   Auto Start mean grad. ratio tolernc. ....  1.125000
   Auto Start start iteration           ....    20
   Auto Start num. interpolation iter.  ....    10
   Max. Number of Micro iterations      ....    16
   Max. Number of Macro iterations      .... Maxiter - #DIIS iter
   Number of Davidson start vectors     ....     2
   Converg. threshold I  (grad. norm)   ....   1.000e-05
   Converg. threshold II (energy diff.) ....   1.000e-08
   Grad. Scal. Fac. for Micro threshold ....   0.100
   Minimum threshold for Micro iter.    ....   0.010
   NR start threshold (gradient norm)   ....   0.001
   Initial trust radius                 ....   0.400
   Minimum AH scaling param. (alpha)    ....   1.000
   Maximum AH scaling param. (alpha)    .... 1000.000
   Orbital update algorithm             .... Taylor
   White noise on init. David. guess    .... on
   Maximum white noise                  ....   0.010
   Quad. conv. algorithm                .... NR
 SOSCF                  CNVSOSCF        .... on
   Start iteration      SOSCFMaxIt      ....   150
   Startup grad/error   SOSCFStart      ....  0.003300
 Level Shifting         CNVShift        .... on
   Level shift para.    LevelShift      ....    0.2500
   Turn off err/grad.   ShiftErr        ....    0.0010
 Zerner damping         CNVZerner       .... off
 Static damping         CNVDamp         .... on
   Fraction old density DampFac         ....    0.7000
   Max. Damping (<1)    DampMax         ....    0.9800
   Min. Damping (>=0)   DampMin         ....    0.0000
   Turn off err/grad.   DampErr         ....    0.1000
 Fernandez-Rico         CNVRico         .... off

SCF Procedure:
 Maximum # iterations   MaxIter         ....   125
 SCF integral mode      SCFMode         .... Direct
   Integral package                     .... SHARK and LIBINT hybrid scheme
 Reset frequency        DirectResetFreq ....    20
 Integral Threshold     Thresh          ....  2.500e-11 Eh
 Primitive CutOff       TCut            ....  2.500e-12 Eh

Convergence Tolerance:
 Convergence Check Mode ConvCheckMode   .... Total+1el-Energy
 Convergence forced     ConvForced      .... 0
 Energy Change          TolE            ....  1.000e-08 Eh
 1-El. energy change                    ....  1.000e-05 Eh
 Orbital Gradient       TolG            ....  1.000e-05
 Orbital Rotation angle TolX            ....  1.000e-05
 DIIS Error             TolErr          ....  5.000e-07


Diagonalization of the overlap matrix:
Smallest eigenvalue                        ... 4.032e-05
Time for diagonalization                   ...    0.073 sec
Threshold for overlap eigenvalues          ... 1.000e-08
Number of eigenvalues below threshold      ... 0
Time for construction of square roots      ...    0.153 sec
Total time needed                          ...    0.228 sec

Time for model grid setup =    0.179 sec

------------------------------
INITIAL GUESS: MODEL POTENTIAL
------------------------------
Loading Hartree-Fock densities                     ... done
Calculating cut-offs                               ... done
Initializing the effective Hamiltonian             ... done
Setting up the integral package (SHARK)            ... done
Starting the Coulomb interaction                   ... done (   0.0 sec)
Reading the grid                                   ... done
Mapping shells                                     ... done
Starting the XC term evaluation                    ... done (   0.0 sec)
  promolecular density results
     # of electrons  =     99.987408123
     EX              =    -82.993356745
     EC              =     -3.384667521
     EX+EC           =    -86.378024266
Transforming the Hamiltonian                       ... done (   0.2 sec)
Diagonalizing the Hamiltonian                      ... done (   0.1 sec)
Back transforming the eigenvectors                 ... done (   0.1 sec)
Now organizing SCF variables                       ... done
                      ------------------
                      INITIAL GUESS DONE (   0.7 sec)
                      ------------------
-------------------
DFT GRID GENERATION
-------------------

General Integration Accuracy     IntAcc      ... 4.388
Radial Grid Type                 RadialGrid  ... OptM3 with GC (2021)
Angular Grid (max. ang.)         AngularGrid ... 4 (Lebedev-302)
Angular grid pruning method      GridPruning ... 4 (adaptive)
Weight generation scheme         WeightScheme... Becke
Basis function cutoff            BFCut       ... 1.0000e-11
Integration weight cutoff        WCut        ... 1.0000e-14
Angular grids for H and He will be reduced by one unit
Partially contracted basis set               ... off
Rotationally invariant grid construction     ... off

Total number of grid points                  ...   123036
Total number of batches                      ...     1937
Average number of points per batch           ...       63
Average number of grid points per atom       ...     4557
Time for grid setup =    0.976 sec

--------------------
COSX GRID GENERATION
--------------------

GRIDX 1
-------
General Integration Accuracy     IntAcc      ... 3.816
Radial Grid Type                 RadialGrid  ... OptM3 with GC (2021)
Angular Grid (max. ang.)         AngularGrid ... 1 (Lebedev-50)
Angular grid pruning method      GridPruning ... 4 (adaptive)
Weight generation scheme         WeightScheme... Becke
Basis function cutoff            BFCut       ... 1.0000e-11
Integration weight cutoff        WCut        ... 1.0000e-14
Angular grids for H and He will be reduced by one unit
Partially contracted basis set               ... on
Rotationally invariant grid construction     ... off

Total number of grid points                  ...    15677
Total number of batches                      ...      256
Average number of points per batch           ...       61
Average number of grid points per atom       ...      581
UseSFitting                                  ... on

GRIDX 2
-------
General Integration Accuracy     IntAcc      ... 4.020
Radial Grid Type                 RadialGrid  ... OptM3 with GC (2021)
Angular Grid (max. ang.)         AngularGrid ... 2 (Lebedev-110)
Angular grid pruning method      GridPruning ... 4 (adaptive)
Weight generation scheme         WeightScheme... Becke
Basis function cutoff            BFCut       ... 1.0000e-11
Integration weight cutoff        WCut        ... 1.0000e-14
Angular grids for H and He will be reduced by one unit
Partially contracted basis set               ... on
Rotationally invariant grid construction     ... off

Total number of grid points                  ...    33615
Total number of batches                      ...      541
Average number of points per batch           ...       62
Average number of grid points per atom       ...     1245
UseSFitting                                  ... on

GRIDX 3
-------
General Integration Accuracy     IntAcc      ... 4.338
Radial Grid Type                 RadialGrid  ... OptM3 with GC (2021)
Angular Grid (max. ang.)         AngularGrid ... 3 (Lebedev-194)
Angular grid pruning method      GridPruning ... 4 (adaptive)
Weight generation scheme         WeightScheme... Becke
Basis function cutoff            BFCut       ... 1.0000e-11
Integration weight cutoff        WCut        ... 1.0000e-14
Angular grids for H and He will be reduced by one unit
Partially contracted basis set               ... on
Rotationally invariant grid construction     ... off

Total number of grid points                  ...    73467
Total number of batches                      ...     1161
Average number of points per batch           ...       63
Average number of grid points per atom       ...     2721
UseSFitting                                  ... on

Time for X-Grid setup             =    1.308 sec


--------------------
CPCM SOLVATION MODEL
--------------------
CPCM parameters:
  Epsilon                                         ...      78.4000
  Refrac                                          ...       1.3300
  Rsolv                                           ...       1.3000
  Surface type                                    ... GAUSSIAN VDW
  Epsilon function type                           ...         CPCM
Radii:
 Radius for C  used is    3.8550 Bohr (=   2.0400 Ang.)
 Radius for H  used is    2.4944 Bohr (=   1.3200 Ang.)
 Radius for N  used is    3.5149 Bohr (=   1.8600 Ang.)
 Radius for O  used is    3.4469 Bohr (=   1.8240 Ang.)
Calculating surface                               ...        done! (  0.0s)
GEPOL surface points                              ...         1613
GEPOL Volume                                      ...    1653.7869
GEPOL Surface-area                                ...     961.0424
Calculating surface distance matrix               ...        done! (  0.2s)
Performing Cholesky decomposition & store         ...        done! (  0.5s)
Overall time for CPCM initialization              ...                 0.7s
--------------
SCF ITERATIONS
--------------
ITER       Energy         Delta-E        Max-DP      RMS-DP      [F,P]     Damp
               ***  Starting incremental Fock matrix formation  ***
  0   -647.8209194227   0.000000000000 0.08724150  0.00098770  0.3508299 0.7000
  1   -648.0454063544  -0.224486931713 0.06460010  0.00072889  0.1401576 0.7000
                               ***Turning on DIIS***
  2   -648.1268350870  -0.081428732591 0.05888939  0.00106286  0.0376726 0.0000
  3   -648.2630398028  -0.136204715840 0.06142618  0.00057208  0.0796958 0.0000
  4   -648.2897022050  -0.026662402186 0.01248887  0.00017310  0.0186891 0.0000
  5   -648.2913938292  -0.001691624223 0.00412752  0.00006799  0.0066596 0.0000
                      *** Initiating the SOSCF procedure ***
                           *** Shutting down DIIS ***
                      *** Re-Reading the Fockian *** 
                      *** Removing any level shift *** 
ITER      Energy       Delta-E        Grad      Rot      Max-DP    RMS-DP
  6   -648.29152819  -0.0001343590  0.000297  0.000297  0.001783  0.000031
               *** Restarting incremental Fock matrix formation ***
  7   -648.29155976  -0.0000315757  0.000241  0.000381  0.000692  0.000016
  8   -648.29155806   0.0000017075  0.000324  0.000274  0.000484  0.000009
  9   -648.29156205  -0.0000039892  0.000054  0.000102  0.000100  0.000002
 10   -648.29156198   0.0000000661  0.000082  0.000061  0.000059  0.000001
 11   -648.29156210  -0.0000001243  0.000006  0.000023  0.000034  0.000000
 12   -648.29156211  -0.0000000088  0.000015  0.000024  0.000016  0.000000
 13   -648.29156209   0.0000000229  0.000007  0.000018  0.000020  0.000000
 14   -648.29156208   0.0000000064  0.000010  0.000010  0.000008  0.000000
                  ***Gradient check signals convergence***
              ***Rediagonalizing the Fockian in SOSCF/NRSCF***

               *****************************************************
               *                     SUCCESS                       *
               *           SCF CONVERGED AFTER  15 CYCLES          *
               *****************************************************

Old exchange energy                            =    -16.850169241 Eh
New exchange energy                            =    -16.850182998 Eh
Exchange energy change after final integration =     -0.000013757 Eh
Total energy after final integration           =   -648.291575861 Eh
Final COS-X integration done in                =     1.522 sec

----------------
TOTAL SCF ENERGY
----------------

Total Energy       :         -648.29157586 Eh          -17640.91063 eV

Components:
Nuclear Repulsion  :          805.65531968 Eh           21922.99579 eV
Electronic Energy  :        -1453.94689554 Eh          -39563.90642 eV
One Electron Energy:        -2480.40150931 Eh          -67495.15646 eV
Two Electron Energy:         1026.45461377 Eh           27931.25004 eV
Max COSX asymmetry :            0.00000101 Eh               0.00003 eV
CPCM Dielectric    :           -0.02705156 Eh              -0.73611 eV

Virial components:
Potential Energy   :        -1293.85010869 Eh          -35207.45137 eV
Kinetic Energy     :          645.55853283 Eh           17566.54074 eV
Virial Ratio       :            2.00423361


DFT components:
N(Alpha)           :       50.000021380431 electrons
N(Beta)            :       50.000021380431 electrons
N(Total)           :      100.000042760862 electrons
E(X)               :      -67.049632993202 Eh       
E(C)               :       -3.999438341326 Eh       
E(XC)              :      -71.049071334528 Eh       
DFET-embed. en.    :        0.000000000000 Eh       
CPCM Solvation Model Properties:
Surface-charge          :           -0.02611645
Charge-correction       :           -0.00007282 Eh              -0.00198 eV
Free-energy (cav+disp)  :  This term is not implemented in the current solvation scheme

---------------
SCF CONVERGENCE
---------------

  Last Energy change         ...   -2.0696e-08  Tolerance :   1.0000e-08
  Last MAX-Density change    ...    1.5543e-15  Tolerance :   1.0000e-07
  Last RMS-Density change    ...    1.3614e-17  Tolerance :   5.0000e-09
  Last Orbital Gradient      ...    2.1385e-07  Tolerance :   1.0000e-05
  Last Orbital Rotation      ...    8.5739e-07  Tolerance :   1.0000e-05

             **** THE GBW FILE WAS UPDATED (/home/rudenko/mop_saddle_orca_4_serv/for_orca/ch32chno2_pyridine_new/orca/start_freq_H/start_f_H.gbw) ****
             **** DENSITY /home/rudenko/mop_saddle_orca_4_serv/for_orca/ch32chno2_pyridine_new/orca/start_freq_H/start_f_H.scfp WAS UPDATED ****
             **** ENERGY FILE WAS UPDATED (/home/rudenko/mop_saddle_orca_4_serv/for_orca/ch32chno2_pyridine_new/orca/start_freq_H/start_f_H.en.tmp) ****
             **** THE GBW FILE WAS UPDATED (/home/rudenko/mop_saddle_orca_4_serv/for_orca/ch32chno2_pyridine_new/orca/start_freq_H/start_f_H.gbw) ****
             **** DENSITY /home/rudenko/mop_saddle_orca_4_serv/for_orca/ch32chno2_pyridine_new/orca/start_freq_H/start_f_H.scfp WAS UPDATED ****
----------------
ORBITAL ENERGIES
----------------

  NO   OCC          E(Eh)            E(eV) 
   0   2.0000     -19.168940      -521.6134 
   1   2.0000     -19.168864      -521.6113 
   2   2.0000     -19.101370      -519.7747 
   3   2.0000     -14.549652      -395.9162 
   4   2.0000     -14.328409      -389.8958 
   5   2.0000     -10.230195      -278.3778 
   6   2.0000     -10.213207      -277.9155 
   7   2.0000     -10.213112      -277.9129 
   8   2.0000     -10.194164      -277.3973 
   9   2.0000     -10.184664      -277.1388 
  10   2.0000     -10.184620      -277.1376 
  11   2.0000     -10.170443      -276.7518 
  12   2.0000     -10.167288      -276.6660 
  13   2.0000      -1.238674       -33.7060 
  14   2.0000      -1.065286       -28.9879 
  15   2.0000      -0.984193       -26.7813 
  16   2.0000      -0.955518       -26.0010 
  17   2.0000      -0.841681       -22.9033 
  18   2.0000      -0.810727       -22.0610 
  19   2.0000      -0.770052       -20.9542 
  20   2.0000      -0.702233       -19.1087 
  21   2.0000      -0.697938       -18.9918 
  22   2.0000      -0.638306       -17.3692 
  23   2.0000      -0.633832       -17.2474 
  24   2.0000      -0.588926       -16.0255 
  25   2.0000      -0.545544       -14.8450 
  26   2.0000      -0.538553       -14.6548 
  27   2.0000      -0.535534       -14.5726 
  28   2.0000      -0.521962       -14.2033 
  29   2.0000      -0.504397       -13.7253 
  30   2.0000      -0.490213       -13.3394 
  31   2.0000      -0.471694       -12.8354 
  32   2.0000      -0.463515       -12.6129 
  33   2.0000      -0.435118       -11.8401 
  34   2.0000      -0.416472       -11.3328 
  35   2.0000      -0.412354       -11.2207 
  36   2.0000      -0.410988       -11.1836 
  37   2.0000      -0.409487       -11.1427 
  38   2.0000      -0.394773       -10.7423 
  39   2.0000      -0.375126       -10.2077 
  40   2.0000      -0.369877       -10.0649 
  41   2.0000      -0.364068        -9.9068 
  42   2.0000      -0.360128        -9.7996 
  43   2.0000      -0.329073        -8.9545 
  44   2.0000      -0.314158        -8.5487 
  45   2.0000      -0.307905        -8.3785 
  46   2.0000      -0.300819        -8.1857 
  47   2.0000      -0.297260        -8.0889 
  48   2.0000      -0.278501        -7.5784 
  49   2.0000      -0.273318        -7.4374 
  50   0.0000      -0.077991        -2.1222 
  51   0.0000      -0.042156        -1.1471 
  52   0.0000      -0.025495        -0.6937 
  53   0.0000       0.029274         0.7966 
  54   0.0000       0.060178         1.6375 
  55   0.0000       0.064792         1.7631 
  56   0.0000       0.078511         2.1364 
  57   0.0000       0.088066         2.3964 
  58   0.0000       0.093602         2.5470 
  59   0.0000       0.099639         2.7113 
  60   0.0000       0.104609         2.8465 
  61   0.0000       0.114204         3.1076 
  62   0.0000       0.117629         3.2009 
  63   0.0000       0.122671         3.3380 
  64   0.0000       0.127525         3.4701 
  65   0.0000       0.129424         3.5218 
  66   0.0000       0.138434         3.7670 
  67   0.0000       0.147958         4.0262 
  68   0.0000       0.159869         4.3503 
  69   0.0000       0.164189         4.4678 
  70   0.0000       0.173213         4.7134 
  71   0.0000       0.181065         4.9270 
  72   0.0000       0.193200         5.2572 
  73   0.0000       0.196694         5.3523 
  74   0.0000       0.208256         5.6669 
  75   0.0000       0.215325         5.8593 
  76   0.0000       0.226749         6.1701 
  77   0.0000       0.229759         6.2521 
  78   0.0000       0.235204         6.4002 
  79   0.0000       0.245513         6.6808 
  80   0.0000       0.247429         6.7329 
  81   0.0000       0.260250         7.0818 
  82   0.0000       0.268554         7.3077 
  83   0.0000       0.280256         7.6261 
  84   0.0000       0.280685         7.6378 
  85   0.0000       0.287696         7.8286 
  86   0.0000       0.301161         8.1950 
  87   0.0000       0.314982         8.5711 
  88   0.0000       0.321186         8.7399 
  89   0.0000       0.328488         8.9386 
  90   0.0000       0.329853         8.9758 
  91   0.0000       0.337556         9.1854 
  92   0.0000       0.340452         9.2642 
  93   0.0000       0.352366         9.5884 
  94   0.0000       0.366871         9.9831 
  95   0.0000       0.375502        10.2179 
  96   0.0000       0.384055        10.4507 
  97   0.0000       0.393902        10.7186 
  98   0.0000       0.396739        10.7958 
  99   0.0000       0.401935        10.9372 
 100   0.0000       0.409041        11.1306 
 101   0.0000       0.411449        11.1961 
 102   0.0000       0.415155        11.2969 
 103   0.0000       0.424574        11.5532 
 104   0.0000       0.433333        11.7916 
 105   0.0000       0.440159        11.9773 
 106   0.0000       0.440866        11.9966 
 107   0.0000       0.445872        12.1328 
 108   0.0000       0.452563        12.3149 
 109   0.0000       0.460663        12.5353 
 110   0.0000       0.466354        12.6901 
 111   0.0000       0.470740        12.8095 
 112   0.0000       0.472853        12.8670 
 113   0.0000       0.477997        13.0070 
 114   0.0000       0.483976        13.1697 
 115   0.0000       0.486279        13.2323 
 116   0.0000       0.492927        13.4132 
 117   0.0000       0.499889        13.6027 
 118   0.0000       0.505696        13.7607 
 119   0.0000       0.510836        13.9006 
 120   0.0000       0.525437        14.2979 
 121   0.0000       0.527875        14.3642 
 122   0.0000       0.535852        14.5813 
 123   0.0000       0.553252        15.0548 
 124   0.0000       0.565371        15.3845 
 125   0.0000       0.576949        15.6996 
 126   0.0000       0.581647        15.8274 
 127   0.0000       0.603249        16.4153 
 128   0.0000       0.610075        16.6010 
 129   0.0000       0.621015        16.8987 
 130   0.0000       0.626654        17.0521 
 131   0.0000       0.632446        17.2097 
 132   0.0000       0.648001        17.6330 
 133   0.0000       0.655903        17.8480 
 134   0.0000       0.660677        17.9779 
 135   0.0000       0.669775        18.2255 
 136   0.0000       0.681690        18.5497 
 137   0.0000       0.686707        18.6863 
 138   0.0000       0.688468        18.7342 
 139   0.0000       0.699458        19.0332 
 140   0.0000       0.735738        20.0205 
 141   0.0000       0.754387        20.5279 
 142   0.0000       0.761390        20.7185 
 143   0.0000       0.769820        20.9479 
 144   0.0000       0.792086        21.5538 
 145   0.0000       0.794976        21.6324 
 146   0.0000       0.799131        21.7455 
 147   0.0000       0.820675        22.3317 
 148   0.0000       0.841165        22.8893 
 149   0.0000       0.847729        23.0679 
 150   0.0000       0.863351        23.4930 
 151   0.0000       0.881280        23.9808 
 152   0.0000       0.891899        24.2698 
 153   0.0000       0.898164        24.4403 
 154   0.0000       0.908221        24.7140 
 155   0.0000       0.918414        24.9913 
 156   0.0000       0.929867        25.3030 
 157   0.0000       0.946154        25.7462 
 158   0.0000       0.971032        26.4231 
 159   0.0000       1.007940        27.4274 
 160   0.0000       1.010725        27.5032 
 161   0.0000       1.023705        27.8564 
 162   0.0000       1.036866        28.2146 
 163   0.0000       1.062977        28.9251 
 164   0.0000       1.070751        29.1366 
 165   0.0000       1.095626        29.8135 
 166   0.0000       1.102596        30.0032 
 167   0.0000       1.110718        30.2242 
 168   0.0000       1.119240        30.4561 
 169   0.0000       1.129112        30.7247 
 170   0.0000       1.136097        30.9148 
 171   0.0000       1.140307        31.0293 
 172   0.0000       1.156487        31.4696 
 173   0.0000       1.192378        32.4463 
 174   0.0000       1.195793        32.5392 
 175   0.0000       1.210478        32.9388 
 176   0.0000       1.219645        33.1882 
 177   0.0000       1.229514        33.4568 
 178   0.0000       1.236709        33.6526 
 179   0.0000       1.257233        34.2110 
 180   0.0000       1.260393        34.2970 
 181   0.0000       1.280217        34.8365 
 182   0.0000       1.289214        35.0813 
 183   0.0000       1.314478        35.7688 
 184   0.0000       1.320198        35.9244 
 185   0.0000       1.331647        36.2360 
 186   0.0000       1.344149        36.5762 
 187   0.0000       1.371737        37.3269 
 188   0.0000       1.382202        37.6116 
 189   0.0000       1.384077        37.6626 
 190   0.0000       1.418060        38.5874 
 191   0.0000       1.431797        38.9612 
 192   0.0000       1.452758        39.5316 
 193   0.0000       1.455627        39.6096 
 194   0.0000       1.461021        39.7564 
 195   0.0000       1.478712        40.2378 
 196   0.0000       1.485583        40.4248 
 197   0.0000       1.490427        40.5566 
 198   0.0000       1.503144        40.9026 
 199   0.0000       1.519397        41.3449 
 200   0.0000       1.530148        41.6374 
 201   0.0000       1.536051        41.7981 
 202   0.0000       1.546554        42.0839 
 203   0.0000       1.555974        42.3402 
 204   0.0000       1.582437        43.0603 
 205   0.0000       1.590656        43.2839 
 206   0.0000       1.603065        43.6216 
 207   0.0000       1.604774        43.6681 
 208   0.0000       1.617086        44.0031 
 209   0.0000       1.626139        44.2495 
 210   0.0000       1.632466        44.4216 
 211   0.0000       1.635935        44.5161 
 212   0.0000       1.653955        45.0064 
 213   0.0000       1.658196        45.1218 
 214   0.0000       1.673232        45.5310 
 215   0.0000       1.682165        45.7740 
 216   0.0000       1.701981        46.3132 
 217   0.0000       1.710744        46.5517 
 218   0.0000       1.718763        46.7699 
 219   0.0000       1.733174        47.1621 
 220   0.0000       1.737863        47.2897 
 221   0.0000       1.747179        47.5432 
 222   0.0000       1.760085        47.8943 
 223   0.0000       1.763271        47.9810 
 224   0.0000       1.772069        48.2205 
 225   0.0000       1.795289        48.8523 
 226   0.0000       1.802289        49.0428 
 227   0.0000       1.817344        49.4525 
 228   0.0000       1.829773        49.7906 
 229   0.0000       1.846790        50.2537 
 230   0.0000       1.896122        51.5961 
 231   0.0000       1.901969        51.7552 
 232   0.0000       1.921423        52.2846 
 233   0.0000       1.940153        52.7943 
 234   0.0000       1.951396        53.1002 
 235   0.0000       1.963848        53.4390 
 236   0.0000       1.980260        53.8856 
 237   0.0000       1.989649        54.1411 
 238   0.0000       1.994729        54.2793 
 239   0.0000       2.015653        54.8487 
 240   0.0000       2.041657        55.5563 
 241   0.0000       2.055918        55.9444 
 242   0.0000       2.072796        56.4036 
 243   0.0000       2.084627        56.7256 
 244   0.0000       2.090208        56.8775 
 245   0.0000       2.101391        57.1817 
 246   0.0000       2.127744        57.8989 
 247   0.0000       2.136008        58.1237 
 248   0.0000       2.137858        58.1741 
 249   0.0000       2.142758        58.3074 
 250   0.0000       2.164811        58.9075 
 251   0.0000       2.175828        59.2073 
 252   0.0000       2.184216        59.4355 
 253   0.0000       2.203350        59.9562 
 254   0.0000       2.211362        60.1742 
 255   0.0000       2.223531        60.5054 
 256   0.0000       2.242818        61.0302 
 257   0.0000       2.257621        61.4330 
 258   0.0000       2.268407        61.7265 
 259   0.0000       2.288542        62.2744 
 260   0.0000       2.298806        62.5537 
 261   0.0000       2.303518        62.6819 
 262   0.0000       2.317201        63.0542 
 263   0.0000       2.326643        63.3112 
 264   0.0000       2.343309        63.7647 
 265   0.0000       2.370197        64.4963 
 266   0.0000       2.378292        64.7166 
 267   0.0000       2.393048        65.1182 
 268   0.0000       2.401285        65.3423 
 269   0.0000       2.423018        65.9337 
 270   0.0000       2.436022        66.2875 
 271   0.0000       2.439930        66.3939 
 272   0.0000       2.452322        66.7311 
 273   0.0000       2.481811        67.5335 
 274   0.0000       2.510210        68.3063 
 275   0.0000       2.517477        68.5040 
 276   0.0000       2.523404        68.6653 
 277   0.0000       2.545634        69.2702 
 278   0.0000       2.547493        69.3208 
 279   0.0000       2.563500        69.7564 
 280   0.0000       2.576234        70.1029 
 281   0.0000       2.582964        70.2860 
 282   0.0000       2.596109        70.6437 
 283   0.0000       2.602157        70.8083 
 284   0.0000       2.607979        70.9667 
 285   0.0000       2.619293        71.2746 
 286   0.0000       2.628273        71.5189 
 287   0.0000       2.629453        71.5511 
 288   0.0000       2.648510        72.0696 
 289   0.0000       2.655358        72.2560 
 290   0.0000       2.664330        72.5001 
 291   0.0000       2.676322        72.8264 
 292   0.0000       2.677795        72.8665 
 293   0.0000       2.683640        73.0256 
 294   0.0000       2.695782        73.3560 
 295   0.0000       2.703954        73.5783 
 296   0.0000       2.711015        73.7705 
 297   0.0000       2.730672        74.3054 
 298   0.0000       2.732553        74.3566 
 299   0.0000       2.735821        74.4455 
 300   0.0000       2.742479        74.6266 
 301   0.0000       2.785219        75.7897 
 302   0.0000       2.792300        75.9823 
 303   0.0000       2.799923        76.1898 
 304   0.0000       2.810125        76.4674 
 305   0.0000       2.820227        76.7423 
 306   0.0000       2.822963        76.8167 
 307   0.0000       2.839070        77.2550 
 308   0.0000       2.850383        77.5629 
 309   0.0000       2.878052        78.3158 
 310   0.0000       2.885735        78.5248 
 311   0.0000       2.893362        78.7324 
 312   0.0000       2.906795        79.0979 
 313   0.0000       2.919938        79.4556 
 314   0.0000       2.939111        79.9773 
 315   0.0000       2.972341        80.8815 
 316   0.0000       2.975378        80.9642 
 317   0.0000       2.985969        81.2523 
 318   0.0000       3.018949        82.1498 
 319   0.0000       3.037309        82.6494 
 320   0.0000       3.056319        83.1667 
 321   0.0000       3.066059        83.4317 
 322   0.0000       3.081969        83.8646 
 323   0.0000       3.097813        84.2958 
 324   0.0000       3.105808        84.5133 
 325   0.0000       3.113315        84.7176 
 326   0.0000       3.121599        84.9430 
 327   0.0000       3.127688        85.1087 
 328   0.0000       3.132631        85.2432 
 329   0.0000       3.147687        85.6529 
 330   0.0000       3.156996        85.9062 
 331   0.0000       3.166553        86.1663 
 332   0.0000       3.175927        86.4214 
 333   0.0000       3.180919        86.5572 
 334   0.0000       3.196532        86.9821 
 335   0.0000       3.202148        87.1349 
 336   0.0000       3.221696        87.6668 
 337   0.0000       3.226871        87.8076 
 338   0.0000       3.239461        88.1502 
 339   0.0000       3.254178        88.5507 
 340   0.0000       3.258259        88.6617 
 341   0.0000       3.271524        89.0227 
 342   0.0000       3.287527        89.4582 
 343   0.0000       3.297481        89.7290 
 344   0.0000       3.326451        90.5173 
 345   0.0000       3.344271        91.0022 
 346   0.0000       3.353057        91.2413 
 347   0.0000       3.363647        91.5295 
 348   0.0000       3.380387        91.9850 
 349   0.0000       3.384497        92.0969 
 350   0.0000       3.388177        92.1970 
 351   0.0000       3.407187        92.7143 
 352   0.0000       3.420418        93.0743 
 353   0.0000       3.445367        93.7532 
 354   0.0000       3.466960        94.3408 
 355   0.0000       3.469174        94.4010 
 356   0.0000       3.474648        94.5500 
 357   0.0000       3.487764        94.9069 
 358   0.0000       3.518873        95.7534 
 359   0.0000       3.531194        96.0887 
 360   0.0000       3.538494        96.2873 
 361   0.0000       3.552866        96.6784 
 362   0.0000       3.567673        97.0813 
 363   0.0000       3.607176        98.1562 
 364   0.0000       3.623798        98.6086 
 365   0.0000       3.680444       100.1500 
 366   0.0000       3.725035       101.3634 
 367   0.0000       3.729724       101.4909 
 368   0.0000       3.753664       102.1424 
 369   0.0000       3.759687       102.3063 
 370   0.0000       3.769638       102.5771 
 371   0.0000       3.777362       102.7872 
 372   0.0000       3.839774       104.4856 
 373   0.0000       3.850856       104.7871 
 374   0.0000       3.891716       105.8990 
 375   0.0000       3.897397       106.0536 
 376   0.0000       3.907648       106.3325 
 377   0.0000       3.916537       106.5744 
 378   0.0000       3.967322       107.9563 
 379   0.0000       3.973291       108.1188 
 380   0.0000       3.994860       108.7057 
 381   0.0000       4.019967       109.3889 
 382   0.0000       4.034151       109.7748 
 383   0.0000       4.037029       109.8532 
 384   0.0000       4.039001       109.9068 
 385   0.0000       4.077686       110.9595 
 386   0.0000       4.087275       111.2204 
 387   0.0000       4.103597       111.6646 
 388   0.0000       4.106215       111.7358 
 389   0.0000       4.123021       112.1931 
 390   0.0000       4.137640       112.5909 
 391   0.0000       4.186781       113.9281 
 392   0.0000       4.246861       115.5630 
 393   0.0000       4.266182       116.0887 
 394   0.0000       4.287744       116.6754 
 395   0.0000       4.294925       116.8709 
 396   0.0000       4.324156       117.6663 
 397   0.0000       4.337212       118.0215 
 398   0.0000       4.356667       118.5509 
 399   0.0000       4.371735       118.9610 
 400   0.0000       4.381086       119.2154 
 401   0.0000       4.402076       119.7866 
 402   0.0000       4.412071       120.0586 
 403   0.0000       4.485689       122.0618 
 404   0.0000       4.511567       122.7660 
 405   0.0000       4.517661       122.9318 
 406   0.0000       4.534104       123.3792 
 407   0.0000       4.546220       123.7089 
 408   0.0000       4.595250       125.0431 
 409   0.0000       4.664629       126.9310 
 410   0.0000       4.705971       128.0560 
 411   0.0000       4.709708       128.1577 
 412   0.0000       4.718040       128.3844 
 413   0.0000       4.725419       128.5852 
 414   0.0000       4.769567       129.7865 
 415   0.0000       4.787972       130.2873 
 416   0.0000       4.807722       130.8248 
 417   0.0000       4.837276       131.6290 
 418   0.0000       4.858385       132.2034 
 419   0.0000       4.915731       133.7638 
 420   0.0000       4.926146       134.0472 
 421   0.0000       4.938387       134.3804 
 422   0.0000       4.945197       134.5657 
 423   0.0000       4.993436       135.8783 
 424   0.0000       5.058946       137.6609 
 425   0.0000       5.085349       138.3794 
 426   0.0000       5.101778       138.8264 
 427   0.0000       5.117368       139.2507 
 428   0.0000       5.121112       139.3525 
 429   0.0000       5.123395       139.4147 
 430   0.0000       5.131409       139.6327 
 431   0.0000       5.141318       139.9024 
 432   0.0000       5.195973       141.3896 
 433   0.0000       5.220125       142.0468 
 434   0.0000       5.249528       142.8469 
 435   0.0000       5.276516       143.5813 
 436   0.0000       5.288954       143.9198 
 437   0.0000       5.334363       145.1554 
 438   0.0000       5.388159       146.6193 
 439   0.0000       5.399652       146.9320 
 440   0.0000       5.404880       147.0743 
 441   0.0000       5.429745       147.7509 
 442   0.0000       5.465872       148.7339 
 443   0.0000       5.474309       148.9635 
 444   0.0000       5.569861       151.5636 
 445   0.0000       5.614539       152.7794 
 446   0.0000       5.627233       153.1248 
 447   0.0000       5.639419       153.4564 
 448   0.0000       5.696651       155.0138 
 449   0.0000       5.799703       157.8179 
 450   0.0000       5.941367       161.6728 
 451   0.0000       5.996245       163.1661 
 452   0.0000       6.101030       166.0175 
 453   0.0000       6.235227       169.6691 
 454   0.0000       6.298550       171.3923 
 455   0.0000       6.328738       172.2137 
 456   0.0000       6.337171       172.4432 
 457   0.0000       6.344977       172.6556 
 458   0.0000       6.352081       172.8489 
 459   0.0000       6.374077       173.4474 
 460   0.0000       6.388722       173.8460 
 461   0.0000       6.427887       174.9117 
 462   0.0000       6.454877       175.6461 
 463   0.0000       6.654491       181.0779 
 464   0.0000       6.845369       186.2720 
 465   0.0000       6.867184       186.8656 
 466   0.0000       6.925167       188.4434 
 467   0.0000       6.958507       189.3506 
 468   0.0000       7.088428       192.8859 
 469   0.0000       7.107650       193.4090 
 470   0.0000       7.252287       197.3448 
 471   0.0000       7.275113       197.9659 
 472   0.0000       7.353701       200.1044 
 473   0.0000       7.402139       201.4225 
 474   0.0000      22.257191       605.6490 
 475   0.0000      22.366399       608.6207 
 476   0.0000      22.385717       609.1463 
 477   0.0000      22.545421       613.4921 
 478   0.0000      22.557058       613.8088 
 479   0.0000      22.614431       615.3699 
 480   0.0000      22.764795       619.4616 
 481   0.0000      22.997570       625.7957 
 482   0.0000      32.426410       882.3675 
 483   0.0000      32.434589       882.5900 
 484   0.0000      43.522976      1184.3204 
 485   0.0000      43.964302      1196.3295 
 486   0.0000      43.984154      1196.8697 

                    ********************************
                    * MULLIKEN POPULATION ANALYSIS *
                    ********************************

-----------------------
MULLIKEN ATOMIC CHARGES
-----------------------
   0 C :   -0.380169
   1 H :    0.146352
   2 N :    0.438275
   3 O :   -0.355867
   4 O :   -0.353193
   5 H :    0.127838
   6 C :    0.054144
   7 H :    0.113770
   8 H :    0.140332
   9 C :   -0.363303
  10 H :    0.132339
  11 C :    0.001029
  12 C :   -0.132255
  13 C :   -0.106590
  14 C :   -0.130739
  15 C :   -0.007508
  16 N :   -0.335790
  17 H :    0.154182
  18 H :    0.161648
  19 H :    0.154270
  20 H :    0.136371
  21 H :    0.140102
  22 H :    0.152383
  23 H :    0.154393
  24 H :    0.343462
  25 H :    0.339771
  26 O :   -0.725246
Sum of atomic charges:   -0.0000000

--------------------------------
MULLIKEN REDUCED ORBITAL CHARGES
--------------------------------
  0 C s       :     3.303587  s :     3.303587
      pz      :     1.000964  p :     3.028664
      px      :     1.076256
      py      :     0.951443
      dz2     :     0.008001  d :     0.044194
      dxz     :     0.011083
      dyz     :     0.007794
      dx2y2   :     0.006874
      dxy     :     0.010441
      f0      :     0.000155  f :     0.003724
      f+1     :     0.000269
      f-1     :     0.000628
      f+2     :     0.001008
      f-2     :     0.000949
      f+3     :     0.000448
      f-3     :     0.000267
  1 H s       :     0.832059  s :     0.832059
      pz      :     0.010016  p :     0.021589
      px      :     0.007184
      py      :     0.004389
  2 N s       :     3.318981  s :     3.318981
      pz      :     1.079014  p :     2.993574
      px      :     0.867071
      py      :     1.047489
      dz2     :     0.019178  d :     0.234965
      dxz     :     0.060398
      dyz     :     0.022975
      dx2y2   :     0.065063
      dxy     :     0.067351
      f0      :     0.001109  f :     0.014206
      f+1     :     0.001897
      f-1     :     0.001057
      f+2     :     0.002202
      f-2     :     0.001646
      f+3     :     0.002382
      f-3     :     0.003912
  3 O s       :     3.886750  s :     3.886750
      pz      :     1.477526  p :     4.424554
      px      :     1.526518
      py      :     1.420510
      dz2     :     0.005688  d :     0.041294
      dxz     :     0.007576
      dyz     :     0.006468
      dx2y2   :     0.008634
      dxy     :     0.012927
      f0      :     0.000274  f :     0.003269
      f+1     :     0.000350
      f-1     :     0.000294
      f+2     :     0.000190
      f-2     :     0.000727
      f+3     :     0.000755
      f-3     :     0.000680
  4 O s       :     3.881096  s :     3.881096
      pz      :     1.532702  p :     4.427233
      px      :     1.163218
      py      :     1.731313
      dz2     :     0.005143  d :     0.041585
      dxz     :     0.011837
      dyz     :     0.000546
      dx2y2   :     0.014274
      dxy     :     0.009785
      f0      :     0.000312  f :     0.003278
      f+1     :     0.000559
      f-1     :     0.000035
      f+2     :     0.000620
      f-2     :     0.000061
      f+3     :     0.000930
      f-3     :     0.000760
  5 H s       :     0.850316  s :     0.850316
      pz      :     0.007255  p :     0.021846
      px      :     0.005684
      py      :     0.008908
  6 C s       :     3.177156  s :     3.177156
      pz      :     0.858476  p :     2.612792
      px      :     0.962052
      py      :     0.792264
      dz2     :     0.033085  d :     0.146165
      dxz     :     0.022751
      dyz     :     0.038516
      dx2y2   :     0.025978
      dxy     :     0.025835
      f0      :     0.001269  f :     0.009742
      f+1     :     0.000748
      f-1     :     0.001847
      f+2     :     0.001853
      f-2     :     0.002115
      f+3     :     0.001068
      f-3     :     0.000842
  7 H s       :     0.862991  s :     0.862991
      pz      :     0.004925  p :     0.023239
      px      :     0.013940
      py      :     0.004374
  8 H s       :     0.838291  s :     0.838291
      pz      :     0.005185  p :     0.021377
      px      :     0.011176
      py      :     0.005017
  9 C s       :     3.304039  s :     3.304039
      pz      :     0.941855  p :     3.010162
      px      :     1.003864
      py      :     1.064442
      dz2     :     0.009984  d :     0.045334
      dxz     :     0.005926
      dyz     :     0.014016
      dx2y2   :     0.008914
      dxy     :     0.006495
      f0      :     0.000603  f :     0.003768
      f+1     :     0.000543
      f-1     :     0.000276
      f+2     :     0.001078
      f-2     :     0.000872
      f+3     :     0.000168
      f-3     :     0.000227
 10 H s       :     0.846091  s :     0.846091
      pz      :     0.004706  p :     0.021569
      px      :     0.011741
      py      :     0.005123
 11 C s       :     3.176361  s :     3.176361
      pz      :     0.824356  p :     2.706450
      px      :     0.905312
      py      :     0.976782
      dz2     :     0.035350  d :     0.105418
      dxz     :     0.023754
      dyz     :     0.023783
      dx2y2   :     0.012784
      dxy     :     0.009746
      f0      :     0.002525  f :     0.010742
      f+1     :     0.001248
      f-1     :     0.002234
      f+2     :     0.001827
      f-2     :     0.001608
      f+3     :     0.000643
      f-3     :     0.000657
 12 C s       :     3.219849  s :     3.219849
      pz      :     0.953234  p :     2.828135
      px      :     0.952706
      py      :     0.922195
      dz2     :     0.013419  d :     0.077025
      dxz     :     0.009143
      dyz     :     0.030755
      dx2y2   :     0.009849
      dxy     :     0.013859
      f0      :     0.001422  f :     0.007246
      f+1     :     0.000822
      f-1     :     0.001345
      f+2     :     0.001358
      f-2     :     0.000379
      f+3     :     0.001128
      f-3     :     0.000793
 13 C s       :     3.213098  s :     3.213098
      pz      :     0.977283  p :     2.805088
      px      :     0.917260
      py      :     0.910545
      dz2     :     0.017308  d :     0.081115
      dxz     :     0.009387
      dyz     :     0.023988
      dx2y2   :     0.011988
      dxy     :     0.018445
      f0      :     0.001421  f :     0.007289
      f+1     :     0.000741
      f-1     :     0.001151
      f+2     :     0.001121
      f-2     :     0.000842
      f+3     :     0.001213
      f-3     :     0.000800
 14 C s       :     3.219567  s :     3.219567
      pz      :     0.889587  p :     2.826678
      px      :     0.951091
      py      :     0.985999
      dz2     :     0.026419  d :     0.077225
      dxz     :     0.016927
      dyz     :     0.016020
      dx2y2   :     0.010703
      dxy     :     0.007156
      f0      :     0.001689  f :     0.007270
      f+1     :     0.000982
      f-1     :     0.001223
      f+2     :     0.001110
      f-2     :     0.001031
      f+3     :     0.000581
      f-3     :     0.000654
 15 C s       :     3.181820  s :     3.181820
      pz      :     0.970465  p :     2.709712
      px      :     0.901398
      py      :     0.837850
      dz2     :     0.018041  d :     0.105221
      dxz     :     0.010949
      dyz     :     0.041751
      dx2y2   :     0.013762
      dxy     :     0.020718
      f0      :     0.001987  f :     0.010754
      f+1     :     0.000871
      f-1     :     0.001816
      f+2     :     0.001974
      f-2     :     0.000556
      f+3     :     0.001932
      f-3     :     0.001619
 16 N s       :     3.630590  s :     3.630590
      pz      :     1.383267  p :     3.639423
      px      :     1.184523
      py      :     1.071632
      dz2     :     0.013122  d :     0.062050
      dxz     :     0.008959
      dyz     :     0.016997
      dx2y2   :     0.009937
      dxy     :     0.013035
      f0      :     0.000575  f :     0.003728
      f+1     :     0.000271
      f-1     :     0.000561
      f+2     :     0.000658
      f-2     :     0.000458
      f+3     :     0.000676
      f-3     :     0.000527
 17 H s       :     0.823460  s :     0.823460
      pz      :     0.009990  p :     0.022359
      px      :     0.004555
      py      :     0.007814
 18 H s       :     0.816315  s :     0.816315
      pz      :     0.012200  p :     0.022037
      px      :     0.004799
      py      :     0.005038
 19 H s       :     0.823370  s :     0.823370
      pz      :     0.003577  p :     0.022360
      px      :     0.004888
      py      :     0.013895
 20 H s       :     0.841918  s :     0.841918
      pz      :     0.006019  p :     0.021711
      px      :     0.005942
      py      :     0.009750
 21 H s       :     0.838500  s :     0.838500
      pz      :     0.007448  p :     0.021398
      px      :     0.004349
      py      :     0.009601
 22 H s       :     0.825876  s :     0.825876
      pz      :     0.010877  p :     0.021741
      px      :     0.004210
      py      :     0.006654
 23 H s       :     0.823850  s :     0.823850
      pz      :     0.003357  p :     0.021757
      px      :     0.004621
      py      :     0.013779
 24 H s       :     0.610076  s :     0.610076
      pz      :     0.012953  p :     0.046462
      px      :     0.017108
      py      :     0.016401
 25 H s       :     0.603694  s :     0.603694
      pz      :     0.028101  p :     0.056535
      px      :     0.014692
      py      :     0.013742
 26 O s       :     3.786862  s :     3.786862
      pz      :     1.590124  p :     4.918918
      px      :     1.616555
      py      :     1.712239
      dz2     :     0.004726  d :     0.018276
      dxz     :     0.001245
      dyz     :     0.004484
      dx2y2   :     0.001201
      dxy     :     0.006620
      f0      :     0.000106  f :     0.001189
      f+1     :     0.000297
      f-1     :     0.000178
      f+2     :     0.000042
      f-2     :     0.000221
      f+3     :     0.000132
      f-3     :     0.000215


                     *******************************
                     * LOEWDIN POPULATION ANALYSIS *
                     *******************************

----------------------
LOEWDIN ATOMIC CHARGES
----------------------
   0 C :   -0.266007
   1 H :    0.129949
   2 N :   -0.032749
   3 O :   -0.055767
   4 O :   -0.049518
   5 H :    0.134048
   6 C :   -0.278534
   7 H :    0.155635
   8 H :    0.129601
   9 C :   -0.273645
  10 H :    0.127814
  11 C :   -0.195737
  12 C :   -0.136469
  13 C :   -0.104496
  14 C :   -0.137641
  15 C :   -0.200684
  16 N :    0.107168
  17 H :    0.155305
  18 H :    0.156235
  19 H :    0.155220
  20 H :    0.138184
  21 H :    0.130302
  22 H :    0.144790
  23 H :    0.145230
  24 H :    0.157851
  25 H :    0.134551
  26 O :   -0.370638

-------------------------------
LOEWDIN REDUCED ORBITAL CHARGES
-------------------------------
  0 C s       :     2.830752  s :     2.830752
      pz      :     1.051319  p :     3.158996
      px      :     1.078007
      py      :     1.029669
      dz2     :     0.039763  d :     0.250925
      dxz     :     0.058112
      dyz     :     0.059546
      dx2y2   :     0.046157
      dxy     :     0.047347
      f0      :     0.003301  f :     0.025334
      f+1     :     0.002387
      f-1     :     0.004606
      f+2     :     0.003492
      f-2     :     0.004670
      f+3     :     0.003915
      f-3     :     0.002963
  1 H s       :     0.807904  s :     0.807904
      pz      :     0.027421  p :     0.062147
      px      :     0.021091
      py      :     0.013635
  2 N s       :     2.952717  s :     2.952717
      pz      :     1.049218  p :     3.272394
      px      :     1.111797
      py      :     1.111379
      dz2     :     0.069878  d :     0.735693
      dxz     :     0.168835
      dyz     :     0.070638
      dx2y2   :     0.210996
      dxy     :     0.215346
      f0      :     0.004460  f :     0.071945
      f+1     :     0.010700
      f-1     :     0.003633
      f+2     :     0.010444
      f-2     :     0.008846
      f+3     :     0.012352
      f-3     :     0.021510
  3 O s       :     3.503276  s :     3.503276
      pz      :     1.443635  p :     4.442452
      px      :     1.552751
      py      :     1.446065
      dz2     :     0.012020  d :     0.099039
      dxz     :     0.016684
      dyz     :     0.016406
      dx2y2   :     0.020596
      dxy     :     0.033333
      f0      :     0.001060  f :     0.011000
      f+1     :     0.001024
      f-1     :     0.000923
      f+2     :     0.000699
      f-2     :     0.002483
      f+3     :     0.002441
      f-3     :     0.002371
  4 O s       :     3.498202  s :     3.498202
      pz      :     1.476496  p :     4.440760
      px      :     1.326401
      py      :     1.637864
      dz2     :     0.012477  d :     0.099480
      dxz     :     0.025407
      dyz     :     0.001107
      dx2y2   :     0.037447
      dxy     :     0.023042
      f0      :     0.001061  f :     0.011076
      f+1     :     0.001925
      f-1     :     0.000137
      f+2     :     0.001931
      f-2     :     0.000224
      f+3     :     0.003231
      f-3     :     0.002567
  5 H s       :     0.804089  s :     0.804089
      pz      :     0.019162  p :     0.061863
      px      :     0.017492
      py      :     0.025209
  6 C s       :     2.767565  s :     2.767565
      pz      :     0.985823  p :     2.911321
      px      :     1.014286
      py      :     0.911212
      dz2     :     0.103932  d :     0.538429
      dxz     :     0.095520
      dyz     :     0.144937
      dx2y2   :     0.105397
      dxy     :     0.088642
      f0      :     0.010196  f :     0.061220
      f+1     :     0.004973
      f-1     :     0.011471
      f+2     :     0.007995
      f-2     :     0.012343
      f+3     :     0.007821
      f-3     :     0.006420
  7 H s       :     0.782954  s :     0.782954
      pz      :     0.013832  p :     0.061411
      px      :     0.035472
      py      :     0.012108
  8 H s       :     0.808476  s :     0.808476
      pz      :     0.014777  p :     0.061923
      px      :     0.032680
      py      :     0.014466
  9 C s       :     2.830196  s :     2.830196
      pz      :     1.031973  p :     3.166437
      px      :     1.062265
      py      :     1.072199
      dz2     :     0.044406  d :     0.251439
      dxz     :     0.050989
      dyz     :     0.073908
      dx2y2   :     0.047474
      dxy     :     0.034662
      f0      :     0.006142  f :     0.025573
      f+1     :     0.004451
      f-1     :     0.001887
      f+2     :     0.003986
      f-2     :     0.004355
      f+3     :     0.002267
      f-3     :     0.002485
 10 H s       :     0.810011  s :     0.810011
      pz      :     0.014489  p :     0.062175
      px      :     0.032242
      py      :     0.015444
 11 C s       :     2.780010  s :     2.780010
      pz      :     1.027041  p :     2.867317
      px      :     0.863825
      py      :     0.976451
      dz2     :     0.184550  d :     0.486578
      dxz     :     0.089761
      dyz     :     0.123598
      dx2y2   :     0.059166
      dxy     :     0.029502
[...]
     66      -0.000014   0.000301  -0.075884   0.022370  -0.012627  -0.010861
     67      -0.000386   0.003690  -0.523206   0.155320  -0.085504  -0.067551
     68       0.000572  -0.005352   0.761132  -0.225168   0.125112   0.102746
     69       0.000179  -0.003908   0.063303   0.190312  -0.039566   0.030275
     70      -0.000804   0.017335  -0.291726  -0.876942   0.182191  -0.137462
     71      -0.000118   0.002818  -0.046927  -0.139779   0.029444  -0.024669
     72      -0.000250  -0.001123   0.001392  -0.002715   0.001282  -0.000137
     73       0.000035  -0.000383   0.000707  -0.001347   0.000670  -0.000039
     74      -0.000325   0.000495  -0.001252   0.002346  -0.001054   0.000123
     75      -0.000111   0.006870  -0.010764   0.021703  -0.009383   0.001119
     76      -0.000262  -0.004432   0.010003  -0.018782   0.008208  -0.000775
     77      -0.000707  -0.012583   0.024717  -0.050424   0.021725  -0.002659
     78       0.000006  -0.000273   0.000618  -0.001266   0.000536  -0.000073
     79      -0.000005   0.000399  -0.000670   0.001354  -0.000596   0.000073
     80       0.000048   0.000916  -0.001569   0.003199  -0.001374   0.000168
                 78         79         80    
      0      -0.000039   0.000110   0.000008
      1      -0.000059  -0.000150  -0.000016
      2      -0.000024  -0.000155  -0.000013
      3       0.000208  -0.000702  -0.000004
      4      -0.000083   0.000409   0.000004
      5      -0.000252   0.001466  -0.000040
      6      -0.000012  -0.000027   0.000002
      7       0.000011   0.000038  -0.000007
      8       0.000004   0.000022  -0.000007
      9       0.000001  -0.000004  -0.000000
     10      -0.000007  -0.000016  -0.000002
     11      -0.000000  -0.000008  -0.000001
     12       0.000002  -0.000013   0.000001
     13       0.000000  -0.000017  -0.000001
     14      -0.000002  -0.000003   0.000001
     15       0.000035  -0.000323   0.000661
     16      -0.000016   0.000742  -0.000464
     17       0.000001   0.000407   0.000143
     18      -0.000057  -0.001189  -0.000039
     19       0.000015   0.000325   0.000018
     20      -0.000018  -0.000365   0.000001
     21       0.000833   0.016144   0.000121
     22      -0.000163  -0.003992  -0.000375
     23       0.000201   0.003529  -0.000133
     24       0.000080  -0.000717   0.000014
     25      -0.000003   0.000051  -0.000029
     26       0.000026  -0.000118   0.000003
     27       0.000014  -0.000159   0.000028
     28      -0.000002   0.000044   0.000023
     29       0.000002  -0.000151   0.000074
     30      -0.000191   0.001276  -0.000060
     31       0.000062  -0.000289  -0.000143
     32      -0.000060   0.000625  -0.000201
     33       0.002972   0.001148  -0.000018
     34      -0.011612  -0.006039   0.000175
     35      -0.004069  -0.000313  -0.000041
     36      -0.002367  -0.000105   0.000008
     37      -0.033354  -0.000827  -0.000013
     38       0.038928   0.000877   0.000021
     39      -0.011320  -0.000159   0.000001
     40       0.016312   0.000259  -0.000001
     41       0.040030   0.000601  -0.000001
     42      -0.010357  -0.000271   0.000001
     43       0.056331   0.001145   0.000022
     44       0.002921  -0.000022   0.000002
     45       0.001616   0.000288   0.000014
     46       0.005026   0.003843  -0.000148
     47      -0.011407  -0.004496   0.000050
     48      -0.000018   0.000618  -0.000143
     49      -0.000042  -0.000466   0.000013
     50       0.000013  -0.001023   0.000214
     51       0.029335   0.001791  -0.000034
     52       0.358887   0.011601  -0.000189
     53      -0.437518  -0.017758   0.000466
     54       0.122389   0.001885  -0.000135
     55      -0.178242  -0.002646   0.000160
     56      -0.432354  -0.006361   0.000378
     57       0.117266   0.004139  -0.000118
     58      -0.623238  -0.020094   0.000471
     59      -0.044330  -0.003597   0.000191
     60       0.000422   0.001015   0.000203
     61       0.000788   0.001087   0.000206
     62       0.000511   0.000957   0.000295
     63       0.000011  -0.000204  -0.000007
     64       0.000046  -0.000832   0.000234
     65      -0.000035   0.000611  -0.000084
     66      -0.010948  -0.003037  -0.000056
     67      -0.066877  -0.029215   0.000374
     68       0.102769   0.039508  -0.000326
     69      -0.027157  -0.010333   0.000015
     70       0.121086   0.050648  -0.000606
     71       0.022299   0.006560   0.000056
     72       0.001730  -0.055706  -0.721153
     73       0.000714  -0.029092  -0.626827
     74      -0.001628   0.044089   0.282035
     75      -0.015870   0.372898  -0.000442
     76       0.013949  -0.325445   0.040365
     77       0.036698  -0.859548   0.044459
     78       0.000947  -0.020921   0.045547
     79      -0.000977   0.023325   0.036926
     80      -0.002347   0.053657  -0.020868


-----------
IR SPECTRUM
-----------

 Mode   freq       eps      Int      T**2         TX        TY        TZ
       cm**-1   L/(mol*cm) km/mol    a.u.
----------------------------------------------------------------------------
  8:     31.57   0.000108    0.55  0.001069  (-0.005708 -0.021807 -0.023686)
  9:     35.63   0.000284    1.43  0.002485  ( 0.027225  0.025839 -0.032806)
 10:     40.09   0.001581    7.99  0.012305  ( 0.108591 -0.019427 -0.011648)
 11:     45.75   0.000187    0.95  0.001276  ( 0.010495 -0.004252  0.033878)
 12:     55.41   0.000204    1.03  0.001149  ( 0.022989 -0.021796  0.012064)
 13:     68.59   0.002276   11.50  0.010355  ( 0.091534 -0.038177  0.022783)
 14:     79.02   0.000477    2.41  0.001885  (-0.034399  0.006935 -0.025570)
 15:    174.83   0.004277   21.61  0.007634  (-0.070557  0.049719  0.013556)
 16:    191.04   0.025563  129.19  0.041757  ( 0.138766 -0.098560  0.113080)
 17:    234.05   0.008498   42.94  0.011330  (-0.065286  0.054794 -0.063761)
 18:    253.76   0.002200   11.12  0.002706  ( 0.014687 -0.033871  0.036647)
 19:    271.73   0.001524    7.70  0.001751  ( 0.040862 -0.008901 -0.001329)
 20:    306.64   0.000920    4.65  0.000936  (-0.008596  0.026094  0.013479)
 21:    346.15   0.000149    0.75  0.000135  (-0.002548 -0.003001 -0.010916)
 22:    391.96   0.000012    0.06  0.000010  ( 0.002131  0.000337 -0.002234)
 23:    412.11   0.003067   15.50  0.002322  ( 0.014071 -0.004323 -0.045887)
 24:    458.62   0.021227  107.27  0.014444  (-0.083295 -0.009105  0.086154)
 25:    525.17   0.002169   10.96  0.001289  (-0.000094  0.029064  0.021074)
 26:    629.53   0.002335   11.80  0.001158  ( 0.014957  0.021056  0.022146)
 27:    634.14   0.002728   13.79  0.001343  ( 0.014796 -0.012860 -0.030957)
 28:    667.68   0.000046    0.23  0.000022  ( 0.004522  0.000530  0.000908)
 29:    717.53   0.023945  121.01  0.010414  ( 0.098281  0.014004  0.023634)
 30:    748.57   0.026573  134.29  0.011078  ( 0.072121 -0.047863  0.059879)
 31:    752.01   0.000936    4.73  0.000388  ( 0.005794 -0.010050  0.015926)
 32:    774.85   0.002318   11.71  0.000934  ( 0.003704  0.026789 -0.014220)
 33:    864.77   0.005793   29.28  0.002091  ( 0.021480  0.032358  0.024128)
 34:    901.73   0.000006    0.03  0.000002  (-0.000170  0.001116 -0.000936)
 35:    905.59   0.001684    8.51  0.000580  ( 0.004022  0.022448  0.007750)
 36:    952.61   0.000780    3.94  0.000255  ( 0.006564  0.004447 -0.013878)
 37:    964.57   0.000034    0.17  0.000011  ( 0.003175  0.000120 -0.000983)
 38:    970.44   0.000018    0.09  0.000006  (-0.000706 -0.002287 -0.000124)
 39:   1013.63   0.000013    0.07  0.000004  (-0.000271 -0.001608  0.001148)
 40:   1026.26   0.004841   24.46  0.001472  ( 0.011302 -0.012981 -0.034289)
 41:   1033.64   0.000005    0.02  0.000001  (-0.001172  0.000046 -0.000084)
 42:   1055.09   0.003795   19.18  0.001123  (-0.008445  0.012367  0.029972)
 43:   1085.18   0.000065    0.33  0.000019  (-0.002055 -0.003781  0.000311)
 44:   1092.76   0.003544   17.91  0.001012  (-0.009644  0.011152  0.028192)
 45:   1119.54   0.008909   45.02  0.002483  ( 0.043040  0.020188  0.014944)
 46:   1150.05   0.002106   10.64  0.000571  ( 0.007850 -0.001505 -0.022528)
 47:   1169.29   0.001010    5.11  0.000270  (-0.001582  0.015041 -0.006392)
 48:   1198.80   0.002298   11.61  0.000598  (-0.021939  0.010188  0.003623)
 49:   1233.69   0.002145   10.84  0.000543  (-0.007364  0.008853  0.020248)
 50:   1286.93   0.000250    1.26  0.000061  ( 0.000879 -0.007552  0.001702)
 51:   1336.05   0.012138   61.34  0.002835  (-0.050767  0.015913  0.002143)
 52:   1358.47   0.005276   26.66  0.001212  ( 0.020888 -0.022526 -0.016377)
 53:   1389.11   0.000283    1.43  0.000064  ( 0.001711 -0.007132  0.003128)
 54:   1391.60   0.007177   36.27  0.001609  ( 0.004918  0.026811  0.029434)
 55:   1399.32   0.003164   15.99  0.000706  (-0.016711 -0.020411  0.003124)
 56:   1436.69   0.022499  113.70  0.004887  (-0.006135  0.063187  0.029273)
 57:   1471.70   0.000765    3.87  0.000162  ( 0.003793  0.004670 -0.011227)
 58:   1472.65   0.000202    1.02  0.000043  ( 0.004197 -0.000663 -0.004980)
 59:   1475.97   0.011750   59.38  0.002484  (-0.004967  0.043992 -0.022898)
 60:   1480.36   0.003072   15.52  0.000648  (-0.021283  0.012945 -0.005197)
 61:   1492.31   0.006761   34.17  0.001414  ( 0.031068  0.013000  0.016720)
 62:   1517.61   0.000445    2.25  0.000092  ( 0.001988 -0.004206 -0.008359)
 63:   1562.32   0.119601  604.41  0.023889  ( 0.144874 -0.052165 -0.013415)
 64:   1615.19   0.001739    8.79  0.000336  ( 0.005407 -0.011335  0.013350)
 65:   1633.15   0.012924   65.31  0.002470  (-0.014498  0.017954  0.044011)
 66:   1640.41   0.022032  111.34  0.004191  ( 0.019059  0.054282  0.029690)
 67:   3046.31   0.003864   19.53  0.000396  ( 0.004864  0.009102 -0.017009)
 68:   3050.14   0.001347    6.81  0.000138  ( 0.006054 -0.007182 -0.007038)
 69:   3117.35   0.003146   15.90  0.000315  ( 0.008028 -0.014987  0.005083)
 70:   3119.01   0.005000   25.27  0.000500  (-0.020938 -0.007616  0.001972)
 71:   3123.65   0.001564    7.90  0.000156  ( 0.005035 -0.010783 -0.003828)
 72:   3125.42   0.002587   13.07  0.000258  ( 0.000508  0.003302  0.015721)
 73:   3150.51   0.002114   10.69  0.000209  ( 0.010744 -0.008099  0.005331)
 74:   3165.37   0.003538   17.88  0.000349  (-0.003118  0.017712 -0.005038)
 75:   3169.52   0.001263    6.38  0.000124  ( 0.002647  0.006522 -0.008649)
 76:   3183.99   0.000214    1.08  0.000021  ( 0.000372 -0.002494 -0.003818)
 77:   3198.80   0.003094   15.64  0.000302  (-0.001111  0.015480 -0.007810)
 78:   3203.73   0.002369   11.97  0.000231  (-0.005455  0.005575  0.013034)
 79:   3281.42   0.355866  1798.40  0.033843  ( 0.069259 -0.057096 -0.160581)
 80:   3816.09   0.014972   75.66  0.001224  (-0.024868 -0.011610  0.021705)

* The epsilon (eps) is given for a Dirac delta lineshape.
** The dipole moment derivative (T) already includes vibrational overlap.

The first frequency considered to be a vibration is 8
The total number of vibrations considered is 73


--------------------------
THERMOCHEMISTRY AT 298.15K
--------------------------

Temperature         ... 298.15 K
Pressure            ... 1.00 atm
Total Mass          ... 186.21 AMU

Throughout the following assumptions are being made:
  (1) The electronic state is orbitally nondegenerate
  (2) There are no thermally accessible electronically excited states
  (3) Hindered rotations indicated by low frequency modes are not
      treated as such but are treated as vibrations and this may
      cause some error
  (4) All equations used are the standard statistical mechanics
      equations for an ideal gas
  (5) All vibrations are strictly harmonic

freq.      31.57  E(vib)   ...       0.55 
freq.      35.63  E(vib)   ...       0.54 
freq.      40.09  E(vib)   ...       0.54 
freq.      45.75  E(vib)   ...       0.53 
freq.      55.41  E(vib)   ...       0.52 
freq.      68.59  E(vib)   ...       0.50 
freq.      79.02  E(vib)   ...       0.49 
freq.     174.83  E(vib)   ...       0.38 
freq.     191.04  E(vib)   ...       0.36 
freq.     234.05  E(vib)   ...       0.32 
freq.     253.76  E(vib)   ...       0.30 
freq.     271.73  E(vib)   ...       0.29 
freq.     306.64  E(vib)   ...       0.26 
freq.     346.15  E(vib)   ...       0.23 
freq.     391.96  E(vib)   ...       0.20 
freq.     412.11  E(vib)   ...       0.19 
freq.     458.62  E(vib)   ...       0.16 
freq.     525.17  E(vib)   ...       0.13 
freq.     629.53  E(vib)   ...       0.09 
freq.     634.14  E(vib)   ...       0.09 
freq.     667.68  E(vib)   ...       0.08 
freq.     717.53  E(vib)   ...       0.07 
freq.     748.57  E(vib)   ...       0.06 
freq.     752.01  E(vib)   ...       0.06 
freq.     774.85  E(vib)   ...       0.05 
freq.     864.77  E(vib)   ...       0.04 
freq.     901.73  E(vib)   ...       0.03 
freq.     905.59  E(vib)   ...       0.03 
freq.     952.61  E(vib)   ...       0.03 
freq.     964.57  E(vib)   ...       0.03 
freq.     970.44  E(vib)   ...       0.03 
freq.    1013.63  E(vib)   ...       0.02 
freq.    1026.26  E(vib)   ...       0.02 
freq.    1033.64  E(vib)   ...       0.02 
freq.    1055.09  E(vib)   ...       0.02 
freq.    1085.18  E(vib)   ...       0.02 
freq.    1092.76  E(vib)   ...       0.02 
freq.    1119.54  E(vib)   ...       0.01 
freq.    1150.05  E(vib)   ...       0.01 
freq.    1169.29  E(vib)   ...       0.01 
freq.    1198.80  E(vib)   ...       0.01 
freq.    1233.69  E(vib)   ...       0.01 
freq.    1286.93  E(vib)   ...       0.01 
freq.    1336.05  E(vib)   ...       0.01 
freq.    1358.47  E(vib)   ...       0.01 
freq.    1389.11  E(vib)   ...       0.00 
freq.    1391.60  E(vib)   ...       0.00 
freq.    1399.32  E(vib)   ...       0.00 
freq.    1436.69  E(vib)   ...       0.00 
freq.    1471.70  E(vib)   ...       0.00 
freq.    1472.65  E(vib)   ...       0.00 
freq.    1475.97  E(vib)   ...       0.00 
freq.    1480.36  E(vib)   ...       0.00 
freq.    1492.31  E(vib)   ...       0.00 
freq.    1517.61  E(vib)   ...       0.00 
freq.    1562.32  E(vib)   ...       0.00 
freq.    1615.19  E(vib)   ...       0.00 
freq.    1633.15  E(vib)   ...       0.00 
freq.    1640.41  E(vib)   ...       0.00 
freq.    3046.31  E(vib)   ...       0.00 
freq.    3050.14  E(vib)   ...       0.00 
freq.    3117.35  E(vib)   ...       0.00 
freq.    3119.01  E(vib)   ...       0.00 
freq.    3123.65  E(vib)   ...       0.00 
freq.    3125.42  E(vib)   ...       0.00 
freq.    3150.51  E(vib)   ...       0.00 
freq.    3165.37  E(vib)   ...       0.00 
freq.    3169.52  E(vib)   ...       0.00 
freq.    3183.99  E(vib)   ...       0.00 
freq.    3198.80  E(vib)   ...       0.00 
freq.    3203.73  E(vib)   ...       0.00 
freq.    3281.42  E(vib)   ...       0.00 
freq.    3816.09  E(vib)   ...       0.00 

------------
INNER ENERGY
------------

The inner energy is: U= E(el) + E(ZPE) + E(vib) + E(rot) + E(trans)
    E(el)   - is the total energy from the electronic structure calculation
              = E(kin-el) + E(nuc-el) + E(el-el) + E(nuc-nuc)
    E(ZPE)  - the the zero temperature vibrational energy from the frequency calculation
    E(vib)  - the the finite temperature correction to E(ZPE) due to population
              of excited vibrational states
    E(rot)  - is the rotational thermal energy
    E(trans)- is the translational thermal energy

Summary of contributions to the inner energy U:
Electronic energy                ...   -648.33537513 Eh
Zero point energy                ...      0.21937662 Eh     137.66 kcal/mol
Thermal vibrational correction   ...      0.01178216 Eh       7.39 kcal/mol
Thermal rotational correction    ...      0.00141627 Eh       0.89 kcal/mol
Thermal translational correction ...      0.00141627 Eh       0.89 kcal/mol
-----------------------------------------------------------------------
Total thermal energy                   -648.10138381 Eh


Summary of corrections to the electronic energy:
(perhaps to be used in another calculation)
Total thermal correction                  0.01461470 Eh       9.17 kcal/mol
Non-thermal (ZPE) correction              0.21937662 Eh     137.66 kcal/mol
-----------------------------------------------------------------------
Total correction                          0.23399132 Eh     146.83 kcal/mol


--------
ENTHALPY
--------

The enthalpy is H = U + kB*T
                kB is Boltzmann's constant
Total free energy                 ...   -648.10138381 Eh 
Thermal Enthalpy correction       ...      0.00094421 Eh       0.59 kcal/mol
-----------------------------------------------------------------------
Total Enthalpy                    ...   -648.10043960 Eh


Note: Only C1 symmetry has been detected, increase convergence thresholds 
      if your molecule has a higher symmetry. Symmetry factor of 1.0 is   
      used for the rotational entropy correction. 
 

Note: Rotational entropy computed according to Herzberg 
Infrared and Raman Spectra, Chapter V,1, Van Nostrand Reinhold, 1945 
Point Group:  C1, Symmetry Number:   1  
Rotational constants in cm-1:     0.029896     0.016068     0.012871 

Vibrational entropy computed according to the QRRHO of S. Grimme
Chem.Eur.J. 2012 18 9955


-------
ENTROPY
-------

The entropy contributions are T*S = T*(S(el)+S(vib)+S(rot)+S(trans))
     S(el)   - electronic entropy
     S(vib)  - vibrational entropy
     S(rot)  - rotational entropy
     S(trans)- translational entropy
The entropies will be listed as multiplied by the temperature to get
units of energy

Electronic entropy                ...      0.00000000 Eh      0.00 kcal/mol
Vibrational entropy               ...      0.02145367 Eh     13.46 kcal/mol
Rotational entropy                ...      0.01517295 Eh      9.52 kcal/mol
Translational entropy             ...      0.01975175 Eh     12.39 kcal/mol
-----------------------------------------------------------------------
Final entropy term                ...      0.05637838 Eh     35.38 kcal/mol

In case the symmetry of your molecule has not been determined correctly
or in case you have a reason to use a different symmetry number we print 
out the resulting rotational entropy values for sn=1,12 :
 --------------------------------------------------------
|  sn= 1 | S(rot)=       0.01517295 Eh      9.52 kcal/mol|
|  sn= 2 | S(rot)=       0.01451849 Eh      9.11 kcal/mol|
|  sn= 3 | S(rot)=       0.01413566 Eh      8.87 kcal/mol|
|  sn= 4 | S(rot)=       0.01386404 Eh      8.70 kcal/mol|
|  sn= 5 | S(rot)=       0.01365335 Eh      8.57 kcal/mol|
|  sn= 6 | S(rot)=       0.01348120 Eh      8.46 kcal/mol|
|  sn= 7 | S(rot)=       0.01333566 Eh      8.37 kcal/mol|
|  sn= 8 | S(rot)=       0.01320958 Eh      8.29 kcal/mol|
|  sn= 9 | S(rot)=       0.01309837 Eh      8.22 kcal/mol|
|  sn=10 | S(rot)=       0.01299889 Eh      8.16 kcal/mol|
|  sn=11 | S(rot)=       0.01290890 Eh      8.10 kcal/mol|
|  sn=12 | S(rot)=       0.01282675 Eh      8.05 kcal/mol|
 --------------------------------------------------------


-------------------
GIBBS FREE ENERGY
-------------------

The Gibbs free energy is G = H - T*S

Total enthalpy                    ...   -648.10043960 Eh 
Total entropy correction          ...     -0.05637838 Eh    -35.38 kcal/mol
-----------------------------------------------------------------------
Final Gibbs free energy         ...   -648.15681798 Eh

For completeness - the Gibbs free energy minus the electronic energy
G-E(el)                           ...      0.17855715 Eh    112.05 kcal/mol



Timings for individual modules:

Sum of individual times         ...     1429.813 sec (=  23.830 min)
GTO integral calculation        ...        9.333 sec (=   0.156 min)   0.7 %
SCF iterations                  ...       86.269 sec (=   1.438 min)   6.0 %
SCF Gradient evaluation         ...       20.389 sec (=   0.340 min)   1.4 %
Numerical frequency calculation ...     1313.821 sec (=  21.897 min)  91.9 %
                             ****ORCA TERMINATED NORMALLY****
TOTAL RUN TIME: 0 days 0 hours 22 minutes 55 seconds 292 msec
