
                                 *****************
                                 * O   R   C   A *
                                 *****************

                                            #,                                       
                                            ###                                      
                                            ####                                     
                                            #####                                    
                                            ######                                   
                                           ########,                                 
                                     ,,################,,,,,                         
                               ,,#################################,,                 
                          ,,##########################################,,             
                       ,#########################################, ''#####,          
                    ,#############################################,,   '####,        
                  ,##################################################,,,,####,       
                ,###########''''           ''''###############################       
              ,#####''   ,,,,##########,,,,          '''####'''          '####       
            ,##' ,,,,###########################,,,                        '##       
           ' ,,###''''                  '''############,,,                           
         ,,##''                                '''############,,,,        ,,,,,,###''
      ,#''                                            '''#######################'''  
     '                                                          ''''####''''         
             ,#######,   #######,   ,#######,      ##                                
            ,#'     '#,  ##    ##  ,#'     '#,    #''#        ######   ,####,        
            ##       ##  ##   ,#'  ##            #'  '#       #        #'  '#        
            ##       ##  #######   ##           ,######,      #####,   #    #        
            '#,     ,#'  ##    ##  '#,     ,#' ,#      #,         ##   #,  ,#        
             '#######'   ##     ##  '#######'  #'      '#     #####' # '####'        



                  #######################################################
                  #                        -***-                        #
                  #          Department of theory and spectroscopy      #
                  #    Directorship and core code : Frank Neese         #
                  #        Max Planck Institute fuer Kohlenforschung    #
                  #                Kaiser Wilhelm Platz 1               #
                  #                 D-45470 Muelheim/Ruhr               #
                  #                      Germany                        #
                  #                                                     #
                  #                  All rights reserved                #
                  #                        -***-                        #
                  #######################################################


                         Program Version 5.0.4 -  RELEASE  -


 With contributions from (in alphabetic order):
   Daniel Aravena         : Magnetic Suceptibility
   Michael Atanasov       : Ab Initio Ligand Field Theory (pilot matlab implementation)
   Alexander A. Auer      : GIAO ZORA, VPT2 properties, NMR spectrum
   Ute Becker             : Parallelization
   Giovanni Bistoni       : ED, misc. LED, open-shell LED, HFLD
   Martin Brehm           : Molecular dynamics
   Dmytro Bykov           : SCF Hessian
   Vijay G. Chilkuri      : MRCI spin determinant printing, contributions to CSF-ICE
   Dipayan Datta          : RHF DLPNO-CCSD density
   Achintya Kumar Dutta   : EOM-CC, STEOM-CC
   Dmitry Ganyushin       : Spin-Orbit,Spin-Spin,Magnetic field MRCI
   Miquel Garcia          : C-PCM and meta-GGA Hessian, CC/C-PCM, Gaussian charge scheme
   Yang Guo               : DLPNO-NEVPT2, F12-NEVPT2, CIM, IAO-localization
   Andreas Hansen         : Spin unrestricted coupled pair/coupled cluster methods
   Benjamin Helmich-Paris : MC-RPA, TRAH-SCF, COSX integrals
   Lee Huntington         : MR-EOM, pCC
   Robert Izsak           : Overlap fitted RIJCOSX, COSX-SCS-MP3, EOM
   Marcus Kettner         : VPT2
   Christian Kollmar      : KDIIS, OOCD, Brueckner-CCSD(T), CCSD density, CASPT2, CASPT2-K
   Simone Kossmann        : Meta GGA functionals, TD-DFT gradient, OOMP2, MP2 Hessian
   Martin Krupicka        : Initial AUTO-CI
   Lucas Lang             : DCDCAS
   Marvin Lechner         : AUTO-CI (C++ implementation), FIC-MRCC
   Dagmar Lenk            : GEPOL surface, SMD
   Dimitrios Liakos       : Extrapolation schemes; Compound Job, initial MDCI parallelization
   Dimitrios Manganas     : Further ROCIS development; embedding schemes
   Dimitrios Pantazis     : SARC Basis sets
   Anastasios Papadopoulos: AUTO-CI, single reference methods and gradients
   Taras Petrenko         : DFT Hessian,TD-DFT gradient, ASA, ECA, R-Raman, ABS, FL, XAS/XES, NRVS
   Peter Pinski           : DLPNO-MP2, DLPNO-MP2 Gradient
   Christoph Reimann      : Effective Core Potentials
   Marius Retegan         : Local ZFS, SOC
   Christoph Riplinger    : Optimizer, TS searches, QM/MM, DLPNO-CCSD(T), (RO)-DLPNO pert. Triples
   Tobias Risthaus        : Range-separated hybrids, TD-DFT gradient, RPA, STAB
   Michael Roemelt        : Original ROCIS implementation
   Masaaki Saitow         : Open-shell DLPNO-CCSD energy and density
   Barbara Sandhoefer     : DKH picture change effects
   Avijit Sen             : IP-ROCIS
   Kantharuban Sivalingam : CASSCF convergence, NEVPT2, FIC-MRCI
   Bernardo de Souza      : ESD, SOC TD-DFT
   Georgi Stoychev        : AutoAux, RI-MP2 NMR, DLPNO-MP2 response
   Willem Van den Heuvel  : Paramagnetic NMR
   Boris Wezisla          : Elementary symmetry handling
   Frank Wennmohs         : Technical directorship


 We gratefully acknowledge several colleagues who have allowed us to
 interface, adapt or use parts of their codes:
   Stefan Grimme, W. Hujo, H. Kruse, P. Pracht,  : VdW corrections, initial TS optimization,
                  C. Bannwarth, S. Ehlert          DFT functionals, gCP, sTDA/sTD-DF
   Ed Valeev, F. Pavosevic, A. Kumar             : LibInt (2-el integral package), F12 methods
   Garnet Chan, S. Sharma, J. Yang, R. Olivares  : DMRG
   Ulf Ekstrom                                   : XCFun DFT Library
   Mihaly Kallay                                 : mrcc  (arbitrary order and MRCC methods)
   Jiri Pittner, Ondrej Demel                    : Mk-CCSD
   Frank Weinhold                                : gennbo (NPA and NBO analysis)
   Christopher J. Cramer and Donald G. Truhlar   : smd solvation model
   Lars Goerigk                                  : TD-DFT with DH, B97 family of functionals
   V. Asgeirsson, H. Jonsson                     : NEB implementation
   FAccTs GmbH                                   : IRC, NEB, NEB-TS, DLPNO-Multilevel, CI-OPT
                                                   MM, QMMM, 2- and 3-layer-ONIOM, Crystal-QMMM,
                                                   LR-CPCM, SF, NACMEs, symmetry and pop. for TD-DFT,
                                                   nearIR, NL-DFT gradient (VV10), updates on ESD,
                                                   ML-optimized integration grids
   S Lehtola, MJT Oliveira, MAL Marques          : LibXC Library
   Liviu Ungur et al                             : ANISO software


 Your calculation uses the libint2 library for the computation of 2-el integrals
 For citations please refer to: http://libint.valeyev.net

 Your ORCA version has been built with support for libXC version: 5.1.0
 For citations please refer to: https://tddft.org/programs/libxc/

 This ORCA versions uses:
   CBLAS   interface :  Fast vector & matrix operations
   LAPACKE interface :  Fast linear algebra routines
   SCALAPACK package :  Parallel linear algebra routines
   Shared memory     :  Shared parallel matrices
   BLAS/LAPACK       :  OpenBLAS 0.3.15  USE64BITINT DYNAMIC_ARCH NO_AFFINITY Prescott SINGLE_THREADED
        Core in use  :  Prescott
   Copyright (c) 2011-2014, The OpenBLAS Project


Your calculation utilizes the atom-pairwise dispersion correction
with the Becke-Johnson damping scheme (D3BJ)
Cite in your paper:
S.Grimme, S.Ehrlich, L.Goerigk, J Comput Chem, (2011), 32, 1456–1465 
S.Grimme, J.Antony, S.Ehrlich and H.Krieg, J.Chem.Phys., 132, (2010), 154104 
   

================================================================================

----- Orbital basis set information -----
Your calculation utilizes the basis: def2-TZVP
   F. Weigend and R. Ahlrichs, Phys. Chem. Chem. Phys. 7, 3297 (2005).

----- AuxJ basis set information -----
Your calculation utilizes the auxiliary basis: def2/J
   F. Weigend, Phys. Chem. Chem. Phys. 8, 1057 (2006).

================================================================================
                                        WARNINGS
                       Please study these warnings very carefully!
================================================================================

WARNING: Gradients needed for Numerical Frequencies
  ===> : Setting RunTyp to EnGrad

INFO   : the flag for use of the SHARK integral package has been found!

================================================================================
                                       INPUT FILE
================================================================================
NAME = /home/rudenko/mop_saddle_orca_4_serv/for_orca/c6h5chno2ch3_piperazine/orca/freq_D/f_D.inp
|  1> !  NUMFREQ B3LYP def2-TZVP CPCM D3 
|  2> %pal nprocs 102 end
|  3> %cpcm epsilon 78.4 end 
|  4> *xyz 0 1 
|  5> C   -2.89239105548574 2.45349902017325 -1.24941269682049
|  6> C   -1.88653673625055 1.49344312772319 -1.19081148486341
|  7> C   -2.2106152546702 0.14632520380399 -1.02666580045006
|  8> C   -3.55071816985355 -0.2252392814536 -0.91140869178796
|  9> C   -4.55317377993506 0.73474883050097 -0.97189342539296
| 10> C   -4.22674830898565 2.07685719654165 -1.14360827553367
| 11> H   -2.63164369162943 3.495758389769 -1.38099001600746
| 12> H   -0.84959121926443 1.80091901220157 -1.26354707201041
| 13> H   -3.81703635057807 -1.2665542985691 -0.78851005772408
| 14> H   -5.00901765682598 2.8237563401233 -1.19647445123631
| 15> C   -1.10121213274973 -0.88429120463826 -0.98975272211924
| 16> C   -1.10965568944883 -1.76403161022041 0.25346719424318
| 17> H   -0.37378620672677 -2.57440022369902 0.1538483549679
| 18> H   -2.10440845011762 -2.17201471980174 0.41070918707733
| 19> H   -0.81447459088122 -1.14164648421954 1.09078193234853
| 20> N   -1.23495210442454 -1.74828280817933 -2.24779724742613
| 21> O   -0.5388647423416 -1.45354383070275 -3.20496214945754
| 22> O   -2.0399738761596 -2.66389043083469 -2.24350588206541
| 23> N   1.94647091538211 0.28271342247948 0.58751667168113
| 24> C   2.43101907985937 -1.09394751628072 0.54963412620235
| 25> C   2.41143378382228 -1.68432310974046 1.94829104531284
| 26> N   3.23420481988052 -0.84875532731058 2.82907448935604
| 27> C   2.74466834534084 0.53298382363081 2.86283861116704
| 28> C   2.7690599468393 1.1162257519199 1.45337376274858
| 29> H   2.36819977919869 2.13155533942572 1.46652372818679
| 30> H   3.81710623691325 1.16881917181036 1.11433911535287
| 31> H   3.38674534394245 1.11838067798334 3.52335927948464
| 32> H   1.71382888588239 0.59476367727806 3.2462900113036
| 33> H   2.81899658793442 -2.69661713313033 1.92970563171574
| 34> H   1.36472553729353 -1.73985712546382 2.30013671267167
| 35> H   3.45734348207964 -1.16066040450147 0.15132613504871
| 36> H   -0.14276034083957 -0.38445242797413 -1.15361204395509 M = 2
| 37> H   1.86659815113853 0.63150657055322 -0.35962552516818
| 38> H   1.77802080362411 -1.66315670678529 -0.09743893073504
| 39> H   3.23488842275182 -1.23414185071469 3.76633094108981
| 40> H   2.04803491796464 1.33886212844569 -3.02886553688686
| 41> H   1.78856128777585 2.45750486554741 -2.0305676101152
| 42> O   1.49819883895762 1.56801327423421 -2.26919863011927
| 43> H   -5.59054480941323 0.43317067007478 -0.88889868008399
| 44> *
| 45> 
| 46>                          ****END OF INPUT****
================================================================================

                     *******************************
                     * Energy+Gradient Calculation *
                     *******************************

---------------------------------
CARTESIAN COORDINATES (ANGSTROEM)
---------------------------------
  C     -2.892391    2.453499   -1.249413
  C     -1.886537    1.493443   -1.190811
  C     -2.210615    0.146325   -1.026666
  C     -3.550718   -0.225239   -0.911409
  C     -4.553174    0.734749   -0.971893
  C     -4.226748    2.076857   -1.143608
  H     -2.631644    3.495758   -1.380990
  H     -0.849591    1.800919   -1.263547
  H     -3.817036   -1.266554   -0.788510
  H     -5.009018    2.823756   -1.196474
  C     -1.101212   -0.884291   -0.989753
  C     -1.109656   -1.764032    0.253467
  H     -0.373786   -2.574400    0.153848
  H     -2.104408   -2.172015    0.410709
  H     -0.814475   -1.141646    1.090782
  N     -1.234952   -1.748283   -2.247797
  O     -0.538865   -1.453544   -3.204962
  O     -2.039974   -2.663890   -2.243506
  N      1.946471    0.282713    0.587517
  C      2.431019   -1.093948    0.549634
  C      2.411434   -1.684323    1.948291
  N      3.234205   -0.848755    2.829074
  C      2.744668    0.532984    2.862839
  C      2.769060    1.116226    1.453374
  H      2.368200    2.131555    1.466524
  H      3.817106    1.168819    1.114339
  H      3.386745    1.118381    3.523359
  H      1.713829    0.594764    3.246290
  H      2.818997   -2.696617    1.929706
  H      1.364726   -1.739857    2.300137
  H      3.457343   -1.160660    0.151326
  H     -0.142760   -0.384452   -1.153612
  H      1.866598    0.631507   -0.359626
  H      1.778021   -1.663157   -0.097439
  H      3.234888   -1.234142    3.766331
  H      2.048035    1.338862   -3.028866
  H      1.788561    2.457505   -2.030568
  O      1.498199    1.568013   -2.269199
  H     -5.590545    0.433171   -0.888899

----------------------------
CARTESIAN COORDINATES (A.U.)
----------------------------
  NO LB      ZA    FRAG     MASS         X           Y           Z
   0 C     6.0000    0    12.011   -5.465827    4.636441   -2.361048
   1 C     6.0000    0    12.011   -3.565038    2.822199   -2.250308
   2 C     6.0000    0    12.011   -4.177457    0.276515   -1.940117
   3 C     6.0000    0    12.011   -6.709885   -0.425641   -1.722313
   4 C     6.0000    0    12.011   -8.604251    1.388474   -1.836612
   5 C     6.0000    0    12.011   -7.987397    3.924691   -2.161106
   6 H     1.0000    0     1.008   -4.973086    6.606026   -2.609693
   7 H     1.0000    0     1.008   -1.605495    3.403244   -2.387758
   8 H     1.0000    0     1.008   -7.213153   -2.393441   -1.490068
   9 H     1.0000    0     1.008   -9.465672    5.336126   -2.261009
  10 C     6.0000    0    12.011   -2.080989   -1.671068   -1.870362
  11 C     6.0000    0    12.011   -2.096945   -3.333537    0.478984
  12 H     1.0000    0     1.008   -0.706354   -4.864911    0.290731
  13 H     1.0000    0     1.008   -3.976756   -4.104513    0.776128
  14 H     1.0000    0     1.008   -1.539134   -2.157399    2.061279
  15 N     7.0000    0    14.007   -2.333721   -3.303776   -4.247721
  16 O     8.0000    0    15.999   -1.018307   -2.746800   -6.056501
  17 O     8.0000    0    15.999   -3.854992   -5.034023   -4.239612
  18 N     7.0000    0    14.007    3.678297    0.534251    1.110246
  19 C     6.0000    0    12.011    4.593960   -2.067261    1.038658
  20 C     6.0000    0    12.011    4.556949   -3.182909    3.681737
  21 N     7.0000    0    14.007    6.111761   -1.603915    5.346176
  22 C     6.0000    0    12.011    5.186672    1.007193    5.409981
  23 C     6.0000    0    12.011    5.232765    2.109361    2.746478
  24 H     1.0000    0     1.008    4.475249    4.028056    2.771328
  25 H     1.0000    0     1.008    7.213285    2.208748    2.105796
  26 H     1.0000    0     1.008    6.400021    2.113433    6.658184
  27 H     1.0000    0     1.008    3.238667    1.123940    6.134599
  28 H     1.0000    0     1.008    5.327132   -5.095868    3.646615
  29 H     1.0000    0     1.008    2.578958   -3.287853    4.346628
  30 H     1.0000    0     1.008    6.533432   -2.193330    0.285965
  31 H     1.0000    0     2.000   -0.269778   -0.726510   -2.180011
  32 H     1.0000    0     1.008    3.527359    1.193374   -0.679594
  33 H     1.0000    0     1.008    3.359972   -3.142911   -0.184133
  34 H     1.0000    0     1.008    6.113053   -2.332190    7.117334
  35 H     1.0000    0     1.008    3.870225    2.530083   -5.723726
  36 H     1.0000    0     1.008    3.379891    4.644011   -3.837217
  37 O     8.0000    0    15.999    2.831185    2.963116   -4.288164
  38 H     1.0000    0     1.008  -10.564599    0.818574   -1.679775

--------------------------------
INTERNAL COORDINATES (ANGSTROEM)
--------------------------------
 C      0   0   0     0.000000000000     0.00000000     0.00000000
 C      1   0   0     1.391719918013     0.00000000     0.00000000
 C      2   1   0     1.395240980174   120.20667271     0.00000000
 C      3   2   1     1.395428318146   119.33210517   359.48819047
 C      4   3   2     1.389299401957   120.35524529     0.59416492
 C      1   2   3     1.390526130226   120.23137727     0.05693681
 H      1   2   3     1.082407673750   119.68690496   180.24840025
 H      2   1   3     1.084014709481   119.52912752   180.61430649
 H      4   3   2     1.081834743623   120.13871482   179.70397641
 H      6   1   2     1.082865871559   120.17780896   180.44135258
 C      3   2   1     1.514697343904   119.31996436   178.94044755
 C     11   3   2     1.523026669269   114.13295700   124.86141014
 H     12  11   3     1.099147441634   110.37561496   172.12876063
 H     12  11   3     1.086604029475   109.88164911    50.09454713
 H     12  11   3     1.084246787714   107.29529657   289.71269823
 N     11   3   2     1.532006494329   107.44404699   247.27120948
 O     16  11   3     1.219661153836   117.27962383    96.57335190
 O     16  11   3     1.219186526930   118.57347457   277.95298038
 N     15  12  11     3.147204657305   112.03260815   305.05484598
 C     19  15  12     1.459937447721    82.44650401   297.31305716
 C     20  19  15     1.518278005686   109.78431157   288.12032032
 N     21  20  19     1.466596458509   108.93355246   302.36411970
 C     22  21  20     1.466284098349   111.30991273    58.62310175
 C     19  15  12     1.456401050588   131.25693220   185.16554804
 H     24  19  15     1.091675760863   109.39326333   279.91465576
 H     24  19  15     1.102774494667   112.41400139   159.99582972
 H     23  22  21     1.091439371882   108.84184687   180.30114131
 H     23  22  21     1.101581462153   111.91844715    60.95305188
 H     21  20  19     1.091417448406   109.88611358   182.75124265
 H     21  20  19     1.105657068848   108.95913596    64.36129477
 H     20  19  15     1.102924133322   112.03999214   167.19971008
 H     11   3   2     1.093306232227   109.10867025   357.34634874
 H     19  15  12     1.012479461354   103.66791687    45.18995355
 H     20  19  15     1.081253620727   108.14924779    47.91040513
 H     22  21  20     1.013396712078   109.82534957   180.32434977
 H     33  19  15     2.767329656148   170.12810616   235.37979234
 H     36  33  19     1.521606680003    62.86493127   227.89107035
 O     36  33  19     0.965361989428    42.63365263   186.52570731
 H      5   4   3     1.083501807749   119.68111329   179.52443621

---------------------------
INTERNAL COORDINATES (A.U.)
---------------------------
 C      0   0   0     0.000000000000     0.00000000     0.00000000
 C      1   0   0     2.629969500169     0.00000000     0.00000000
 C      2   1   0     2.636623343353   120.20667271     0.00000000
 C      3   2   1     2.636977360815   119.33210517   359.48819047
 C      4   3   2     2.625395387719   120.35524529     0.59416492
 C      1   2   3     2.627713568188   120.23137727     0.05693681
 H      1   2   3     2.045454068642   119.68690496   180.24840025
 H      2   1   3     2.048490926061   119.52912752   180.61430649
 H      4   3   2     2.044371387608   120.13871482   179.70397641
 H      6   1   2     2.046319937016   120.17780896   180.44135258
 C      3   2   1     2.862363155756   119.31996436   178.94044755
 C     11   3   2     2.878103299576   114.13295700   124.86141014
 H     12  11   3     2.077087645489   110.37561496   172.12876063
 H     12  11   3     2.053384031724   109.88164911    50.09454713
 H     12  11   3     2.048929490362   107.29529657   289.71269823
 N     11   3   2     2.895072709671   107.44404699   247.27120948
 O     16  11   3     2.304825556932   117.27962383    96.57335190
 O     16  11   3     2.303928642065   118.57347457   277.95298038
 N     15  12  11     5.947354889708   112.03260815   305.05484598
 C     19  15  12     2.758881948849    82.44650401   297.31305716
 C     20  19  15     2.869129625902   109.78431157   288.12032032
 N     21  20  19     2.771465655561   108.93355246   302.36411970
 C     22  21  20     2.770875380403   111.30991273    58.62310175
 C     19  15  12     2.752199126767   131.25693220   185.16554804
 H     24  19  15     2.062968215072   109.39326333   279.91465576
 H     24  19  15     2.083941782394   112.41400139   159.99582972
 H     23  22  21     2.062521504636   108.84184687   180.30114131
 H     23  22  21     2.081687277674   111.91844715    60.95305188
 H     21  20  19     2.062480075271   109.88611358   182.75124265
 H     21  20  19     2.089389058156   108.95913596    64.36129477
 H     20  19  15     2.084224558471   112.03999214   167.19971008
 H     11   3   2     2.066049359417   109.10867025   357.34634874
 H     19  15  12     1.913308898179   103.66791687    45.18995355
 H     20  19  15     2.043273224485   108.14924779    47.91040513
 H     22  21  20     1.915042250844   109.82534957   180.32434977
 H     33  19  15     5.229495172399   170.12810616   235.37979234
 H     36  33  19     2.875419908751    62.86493127   227.89107035
 O     36  33  19     1.824269780116    42.63365263   186.52570731
 H      5   4   3     2.047521682254   119.68111329   179.52443621

---------------------
BASIS SET INFORMATION
---------------------
There are 4 groups of distinct atoms

 Group   1 Type C   : 11s6p2d1f contracted to 5s3p2d1f pattern {62111/411/11/1}
 Group   2 Type H   : 5s1p contracted to 3s1p pattern {311/1}
 Group   3 Type N   : 11s6p2d1f contracted to 5s3p2d1f pattern {62111/411/11/1}
 Group   4 Type O   : 11s6p2d1f contracted to 5s3p2d1f pattern {62111/411/11/1}

Atom   0C    basis set group =>   1
Atom   1C    basis set group =>   1
Atom   2C    basis set group =>   1
Atom   3C    basis set group =>   1
Atom   4C    basis set group =>   1
Atom   5C    basis set group =>   1
Atom   6H    basis set group =>   2
Atom   7H    basis set group =>   2
Atom   8H    basis set group =>   2
Atom   9H    basis set group =>   2
Atom  10C    basis set group =>   1
Atom  11C    basis set group =>   1
Atom  12H    basis set group =>   2
Atom  13H    basis set group =>   2
Atom  14H    basis set group =>   2
Atom  15N    basis set group =>   3
Atom  16O    basis set group =>   4
Atom  17O    basis set group =>   4
Atom  18N    basis set group =>   3
Atom  19C    basis set group =>   1
Atom  20C    basis set group =>   1
Atom  21N    basis set group =>   3
Atom  22C    basis set group =>   1
Atom  23C    basis set group =>   1
Atom  24H    basis set group =>   2
Atom  25H    basis set group =>   2
Atom  26H    basis set group =>   2
Atom  27H    basis set group =>   2
Atom  28H    basis set group =>   2
Atom  29H    basis set group =>   2
Atom  30H    basis set group =>   2
Atom  31H    basis set group =>   2
Atom  32H    basis set group =>   2
Atom  33H    basis set group =>   2
Atom  34H    basis set group =>   2
Atom  35H    basis set group =>   2
Atom  36H    basis set group =>   2
Atom  37O    basis set group =>   4
Atom  38H    basis set group =>   2
---------------------------------
AUXILIARY/J BASIS SET INFORMATION
---------------------------------
There are 4 groups of distinct atoms

 Group   1 Type C   : 12s5p4d2f1g contracted to 6s4p3d1f1g pattern {711111/2111/211/2/1}
 Group   2 Type H   : 5s2p1d contracted to 3s1p1d pattern {311/2/1}
 Group   3 Type N   : 12s5p4d2f1g contracted to 6s4p3d1f1g pattern {711111/2111/211/2/1}
 Group   4 Type O   : 12s5p4d2f1g contracted to 6s4p3d1f1g pattern {711111/2111/211/2/1}

Atom   0C    basis set group =>   1
Atom   1C    basis set group =>   1
Atom   2C    basis set group =>   1
Atom   3C    basis set group =>   1
Atom   4C    basis set group =>   1
Atom   5C    basis set group =>   1
Atom   6H    basis set group =>   2
Atom   7H    basis set group =>   2
Atom   8H    basis set group =>   2
Atom   9H    basis set group =>   2
Atom  10C    basis set group =>   1
Atom  11C    basis set group =>   1
Atom  12H    basis set group =>   2
Atom  13H    basis set group =>   2
Atom  14H    basis set group =>   2
Atom  15N    basis set group =>   3
Atom  16O    basis set group =>   4
Atom  17O    basis set group =>   4
Atom  18N    basis set group =>   3
Atom  19C    basis set group =>   1
Atom  20C    basis set group =>   1
Atom  21N    basis set group =>   3
Atom  22C    basis set group =>   1
Atom  23C    basis set group =>   1
Atom  24H    basis set group =>   2
Atom  25H    basis set group =>   2
Atom  26H    basis set group =>   2
Atom  27H    basis set group =>   2
Atom  28H    basis set group =>   2
Atom  29H    basis set group =>   2
Atom  30H    basis set group =>   2
Atom  31H    basis set group =>   2
Atom  32H    basis set group =>   2
Atom  33H    basis set group =>   2
Atom  34H    basis set group =>   2
Atom  35H    basis set group =>   2
Atom  36H    basis set group =>   2
Atom  37O    basis set group =>   4
Atom  38H    basis set group =>   2


           ************************************************************
           *        Program running with 102 parallel MPI-processes   *
           *              working on a common directory               *
           ************************************************************
------------------------------------------------------------------------------
                           ORCA GTO INTEGRAL CALCULATION
                           -- RI-GTO INTEGRALS CHOSEN --
------------------------------------------------------------------------------
------------------------------------------------------------------------------
                   ___                                                        
                  /   \      - P O W E R E D   B Y -                         
                 /     \                                                     
                 |  |  |   _    _      __       _____    __    __             
                 |  |  |  | |  | |    /  \     |  _  \  |  |  /  |          
                  \  \/   | |  | |   /    \    | | | |  |  | /  /          
                 / \  \   | |__| |  /  /\  \   | |_| |  |  |/  /          
                |  |  |   |  __  | /  /__\  \  |    /   |      \           
                |  |  |   | |  | | |   __   |  |    \   |  |\   \          
                \     /   | |  | | |  |  |  |  | |\  \  |  | \   \       
                 \___/    |_|  |_| |__|  |__|  |_| \__\ |__|  \__/        
                                                                              
                      - O R C A' S   B I G   F R I E N D -                    
                                      &                                       
                       - I N T E G R A L  F E E D E R -                       
                                                                              
 v1 FN, 2020, v2 2021                                                         
------------------------------------------------------------------------------


Reading SHARK input file /home/rudenko/mop_saddle_orca_4_serv/for_orca/c6h5chno2ch3_piperazine/orca/freq_D/f_D.SHARKINP.tmp ... ok
----------------------
SHARK INTEGRAL PACKAGE
----------------------

Number of atoms                             ...     39
Number of basis functions                   ...    684
Number of shells                            ...    282
Maximum angular momentum                    ...      3
Integral batch strategy                     ... SHARK/LIBINT Hybrid
RI-J (if used) integral strategy            ... SPLIT-RIJ (Revised 2003 algorithm where possible)
Printlevel                                  ...      1
Contraction scheme used                     ... SEGMENTED contraction
Coulomb Range Separation                    ... NOT USED
Exchange Range Separation                   ... NOT USED
Finite Nucleus Model                        ... NOT USED
Auxiliary Coulomb fitting basis             ... AVAILABLE
   # of basis functions in Aux-J            ...   1113
   # of shells in Aux-J                     ...    375
   Maximum angular momentum in Aux-J        ...      4
Auxiliary J/K fitting basis                 ... NOT available
Auxiliary Correlation fitting basis         ... NOT available
Auxiliary 'external' fitting basis          ... NOT available
Integral threshold                          ...     2.500000e-11
Primitive cut-off                           ...     2.500000e-12
Primitive pair pre-selection threshold      ...     2.500000e-12

Calculating pre-screening integrals         ... done (  0.1 sec) Dimension = 282
Organizing shell pair data                  ... done (  0.7 sec)
Shell pair information
Total number of shell pairs                 ...     39903
Shell pairs after pre-screening             ...     28485
Total number of primitive shell pairs       ...    118800
Primitive shell pairs kept                  ...     57045
          la=0 lb=0:   8367 shell pairs
          la=1 lb=0:   8505 shell pairs
          la=1 lb=1:   2218 shell pairs
          la=2 lb=0:   3780 shell pairs
          la=2 lb=1:   1953 shell pairs
          la=2 lb=2:    453 shell pairs
          la=3 lb=0:   1783 shell pairs
          la=3 lb=1:    929 shell pairs
          la=3 lb=2:    397 shell pairs
          la=3 lb=3:    100 shell pairs

Calculating one electron integrals          ... done (  0.2 sec)
Calculating RI/J V-Matrix + Cholesky decomp.... done (  0.2 sec)
Calculating Nuclear repulsion               ... done (  0.0 sec) ENN=   1359.462221624319 Eh

SHARK setup successfully completed in   1.8 seconds

Maximum memory used throughout the entire GTOINT-calculation: 43.2 MB


           ************************************************************
           *        Program running with 102 parallel MPI-processes   *
           *              working on a common directory               *
           ************************************************************
-------------------------------------------------------------------------------
                                 ORCA SCF
-------------------------------------------------------------------------------

------------
SCF SETTINGS
------------
Hamiltonian:
 Density Functional     Method          .... DFT(GTOs)
 Exchange Functional    Exchange        .... B88
   X-Alpha parameter    XAlpha          ....  0.666667
   Becke's b parameter  XBeta           ....  0.004200
 Correlation Functional Correlation     .... LYP
 LDA part of GGA corr.  LDAOpt          .... VWN-5
 Gradients option       PostSCFGGA      .... off
 Hybrid DFT is turned on
   Fraction HF Exchange ScalHFX         ....  0.200000
   Scaling of DF-GGA-X  ScalDFX         ....  0.720000
   Scaling of DF-GGA-C  ScalDFC         ....  0.810000
   Scaling of DF-LDA-C  ScalLDAC        ....  1.000000
   Perturbative correction              ....  0.000000
   Density functional embedding theory  .... OFF
   NL short-range parameter             ....  4.800000
 RI-approximation to the Coulomb term is turned on
   Number of AuxJ basis functions       .... 1113
   RIJ-COSX (HFX calculated with COS-X)).... on


General Settings:
 Integral files         IntName         .... /home/rudenko/mop_saddle_orca_4_serv/for_orca/c6h5chno2ch3_piperazine/orca/freq_D/f_D
 Hartree-Fock type      HFTyp           .... RHF
 Total Charge           Charge          ....    0
 Multiplicity           Mult            ....    1
 Number of Electrons    NEL             ....  138
 Basis Dimension        Dim             ....  684
 Nuclear Repulsion      ENuc            ....   1359.4622216243 Eh

Convergence Acceleration:
 DIIS                   CNVDIIS         .... on
   Start iteration      DIISMaxIt       ....    12
   Startup error        DIISStart       ....  0.200000
   # of expansion vecs  DIISMaxEq       ....     5
   Bias factor          DIISBfac        ....   1.050
   Max. coefficient     DIISMaxC        ....  10.000
 Trust-Rad. Augm. Hess. CNVTRAH         .... auto
   Auto Start mean grad. ratio tolernc. ....  1.125000
   Auto Start start iteration           ....    20
   Auto Start num. interpolation iter.  ....    10
   Max. Number of Micro iterations      ....    16
   Max. Number of Macro iterations      .... Maxiter - #DIIS iter
   Number of Davidson start vectors     ....     2
   Converg. threshold I  (grad. norm)   ....   1.000e-05
   Converg. threshold II (energy diff.) ....   1.000e-08
   Grad. Scal. Fac. for Micro threshold ....   0.100
   Minimum threshold for Micro iter.    ....   0.010
   NR start threshold (gradient norm)   ....   0.001
   Initial trust radius                 ....   0.400
   Minimum AH scaling param. (alpha)    ....   1.000
   Maximum AH scaling param. (alpha)    .... 1000.000
   Orbital update algorithm             .... Taylor
   White noise on init. David. guess    .... on
   Maximum white noise                  ....   0.010
   Quad. conv. algorithm                .... NR
 SOSCF                  CNVSOSCF        .... on
   Start iteration      SOSCFMaxIt      ....   150
   Startup grad/error   SOSCFStart      ....  0.003300
 Level Shifting         CNVShift        .... on
   Level shift para.    LevelShift      ....    0.2500
   Turn off err/grad.   ShiftErr        ....    0.0010
 Zerner damping         CNVZerner       .... off
 Static damping         CNVDamp         .... on
   Fraction old density DampFac         ....    0.7000
   Max. Damping (<1)    DampMax         ....    0.9800
   Min. Damping (>=0)   DampMin         ....    0.0000
   Turn off err/grad.   DampErr         ....    0.1000
 Fernandez-Rico         CNVRico         .... off

SCF Procedure:
 Maximum # iterations   MaxIter         ....   125
 SCF integral mode      SCFMode         .... Direct
   Integral package                     .... SHARK and LIBINT hybrid scheme
 Reset frequency        DirectResetFreq ....    20
 Integral Threshold     Thresh          ....  2.500e-11 Eh
 Primitive CutOff       TCut            ....  2.500e-12 Eh

Convergence Tolerance:
 Convergence Check Mode ConvCheckMode   .... Total+1el-Energy
 Convergence forced     ConvForced      .... 0
 Energy Change          TolE            ....  1.000e-08 Eh
 1-El. energy change                    ....  1.000e-05 Eh
 Orbital Gradient       TolG            ....  1.000e-05
 Orbital Rotation angle TolX            ....  1.000e-05
 DIIS Error             TolErr          ....  5.000e-07


Diagonalization of the overlap matrix:
Smallest eigenvalue                        ... 7.508e-06
Time for diagonalization                   ...    0.303 sec
Threshold for overlap eigenvalues          ... 1.000e-08
Number of eigenvalues below threshold      ... 0
Time for construction of square roots      ...    0.405 sec
Total time needed                          ...    0.713 sec

Time for model grid setup =    0.324 sec

------------------------------
INITIAL GUESS: MODEL POTENTIAL
------------------------------
Loading Hartree-Fock densities                     ... done
Calculating cut-offs                               ... done
Initializing the effective Hamiltonian             ... done
Setting up the integral package (SHARK)            ... done
Starting the Coulomb interaction                   ... done (   0.1 sec)
Reading the grid                                   ... done
Mapping shells                                     ... done
Starting the XC term evaluation                    ... done (   0.1 sec)
  promolecular density results
     # of electrons  =    137.984144966
     EX              =   -112.272983408
     EC              =     -4.658894069
     EX+EC           =   -116.931877477
Transforming the Hamiltonian                       ... done (   0.4 sec)
Diagonalizing the Hamiltonian                      ... done (   0.2 sec)
Back transforming the eigenvectors                 ... done (   0.1 sec)
Now organizing SCF variables                       ... done
                      ------------------
                      INITIAL GUESS DONE (   1.4 sec)
                      ------------------
-------------------
DFT GRID GENERATION
-------------------

General Integration Accuracy     IntAcc      ... 4.388
Radial Grid Type                 RadialGrid  ... OptM3 with GC (2021)
Angular Grid (max. ang.)         AngularGrid ... 4 (Lebedev-302)
Angular grid pruning method      GridPruning ... 4 (adaptive)
Weight generation scheme         WeightScheme... Becke
Basis function cutoff            BFCut       ... 1.0000e-11
Integration weight cutoff        WCut        ... 1.0000e-14
Angular grids for H and He will be reduced by one unit
Partially contracted basis set               ... off
Rotationally invariant grid construction     ... off

Total number of grid points                  ...   174546
Total number of batches                      ...     2747
Average number of points per batch           ...       63
Average number of grid points per atom       ...     4476
Time for grid setup =    1.431 sec

--------------------
COSX GRID GENERATION
--------------------

GRIDX 1
-------
General Integration Accuracy     IntAcc      ... 3.816
Radial Grid Type                 RadialGrid  ... OptM3 with GC (2021)
Angular Grid (max. ang.)         AngularGrid ... 1 (Lebedev-50)
Angular grid pruning method      GridPruning ... 4 (adaptive)
Weight generation scheme         WeightScheme... Becke
Basis function cutoff            BFCut       ... 1.0000e-11
Integration weight cutoff        WCut        ... 1.0000e-14
Angular grids for H and He will be reduced by one unit
Partially contracted basis set               ... on
Rotationally invariant grid construction     ... off

Total number of grid points                  ...    22209
Total number of batches                      ...      365
Average number of points per batch           ...       60
Average number of grid points per atom       ...      569
UseSFitting                                  ... on

GRIDX 2
-------
General Integration Accuracy     IntAcc      ... 4.020
Radial Grid Type                 RadialGrid  ... OptM3 with GC (2021)
Angular Grid (max. ang.)         AngularGrid ... 2 (Lebedev-110)
Angular grid pruning method      GridPruning ... 4 (adaptive)
Weight generation scheme         WeightScheme... Becke
Basis function cutoff            BFCut       ... 1.0000e-11
Integration weight cutoff        WCut        ... 1.0000e-14
Angular grids for H and He will be reduced by one unit
Partially contracted basis set               ... on
Rotationally invariant grid construction     ... off

Total number of grid points                  ...    47202
Total number of batches                      ...      755
Average number of points per batch           ...       62
Average number of grid points per atom       ...     1210
UseSFitting                                  ... on

GRIDX 3
-------
General Integration Accuracy     IntAcc      ... 4.338
Radial Grid Type                 RadialGrid  ... OptM3 with GC (2021)
Angular Grid (max. ang.)         AngularGrid ... 3 (Lebedev-194)
Angular grid pruning method      GridPruning ... 4 (adaptive)
Weight generation scheme         WeightScheme... Becke
Basis function cutoff            BFCut       ... 1.0000e-11
Integration weight cutoff        WCut        ... 1.0000e-14
Angular grids for H and He will be reduced by one unit
Partially contracted basis set               ... on
Rotationally invariant grid construction     ... off

Total number of grid points                  ...   102808
Total number of batches                      ...     1627
Average number of points per batch           ...       63
Average number of grid points per atom       ...     2636
UseSFitting                                  ... on

Time for X-Grid setup             =    2.541 sec


--------------------
CPCM SOLVATION MODEL
--------------------
CPCM parameters:
  Epsilon                                         ...      78.4000
  Refrac                                          ...       1.3300
  Rsolv                                           ...       1.3000
  Surface type                                    ... GAUSSIAN VDW
  Epsilon function type                           ...         CPCM
Radii:
 Radius for C  used is    3.8550 Bohr (=   2.0400 Ang.)
 Radius for H  used is    2.4944 Bohr (=   1.3200 Ang.)
 Radius for N  used is    3.5149 Bohr (=   1.8600 Ang.)
 Radius for O  used is    3.4469 Bohr (=   1.8240 Ang.)
Calculating surface                               ...        done! (  0.0s)
GEPOL surface points                              ...         2202
GEPOL Volume                                      ...    2199.3367
GEPOL Surface-area                                ...    1195.7806
Calculating surface distance matrix               ...        done! (  0.3s)
Performing Cholesky decomposition & store         ...        done! (  0.9s)
Overall time for CPCM initialization              ...                 1.2s
--------------
SCF ITERATIONS
--------------
ITER       Energy         Delta-E        Max-DP      RMS-DP      [F,P]     Damp
               ***  Starting incremental Fock matrix formation  ***
  0   -858.9585212454   0.000000000000 0.11884736  0.00115235  0.3256375 0.7000
  1   -859.2662170356  -0.307695790192 0.10510839  0.00092192  0.1293691 0.7000
                               ***Turning on DIIS***
  2   -859.3784227084  -0.112205672833 0.13941751  0.00126740  0.0369595 0.0000
  3   -859.5644199545  -0.185997246074 0.10000701  0.00081825  0.0753720 0.0000
  4   -859.6026001991  -0.038180244642 0.03396082  0.00024080  0.0167595 0.0000
  5   -859.6048386102  -0.002238411069 0.01068518  0.00008982  0.0072711 0.0000
                      *** Initiating the SOSCF procedure ***
                           *** Shutting down DIIS ***
                      *** Re-Reading the Fockian *** 
                      *** Removing any level shift *** 
ITER      Energy       Delta-E        Grad      Rot      Max-DP    RMS-DP
  6   -859.60503132  -0.0001927086  0.000227  0.000227  0.005153  0.000041
               *** Restarting incremental Fock matrix formation ***
  7   -859.60504266  -0.0000113448  0.000177  0.000371  0.010807  0.000094
  8   -859.60504175   0.0000009089  0.000231  0.000161  0.001625  0.000015
  9   -859.60504559  -0.0000038318  0.000036  0.000137  0.001175  0.000011
 10   -859.60504553   0.0000000599  0.000092  0.000130  0.000102  0.000001
 11   -859.60504562  -0.0000000912  0.000030  0.000067  0.000323  0.000003
 12   -859.60504562   0.0000000007  0.000033  0.000037  0.000128  0.000001
 13   -859.60504564  -0.0000000211  0.000006  0.000010  0.000203  0.000002
 14   -859.60504563   0.0000000129  0.000009  0.000006  0.000066  0.000001
                  ***Gradient check signals convergence***
              ***Rediagonalizing the Fockian in SOSCF/NRSCF***

               *****************************************************
               *                     SUCCESS                       *
               *           SCF CONVERGED AFTER  15 CYCLES          *
               *****************************************************

Old exchange energy                            =    -22.838107768 Eh
New exchange energy                            =    -22.838099335 Eh
Exchange energy change after final integration =      0.000008433 Eh
Total energy after final integration           =   -859.605037234 Eh
Final COS-X integration done in                =     3.324 sec

----------------
TOTAL SCF ENERGY
----------------

Total Energy       :         -859.60503723 Eh          -23391.04224 eV

Components:
Nuclear Repulsion  :         1359.46222162 Eh           36992.84773 eV
Electronic Energy  :        -2219.06725886 Eh          -60383.88997 eV
One Electron Energy:        -3870.21023557 Eh         -105313.77456 eV
Two Electron Energy:         1651.14297671 Eh           44929.88459 eV
Max COSX asymmetry :            0.00000126 Eh               0.00003 eV
CPCM Dielectric    :           -0.02914140 Eh              -0.79298 eV

Virial components:
Potential Energy   :        -1715.51568795 Eh          -46681.55511 eV
Kinetic Energy     :          855.91065072 Eh           23290.51287 eV
Virial Ratio       :            2.00431632


DFT components:
N(Alpha)           :       68.999920848194 electrons
N(Beta)            :       68.999920848194 electrons
N(Total)           :      137.999841696387 electrons
E(X)               :      -90.796977844384 Eh       
E(C)               :       -5.497921649241 Eh       
E(XC)              :      -96.294899493624 Eh       
DFET-embed. en.    :        0.000000000000 Eh       
CPCM Solvation Model Properties:
Surface-charge          :           -0.03485708
Charge-correction       :           -0.00004347 Eh              -0.00118 eV
Free-energy (cav+disp)  :  This term is not implemented in the current solvation scheme

---------------
SCF CONVERGENCE
---------------

  Last Energy change         ...   -4.1407e-08  Tolerance :   1.0000e-08
  Last MAX-Density change    ...    2.1094e-15  Tolerance :   1.0000e-07
  Last RMS-Density change    ...    1.3487e-17  Tolerance :   5.0000e-09
  Last Orbital Gradient      ...    4.9258e-07  Tolerance :   1.0000e-05
  Last Orbital Rotation      ...    2.0166e-06  Tolerance :   1.0000e-05

             **** THE GBW FILE WAS UPDATED (/home/rudenko/mop_saddle_orca_4_serv/for_orca/c6h5chno2ch3_piperazine/orca/freq_D/f_D.gbw) ****
             **** DENSITY /home/rudenko/mop_saddle_orca_4_serv/for_orca/c6h5chno2ch3_piperazine/orca/freq_D/f_D.scfp WAS UPDATED ****
             **** ENERGY FILE WAS UPDATED (/home/rudenko/mop_saddle_orca_4_serv/for_orca/c6h5chno2ch3_piperazine/orca/freq_D/f_D.en.tmp) ****
             **** THE GBW FILE WAS UPDATED (/home/rudenko/mop_saddle_orca_4_serv/for_orca/c6h5chno2ch3_piperazine/orca/freq_D/f_D.gbw) ****
             **** DENSITY /home/rudenko/mop_saddle_orca_4_serv/for_orca/c6h5chno2ch3_piperazine/orca/freq_D/f_D.scfp WAS UPDATED ****
----------------
ORBITAL ENERGIES
----------------

  NO   OCC          E(Eh)            E(eV) 
   0   2.0000     -19.170892      -521.6665 
   1   2.0000     -19.170667      -521.6604 
   2   2.0000     -19.129076      -520.5286 
   3   2.0000     -14.552027      -395.9808 
   4   2.0000     -14.292889      -388.9293 
   5   2.0000     -14.286605      -388.7583 
   6   2.0000     -10.236467      -278.5484 
   7   2.0000     -10.193654      -277.3834 
   8   2.0000     -10.180706      -277.0311 
   9   2.0000     -10.180393      -277.0226 
  10   2.0000     -10.180067      -277.0137 
  11   2.0000     -10.178460      -276.9700 
  12   2.0000     -10.177928      -276.9555 
  13   2.0000     -10.177885      -276.9543 
  14   2.0000     -10.176992      -276.9300 
  15   2.0000     -10.176475      -276.9160 
  16   2.0000     -10.175836      -276.8986 
  17   2.0000     -10.170355      -276.7494 
  18   2.0000      -1.241631       -33.7865 
  19   2.0000      -1.068509       -29.0756 
  20   2.0000      -1.013014       -27.5655 
  21   2.0000      -0.922755       -25.1094 
  22   2.0000      -0.875183       -23.8149 
  23   2.0000      -0.867460       -23.6048 
  24   2.0000      -0.830130       -22.5890 
  25   2.0000      -0.752423       -20.4745 
  26   2.0000      -0.752259       -20.4700 
  27   2.0000      -0.743582       -20.2339 
  28   2.0000      -0.701164       -19.0796 
  29   2.0000      -0.665281       -18.1032 
  30   2.0000      -0.626961       -17.0605 
  31   2.0000      -0.624058       -16.9815 
  32   2.0000      -0.612910       -16.6781 
  33   2.0000      -0.585923       -15.9438 
  34   2.0000      -0.550172       -14.9709 
  35   2.0000      -0.547229       -14.8909 
  36   2.0000      -0.540078       -14.6963 
  37   2.0000      -0.529665       -14.4129 
  38   2.0000      -0.529008       -14.3950 
  39   2.0000      -0.520023       -14.1505 
  40   2.0000      -0.506734       -13.7889 
  41   2.0000      -0.473362       -12.8808 
  42   2.0000      -0.465739       -12.6734 
  43   2.0000      -0.452787       -12.3210 
  44   2.0000      -0.450137       -12.2489 
  45   2.0000      -0.439141       -11.9496 
  46   2.0000      -0.432135       -11.7590 
  47   2.0000      -0.424251       -11.5445 
  48   2.0000      -0.421390       -11.4666 
  49   2.0000      -0.409481       -11.1425 
  50   2.0000      -0.402913       -10.9638 
  51   2.0000      -0.401811       -10.9338 
  52   2.0000      -0.396949       -10.8015 
  53   2.0000      -0.380873       -10.3641 
  54   2.0000      -0.378160       -10.2903 
  55   2.0000      -0.374961       -10.2032 
  56   2.0000      -0.350959        -9.5501 
  57   2.0000      -0.345909        -9.4127 
  58   2.0000      -0.342198        -9.3117 
  59   2.0000      -0.331487        -9.0202 
  60   2.0000      -0.329857        -8.9759 
  61   2.0000      -0.328688        -8.9441 
  62   2.0000      -0.317099        -8.6287 
  63   2.0000      -0.312957        -8.5160 
  64   2.0000      -0.308753        -8.4016 
  65   2.0000      -0.262460        -7.1419 
  66   2.0000      -0.260219        -7.0809 
  67   2.0000      -0.228618        -6.2210 
  68   2.0000      -0.221552        -6.0287 
  69   0.0000      -0.080681        -2.1955 
  70   0.0000      -0.021571        -0.5870 
  71   0.0000      -0.016651        -0.4531 
  72   0.0000       0.020379         0.5546 
  73   0.0000       0.043814         1.1922 
  74   0.0000       0.059984         1.6322 
  75   0.0000       0.063362         1.7242 
  76   0.0000       0.069283         1.8853 
  77   0.0000       0.075687         2.0595 
  78   0.0000       0.085175         2.3177 
  79   0.0000       0.088427         2.4062 
  80   0.0000       0.092627         2.5205 
  81   0.0000       0.098194         2.6720 
  82   0.0000       0.105658         2.8751 
  83   0.0000       0.109053         2.9675 
  84   0.0000       0.110597         3.0095 
  85   0.0000       0.119592         3.2543 
  86   0.0000       0.121272         3.3000 
  87   0.0000       0.128544         3.4979 
  88   0.0000       0.130162         3.5419 
  89   0.0000       0.134857         3.6696 
  90   0.0000       0.140878         3.8335 
  91   0.0000       0.150278         4.0893 
  92   0.0000       0.153537         4.1780 
  93   0.0000       0.158498         4.3130 
  94   0.0000       0.162810         4.4303 
  95   0.0000       0.173223         4.7137 
  96   0.0000       0.175404         4.7730 
  97   0.0000       0.180698         4.9170 
  98   0.0000       0.181630         4.9424 
  99   0.0000       0.192996         5.2517 
 100   0.0000       0.194501         5.2926 
 101   0.0000       0.205191         5.5835 
 102   0.0000       0.210735         5.7344 
 103   0.0000       0.213764         5.8168 
 104   0.0000       0.218298         5.9402 
 105   0.0000       0.219584         5.9752 
 106   0.0000       0.225083         6.1248 
 107   0.0000       0.231728         6.3056 
 108   0.0000       0.236070         6.4238 
 109   0.0000       0.242563         6.6005 
 110   0.0000       0.248107         6.7513 
 111   0.0000       0.254916         6.9366 
 112   0.0000       0.260196         7.0803 
 113   0.0000       0.268156         7.2969 
 114   0.0000       0.273684         7.4473 
 115   0.0000       0.275992         7.5101 
 116   0.0000       0.284272         7.7354 
 117   0.0000       0.295849         8.0505 
 118   0.0000       0.299420         8.1476 
 119   0.0000       0.305201         8.3049 
 120   0.0000       0.311404         8.4737 
 121   0.0000       0.318448         8.6654 
 122   0.0000       0.327070         8.9000 
 123   0.0000       0.334025         9.0893 
 124   0.0000       0.337589         9.1863 
 125   0.0000       0.341126         9.2825 
 126   0.0000       0.348069         9.4714 
 127   0.0000       0.348928         9.4948 
 128   0.0000       0.355726         9.6798 
 129   0.0000       0.358163         9.7461 
 130   0.0000       0.366331         9.9684 
 131   0.0000       0.377119        10.2619 
 132   0.0000       0.381312        10.3760 
 133   0.0000       0.381992        10.3945 
 134   0.0000       0.385178        10.4812 
 135   0.0000       0.391459        10.6521 
 136   0.0000       0.399433        10.8691 
 137   0.0000       0.407848        11.0981 
 138   0.0000       0.415623        11.3097 
 139   0.0000       0.417615        11.3639 
 140   0.0000       0.419265        11.4088 
 141   0.0000       0.423298        11.5185 
 142   0.0000       0.427236        11.6257 
 143   0.0000       0.428105        11.6493 
 144   0.0000       0.431344        11.7375 
 145   0.0000       0.435107        11.8399 
 146   0.0000       0.440782        11.9943 
 147   0.0000       0.445242        12.1156 
 148   0.0000       0.446335        12.1454 
 149   0.0000       0.452882        12.3235 
 150   0.0000       0.455148        12.3852 
 151   0.0000       0.457735        12.4556 
 152   0.0000       0.462728        12.5915 
 153   0.0000       0.469512        12.7761 
 154   0.0000       0.470643        12.8068 
 155   0.0000       0.474125        12.9016 
 156   0.0000       0.484770        13.1913 
 157   0.0000       0.485716        13.2170 
 158   0.0000       0.493023        13.4158 
 159   0.0000       0.498013        13.5516 
 160   0.0000       0.502492        13.6735 
 161   0.0000       0.504596        13.7308 
 162   0.0000       0.506886        13.7931 
 163   0.0000       0.512783        13.9535 
 164   0.0000       0.514733        14.0066 
 165   0.0000       0.524344        14.2681 
 166   0.0000       0.533366        14.5136 
 167   0.0000       0.535691        14.5769 
 168   0.0000       0.543447        14.7880 
 169   0.0000       0.545838        14.8530 
 170   0.0000       0.556380        15.1399 
 171   0.0000       0.560158        15.2427 
 172   0.0000       0.561564        15.2809 
 173   0.0000       0.569406        15.4943 
 174   0.0000       0.574477        15.6323 
 175   0.0000       0.584541        15.9062 
 176   0.0000       0.591574        16.0975 
 177   0.0000       0.597705        16.2644 
 178   0.0000       0.614002        16.7079 
 179   0.0000       0.616255        16.7691 
 180   0.0000       0.619082        16.8461 
 181   0.0000       0.630564        17.1585 
 182   0.0000       0.632782        17.2189 
 183   0.0000       0.637121        17.3369 
 184   0.0000       0.647161        17.6102 
 185   0.0000       0.650792        17.7089 
 186   0.0000       0.663006        18.0413 
 187   0.0000       0.677358        18.4319 
 188   0.0000       0.685529        18.6542 
 189   0.0000       0.699745        19.0410 
 190   0.0000       0.704493        19.1702 
 191   0.0000       0.706750        19.2316 
 192   0.0000       0.721263        19.6266 
 193   0.0000       0.727165        19.7872 
 194   0.0000       0.732374        19.9289 
 195   0.0000       0.741271        20.1710 
 196   0.0000       0.751038        20.4368 
 197   0.0000       0.755929        20.5699 
 198   0.0000       0.770218        20.9587 
 199   0.0000       0.776436        21.1279 
 200   0.0000       0.776837        21.1388 
 201   0.0000       0.787060        21.4170 
 202   0.0000       0.794048        21.6072 
 203   0.0000       0.807305        21.9679 
 204   0.0000       0.811269        22.0758 
 205   0.0000       0.821681        22.3591 
 206   0.0000       0.839409        22.8415 
 207   0.0000       0.847296        23.0561 
 208   0.0000       0.854036        23.2395 
 209   0.0000       0.858824        23.3698 
 210   0.0000       0.868393        23.6302 
 211   0.0000       0.878523        23.9058 
 212   0.0000       0.887558        24.1517 
 213   0.0000       0.894504        24.3407 
 214   0.0000       0.900059        24.4918 
 215   0.0000       0.905177        24.6311 
 216   0.0000       0.909517        24.7492 
 217   0.0000       0.924722        25.1630 
 218   0.0000       0.933165        25.3927 
 219   0.0000       0.934178        25.4203 
 220   0.0000       0.956278        26.0216 
 221   0.0000       0.971012        26.4226 
 222   0.0000       0.979339        26.6492 
 223   0.0000       0.988346        26.8943 
 224   0.0000       1.012055        27.5394 
 225   0.0000       1.013668        27.5833 
 226   0.0000       1.019711        27.7477 
 227   0.0000       1.026571        27.9344 
 228   0.0000       1.047166        28.4948 
 229   0.0000       1.058932        28.8150 
 230   0.0000       1.070235        29.1226 
 231   0.0000       1.081898        29.4400 
 232   0.0000       1.091954        29.7136 
 233   0.0000       1.104860        30.0648 
 234   0.0000       1.110057        30.2062 
 235   0.0000       1.118092        30.4248 
 236   0.0000       1.125433        30.6246 
 237   0.0000       1.135305        30.8932 
 238   0.0000       1.140189        31.0261 
 239   0.0000       1.145810        31.1791 
 240   0.0000       1.161597        31.6087 
 241   0.0000       1.169371        31.8202 
 242   0.0000       1.187078        32.3020 
 243   0.0000       1.190796        32.4032 
 244   0.0000       1.200062        32.6553 
 245   0.0000       1.207534        32.8587 
 246   0.0000       1.215896        33.0862 
 247   0.0000       1.221443        33.2372 
 248   0.0000       1.228337        33.4247 
 249   0.0000       1.235741        33.6262 
 250   0.0000       1.243571        33.8393 
 251   0.0000       1.256767        34.1984 
 252   0.0000       1.265944        34.4481 
 253   0.0000       1.271912        34.6105 
 254   0.0000       1.276281        34.7294 
 255   0.0000       1.280817        34.8528 
 256   0.0000       1.287263        35.0282 
 257   0.0000       1.298038        35.3214 
 258   0.0000       1.314810        35.7778 
 259   0.0000       1.322208        35.9791 
 260   0.0000       1.344768        36.5930 
 261   0.0000       1.359754        37.0008 
 262   0.0000       1.367656        37.2158 
 263   0.0000       1.374827        37.4110 
 264   0.0000       1.389151        37.8007 
 265   0.0000       1.391763        37.8718 
 266   0.0000       1.412165        38.4270 
 267   0.0000       1.425871        38.7999 
 268   0.0000       1.442550        39.2538 
 269   0.0000       1.447529        39.3893 
 270   0.0000       1.453958        39.5642 
 271   0.0000       1.466573        39.9075 
 272   0.0000       1.470989        40.0276 
 273   0.0000       1.477584        40.2071 
 274   0.0000       1.479213        40.2514 
 275   0.0000       1.490343        40.5543 
 276   0.0000       1.504835        40.9487 
 277   0.0000       1.509727        41.0818 
 278   0.0000       1.518866        41.3304 
 279   0.0000       1.522145        41.4197 
 280   0.0000       1.533675        41.7334 
 281   0.0000       1.536804        41.8186 
 282   0.0000       1.545373        42.0517 
 283   0.0000       1.551369        42.2149 
 284   0.0000       1.556154        42.3451 
 285   0.0000       1.568135        42.6711 
 286   0.0000       1.577425        42.9239 
 287   0.0000       1.585617        43.1468 
 288   0.0000       1.597543        43.4713 
 289   0.0000       1.599479        43.5240 
 290   0.0000       1.604062        43.6488 
 291   0.0000       1.615309        43.9548 
 292   0.0000       1.617048        44.0021 
 293   0.0000       1.622618        44.1537 
 294   0.0000       1.630645        44.3721 
 295   0.0000       1.635630        44.5078 
 296   0.0000       1.646890        44.8141 
 297   0.0000       1.648568        44.8598 
 298   0.0000       1.656274        45.0695 
 299   0.0000       1.663792        45.2741 
 300   0.0000       1.678148        45.6647 
 301   0.0000       1.681875        45.7662 
 302   0.0000       1.687887        45.9297 
 303   0.0000       1.689126        45.9635 
 304   0.0000       1.698248        46.2117 
 305   0.0000       1.710381        46.5418 
 306   0.0000       1.713997        46.6402 
 307   0.0000       1.715093        46.6701 
 308   0.0000       1.724918        46.9374 
 309   0.0000       1.731541        47.1176 
 310   0.0000       1.743200        47.4349 
 311   0.0000       1.760864        47.9156 
 312   0.0000       1.769356        48.1466 
 313   0.0000       1.775076        48.3023 
 314   0.0000       1.787438        48.6387 
 315   0.0000       1.793478        48.8030 
 316   0.0000       1.796760        48.8923 
 317   0.0000       1.814517        49.3755 
 318   0.0000       1.827597        49.7314 
 319   0.0000       1.834487        49.9189 
 320   0.0000       1.846844        50.2552 
 321   0.0000       1.853827        50.4452 
 322   0.0000       1.859916        50.6109 
 323   0.0000       1.872499        50.9533 
 324   0.0000       1.899683        51.6930 
 325   0.0000       1.913581        52.0712 
 326   0.0000       1.916467        52.1497 
 327   0.0000       1.928865        52.4871 
 328   0.0000       1.936510        52.6951 
 329   0.0000       1.955918        53.2232 
 330   0.0000       1.962388        53.3993 
 331   0.0000       1.974747        53.7356 
 332   0.0000       1.983584        53.9761 
 333   0.0000       2.002222        54.4832 
 334   0.0000       2.005353        54.5684 
 335   0.0000       2.010299        54.7030 
 336   0.0000       2.020788        54.9884 
 337   0.0000       2.027241        55.1640 
 338   0.0000       2.031338        55.2755 
 339   0.0000       2.048882        55.7529 
 340   0.0000       2.059679        56.0467 
 341   0.0000       2.070803        56.3494 
 342   0.0000       2.075670        56.4818 
 343   0.0000       2.084404        56.7195 
 344   0.0000       2.085903        56.7603 
 345   0.0000       2.096065        57.0368 
 346   0.0000       2.101578        57.1868 
 347   0.0000       2.107294        57.3424 
 348   0.0000       2.121777        57.7365 
 349   0.0000       2.128405        57.9169 
 350   0.0000       2.132195        58.0200 
 351   0.0000       2.142765        58.3076 
 352   0.0000       2.152611        58.5755 
 353   0.0000       2.161632        58.8210 
 354   0.0000       2.171258        59.0829 
 355   0.0000       2.187007        59.5115 
 356   0.0000       2.200566        59.8804 
 357   0.0000       2.205186        60.0062 
 358   0.0000       2.210860        60.1606 
 359   0.0000       2.214883        60.2700 
 360   0.0000       2.238274        60.9065 
 361   0.0000       2.250761        61.2463 
 362   0.0000       2.256399        61.3997 
 363   0.0000       2.271217        61.8030 
 364   0.0000       2.285230        62.1843 
 365   0.0000       2.289403        62.2978 
 366   0.0000       2.309246        62.8378 
 367   0.0000       2.312690        62.9315 
 368   0.0000       2.319512        63.1171 
 369   0.0000       2.334231        63.5177 
 370   0.0000       2.346160        63.8423 
 371   0.0000       2.358029        64.1652 
 372   0.0000       2.372416        64.5567 
 373   0.0000       2.383998        64.8719 
 374   0.0000       2.393855        65.1401 
 375   0.0000       2.404494        65.4296 
 376   0.0000       2.409977        65.5788 
 377   0.0000       2.418281        65.8048 
 378   0.0000       2.440062        66.3975 
 379   0.0000       2.452864        66.7458 
 380   0.0000       2.463413        67.0329 
 381   0.0000       2.468192        67.1629 
 382   0.0000       2.480510        67.4981 
 383   0.0000       2.487960        67.7008 
 384   0.0000       2.496030        67.9204 
 385   0.0000       2.504869        68.1609 
 386   0.0000       2.520200        68.5781 
 387   0.0000       2.535675        68.9992 
 388   0.0000       2.544070        69.2277 
 389   0.0000       2.549293        69.3698 
 390   0.0000       2.557233        69.5858 
 391   0.0000       2.561941        69.7140 
 392   0.0000       2.569120        69.9093 
 393   0.0000       2.579615        70.1949 
 394   0.0000       2.582950        70.2857 
 395   0.0000       2.587594        70.4120 
 396   0.0000       2.593846        70.5821 
 397   0.0000       2.601940        70.8024 
 398   0.0000       2.613228        71.1095 
 399   0.0000       2.622352        71.3578 
 400   0.0000       2.624428        71.4143 
 401   0.0000       2.630586        71.5819 
 402   0.0000       2.637385        71.7669 
 403   0.0000       2.643848        71.9428 
 404   0.0000       2.649887        72.1071 
 405   0.0000       2.654495        72.2325 
 406   0.0000       2.659700        72.3741 
 407   0.0000       2.665663        72.5364 
 408   0.0000       2.666811        72.5676 
 409   0.0000       2.672371        72.7189 
 410   0.0000       2.682021        72.9815 
 411   0.0000       2.689743        73.1916 
 412   0.0000       2.693061        73.2819 
 413   0.0000       2.697650        73.4068 
 414   0.0000       2.704086        73.5819 
 415   0.0000       2.715682        73.8975 
 416   0.0000       2.729529        74.2743 
 417   0.0000       2.733070        74.3706 
 418   0.0000       2.737320        74.4863 
 419   0.0000       2.748175        74.7816 
 420   0.0000       2.760804        75.1253 
 421   0.0000       2.764185        75.2173 
 422   0.0000       2.766378        75.2770 
 423   0.0000       2.769540        75.3630 
 424   0.0000       2.781408        75.6859 
 425   0.0000       2.790016        75.9202 
 426   0.0000       2.796104        76.0859 
 427   0.0000       2.803234        76.2799 
 428   0.0000       2.816325        76.6361 
 429   0.0000       2.819893        76.7332 
 430   0.0000       2.831383        77.0458 
 431   0.0000       2.836453        77.1838 
 432   0.0000       2.845947        77.4422 
 433   0.0000       2.848064        77.4998 
 434   0.0000       2.859902        77.8219 
 435   0.0000       2.866585        78.0037 
 436   0.0000       2.889788        78.6351 
 437   0.0000       2.902363        78.9773 
 438   0.0000       2.906446        79.0884 
 439   0.0000       2.913203        79.2723 
 440   0.0000       2.948247        80.2259 
 441   0.0000       2.953561        80.3705 
 442   0.0000       2.960489        80.5590 
 443   0.0000       2.966538        80.7236 
 444   0.0000       2.985456        81.2384 
 445   0.0000       2.996217        81.5312 
 446   0.0000       3.002383        81.6990 
 447   0.0000       3.018327        82.1329 
 448   0.0000       3.026975        82.3682 
 449   0.0000       3.048561        82.9556 
 450   0.0000       3.051347        83.0314 
 451   0.0000       3.055354        83.1404 
 452   0.0000       3.073452        83.6329 
 453   0.0000       3.093696        84.1838 
 454   0.0000       3.095748        84.2396 
 455   0.0000       3.103704        84.4561 
 456   0.0000       3.112394        84.6926 
 457   0.0000       3.122880        84.9779 
 458   0.0000       3.136939        85.3604 
 459   0.0000       3.138205        85.3949 
 460   0.0000       3.145685        85.5984 
 461   0.0000       3.146751        85.6274 
 462   0.0000       3.157437        85.9182 
 463   0.0000       3.162377        86.0527 
 464   0.0000       3.172289        86.3224 
 465   0.0000       3.180557        86.5474 
 466   0.0000       3.189313        86.7856 
 467   0.0000       3.194152        86.9173 
 468   0.0000       3.212057        87.4045 
 469   0.0000       3.213742        87.4504 
 470   0.0000       3.218103        87.5690 
 471   0.0000       3.227754        87.8317 
 472   0.0000       3.237442        88.0953 
 473   0.0000       3.241813        88.2142 
 474   0.0000       3.244861        88.2972 
 475   0.0000       3.256132        88.6039 
 476   0.0000       3.257815        88.6497 
 477   0.0000       3.273487        89.0761 
 478   0.0000       3.274654        89.1079 
 479   0.0000       3.279885        89.2502 
 480   0.0000       3.293268        89.6144 
 481   0.0000       3.297934        89.7414 
 482   0.0000       3.303795        89.9008 
 483   0.0000       3.313898        90.1757 
 484   0.0000       3.318419        90.2988 
 485   0.0000       3.323592        90.4395 
 486   0.0000       3.335620        90.7668 
 487   0.0000       3.347605        91.0930 
 488   0.0000       3.380363        91.9843 
 489   0.0000       3.386960        92.1639 
 490   0.0000       3.396546        92.4247 
 491   0.0000       3.408145        92.7403 
 492   0.0000       3.414610        92.9163 
 493   0.0000       3.421232        93.0964 
 494   0.0000       3.433753        93.4372 
 495   0.0000       3.435713        93.4905 
 496   0.0000       3.439467        93.5927 
 497   0.0000       3.448021        93.8254 
 498   0.0000       3.451137        93.9102 
 499   0.0000       3.471137        94.4544 
 500   0.0000       3.471965        94.4770 
 501   0.0000       3.481169        94.7274 
 502   0.0000       3.486082        94.8611 
 503   0.0000       3.493991        95.0763 
 504   0.0000       3.505272        95.3833 
 505   0.0000       3.516487        95.6885 
 506   0.0000       3.523142        95.8696 
 507   0.0000       3.531411        96.0946 
 508   0.0000       3.545859        96.4877 
 509   0.0000       3.552761        96.6756 
 510   0.0000       3.558759        96.8388 
 511   0.0000       3.572942        97.2247 
 512   0.0000       3.588080        97.6366 
 513   0.0000       3.602491        98.0288 
 514   0.0000       3.608540        98.1934 
 515   0.0000       3.624438        98.6260 
 516   0.0000       3.632050        98.8331 
 517   0.0000       3.661127        99.6243 
 518   0.0000       3.668686        99.8300 
 519   0.0000       3.681197       100.1704 
 520   0.0000       3.686599       100.3175 
 521   0.0000       3.719714       101.2186 
 522   0.0000       3.753669       102.1425 
 523   0.0000       3.766466       102.4908 
 524   0.0000       3.768603       102.5489 
 525   0.0000       3.771839       102.6370 
 526   0.0000       3.780774       102.8801 
 527   0.0000       3.786264       103.0295 
 528   0.0000       3.796804       103.3163 
 529   0.0000       3.809782       103.6694 
 530   0.0000       3.822424       104.0134 
 531   0.0000       3.824534       104.0708 
 532   0.0000       3.875784       105.4654 
 533   0.0000       3.890735       105.8723 
 534   0.0000       3.896636       106.0328 
 535   0.0000       3.898424       106.0815 
 536   0.0000       3.917370       106.5971 
 537   0.0000       3.924521       106.7917 
 538   0.0000       3.937556       107.1463 
 539   0.0000       3.947134       107.4070 
 540   0.0000       3.979141       108.2779 
 541   0.0000       3.985712       108.4567 
 542   0.0000       4.013576       109.2150 
 543   0.0000       4.025741       109.5460 
 544   0.0000       4.036066       109.8269 
 545   0.0000       4.039738       109.9269 
 546   0.0000       4.069077       110.7252 
 547   0.0000       4.090822       111.3169 
 548   0.0000       4.094402       111.4143 
 549   0.0000       4.109930       111.8369 
 550   0.0000       4.141437       112.6942 
 551   0.0000       4.148730       112.8927 
 552   0.0000       4.154269       113.0434 
 553   0.0000       4.164033       113.3091 
 554   0.0000       4.174707       113.5995 
 555   0.0000       4.195900       114.1763 
 556   0.0000       4.203792       114.3910 
 557   0.0000       4.214675       114.6871 
 558   0.0000       4.229368       115.0870 
 559   0.0000       4.236435       115.2793 
 560   0.0000       4.254452       115.7695 
 561   0.0000       4.262228       115.9811 
 562   0.0000       4.269005       116.1655 
 563   0.0000       4.314507       117.4037 
 564   0.0000       4.324194       117.6673 
 565   0.0000       4.328352       117.7805 
 566   0.0000       4.331420       117.8639 
 567   0.0000       4.343111       118.1821 
 568   0.0000       4.361537       118.6835 
 569   0.0000       4.418507       120.2337 
 570   0.0000       4.424281       120.3908 
 571   0.0000       4.430799       120.5682 
 572   0.0000       4.438948       120.7899 
 573   0.0000       4.463095       121.4470 
 574   0.0000       4.486979       122.0969 
 575   0.0000       4.497082       122.3718 
 576   0.0000       4.534112       123.3795 
 577   0.0000       4.543775       123.6424 
 578   0.0000       4.557144       124.0062 
 579   0.0000       4.598665       125.1360 
 580   0.0000       4.605695       125.3273 
 581   0.0000       4.621019       125.7443 
 582   0.0000       4.639835       126.2563 
 583   0.0000       4.653452       126.6269 
 584   0.0000       4.683966       127.4572 
 585   0.0000       4.691094       127.6511 
 586   0.0000       4.703078       127.9773 
 587   0.0000       4.731004       128.7372 
 588   0.0000       4.748019       129.2002 
 589   0.0000       4.752014       129.3089 
 590   0.0000       4.784110       130.1823 
 591   0.0000       4.801467       130.6546 
 592   0.0000       4.804534       130.7380 
 593   0.0000       4.828688       131.3953 
 594   0.0000       4.861663       132.2926 
 595   0.0000       4.868425       132.4766 
 596   0.0000       4.878539       132.7518 
 597   0.0000       4.921291       133.9151 
 598   0.0000       4.937370       134.3527 
 599   0.0000       4.987206       135.7088 
 600   0.0000       4.999638       136.0471 
 601   0.0000       5.016805       136.5142 
 602   0.0000       5.022252       136.6624 
 603   0.0000       5.043667       137.2451 
 604   0.0000       5.071002       137.9890 
 605   0.0000       5.085451       138.3821 
 606   0.0000       5.088338       138.4607 
 607   0.0000       5.095426       138.6536 
 608   0.0000       5.123865       139.4275 
 609   0.0000       5.131946       139.6474 
 610   0.0000       5.137629       139.8020 
 611   0.0000       5.143672       139.9664 
 612   0.0000       5.150929       140.1639 
 613   0.0000       5.172313       140.7458 
 614   0.0000       5.186900       141.1427 
 615   0.0000       5.211542       141.8133 
 616   0.0000       5.223670       142.1433 
 617   0.0000       5.230900       142.3400 
 618   0.0000       5.260325       143.1407 
 619   0.0000       5.291777       143.9966 
 620   0.0000       5.310455       144.5048 
 621   0.0000       5.331640       145.0813 
 622   0.0000       5.336770       145.2209 
 623   0.0000       5.364326       145.9707 
 624   0.0000       5.389209       146.6478 
 625   0.0000       5.390990       146.6963 
 626   0.0000       5.399182       146.9192 
 627   0.0000       5.410159       147.2179 
 628   0.0000       5.414346       147.3319 
 629   0.0000       5.424134       147.5982 
 630   0.0000       5.436663       147.9391 
 631   0.0000       5.455853       148.4613 
 632   0.0000       5.498337       149.6174 
 633   0.0000       5.537760       150.6901 
 634   0.0000       5.552563       151.0929 
 635   0.0000       5.576263       151.7378 
 636   0.0000       5.600593       152.3999 
 637   0.0000       5.612697       152.7292 
 638   0.0000       5.620330       152.9370 
 639   0.0000       5.670881       154.3125 
 640   0.0000       5.705098       155.2436 
 641   0.0000       5.873985       159.8392 
 642   0.0000       5.921625       161.1356 
 643   0.0000       5.950236       161.9142 
 644   0.0000       6.015938       163.7020 
 645   0.0000       6.214288       169.0994 
 646   0.0000       6.243995       169.9077 
 647   0.0000       6.318797       171.9432 
 648   0.0000       6.343934       172.6272 
 649   0.0000       6.355853       172.9516 
 650   0.0000       6.366312       173.2362 
 651   0.0000       6.402863       174.2308 
 652   0.0000       6.419372       174.6800 
 653   0.0000       6.449119       175.4894 
 654   0.0000       6.452847       175.5909 
 655   0.0000       6.666596       181.4073 
 656   0.0000       6.850893       186.4223 
 657   0.0000       6.873836       187.0466 
 658   0.0000       6.885010       187.3507 
 659   0.0000       6.925753       188.4593 
 660   0.0000       7.032344       191.3598 
 661   0.0000       7.097972       193.1456 
 662   0.0000       7.256198       197.4512 
 663   0.0000       7.295943       198.5327 
 664   0.0000       7.369668       200.5389 
 665   0.0000       7.416034       201.8005 
 666   0.0000      22.040478       599.7519 
 667   0.0000      22.416702       609.9895 
 668   0.0000      22.441222       610.6567 
 669   0.0000      22.487285       611.9101 
 670   0.0000      22.513330       612.6188 
 671   0.0000      22.528119       613.0213 
 672   0.0000      22.597685       614.9143 
 673   0.0000      22.600277       614.9848 
 674   0.0000      22.656923       616.5262 
 675   0.0000      22.758474       619.2896 
 676   0.0000      22.802679       620.4924 
 677   0.0000      23.205488       631.4534 
 678   0.0000      32.218054       876.6978 
 679   0.0000      32.405228       881.7911 
 680   0.0000      32.482178       883.8850 
 681   0.0000      43.394926      1180.8360 
 682   0.0000      43.987106      1196.9500 
 683   0.0000      44.029049      1198.0913 

                    ********************************
                    * MULLIKEN POPULATION ANALYSIS *
                    ********************************

-----------------------
MULLIKEN ATOMIC CHARGES
-----------------------
   0 C :   -0.127483
   1 C :   -0.213466
   2 C :    0.087577
   3 C :   -0.215758
   4 C :   -0.128612
   5 C :   -0.147441
   6 H :    0.142963
   7 H :    0.152518
   8 H :    0.148705
   9 H :    0.144268
  10 C :    0.033679
  11 C :   -0.362079
  12 H :    0.144187
  13 H :    0.146413
  14 H :    0.129466
  15 N :    0.436943
  16 O :   -0.353917
  17 O :   -0.347016
  18 N :   -0.407960
  19 C :   -0.042742
  20 C :   -0.147808
  21 N :   -0.385436
  22 C :   -0.079452
  23 C :   -0.091330
  24 H :    0.106423
  25 H :    0.055854
  26 H :    0.107631
  27 H :    0.065719
  28 H :    0.106819
  29 H :    0.093182
  30 H :    0.067415
  31 H :    0.161173
  32 H :    0.216919
  33 H :    0.114417
  34 H :    0.214659
  35 H :    0.361104
  36 H :    0.367234
  37 O :   -0.698879
  38 H :    0.144111
Sum of atomic charges:    0.0000000

--------------------------------
MULLIKEN REDUCED ORBITAL CHARGES
--------------------------------
  0 C s       :     3.215310  s :     3.215310
      pz      :     0.959836  p :     2.823696
      px      :     0.893980
      py      :     0.969880
      dz2     :     0.004699  d :     0.081213
      dxz     :     0.020529
      dyz     :     0.006530
      dx2y2   :     0.028833
      dxy     :     0.020622
      f0      :     0.001417  f :     0.007263
      f+1     :     0.000484
      f-1     :     0.000592
      f+2     :     0.000433
      f-2     :     0.000932
      f+3     :     0.001785
      f-3     :     0.001621
  1 C s       :     3.254847  s :     3.254847
      pz      :     0.963003  p :     2.867739
      px      :     0.993015
      py      :     0.911721
[...]
    102      -0.000464   0.000009   0.000000
    103       0.010037  -0.000013   0.000002
    104      -0.024500   0.000015  -0.000005
    105       0.007176   0.372907   0.409429
    106      -0.001949  -0.203679  -0.171648
    107      -0.011632  -0.546369  -0.566225
    108       0.004863   0.186232  -0.207848
    109       0.012638   0.662728  -0.636550
    110       0.005101   0.210099  -0.170255
    111      -0.000706  -0.035199  -0.012724
    112      -0.000805  -0.028855   0.050898
    113       0.000440   0.021072   0.046457
    114       0.000006   0.000106   0.000001
    115      -0.000008   0.000034  -0.000001
    116       0.000011  -0.000009  -0.000003


-----------
IR SPECTRUM
-----------

 Mode   freq       eps      Int      T**2         TX        TY        TZ
       cm**-1   L/(mol*cm) km/mol    a.u.
----------------------------------------------------------------------------
  9:     19.55   0.000072    0.36  0.001151  ( 0.013039 -0.026947  0.015970)
 10:     23.20   0.000579    2.92  0.007784  ( 0.045935  0.072736  0.019581)
 11:     28.82   0.000050    0.25  0.000546  (-0.004870  0.011221  0.019912)
 12:     34.72   0.000543    2.74  0.004881  (-0.034577  0.044637 -0.041145)
 13:     48.08   0.000213    1.07  0.001380  ( 0.008631  0.022175  0.028521)
 14:     53.29   0.001811    9.15  0.010607  (-0.046567  0.078336 -0.047976)
 15:     67.31   0.000415    2.10  0.001923  ( 0.032110 -0.029044  0.006936)
 16:     85.10   0.001598    8.07  0.005859  (-0.066719  0.028193 -0.024749)
 17:     96.21   0.005304   26.81  0.017205  ( 0.084259 -0.097214 -0.025595)
 18:    111.01   0.019763   99.87  0.055553  (-0.163223  0.149692 -0.080647)
 19:    112.21   0.000832    4.20  0.002314  ( 0.009692 -0.037056  0.029097)
 20:    189.09   0.047691  241.01  0.078707  ( 0.178621 -0.068775  0.205113)
 21:    208.30   0.000857    4.33  0.001284  ( 0.016194 -0.020621  0.024426)
 22:    242.22   0.000726    3.67  0.000935  (-0.013283  0.016610 -0.021968)
 23:    249.71   0.000223    1.13  0.000279  ( 0.009320 -0.002985  0.013525)
 24:    268.46   0.003333   16.85  0.003875  ( 0.013350 -0.022197  0.056602)
 25:    278.69   0.000411    2.08  0.000461  ( 0.000540  0.021454 -0.000168)
 26:    287.48   0.000221    1.12  0.000240  (-0.004912  0.011290  0.009390)
 27:    357.53   0.000085    0.43  0.000074  (-0.001706  0.003244 -0.007799)
 28:    413.88   0.000081    0.41  0.000061  ( 0.007770 -0.000813  0.000098)
 29:    417.45   0.000026    0.13  0.000019  (-0.003560  0.001548 -0.002079)
 30:    448.09   0.001761    8.90  0.001226  (-0.014194  0.004763 -0.031656)
 31:    461.80   0.000489    2.47  0.000331  (-0.013677  0.006887 -0.009803)
 32:    471.93   0.000009    0.05  0.000006  ( 0.001235 -0.002050 -0.000417)
 33:    510.61   0.002700   13.64  0.001650  (-0.015972  0.016102 -0.033699)
 34:    579.29   0.024862  125.64  0.013393  (-0.104661  0.030201 -0.039082)
 35:    592.73   0.005684   28.73  0.002993  (-0.013696  0.023523  0.047452)
 36:    631.55   0.000343    1.73  0.000170  ( 0.002318  0.005368  0.011637)
 37:    665.77   0.004251   21.48  0.001993  ( 0.013220  0.026321  0.033542)
 38:    714.71   0.012877   65.07  0.005622  (-0.007952 -0.004031 -0.074451)
 39:    738.70   0.009166   46.32  0.003872  (-0.001526  0.012967  0.060842)
 40:    782.04   0.002698   13.63  0.001077  ( 0.002772  0.000882 -0.032681)
 41:    786.11   0.005712   28.87  0.002268  ( 0.045445 -0.012700  0.006413)
 42:    813.01   0.003534   17.86  0.001356  ( 0.028597 -0.005011  0.022662)
 43:    817.57   0.059413  300.25  0.022677  (-0.144792  0.032012 -0.026231)
 44:    846.95   0.000061    0.31  0.000022  (-0.002760  0.001307  0.003613)
 45:    858.10   0.002528   12.77  0.000919  ( 0.005607  0.022083  0.020005)
 46:    860.22   0.000177    0.89  0.000064  (-0.001341  0.006306  0.004746)
 47:    864.52   0.000578    2.92  0.000209  (-0.002117  0.009981  0.010228)
 48:    884.58   0.004565   23.07  0.001610  (-0.010183  0.023438  0.030943)
 49:    893.85   0.000210    1.06  0.000073  ( 0.002606  0.006690  0.004681)
 50:    948.41   0.003401   17.19  0.001119  ( 0.028282  0.001108 -0.017831)
 51:    949.13   0.000906    4.58  0.000298  ( 0.000630 -0.005293 -0.016418)
 52:    974.09   0.002095   10.59  0.000671  ( 0.009790  0.022970 -0.006912)
 53:    991.69   0.000069    0.35  0.000022  ( 0.000910 -0.002665 -0.003720)
 54:   1011.71   0.000084    0.43  0.000026  ( 0.001237  0.001660 -0.004663)
 55:   1023.29   0.000073    0.37  0.000022  (-0.000816  0.004648  0.000131)
 56:   1050.95   0.002478   12.52  0.000736  (-0.017520  0.020707  0.000385)
 57:   1059.04   0.000079    0.40  0.000023  ( 0.002892 -0.003755 -0.000932)
 58:   1068.76   0.000168    0.85  0.000049  (-0.001649  0.006512  0.002007)
 59:   1089.75   0.008369   42.29  0.002397  ( 0.047339 -0.001158 -0.012416)
 60:   1093.82   0.003335   16.85  0.000952  (-0.019631 -0.023298  0.004835)
 61:   1119.40   0.002611   13.19  0.000728  (-0.017286  0.011269  0.017379)
 62:   1129.90   0.000690    3.49  0.000190  (-0.007510 -0.011468  0.001591)
 63:   1131.53   0.003439   17.38  0.000949  ( 0.001103  0.027083  0.014622)
 64:   1135.03   0.000211    1.07  0.000058  (-0.004878 -0.004343 -0.003928)
 65:   1140.17   0.000383    1.94  0.000105  (-0.002034 -0.002658 -0.009678)
 66:   1149.82   0.017548   88.68  0.004763  ( 0.012617  0.062773  0.025747)
 67:   1178.18   0.000010    0.05  0.000003  ( 0.001010 -0.001156  0.000613)
 68:   1203.29   0.000693    3.50  0.000180  (-0.002196 -0.011270 -0.006914)
 69:   1205.27   0.000082    0.41  0.000021  (-0.004426  0.000198  0.001219)
 70:   1208.35   0.000051    0.26  0.000013  ( 0.002292  0.002105  0.001841)
 71:   1256.85   0.003815   19.28  0.000947  (-0.022498  0.008014 -0.019411)
 72:   1289.32   0.003145   15.89  0.000761  (-0.025425 -0.002988  0.010287)
 73:   1314.12   0.000205    1.04  0.000049  ( 0.003127  0.004579  0.004235)
 74:   1327.38   0.000117    0.59  0.000028  (-0.001991 -0.004847  0.000277)
 75:   1334.48   0.002594   13.11  0.000607  ( 0.000384 -0.022788 -0.009340)
 76:   1339.66   0.017187   86.86  0.004004  ( 0.008415  0.058585  0.022374)
 77:   1367.18   0.000238    1.20  0.000054  (-0.006210 -0.002151  0.003324)
 78:   1392.74   0.008892   44.94  0.001992  (-0.002742 -0.038750 -0.021987)
 79:   1405.87   0.000205    1.04  0.000045  ( 0.004703 -0.002538  0.004112)
 80:   1420.03   0.032305  163.26  0.007099  (-0.022693  0.043176  0.068703)
 81:   1421.69   0.000128    0.65  0.000028  ( 0.003579 -0.003429 -0.001873)
 82:   1468.01   0.001754    8.86  0.000373  ( 0.018109  0.001023 -0.006622)
 83:   1472.25   0.000111    0.56  0.000024  (-0.002023  0.003055  0.003195)
 84:   1476.75   0.001622    8.20  0.000343  (-0.015872 -0.009447 -0.001260)
 85:   1479.91   0.000371    1.87  0.000078  ( 0.005683  0.004647 -0.004924)
 86:   1482.22   0.004199   21.22  0.000884  ( 0.021238  0.019879 -0.006152)
 87:   1484.65   0.001967    9.94  0.000413  (-0.009815 -0.011543  0.013560)
 88:   1487.66   0.002887   14.59  0.000606  ( 0.003887  0.007985  0.022952)
 89:   1493.85   0.001262    6.38  0.000264  (-0.006744 -0.011027 -0.009821)
 90:   1523.02   0.002659   13.44  0.000545  (-0.004619 -0.021950 -0.006449)
 91:   1531.45   0.004181   21.13  0.000852  (-0.027212  0.010426  0.001660)
 92:   1561.04   0.127749  645.59  0.025538  (-0.110712 -0.088802  0.073451)
 93:   1598.27   0.022789  115.16  0.004449  ( 0.047457  0.037271 -0.028428)
 94:   1622.16   0.000205    1.04  0.000039  (-0.004654 -0.003427  0.002460)
 95:   1639.84   0.000067    0.34  0.000013  (-0.002120  0.002777 -0.000791)
 96:   2274.39   0.000061    0.31  0.000008  ( 0.002337 -0.001660 -0.000352)
 97:   2904.71   0.020589  104.05  0.002212  ( 0.036472  0.029695 -0.000093)
 98:   2919.62   0.047272  238.89  0.005053  (-0.061618  0.018269  0.030365)
 99:   2923.98   0.029250  147.82  0.003122  (-0.050552 -0.022568  0.007545)
100:   2939.37   0.040807  206.22  0.004332  ( 0.058277 -0.011434 -0.028379)
101:   3002.75   0.005127   25.91  0.000533  (-0.013244  0.017242 -0.007754)
102:   3070.16   0.008759   44.26  0.000890  ( 0.024374 -0.015684  0.007086)
103:   3072.46   0.024823  125.44  0.002521  (-0.008986  0.048244  0.010630)
104:   3075.56   0.009108   46.03  0.000924  ( 0.020694  0.015415  0.016070)
105:   3122.25   0.002880   14.55  0.000288  ( 0.014747 -0.003251 -0.007731)
106:   3166.53   0.000199    1.00  0.000020  ( 0.003796  0.002234  0.000427)
107:   3168.26   0.011667   58.96  0.001149  (-0.018069 -0.020583 -0.019975)
108:   3172.31   0.001123    5.68  0.000110  (-0.008014 -0.006197  0.002803)
109:   3177.28   0.001243    6.28  0.000122  ( 0.007412  0.006766  0.004624)
110:   3180.54   0.001927    9.74  0.000189  ( 0.013518 -0.002516 -0.000054)
111:   3191.66   0.004208   21.27  0.000411  ( 0.000423 -0.020227  0.001456)
112:   3195.39   0.000983    4.97  0.000096  ( 0.009325 -0.002672 -0.001379)
113:   3504.25   0.000440    2.22  0.000039  ( 0.001150  0.002344 -0.005690)
114:   3508.14   0.033987  171.76  0.003023  (-0.009408  0.021257 -0.049829)
115:   3764.82   0.006988   35.32  0.000579  ( 0.016068  0.013854 -0.011364)
116:   3843.41   0.023819  120.37  0.001934  ( 0.007807 -0.032065 -0.029067)

* The epsilon (eps) is given for a Dirac delta lineshape.
** The dipole moment derivative (T) already includes vibrational overlap.

The first frequency considered to be a vibration is 9
The total number of vibrations considered is 108


--------------------------
THERMOCHEMISTRY AT 298.15K
--------------------------

Temperature         ... 298.15 K
Pressure            ... 1.00 atm
Total Mass          ... 256.31 AMU

Throughout the following assumptions are being made:
  (1) The electronic state is orbitally nondegenerate
  (2) There are no thermally accessible electronically excited states
  (3) Hindered rotations indicated by low frequency modes are not
      treated as such but are treated as vibrations and this may
      cause some error
  (4) All equations used are the standard statistical mechanics
      equations for an ideal gas
  (5) All vibrations are strictly harmonic

freq.      19.55  E(vib)   ...       0.56 
freq.      23.20  E(vib)   ...       0.56 
freq.      28.82  E(vib)   ...       0.55 
freq.      34.72  E(vib)   ...       0.54 
freq.      48.08  E(vib)   ...       0.53 
freq.      53.29  E(vib)   ...       0.52 
freq.      67.31  E(vib)   ...       0.50 
freq.      85.10  E(vib)   ...       0.48 
freq.      96.21  E(vib)   ...       0.47 
freq.     111.01  E(vib)   ...       0.45 
freq.     112.21  E(vib)   ...       0.45 
freq.     189.09  E(vib)   ...       0.36 
freq.     208.30  E(vib)   ...       0.34 
freq.     242.22  E(vib)   ...       0.31 
freq.     249.71  E(vib)   ...       0.31 
freq.     268.46  E(vib)   ...       0.29 
freq.     278.69  E(vib)   ...       0.28 
freq.     287.48  E(vib)   ...       0.27 
freq.     357.53  E(vib)   ...       0.22 
freq.     413.88  E(vib)   ...       0.19 
freq.     417.45  E(vib)   ...       0.18 
freq.     448.09  E(vib)   ...       0.17 
freq.     461.80  E(vib)   ...       0.16 
freq.     471.93  E(vib)   ...       0.15 
freq.     510.61  E(vib)   ...       0.14 
freq.     579.29  E(vib)   ...       0.11 
freq.     592.73  E(vib)   ...       0.10 
freq.     631.55  E(vib)   ...       0.09 
freq.     665.77  E(vib)   ...       0.08 
freq.     714.71  E(vib)   ...       0.07 
freq.     738.70  E(vib)   ...       0.06 
freq.     782.04  E(vib)   ...       0.05 
freq.     786.11  E(vib)   ...       0.05 
freq.     813.01  E(vib)   ...       0.05 
freq.     817.57  E(vib)   ...       0.05 
freq.     846.95  E(vib)   ...       0.04 
freq.     858.10  E(vib)   ...       0.04 
freq.     860.22  E(vib)   ...       0.04 
freq.     864.52  E(vib)   ...       0.04 
freq.     884.58  E(vib)   ...       0.04 
freq.     893.85  E(vib)   ...       0.03 
freq.     948.41  E(vib)   ...       0.03 
freq.     949.13  E(vib)   ...       0.03 
freq.     974.09  E(vib)   ...       0.03 
freq.     991.69  E(vib)   ...       0.02 
freq.    1011.71  E(vib)   ...       0.02 
freq.    1023.29  E(vib)   ...       0.02 
freq.    1050.95  E(vib)   ...       0.02 
freq.    1059.04  E(vib)   ...       0.02 
freq.    1068.76  E(vib)   ...       0.02 
freq.    1089.75  E(vib)   ...       0.02 
freq.    1093.82  E(vib)   ...       0.02 
freq.    1119.40  E(vib)   ...       0.01 
freq.    1129.90  E(vib)   ...       0.01 
freq.    1131.53  E(vib)   ...       0.01 
freq.    1135.03  E(vib)   ...       0.01 
freq.    1140.17  E(vib)   ...       0.01 
freq.    1149.82  E(vib)   ...       0.01 
freq.    1178.18  E(vib)   ...       0.01 
freq.    1203.29  E(vib)   ...       0.01 
freq.    1205.27  E(vib)   ...       0.01 
freq.    1208.35  E(vib)   ...       0.01 
freq.    1256.85  E(vib)   ...       0.01 
freq.    1289.32  E(vib)   ...       0.01 
freq.    1314.12  E(vib)   ...       0.01 
freq.    1327.38  E(vib)   ...       0.01 
freq.    1334.48  E(vib)   ...       0.01 
freq.    1339.66  E(vib)   ...       0.01 
freq.    1367.18  E(vib)   ...       0.01 
freq.    1392.74  E(vib)   ...       0.00 
freq.    1405.87  E(vib)   ...       0.00 
freq.    1420.03  E(vib)   ...       0.00 
freq.    1421.69  E(vib)   ...       0.00 
freq.    1468.01  E(vib)   ...       0.00 
freq.    1472.25  E(vib)   ...       0.00 
freq.    1476.75  E(vib)   ...       0.00 
freq.    1479.91  E(vib)   ...       0.00 
freq.    1482.22  E(vib)   ...       0.00 
freq.    1484.65  E(vib)   ...       0.00 
freq.    1487.66  E(vib)   ...       0.00 
freq.    1493.85  E(vib)   ...       0.00 
freq.    1523.02  E(vib)   ...       0.00 
freq.    1531.45  E(vib)   ...       0.00 
freq.    1561.04  E(vib)   ...       0.00 
freq.    1598.27  E(vib)   ...       0.00 
freq.    1622.16  E(vib)   ...       0.00 
freq.    1639.84  E(vib)   ...       0.00 
freq.    2274.39  E(vib)   ...       0.00 
freq.    2904.71  E(vib)   ...       0.00 
freq.    2919.62  E(vib)   ...       0.00 
freq.    2923.98  E(vib)   ...       0.00 
freq.    2939.37  E(vib)   ...       0.00 
freq.    3002.75  E(vib)   ...       0.00 
freq.    3070.16  E(vib)   ...       0.00 
freq.    3072.46  E(vib)   ...       0.00 
freq.    3075.56  E(vib)   ...       0.00 
freq.    3122.25  E(vib)   ...       0.00 
freq.    3166.53  E(vib)   ...       0.00 
freq.    3168.26  E(vib)   ...       0.00 
freq.    3172.31  E(vib)   ...       0.00 
freq.    3177.28  E(vib)   ...       0.00 
freq.    3180.54  E(vib)   ...       0.00 
freq.    3191.66  E(vib)   ...       0.00 
freq.    3195.39  E(vib)   ...       0.00 
freq.    3504.25  E(vib)   ...       0.00 
freq.    3508.14  E(vib)   ...       0.00 
freq.    3764.82  E(vib)   ...       0.00 
freq.    3843.41  E(vib)   ...       0.00 

------------
INNER ENERGY
------------

The inner energy is: U= E(el) + E(ZPE) + E(vib) + E(rot) + E(trans)
    E(el)   - is the total energy from the electronic structure calculation
              = E(kin-el) + E(nuc-el) + E(el-el) + E(nuc-nuc)
    E(ZPE)  - the the zero temperature vibrational energy from the frequency calculation
    E(vib)  - the the finite temperature correction to E(ZPE) due to population
              of excited vibrational states
    E(rot)  - is the rotational thermal energy
    E(trans)- is the translational thermal energy

Summary of contributions to the inner energy U:
Electronic energy                ...   -859.67438094 Eh
Zero point energy                ...      0.32587873 Eh     204.49 kcal/mol
Thermal vibrational correction   ...      0.01654842 Eh      10.38 kcal/mol
Thermal rotational correction    ...      0.00141627 Eh       0.89 kcal/mol
Thermal translational correction ...      0.00141627 Eh       0.89 kcal/mol
-----------------------------------------------------------------------
Total thermal energy                   -859.32912124 Eh


Summary of corrections to the electronic energy:
(perhaps to be used in another calculation)
Total thermal correction                  0.01938096 Eh      12.16 kcal/mol
Non-thermal (ZPE) correction              0.32587873 Eh     204.49 kcal/mol
-----------------------------------------------------------------------
Total correction                          0.34525969 Eh     216.65 kcal/mol


--------
ENTHALPY
--------

The enthalpy is H = U + kB*T
                kB is Boltzmann's constant
Total free energy                 ...   -859.32912124 Eh 
Thermal Enthalpy correction       ...      0.00094421 Eh       0.59 kcal/mol
-----------------------------------------------------------------------
Total Enthalpy                    ...   -859.32817703 Eh


Note: Only C1 symmetry has been detected, increase convergence thresholds 
      if your molecule has a higher symmetry. Symmetry factor of 1.0 is   
      used for the rotational entropy correction. 
 

Note: Rotational entropy computed according to Herzberg 
Infrared and Raman Spectra, Chapter V,1, Van Nostrand Reinhold, 1945 
Point Group:  C1, Symmetry Number:   1  
Rotational constants in cm-1:     0.017465     0.006923     0.006351 

Vibrational entropy computed according to the QRRHO of S. Grimme
Chem.Eur.J. 2012 18 9955


-------
ENTROPY
-------

The entropy contributions are T*S = T*(S(el)+S(vib)+S(rot)+S(trans))
     S(el)   - electronic entropy
     S(vib)  - vibrational entropy
     S(rot)  - rotational entropy
     S(trans)- translational entropy
The entropies will be listed as multiplied by the temperature to get
units of energy

Electronic entropy                ...      0.00000000 Eh      0.00 kcal/mol
Vibrational entropy               ...      0.03053562 Eh     19.16 kcal/mol
Rotational entropy                ...      0.01615762 Eh     10.14 kcal/mol
Translational entropy             ...      0.02020426 Eh     12.68 kcal/mol
-----------------------------------------------------------------------
Final entropy term                ...      0.06689750 Eh     41.98 kcal/mol

In case the symmetry of your molecule has not been determined correctly
or in case you have a reason to use a different symmetry number we print 
out the resulting rotational entropy values for sn=1,12 :
 --------------------------------------------------------
|  sn= 1 | S(rot)=       0.01615762 Eh     10.14 kcal/mol|
|  sn= 2 | S(rot)=       0.01550316 Eh      9.73 kcal/mol|
|  sn= 3 | S(rot)=       0.01512033 Eh      9.49 kcal/mol|
|  sn= 4 | S(rot)=       0.01484871 Eh      9.32 kcal/mol|
|  sn= 5 | S(rot)=       0.01463802 Eh      9.19 kcal/mol|
|  sn= 6 | S(rot)=       0.01446587 Eh      9.08 kcal/mol|
|  sn= 7 | S(rot)=       0.01432033 Eh      8.99 kcal/mol|
|  sn= 8 | S(rot)=       0.01419425 Eh      8.91 kcal/mol|
|  sn= 9 | S(rot)=       0.01408304 Eh      8.84 kcal/mol|
|  sn=10 | S(rot)=       0.01398356 Eh      8.77 kcal/mol|
|  sn=11 | S(rot)=       0.01389357 Eh      8.72 kcal/mol|
|  sn=12 | S(rot)=       0.01381142 Eh      8.67 kcal/mol|
 --------------------------------------------------------


-------------------
GIBBS FREE ENERGY
-------------------

The Gibbs free energy is G = H - T*S

Total enthalpy                    ...   -859.32817703 Eh 
Total entropy correction          ...     -0.06689750 Eh    -41.98 kcal/mol
-----------------------------------------------------------------------
Final Gibbs free energy         ...   -859.39507454 Eh

For completeness - the Gibbs free energy minus the electronic energy
G-E(el)                           ...      0.27930640 Eh    175.27 kcal/mol



Timings for individual modules:

Sum of individual times         ...     4554.187 sec (=  75.903 min)
GTO integral calculation        ...       11.826 sec (=   0.197 min)   0.3 %
SCF iterations                  ...      192.286 sec (=   3.205 min)   4.2 %
SCF Gradient evaluation         ...       33.616 sec (=   0.560 min)   0.7 %
Numerical frequency calculation ...     4316.458 sec (=  71.941 min)  94.8 %
                             ****ORCA TERMINATED NORMALLY****
TOTAL RUN TIME: 0 days 1 hours 13 minutes 49 seconds 232 msec
