
                                 *****************
                                 * O   R   C   A *
                                 *****************

                                            #,                                       
                                            ###                                      
                                            ####                                     
                                            #####                                    
                                            ######                                   
                                           ########,                                 
                                     ,,################,,,,,                         
                               ,,#################################,,                 
                          ,,##########################################,,             
                       ,#########################################, ''#####,          
                    ,#############################################,,   '####,        
                  ,##################################################,,,,####,       
                ,###########''''           ''''###############################       
              ,#####''   ,,,,##########,,,,          '''####'''          '####       
            ,##' ,,,,###########################,,,                        '##       
           ' ,,###''''                  '''############,,,                           
         ,,##''                                '''############,,,,        ,,,,,,###''
      ,#''                                            '''#######################'''  
     '                                                          ''''####''''         
             ,#######,   #######,   ,#######,      ##                                
            ,#'     '#,  ##    ##  ,#'     '#,    #''#        ######   ,####,        
            ##       ##  ##   ,#'  ##            #'  '#       #        #'  '#        
            ##       ##  #######   ##           ,######,      #####,   #    #        
            '#,     ,#'  ##    ##  '#,     ,#' ,#      #,         ##   #,  ,#        
             '#######'   ##     ##  '#######'  #'      '#     #####' # '####'        



                  #######################################################
                  #                        -***-                        #
                  #          Department of theory and spectroscopy      #
                  #    Directorship and core code : Frank Neese         #
                  #        Max Planck Institute fuer Kohlenforschung    #
                  #                Kaiser Wilhelm Platz 1               #
                  #                 D-45470 Muelheim/Ruhr               #
                  #                      Germany                        #
                  #                                                     #
                  #                  All rights reserved                #
                  #                        -***-                        #
                  #######################################################


                         Program Version 5.0.4 -  RELEASE  -


 With contributions from (in alphabetic order):
   Daniel Aravena         : Magnetic Suceptibility
   Michael Atanasov       : Ab Initio Ligand Field Theory (pilot matlab implementation)
   Alexander A. Auer      : GIAO ZORA, VPT2 properties, NMR spectrum
   Ute Becker             : Parallelization
   Giovanni Bistoni       : ED, misc. LED, open-shell LED, HFLD
   Martin Brehm           : Molecular dynamics
   Dmytro Bykov           : SCF Hessian
   Vijay G. Chilkuri      : MRCI spin determinant printing, contributions to CSF-ICE
   Dipayan Datta          : RHF DLPNO-CCSD density
   Achintya Kumar Dutta   : EOM-CC, STEOM-CC
   Dmitry Ganyushin       : Spin-Orbit,Spin-Spin,Magnetic field MRCI
   Miquel Garcia          : C-PCM and meta-GGA Hessian, CC/C-PCM, Gaussian charge scheme
   Yang Guo               : DLPNO-NEVPT2, F12-NEVPT2, CIM, IAO-localization
   Andreas Hansen         : Spin unrestricted coupled pair/coupled cluster methods
   Benjamin Helmich-Paris : MC-RPA, TRAH-SCF, COSX integrals
   Lee Huntington         : MR-EOM, pCC
   Robert Izsak           : Overlap fitted RIJCOSX, COSX-SCS-MP3, EOM
   Marcus Kettner         : VPT2
   Christian Kollmar      : KDIIS, OOCD, Brueckner-CCSD(T), CCSD density, CASPT2, CASPT2-K
   Simone Kossmann        : Meta GGA functionals, TD-DFT gradient, OOMP2, MP2 Hessian
   Martin Krupicka        : Initial AUTO-CI
   Lucas Lang             : DCDCAS
   Marvin Lechner         : AUTO-CI (C++ implementation), FIC-MRCC
   Dagmar Lenk            : GEPOL surface, SMD
   Dimitrios Liakos       : Extrapolation schemes; Compound Job, initial MDCI parallelization
   Dimitrios Manganas     : Further ROCIS development; embedding schemes
   Dimitrios Pantazis     : SARC Basis sets
   Anastasios Papadopoulos: AUTO-CI, single reference methods and gradients
   Taras Petrenko         : DFT Hessian,TD-DFT gradient, ASA, ECA, R-Raman, ABS, FL, XAS/XES, NRVS
   Peter Pinski           : DLPNO-MP2, DLPNO-MP2 Gradient
   Christoph Reimann      : Effective Core Potentials
   Marius Retegan         : Local ZFS, SOC
   Christoph Riplinger    : Optimizer, TS searches, QM/MM, DLPNO-CCSD(T), (RO)-DLPNO pert. Triples
   Tobias Risthaus        : Range-separated hybrids, TD-DFT gradient, RPA, STAB
   Michael Roemelt        : Original ROCIS implementation
   Masaaki Saitow         : Open-shell DLPNO-CCSD energy and density
   Barbara Sandhoefer     : DKH picture change effects
   Avijit Sen             : IP-ROCIS
   Kantharuban Sivalingam : CASSCF convergence, NEVPT2, FIC-MRCI
   Bernardo de Souza      : ESD, SOC TD-DFT
   Georgi Stoychev        : AutoAux, RI-MP2 NMR, DLPNO-MP2 response
   Willem Van den Heuvel  : Paramagnetic NMR
   Boris Wezisla          : Elementary symmetry handling
   Frank Wennmohs         : Technical directorship


 We gratefully acknowledge several colleagues who have allowed us to
 interface, adapt or use parts of their codes:
   Stefan Grimme, W. Hujo, H. Kruse, P. Pracht,  : VdW corrections, initial TS optimization,
                  C. Bannwarth, S. Ehlert          DFT functionals, gCP, sTDA/sTD-DF
   Ed Valeev, F. Pavosevic, A. Kumar             : LibInt (2-el integral package), F12 methods
   Garnet Chan, S. Sharma, J. Yang, R. Olivares  : DMRG
   Ulf Ekstrom                                   : XCFun DFT Library
   Mihaly Kallay                                 : mrcc  (arbitrary order and MRCC methods)
   Jiri Pittner, Ondrej Demel                    : Mk-CCSD
   Frank Weinhold                                : gennbo (NPA and NBO analysis)
   Christopher J. Cramer and Donald G. Truhlar   : smd solvation model
   Lars Goerigk                                  : TD-DFT with DH, B97 family of functionals
   V. Asgeirsson, H. Jonsson                     : NEB implementation
   FAccTs GmbH                                   : IRC, NEB, NEB-TS, DLPNO-Multilevel, CI-OPT
                                                   MM, QMMM, 2- and 3-layer-ONIOM, Crystal-QMMM,
                                                   LR-CPCM, SF, NACMEs, symmetry and pop. for TD-DFT,
                                                   nearIR, NL-DFT gradient (VV10), updates on ESD,
                                                   ML-optimized integration grids
   S Lehtola, MJT Oliveira, MAL Marques          : LibXC Library
   Liviu Ungur et al                             : ANISO software


 Your calculation uses the libint2 library for the computation of 2-el integrals
 For citations please refer to: http://libint.valeyev.net

 Your ORCA version has been built with support for libXC version: 5.1.0
 For citations please refer to: https://tddft.org/programs/libxc/

 This ORCA versions uses:
   CBLAS   interface :  Fast vector & matrix operations
   LAPACKE interface :  Fast linear algebra routines
   SCALAPACK package :  Parallel linear algebra routines
   Shared memory     :  Shared parallel matrices
   BLAS/LAPACK       :  OpenBLAS 0.3.15  USE64BITINT DYNAMIC_ARCH NO_AFFINITY Prescott SINGLE_THREADED
        Core in use  :  Prescott
   Copyright (c) 2011-2014, The OpenBLAS Project


Your calculation utilizes the atom-pairwise dispersion correction
with the Becke-Johnson damping scheme (D3BJ)
Cite in your paper:
S.Grimme, S.Ehrlich, L.Goerigk, J Comput Chem, (2011), 32, 1456–1465 
S.Grimme, J.Antony, S.Ehrlich and H.Krieg, J.Chem.Phys., 132, (2010), 154104 
   

================================================================================

----- Orbital basis set information -----
Your calculation utilizes the basis: def2-TZVP
   F. Weigend and R. Ahlrichs, Phys. Chem. Chem. Phys. 7, 3297 (2005).

----- AuxJ basis set information -----
Your calculation utilizes the auxiliary basis: def2/J
   F. Weigend, Phys. Chem. Chem. Phys. 8, 1057 (2006).

================================================================================
                                        WARNINGS
                       Please study these warnings very carefully!
================================================================================


WARNING: Geometry Optimization
  ===> : Switching off AutoStart
         For restart on a previous wavefunction, please use MOREAD

INFO   : the flag for use of the SHARK integral package has been found!

================================================================================
                                       INPUT FILE
================================================================================
NAME = /home/rudenko/mop_saddle_orca_4_serv/for_orca/CH2CHCH2NO2_pyridine/orca/orca_start/start.inp
|  1> !  opt B3LYP def2-TZVP CPCM D3 
|  2> %pal nprocs 102 end
|  3> %cpcm epsilon 78.4 end 
|  4> *xyz 0 1 
|  5> C   -0.08605 -0.46341 0.17799
|  6> H   -0.07163 -0.91773 -0.81574
|  7> N   -0.17269 -2.70545 1.20686
|  8> O   -0.60634 -3.12794 0.14742
|  9> O   -0.16502 -3.39455 2.21888
| 10> H   -0.48249 1.27946 1.35115
| 11> C   0.37671 -1.3404 1.29515
| 12> H   1.50921 -1.41818 1.28183
| 13> H   0.13517 -0.91747 2.30647
| 14> C   -0.45595 0.79918 0.38202
| 15> H   -0.76132 1.46427 -0.41555
| 16> C   6.69408 -3.15063 0.76359
| 17> C   8.08913 -3.20744 0.6795
| 18> C   8.79121 -2.03261 0.41527
| 19> C   8.08581 -0.84334 0.24072
| 20> C   6.68989 -0.86978 0.33821
| 21> N   6.00582 -2.00272 0.59561
| 22> H   6.09365 -4.04736 0.97126
| 23> H   8.61154 -4.15346 0.81692
| 24> H   8.60513 0.09114 0.03156
| 25> H   6.08857 0.03973 0.20631
| 26> H   9.88182 -2.04542 0.34581
| 27> H   3.06721 -3.43066 0.84365
| 28> H   3.99734 -2.27534 0.49713
| 29> O   3.07347 -2.56449 0.42372
| 30> *
| 31> 
| 32>                          ****END OF INPUT****
================================================================================

                       *****************************
                       * Geometry Optimization Run *
                       *****************************

Geometry optimization settings:
Update method            Update   .... BFGS
Choice of coordinates    CoordSys .... Z-matrix Internals
Initial Hessian          InHess   .... Almoef's Model

Convergence Tolerances:
Energy Change            TolE     ....  5.0000e-06 Eh
Max. Gradient            TolMAXG  ....  3.0000e-04 Eh/bohr
RMS Gradient             TolRMSG  ....  1.0000e-04 Eh/bohr
Max. Displacement        TolMAXD  ....  4.0000e-03 bohr
RMS Displacement         TolRMSD  ....  2.0000e-03 bohr
Strict Convergence                ....  False
------------------------------------------------------------------------------
                        ORCA OPTIMIZATION COORDINATE SETUP
------------------------------------------------------------------------------

The optimization will be done in new redundant internal coordinates
Making redundant internal coordinates   ...  (new redundants) done
Evaluating the initial hessian          ...  (Almloef) done
Evaluating the coordinates              ...  done
Calculating the B-matrix                .... done
Calculating the G-matrix                .... done
Diagonalizing the G-matrix              .... done
Small eigenvalue found = 1.007e-02
Small eigenvalue found = 2.512e-02
The first mode is                       ....   72
The number of degrees of freedom        ....   69

    -----------------------------------------------------------------
                    Redundant Internal Coordinates


    -----------------------------------------------------------------
         Definition                    Initial Value    Approx d2E/dq
    -----------------------------------------------------------------
      1. B(H   1,C   0)                  1.0928         0.356474   
      2. B(O   3,N   2)                  1.2202         0.935122   
      3. B(O   4,N   2)                  1.2244         0.920982   
      4. B(C   6,N   2)                  1.4741         0.410852   
      5. B(C   6,C   0)                  1.4938         0.426780   
      6. B(H   7,C   6)                  1.1352         0.304955   
      7. B(H   8,C   6)                  1.1225         0.319588   
      8. B(C   9,H   5)                  1.0819         0.370927   
      9. B(C   9,C   0)                  1.3314         0.774915   
     10. B(H  10,C   9)                  1.0825         0.370218   
     11. B(C  12,C  11)                  1.3987         0.605063   
     12. B(C  13,C  12)                  1.3939         0.615907   
     13. B(C  14,C  13)                  1.3937         0.616345   
     14. B(C  15,C  14)                  1.3996         0.603212   
     15. B(N  16,C  11)                  1.3489         0.650725   
     16. B(N  16,C  15)                  1.3482         0.652373   
     17. B(H  17,C  11)                  1.0990         0.348408   
     18. B(H  18,C  12)                  1.0894         0.360920   
     19. B(H  19,C  14)                  1.0894         0.360954   
     20. B(H  20,C  15)                  1.0983         0.349327   
     21. B(H  21,C  13)                  1.0929         0.356291   
     22. B(H  22,H   7)                  2.5825         0.000287   
     23. B(H  23,N  16)                  2.0293         0.010233   
     24. B(H  23,H   7)                  2.7461         0.000157   
     25. B(O  24,H   7)                  2.1207         0.007314   
     26. B(O  24,H  23)                  0.9708         0.499655   
     27. B(O  24,H  22)                  0.9626         0.514982   
     28. A(C   6,C   0,C   9)          121.8858         0.422516   
     29. A(H   1,C   0,C   9)          122.4999         0.365938   
     30. A(H   1,C   0,C   6)          115.5903         0.330964   
     31. A(O   4,N   2,C   6)          117.9913         0.424363   
     32. A(O   3,N   2,C   6)          120.3363         0.425522   
     33. A(O   3,N   2,O   4)          121.6682         0.489589   
     34. A(C   0,C   6,H   8)          112.7025         0.325055   
     35. A(N   2,C   6,H   7)          107.9177         0.318657   
     36. A(N   2,C   6,H   8)          108.8243         0.321106   
     37. A(C   0,C   6,N   2)          112.5453         0.375521   
     38. A(H   7,C   6,H   8)          104.5395         0.278206   
     39. A(C   0,C   6,H   7)          109.9071         0.322564   
     40. A(C   6,H   7,H  23)          158.2167         0.115978   
     41. A(H  23,H   7,O  24)           17.6995         0.100461   
     42. A(H  22,H   7,O  24)           20.7919         0.102131   
     43. A(C   6,H   7,O  24)          141.0431         0.168535   
     44. A(H  22,H   7,H  23)           33.0365         0.093454   
     45. A(C   6,H   7,H  22)          131.0872         0.119909   
     46. A(H   5,C   9,H  10)          112.3537         0.293476   
     47. A(C   0,C   9,H  10)          123.2396         0.368320   
     48. A(C   0,C   9,H   5)          124.4060         0.368441   
     49. A(N  16,C  11,H  17)          116.0487         0.351649   
     50. A(C  12,C  11,N  16)          122.4089         0.433089   
     51. A(C  12,C  11,H  17)          121.5424         0.349503   
     52. A(C  13,C  12,H  18)          120.9503         0.352649   
     53. A(C  11,C  12,H  18)          120.3958         0.351591   
     54. A(C  11,C  12,C  13)          118.6539         0.431653   
     55. A(C  14,C  13,H  21)          120.4719         0.351922   
     56. A(C  12,C  13,H  21)          120.3178         0.351880   
     57. A(C  12,C  13,C  14)          119.2103         0.433088   
     58. A(C  15,C  14,H  19)          120.3353         0.351415   
     59. A(C  13,C  14,H  19)          120.9814         0.352697   
     60. A(C  13,C  14,C  15)          118.6833         0.431470   
     61. A(N  16,C  15,H  20)          116.1687         0.351956   
     62. A(C  14,C  15,H  20)          121.4718         0.349478   
     63. A(C  14,C  15,N  16)          122.3594         0.433048   
     64. A(C  15,N  16,H  23)          127.2865         0.205886   
     65. A(C  11,N  16,H  23)          113.3730         0.205819   
     66. A(C  11,N  16,C  15)          118.6841         0.436123   
     67. A(H   7,H  22,O  24)           51.4461         0.123395   
     68. A(H   7,H  23,N  16)          147.2413         0.101366   
     69. A(N  16,H  23,O  24)          170.2451         0.183843   
     70. A(H   7,H  23,O  24)           41.6136         0.118816   
     71. A(H   7,O  24,H  23)          120.6869         0.176902   
     72. A(H   7,O  24,H  22)          107.7621         0.177506   
     73. A(H  22,O  24,H  23)          103.9572         0.319243   
     74. D(H   7,C   6,C   0,C   9)   -101.8593         0.013457   
     75. D(C   0,C   6,N   2,O   3)     19.8387         0.014399   
     76. D(N   2,C   6,C   0,H   1)    -43.9049         0.013457   
     77. D(H   8,C   6,C   0,H   1)   -167.4359         0.013457   
     78. D(H   8,C   6,C   0,C   9)     14.3040         0.013457   
     79. D(H   7,C   6,N   2,O   4)     77.6639         0.014399   
     80. D(N   2,C   6,C   0,C   9)    137.8350         0.013457   
     81. D(H   7,C   6,C   0,H   1)     76.4009         0.013457   
     82. D(H   7,C   6,N   2,O   3)   -101.6071         0.014399   
     83. D(H   8,C   6,N   2,O   3)    145.5019         0.014399   
     84. D(C   0,C   6,N   2,O   4)   -160.8903         0.014399   
     85. D(H   8,C   6,N   2,O   4)    -35.2271         0.014399   
     86. D(H  22,H   7,C   6,N   2)      8.5825         0.095646   
     87. D(H  22,H   7,C   6,H   8)    124.3164         0.095646   
     88. D(H  22,H   7,C   6,C   0)   -114.4870         0.095646   
     89. D(O  24,H   7,C   6,H   8)    150.8911         0.095646   
     90. D(O  24,H   7,C   6,N   2)     35.1573         0.095646   
     91. D(O  24,H   7,C   6,C   0)    -87.9123         0.095646   
     92. D(H  23,H   7,C   6,H   8)    159.6975         0.095646   
     93. D(H  23,H   7,C   6,N   2)     43.9637         0.095646   
     94. D(H  23,H   7,C   6,C   0)    -79.1059         0.095646   
     95. D(H  10,C   9,C   0,C   6)    177.7682         0.043104   
     96. D(H  10,C   9,C   0,H   1)     -0.3712         0.043104   
     97. D(H   5,C   9,C   0,C   6)     -1.9093         0.043104   
     98. D(H   5,C   9,C   0,H   1)    179.9513         0.043104   
     99. D(H  18,C  12,C  11,N  16)   -179.7573         0.025261   
    100. D(C  13,C  12,C  11,H  17)   -179.9032         0.025261   
    101. D(C  13,C  12,C  11,N  16)      0.1462         0.025261   
    102. D(H  18,C  12,C  11,H  17)      0.1933         0.025261   
    103. D(C  14,C  13,C  12,H  18)    179.7612         0.026228   
    104. D(C  14,C  13,C  12,C  11)     -0.1417         0.026228   
    105. D(H  21,C  13,C  12,H  18)     -0.2226         0.026228   
    106. D(H  21,C  13,C  12,C  11)    179.8745         0.026228   
    107. D(H  19,C  14,C  13,H  21)      0.0774         0.026268   
    108. D(H  19,C  14,C  13,C  12)   -179.9064         0.026268   
    109. D(C  15,C  14,C  13,H  21)   -179.9714         0.026268   
    110. D(C  15,C  14,C  13,C  12)      0.0448         0.026268   
    111. D(H  20,C  15,C  14,H  19)      0.1023         0.025099   
    112. D(H  20,C  15,C  14,C  13)   -179.8492         0.025099   
    113. D(N  16,C  15,C  14,H  19)   -179.9897         0.025099   
    114. D(N  16,C  15,C  14,C  13)      0.0588         0.025099   
    115. D(H  23,N  16,C  15,H  20)      9.8003         0.034754   
    116. D(H  23,N  16,C  15,C  14)   -170.1123         0.034754   
    117. D(C  11,N  16,C  15,H  20)    179.8535         0.034754   
    118. D(C  11,N  16,C  15,C  14)     -0.0591         0.034754   
    119. D(H  23,N  16,C  11,H  17)     -8.6088         0.034564   
    120. D(H  23,N  16,C  11,C  12)    171.3443         0.034564   
    121. D(C  15,N  16,C  11,H  17)   -179.9984         0.034564   
    122. D(C  15,N  16,C  11,C  12)     -0.0453         0.034564   
    123. D(O  24,H  22,H   7,H  23)    -29.1965         0.001501   
    124. D(O  24,H  22,H   7,C   6)    127.5916         0.001501   
    125. D(H   7,H  23,N  16,C  15)    -53.2679         0.001560   
    126. D(O  24,H  23,N  16,C  15)    154.4543         0.001560   
    127. D(O  24,H  23,N  16,C  11)    -16.0437         0.001560   
    128. D(N  16,H  23,H   7,O  24)   -173.1839         0.001500   
    129. D(N  16,H  23,H   7,H  22)   -138.4647         0.001500   
    130. D(N  16,H  23,H   7,C   6)    168.3581         0.001500   
    131. D(H   7,H  23,N  16,C  11)    136.2341         0.001560   
    132. D(O  24,H  23,H   7,H  22)     34.7192         0.001500   
    133. D(O  24,H  23,H   7,C   6)    -18.4580         0.001500   
    134. D(H  23,O  24,H   7,C   6)    169.2297         0.001534   
    135. D(H  22,O  24,H   7,H  23)    118.9870         0.001534   
    136. D(H  22,O  24,H   7,C   6)    -71.7833         0.001534   
    137. D(H   7,O  24,H  23,N  16)    157.7267         0.346015   
    138. D(H  22,O  24,H  23,N  16)     36.8613         0.346015   
    139. D(H  22,O  24,H  23,H   7)   -120.8654         0.346015   
    140. D(H  23,O  24,H  22,H   7)    129.1837         0.337308   
    141. D(H  23,O  24,H   7,H  22)   -118.9870         0.001534   
    -----------------------------------------------------------------

Number of atoms                         .... 25
Number of degrees of freedom            .... 141

         *************************************************************
         *                GEOMETRY OPTIMIZATION CYCLE   1            *
         *************************************************************
---------------------------------
CARTESIAN COORDINATES (ANGSTROEM)
---------------------------------
  C     -0.086050   -0.463410    0.177990
  H     -0.071630   -0.917730   -0.815740
  N     -0.172690   -2.705450    1.206860
  O     -0.606340   -3.127940    0.147420
  O     -0.165020   -3.394550    2.218880
  H     -0.482490    1.279460    1.351150
  C      0.376710   -1.340400    1.295150
  H      1.509210   -1.418180    1.281830
  H      0.135170   -0.917470    2.306470
  C     -0.455950    0.799180    0.382020
  H     -0.761320    1.464270   -0.415550
  C      6.694080   -3.150630    0.763590
  C      8.089130   -3.207440    0.679500
  C      8.791210   -2.032610    0.415270
  C      8.085810   -0.843340    0.240720
  C      6.689890   -0.869780    0.338210
  N      6.005820   -2.002720    0.595610
  H      6.093650   -4.047360    0.971260
  H      8.611540   -4.153460    0.816920
  H      8.605130    0.091140    0.031560
  H      6.088570    0.039730    0.206310
  H      9.881820   -2.045420    0.345810
  H      3.067210   -3.430660    0.843650
  H      3.997340   -2.275340    0.497130
  O      3.073470   -2.564490    0.423720

----------------------------
CARTESIAN COORDINATES (A.U.)
----------------------------
  NO LB      ZA    FRAG     MASS         X           Y           Z
   0 C     6.0000    0    12.011   -0.162611   -0.875718    0.336352
   1 H     1.0000    0     1.008   -0.135361   -1.734258   -1.541525
   2 N     7.0000    0    14.007   -0.326337   -5.112560    2.280635
   3 O     8.0000    0    15.999   -1.145817   -5.910950    0.278583
   4 O     8.0000    0    15.999   -0.311843   -6.414770    4.193076
   5 H     1.0000    0     1.008   -0.911774    2.417829    2.553303
   6 C     6.0000    0    12.011    0.711879   -2.532989    2.447479
   7 H     1.0000    0     1.008    2.851994   -2.679972    2.422308
   8 H     1.0000    0     1.008    0.255434   -1.733767    4.358597
   9 C     6.0000    0    12.011   -0.861621    1.510231    0.721913
  10 H     1.0000    0     1.008   -1.438686    2.767069   -0.785276
  11 C     6.0000    0    12.011   12.649978   -5.953828    1.442976
  12 C     6.0000    0    12.011   15.286240   -6.061183    1.284069
  13 C     6.0000    0    12.011   16.612979   -3.841076    0.784747
  14 C     6.0000    0    12.011   15.279966   -1.593682    0.454895
  15 C     6.0000    0    12.011   12.642060   -1.643646    0.639124
  16 N     7.0000    0    14.007   11.349355   -3.784592    1.125540
  17 H     1.0000    0     1.008   11.515330   -7.648402    1.835415
  18 H     1.0000    0     1.008   16.273452   -7.848902    1.543755
  19 H     1.0000    0     1.008   16.261339    0.172230    0.059640
  20 H     1.0000    0     1.008   11.505730    0.075079    0.389869
  21 H     1.0000    0     1.008   18.673934   -3.865284    0.653486
  22 H     1.0000    0     1.008    5.796187   -6.483008    1.594267
  23 H     1.0000    0     1.008    7.553878   -4.299769    0.939440
  24 O     8.0000    0    15.999    5.808017   -4.846184    0.800715

--------------------------------
INTERNAL COORDINATES (ANGSTROEM)
--------------------------------
 C      0   0   0     0.000000000000     0.00000000     0.00000000
 H      1   0   0     1.092755192941     0.00000000     0.00000000
 N      1   2   0     2.468364504708    90.10758364     0.00000000
 O      3   1   2     1.220230812674    87.99812083   338.32823066
 O      3   1   2     1.224378258260   148.81721452   175.22526535
 H      1   2   3     2.138004886828   147.17793640   200.77372484
 C      3   1   2     1.474108878815    33.98056113   141.28554948
 H      7   3   1     1.135245964890   107.91769964   238.55416364
 H      7   3   1     1.122488084079   108.82431520   125.66318819
 C      6   1   2     1.081936322941    30.91597666   359.92422793
 H     10   6   1     1.082457135364   112.35368640   180.29165370
 C      8   7   3     5.491159496591   164.72245067    14.54828906
 C     12   8   7     1.398736217698   163.78503745   168.70169465
 C     13  12   8     1.393900766985   118.65385001   341.87097299
 C     14  13  12     1.393707284691   119.21028097   359.85831887
 C     15  14  13     1.399569941125   118.68329914     0.04475212
 N     16  15  14     1.348243141462   122.35943695     0.05881017
 H     12   8   7     1.098984852807    73.96201487   332.59973144
 H     13  12   8     1.089380697874   120.39580249   161.96750816
 H     15  14  13     1.089354872574   120.98138885   180.09356649
 H     16  15  14     1.098267632456   121.47178290   180.15076868
 H     14  13  12     1.092894761539   120.31779938   179.87446146
 H      8   7   3     2.582526178531   131.08723950     8.58251842
 H     23   8   7     1.523148787775    79.39271047   156.78815062
 O     23   8   7     0.962616674175    51.44605338   127.59162370

---------------------------
INTERNAL COORDINATES (A.U.)
---------------------------
 C      0   0   0     0.000000000000     0.00000000     0.00000000
 H      1   0   0     2.065008046079     0.00000000     0.00000000
 N      1   2   0     4.664532912589    90.10758364     0.00000000
 O      3   1   2     2.305902056127    87.99812083   338.32823066
 O      3   1   2     2.313739592439   148.81721452   175.22526535
 H      1   2   3     4.040243709090   147.17793640   200.77372484
 C      3   1   2     2.785662072541    33.98056113   141.28554948
 H      7   3   1     2.145303968282   107.91769964   238.55416364
 H      7   3   1     2.121195067500   108.82431520   125.66318819
 C      6   1   2     2.044563344701    30.91597666   359.92422793
 H     10   6   1     2.045547537547   112.35368640   180.29165370
 C      8   7   3    10.376787606238   164.72245067    14.54828906
 C     12   8   7     2.643228385046   163.78503745   168.70169465
 C     13  12   8     2.634090707464   118.65385001   341.87097299
 C     14  13  12     2.633725078916   119.21028097   359.85831887
 C     15  14  13     2.644803893994   118.68329914     0.04475212
 N     16  15  14     2.547810299301   122.35943695     0.05881017
 H     12   8   7     2.076780397134    73.96201487   332.59973144
 H     13  12   8     2.058631174561   120.39580249   161.96750816
 H     15  14  13     2.058582371817   120.98138885   180.09356649
 H     16  15  14     2.075425047091   121.47178290   180.15076868
 H     14  13  12     2.065271792506   120.31779938   179.87446146
 H      8   7   3     4.880267211107   131.08723950     8.58251842
 H     23   8   7     2.878334070109    79.39271047   156.78815062
 O     23   8   7     1.819081886137    51.44605338   127.59162370

---------------------
BASIS SET INFORMATION
---------------------
There are 4 groups of distinct atoms

 Group   1 Type C   : 11s6p2d1f contracted to 5s3p2d1f pattern {62111/411/11/1}
 Group   2 Type H   : 5s1p contracted to 3s1p pattern {311/1}
 Group   3 Type N   : 11s6p2d1f contracted to 5s3p2d1f pattern {62111/411/11/1}
 Group   4 Type O   : 11s6p2d1f contracted to 5s3p2d1f pattern {62111/411/11/1}

Atom   0C    basis set group =>   1
Atom   1H    basis set group =>   2
Atom   2N    basis set group =>   3
Atom   3O    basis set group =>   4
Atom   4O    basis set group =>   4
Atom   5H    basis set group =>   2
Atom   6C    basis set group =>   1
Atom   7H    basis set group =>   2
Atom   8H    basis set group =>   2
Atom   9C    basis set group =>   1
Atom  10H    basis set group =>   2
Atom  11C    basis set group =>   1
Atom  12C    basis set group =>   1
Atom  13C    basis set group =>   1
Atom  14C    basis set group =>   1
Atom  15C    basis set group =>   1
Atom  16N    basis set group =>   3
Atom  17H    basis set group =>   2
Atom  18H    basis set group =>   2
Atom  19H    basis set group =>   2
Atom  20H    basis set group =>   2
Atom  21H    basis set group =>   2
Atom  22H    basis set group =>   2
Atom  23H    basis set group =>   2
Atom  24O    basis set group =>   4
---------------------------------
AUXILIARY/J BASIS SET INFORMATION
---------------------------------
There are 4 groups of distinct atoms

 Group   1 Type C   : 12s5p4d2f1g contracted to 6s4p3d1f1g pattern {711111/2111/211/2/1}
 Group   2 Type H   : 5s2p1d contracted to 3s1p1d pattern {311/2/1}
 Group   3 Type N   : 12s5p4d2f1g contracted to 6s4p3d1f1g pattern {711111/2111/211/2/1}
 Group   4 Type O   : 12s5p4d2f1g contracted to 6s4p3d1f1g pattern {711111/2111/211/2/1}

Atom   0C    basis set group =>   1
Atom   1H    basis set group =>   2
Atom   2N    basis set group =>   3
Atom   3O    basis set group =>   4
Atom   4O    basis set group =>   4
Atom   5H    basis set group =>   2
Atom   6C    basis set group =>   1
Atom   7H    basis set group =>   2
Atom   8H    basis set group =>   2
Atom   9C    basis set group =>   1
Atom  10H    basis set group =>   2
Atom  11C    basis set group =>   1
Atom  12C    basis set group =>   1
Atom  13C    basis set group =>   1
Atom  14C    basis set group =>   1
Atom  15C    basis set group =>   1
Atom  16N    basis set group =>   3
Atom  17H    basis set group =>   2
Atom  18H    basis set group =>   2
Atom  19H    basis set group =>   2
Atom  20H    basis set group =>   2
Atom  21H    basis set group =>   2
Atom  22H    basis set group =>   2
Atom  23H    basis set group =>   2
Atom  24O    basis set group =>   4


           ************************************************************
           *        Program running with 102 parallel MPI-processes   *
           *              working on a common directory               *
           ************************************************************
------------------------------------------------------------------------------
                           ORCA GTO INTEGRAL CALCULATION
                           -- RI-GTO INTEGRALS CHOSEN --
------------------------------------------------------------------------------
------------------------------------------------------------------------------
                   ___                                                        
                  /   \      - P O W E R E D   B Y -                         
                 /     \                                                     
                 |  |  |   _    _      __       _____    __    __             
                 |  |  |  | |  | |    /  \     |  _  \  |  |  /  |          
                  \  \/   | |  | |   /    \    | | | |  |  | /  /          
                 / \  \   | |__| |  /  /\  \   | |_| |  |  |/  /          
                |  |  |   |  __  | /  /__\  \  |    /   |      \           
                |  |  |   | |  | | |   __   |  |    \   |  |\   \          
                \     /   | |  | | |  |  |  |  | |\  \  |  | \   \       
                 \___/    |_|  |_| |__|  |__|  |_| \__\ |__|  \__/        
                                                                              
                      - O R C A' S   B I G   F R I E N D -                    
                                      &                                       
                       - I N T E G R A L  F E E D E R -                       
                                                                              
 v1 FN, 2020, v2 2021                                                         
------------------------------------------------------------------------------


Reading SHARK input file /home/rudenko/mop_saddle_orca_4_serv/for_orca/CH2CHCH2NO2_pyridine/orca/orca_start/start.SHARKINP.tmp ... ok
----------------------
SHARK INTEGRAL PACKAGE
----------------------

Number of atoms                             ...     25
Number of basis functions                   ...    475
Number of shells                            ...    191
Maximum angular momentum                    ...      3
Integral batch strategy                     ... SHARK/LIBINT Hybrid
RI-J (if used) integral strategy            ... SPLIT-RIJ (Revised 2003 algorithm where possible)
Printlevel                                  ...      1
Contraction scheme used                     ... SEGMENTED contraction
Coulomb Range Separation                    ... NOT USED
Exchange Range Separation                   ... NOT USED
Finite Nucleus Model                        ... NOT USED
Auxiliary Coulomb fitting basis             ... AVAILABLE
   # of basis functions in Aux-J            ...    769
   # of shells in Aux-J                     ...    255
   Maximum angular momentum in Aux-J        ...      4
Auxiliary J/K fitting basis                 ... NOT available
Auxiliary Correlation fitting basis         ... NOT available
Auxiliary 'external' fitting basis          ... NOT available
Integral threshold                          ...     2.500000e-11
Primitive cut-off                           ...     2.500000e-12
Primitive pair pre-selection threshold      ...     2.500000e-12

Calculating pre-screening integrals         ... done (  0.1 sec) Dimension = 191
Organizing shell pair data                  ... done (  0.3 sec)
Shell pair information
Total number of shell pairs                 ...     18336
Shell pairs after pre-screening             ...     12016
Total number of primitive shell pairs       ...     55600
Primitive shell pairs kept                  ...     25432
          la=0 lb=0:   3360 shell pairs
          la=1 lb=0:   3556 shell pairs
          la=1 lb=1:    970 shell pairs
          la=2 lb=0:   1631 shell pairs
          la=2 lb=1:    869 shell pairs
          la=2 lb=2:    199 shell pairs
          la=3 lb=0:    779 shell pairs
          la=3 lb=1:    422 shell pairs
          la=3 lb=2:    181 shell pairs
          la=3 lb=3:     49 shell pairs

Calculating one electron integrals          ... done (  0.1 sec)
Calculating RI/J V-Matrix + Cholesky decomp.... done (  0.1 sec)
Calculating Nuclear repulsion               ... done (  0.0 sec) ENN=    692.915997490266 Eh

SHARK setup successfully completed in   0.9 seconds

Maximum memory used throughout the entire GTOINT-calculation: 24.8 MB


           ************************************************************
           *        Program running with 102 parallel MPI-processes   *
           *              working on a common directory               *
           ************************************************************
-------------------------------------------------------------------------------
                                 ORCA SCF
-------------------------------------------------------------------------------

------------
SCF SETTINGS
------------
Hamiltonian:
 Density Functional     Method          .... DFT(GTOs)
 Exchange Functional    Exchange        .... B88
   X-Alpha parameter    XAlpha          ....  0.666667
   Becke's b parameter  XBeta           ....  0.004200
 Correlation Functional Correlation     .... LYP
 LDA part of GGA corr.  LDAOpt          .... VWN-5
 Gradients option       PostSCFGGA      .... off
 Hybrid DFT is turned on
   Fraction HF Exchange ScalHFX         ....  0.200000
   Scaling of DF-GGA-X  ScalDFX         ....  0.720000
   Scaling of DF-GGA-C  ScalDFC         ....  0.810000
   Scaling of DF-LDA-C  ScalLDAC        ....  1.000000
   Perturbative correction              ....  0.000000
   Density functional embedding theory  .... OFF
   NL short-range parameter             ....  4.800000
 RI-approximation to the Coulomb term is turned on
   Number of AuxJ basis functions       .... 769
   RIJ-COSX (HFX calculated with COS-X)).... on


General Settings:
 Integral files         IntName         .... /home/rudenko/mop_saddle_orca_4_serv/for_orca/CH2CHCH2NO2_pyridine/orca/orca_start/start
 Hartree-Fock type      HFTyp           .... RHF
 Total Charge           Charge          ....    0
 Multiplicity           Mult            ....    1
 Number of Electrons    NEL             ....   98
 Basis Dimension        Dim             ....  475
 Nuclear Repulsion      ENuc            ....    692.9159974903 Eh

Convergence Acceleration:
 DIIS                   CNVDIIS         .... on
   Start iteration      DIISMaxIt       ....    12
   Startup error        DIISStart       ....  0.200000
   # of expansion vecs  DIISMaxEq       ....     5
   Bias factor          DIISBfac        ....   1.050
   Max. coefficient     DIISMaxC        ....  10.000
 Trust-Rad. Augm. Hess. CNVTRAH         .... auto
   Auto Start mean grad. ratio tolernc. ....  1.125000
   Auto Start start iteration           ....    20
   Auto Start num. interpolation iter.  ....    10
   Max. Number of Micro iterations      ....    16
   Max. Number of Macro iterations      .... Maxiter - #DIIS iter
   Number of Davidson start vectors     ....     2
   Converg. threshold I  (grad. norm)   ....   1.000e-05
   Converg. threshold II (energy diff.) ....   1.000e-08
   Grad. Scal. Fac. for Micro threshold ....   0.100
   Minimum threshold for Micro iter.    ....   0.010
   NR start threshold (gradient norm)   ....   0.001
   Initial trust radius                 ....   0.400
   Minimum AH scaling param. (alpha)    ....   1.000
   Maximum AH scaling param. (alpha)    .... 1000.000
   Orbital update algorithm             .... Taylor
   White noise on init. David. guess    .... on
   Maximum white noise                  ....   0.010
   Quad. conv. algorithm                .... NR
 SOSCF                  CNVSOSCF        .... on
   Start iteration      SOSCFMaxIt      ....   150
   Startup grad/error   SOSCFStart      ....  0.003300
 Level Shifting         CNVShift        .... on
   Level shift para.    LevelShift      ....    0.2500
   Turn off err/grad.   ShiftErr        ....    0.0010
 Zerner damping         CNVZerner       .... off
 Static damping         CNVDamp         .... on
   Fraction old density DampFac         ....    0.7000
   Max. Damping (<1)    DampMax         ....    0.9800
   Min. Damping (>=0)   DampMin         ....    0.0000
   Turn off err/grad.   DampErr         ....    0.1000
 Fernandez-Rico         CNVRico         .... off

SCF Procedure:
 Maximum # iterations   MaxIter         ....   125
 SCF integral mode      SCFMode         .... Direct
   Integral package                     .... SHARK and LIBINT hybrid scheme
 Reset frequency        DirectResetFreq ....    20
 Integral Threshold     Thresh          ....  2.500e-11 Eh
 Primitive CutOff       TCut            ....  2.500e-12 Eh

Convergence Tolerance:
 Convergence Check Mode ConvCheckMode   .... Total+1el-Energy
 Convergence forced     ConvForced      .... 0
 Energy Change          TolE            ....  1.000e-08 Eh
 1-El. energy change                    ....  1.000e-05 Eh
 Orbital Gradient       TolG            ....  1.000e-05
 Orbital Rotation angle TolX            ....  1.000e-05
 DIIS Error             TolErr          ....  5.000e-07


Diagonalization of the overlap matrix:
Smallest eigenvalue                        ... 6.051e-05
Time for diagonalization                   ...    0.068 sec
Threshold for overlap eigenvalues          ... 1.000e-08
Number of eigenvalues below threshold      ... 0
Time for construction of square roots      ...    0.152 sec
Total time needed                          ...    0.223 sec

Time for model grid setup =    0.182 sec

------------------------------
INITIAL GUESS: MODEL POTENTIAL
------------------------------
Loading Hartree-Fock densities                     ... done
Calculating cut-offs                               ... done
Initializing the effective Hamiltonian             ... done
Setting up the integral package (SHARK)            ... done
Starting the Coulomb interaction                   ... done (   0.0 sec)
Reading the grid                                   ... done
Mapping shells                                     ... done
Starting the XC term evaluation                    ... done (   0.0 sec)
  promolecular density results
     # of electrons  =     97.995054007
     EX              =    -82.341677356
     EC              =     -3.323184131
     EX+EC           =    -85.664861487
Transforming the Hamiltonian                       ... done (   0.1 sec)
Diagonalizing the Hamiltonian                      ... done (   0.1 sec)
Back transforming the eigenvectors                 ... done (   0.1 sec)
Now organizing SCF variables                       ... done
                      ------------------
                      INITIAL GUESS DONE (   0.6 sec)
                      ------------------
-------------------
DFT GRID GENERATION
-------------------

General Integration Accuracy     IntAcc      ... 4.388
Radial Grid Type                 RadialGrid  ... OptM3 with GC (2021)
Angular Grid (max. ang.)         AngularGrid ... 4 (Lebedev-302)
Angular grid pruning method      GridPruning ... 4 (adaptive)
Weight generation scheme         WeightScheme... Becke
Basis function cutoff            BFCut       ... 1.0000e-11
Integration weight cutoff        WCut        ... 1.0000e-14
Angular grids for H and He will be reduced by one unit
Partially contracted basis set               ... off
Rotationally invariant grid construction     ... off

Total number of grid points                  ...   117381
Total number of batches                      ...     1846
Average number of points per batch           ...       63
Average number of grid points per atom       ...     4695
Time for grid setup =    0.943 sec

--------------------
COSX GRID GENERATION
--------------------

GRIDX 1
-------
General Integration Accuracy     IntAcc      ... 3.816
Radial Grid Type                 RadialGrid  ... OptM3 with GC (2021)
Angular Grid (max. ang.)         AngularGrid ... 1 (Lebedev-50)
Angular grid pruning method      GridPruning ... 4 (adaptive)
Weight generation scheme         WeightScheme... Becke
Basis function cutoff            BFCut       ... 1.0000e-11
Integration weight cutoff        WCut        ... 1.0000e-14
Angular grids for H and He will be reduced by one unit
Partially contracted basis set               ... on
Rotationally invariant grid construction     ... off

Total number of grid points                  ...    15001
Total number of batches                      ...      244
Average number of points per batch           ...       61
Average number of grid points per atom       ...      600
UseSFitting                                  ... on

GRIDX 2
-------
General Integration Accuracy     IntAcc      ... 4.020
Radial Grid Type                 RadialGrid  ... OptM3 with GC (2021)
Angular Grid (max. ang.)         AngularGrid ... 2 (Lebedev-110)
Angular grid pruning method      GridPruning ... 4 (adaptive)
Weight generation scheme         WeightScheme... Becke
Basis function cutoff            BFCut       ... 1.0000e-11
Integration weight cutoff        WCut        ... 1.0000e-14
Angular grids for H and He will be reduced by one unit
Partially contracted basis set               ... on
Rotationally invariant grid construction     ... off

Total number of grid points                  ...    32666
Total number of batches                      ...      520
Average number of points per batch           ...       62
Average number of grid points per atom       ...     1307
UseSFitting                                  ... on

GRIDX 3
-------
General Integration Accuracy     IntAcc      ... 4.338
Radial Grid Type                 RadialGrid  ... OptM3 with GC (2021)
Angular Grid (max. ang.)         AngularGrid ... 3 (Lebedev-194)
Angular grid pruning method      GridPruning ... 4 (adaptive)
Weight generation scheme         WeightScheme... Becke
Basis function cutoff            BFCut       ... 1.0000e-11
Integration weight cutoff        WCut        ... 1.0000e-14
Angular grids for H and He will be reduced by one unit
Partially contracted basis set               ... on
Rotationally invariant grid construction     ... off

Total number of grid points                  ...    71653
Total number of batches                      ...     1134
Average number of points per batch           ...       63
Average number of grid points per atom       ...     2866
UseSFitting                                  ... on

Time for X-Grid setup             =    1.229 sec


--------------------
CPCM SOLVATION MODEL
--------------------
CPCM parameters:
  Epsilon                                         ...      78.4000
  Refrac                                          ...       1.3300
  Rsolv                                           ...       1.3000
  Surface type                                    ... GAUSSIAN VDW
  Epsilon function type                           ...         CPCM
Radii:
 Radius for C  used is    3.8550 Bohr (=   2.0400 Ang.)
 Radius for H  used is    2.4944 Bohr (=   1.3200 Ang.)
 Radius for N  used is    3.5149 Bohr (=   1.8600 Ang.)
 Radius for O  used is    3.4469 Bohr (=   1.8240 Ang.)
Calculating surface                               ...        done! (  0.0s)
GEPOL surface points                              ...         1509
GEPOL Volume                                      ...    1630.5640
GEPOL Surface-area                                ...     972.6614
Calculating surface distance matrix               ...        done! (  0.1s)
Performing Cholesky decomposition & store         ...        done! (  0.5s)
Overall time for CPCM initialization              ...                 0.6s
--------------
SCF ITERATIONS
--------------
ITER       Energy         Delta-E        Max-DP      RMS-DP      [F,P]     Damp
               ***  Starting incremental Fock matrix formation  ***
  0   -646.6142399770   0.000000000000 0.05947889  0.00084786  0.3402907 0.7000
  1   -646.8234174890  -0.209177511965 0.05316438  0.00061725  0.1367186 0.7000
                               ***Turning on DIIS***
  2   -646.8987297973  -0.075312308318 0.06584794  0.00099268  0.0350857 0.0000
  3   -647.0263893699  -0.127659572602 0.04690970  0.00043725  0.0785984 0.0000
  4   -647.0505209285  -0.024131558643 0.01280713  0.00015509  0.0157058 0.0000
  5   -647.0522552502  -0.001734321652 0.00479879  0.00006135  0.0040957 0.0000
                      *** Initiating the SOSCF procedure ***
                           *** Shutting down DIIS ***
                      *** Re-Reading the Fockian *** 
                      *** Removing any level shift *** 
ITER      Energy       Delta-E        Grad      Rot      Max-DP    RMS-DP
  6   -647.05235443  -0.0000991800  0.000202  0.000202  0.001835  0.000027
               *** Restarting incremental Fock matrix formation ***
  7   -647.05233298   0.0000214548  0.000184  0.000386  0.000672  0.000016
  8   -647.05233151   0.0000014654  0.000270  0.000378  0.000483  0.000007
  9   -647.05233502  -0.0000035066  0.000082  0.000298  0.000155  0.000002
 10   -647.05233476   0.0000002526  0.000193  0.000227  0.000122  0.000001
 11   -647.05233509  -0.0000003245  0.000019  0.000056  0.000039  0.000001
 12   -647.05233508   0.0000000081  0.000031  0.000038  0.000029  0.000000
                  ***Gradient check signals convergence***
              ***Rediagonalizing the Fockian in SOSCF/NRSCF***

               *****************************************************
               *                     SUCCESS                       *
               *           SCF CONVERGED AFTER  13 CYCLES          *
               *****************************************************

Old exchange energy                            =    -16.684580820 Eh
New exchange energy                            =    -16.684583691 Eh
Exchange energy change after final integration =     -0.000002870 Eh
Total energy after final integration           =   -647.052337966 Eh
Final COS-X integration done in                =     1.125 sec

----------------
TOTAL SCF ENERGY
----------------

Total Energy       :         -647.05233797 Eh          -17607.18925 eV

Components:
Nuclear Repulsion  :          692.91599749 Eh           18855.20287 eV
Electronic Energy  :        -1339.96833546 Eh          -36462.39212 eV
One Electron Energy:        -2254.65227713 Eh          -61352.20755 eV
Two Electron Energy:          914.68394167 Eh           24889.81543 eV
Max COSX asymmetry :            0.00000113 Eh               0.00003 eV
CPCM Dielectric    :           -0.02355400 Eh              -0.64094 eV

Virial components:
Potential Energy   :        -1291.11857920 Eh          -35133.12267 eV
Kinetic Energy     :          644.06624123 Eh           17525.93343 eV
Virial Ratio       :            2.00463632


DFT components:
N(Alpha)           :       49.000015616323 electrons
N(Beta)            :       49.000015616323 electrons
N(Total)           :       98.000031232646 electrons
E(X)               :      -66.421881357479 Eh       
E(C)               :       -3.930343623929 Eh       
E(XC)              :      -70.352224981408 Eh       
DFET-embed. en.    :        0.000000000000 Eh       
CPCM Solvation Model Properties:
Surface-charge          :           -0.02850511
Charge-correction       :           -0.00010824 Eh              -0.00295 eV
Free-energy (cav+disp)  :  This term is not implemented in the current solvation scheme

---------------
SCF CONVERGENCE
---------------

  Last Energy change         ...   -1.5458e-08  Tolerance :   1.0000e-08
  Last MAX-Density change    ...    1.9984e-15  Tolerance :   1.0000e-07
  Last RMS-Density change    ...    1.6790e-17  Tolerance :   5.0000e-09
  Last Orbital Gradient      ...    1.3797e-06  Tolerance :   1.0000e-05
  Last Orbital Rotation      ...    3.9643e-06  Tolerance :   1.0000e-05

             **** THE GBW FILE WAS UPDATED (/home/rudenko/mop_saddle_orca_4_serv/for_orca/CH2CHCH2NO2_pyridine/orca/orca_start/start.gbw) ****
             **** DENSITY /home/rudenko/mop_saddle_orca_4_serv/for_orca/CH2CHCH2NO2_pyridine/orca/orca_start/start.scfp WAS UPDATED ****
             **** ENERGY FILE WAS UPDATED (/home/rudenko/mop_saddle_orca_4_serv/for_orca/CH2CHCH2NO2_pyridine/orca/orca_start/start.en.tmp) ****
             **** THE GBW FILE WAS UPDATED (/home/rudenko/mop_saddle_orca_4_serv/for_orca/CH2CHCH2NO2_pyridine/orca/orca_start/start.gbw) ****
             **** DENSITY /home/rudenko/mop_saddle_orca_4_serv/for_orca/CH2CHCH2NO2_pyridine/orca/orca_start/start.scfp WAS UPDATED ****
----------------
ORBITAL ENERGIES
----------------

  NO   OCC          E(Eh)            E(eV) 
   0   2.0000     -19.169950      -521.6409 
   1   2.0000     -19.166211      -521.5391 
   2   2.0000     -19.112414      -520.0752 
   3   2.0000     -14.557157      -396.1204 
   4   2.0000     -14.328106      -389.8876 
   5   2.0000     -10.228820      -278.3404 
   6   2.0000     -10.216180      -277.9964 
   7   2.0000     -10.216093      -277.9940 
   8   2.0000     -10.195447      -277.4322 
   9   2.0000     -10.187328      -277.2113 
  10   2.0000     -10.187042      -277.2035 
  11   2.0000     -10.186982      -277.2019 
  12   2.0000     -10.171352      -276.7766 
  13   2.0000      -1.243159       -33.8281 
  14   2.0000      -1.063548       -28.9406 
  15   2.0000      -0.999179       -27.1890 
  16   2.0000      -0.946509       -25.7558 
  17   2.0000      -0.840570       -22.8731 
  18   2.0000      -0.806595       -21.9486 
  19   2.0000      -0.765363       -20.8266 
  20   2.0000      -0.756080       -20.5740 
  21   2.0000      -0.634239       -17.2585 
  22   2.0000      -0.629190       -17.1211 
  23   2.0000      -0.628872       -17.1125 
  24   2.0000      -0.573115       -15.5953 
  25   2.0000      -0.555327       -15.1112 
  26   2.0000      -0.548914       -14.9367 
  27   2.0000      -0.532116       -14.4796 
  28   2.0000      -0.526911       -14.3380 
  29   2.0000      -0.514163       -13.9911 
  30   2.0000      -0.485681       -13.2161 
  31   2.0000      -0.469766       -12.7830 
  32   2.0000      -0.458773       -12.4838 
  33   2.0000      -0.442064       -12.0292 
  34   2.0000      -0.432373       -11.7655 
  35   2.0000      -0.411504       -11.1976 
  36   2.0000      -0.406955       -11.0738 
  37   2.0000      -0.403504       -10.9799 
  38   2.0000      -0.377521       -10.2729 
  39   2.0000      -0.368481       -10.0269 
  40   2.0000      -0.363112        -9.8808 
  41   2.0000      -0.330161        -8.9841 
  42   2.0000      -0.327265        -8.9053 
  43   2.0000      -0.310894        -8.4599 
  44   2.0000      -0.306269        -8.3340 
  45   2.0000      -0.297112        -8.0848 
  46   2.0000      -0.276724        -7.5301 
  47   2.0000      -0.271917        -7.3992 
  48   2.0000      -0.271622        -7.3912 
  49   0.0000      -0.082188        -2.2364 
  50   0.0000      -0.041438        -1.1276 
  51   0.0000      -0.026548        -0.7224 
  52   0.0000      -0.008327        -0.2266 
  53   0.0000       0.034647         0.9428 
  54   0.0000       0.064135         1.7452 
  55   0.0000       0.072951         1.9851 
  56   0.0000       0.078733         2.1424 
  57   0.0000       0.083888         2.2827 
  58   0.0000       0.098426         2.6783 
  59   0.0000       0.102382         2.7859 
  60   0.0000       0.107455         2.9240 
  61   0.0000       0.119922         3.2632 
  62   0.0000       0.120629         3.2825 
  63   0.0000       0.124267         3.3815 
  64   0.0000       0.132431         3.6036 
  65   0.0000       0.138684         3.7738 
  66   0.0000       0.148738         4.0474 
  67   0.0000       0.158890         4.3236 
  68   0.0000       0.175166         4.7665 
  69   0.0000       0.179062         4.8725 
  70   0.0000       0.195989         5.3331 
  71   0.0000       0.203490         5.5372 
  72   0.0000       0.212915         5.7937 
  73   0.0000       0.219440         5.9713 
  74   0.0000       0.221190         6.0189 
  75   0.0000       0.226424         6.1613 
  76   0.0000       0.226997         6.1769 
  77   0.0000       0.234483         6.3806 
  78   0.0000       0.239521         6.5177 
  79   0.0000       0.240559         6.5459 
  80   0.0000       0.246569         6.7095 
  81   0.0000       0.253659         6.9024 
  82   0.0000       0.259119         7.0510 
  83   0.0000       0.276792         7.5319 
  84   0.0000       0.277719         7.5571 
  85   0.0000       0.301089         8.1930 
  86   0.0000       0.303513         8.2590 
  87   0.0000       0.317897         8.6504 
  88   0.0000       0.320036         8.7086 
  89   0.0000       0.321031         8.7357 
  90   0.0000       0.332369         9.0442 
  91   0.0000       0.341740         9.2992 
  92   0.0000       0.344030         9.3615 
  93   0.0000       0.351714         9.5706 
  94   0.0000       0.362424         9.8620 
  95   0.0000       0.382244        10.4014 
  96   0.0000       0.391970        10.6660 
  97   0.0000       0.397311        10.8114 
  98   0.0000       0.403260        10.9733 
  99   0.0000       0.408773        11.1233 
 100   0.0000       0.412779        11.2323 
 101   0.0000       0.415760        11.3134 
 102   0.0000       0.420166        11.4333 
 103   0.0000       0.424819        11.5599 
 104   0.0000       0.436230        11.8704 
 105   0.0000       0.439930        11.9711 
 106   0.0000       0.446033        12.1372 
 107   0.0000       0.455320        12.3899 
 108   0.0000       0.459380        12.5004 
 109   0.0000       0.461898        12.5689 
 110   0.0000       0.466174        12.6852 
 111   0.0000       0.467363        12.7176 
 112   0.0000       0.477301        12.9880 
 113   0.0000       0.485323        13.2063 
 114   0.0000       0.495210        13.4753 
 115   0.0000       0.499064        13.5802 
 116   0.0000       0.501031        13.6338 
 117   0.0000       0.508500        13.8370 
 118   0.0000       0.513182        13.9644 
 119   0.0000       0.521545        14.1919 
 120   0.0000       0.533038        14.5047 
 121   0.0000       0.546105        14.8603 
 122   0.0000       0.551515        15.0075 
 123   0.0000       0.564065        15.3490 
 124   0.0000       0.567676        15.4472 
 125   0.0000       0.577298        15.7091 
 126   0.0000       0.594545        16.1784 
 127   0.0000       0.611401        16.6371 
 128   0.0000       0.625218        17.0130 
 129   0.0000       0.636827        17.3289 
 130   0.0000       0.638651        17.3786 
 131   0.0000       0.648935        17.6584 
 132   0.0000       0.655235        17.8298 
 133   0.0000       0.658078        17.9072 
 134   0.0000       0.668674        18.1955 
 135   0.0000       0.674445        18.3526 
 136   0.0000       0.689710        18.7680 
 137   0.0000       0.719797        19.5867 
 138   0.0000       0.721994        19.6465 
 139   0.0000       0.743692        20.2369 
 140   0.0000       0.748632        20.3713 
 141   0.0000       0.756383        20.5822 
 142   0.0000       0.769063        20.9273 
 143   0.0000       0.775190        21.0940 
 144   0.0000       0.787935        21.4408 
 145   0.0000       0.822374        22.3779 
 146   0.0000       0.833920        22.6921 
 147   0.0000       0.861505        23.4427 
 148   0.0000       0.868615        23.6362 
 149   0.0000       0.874172        23.7874 
 150   0.0000       0.885881        24.1061 
 151   0.0000       0.899659        24.4810 
 152   0.0000       0.908634        24.7252 
 153   0.0000       0.923422        25.1276 
 154   0.0000       0.952414        25.9165 
 155   0.0000       0.971234        26.4286 
 156   0.0000       0.984484        26.7892 
 157   0.0000       1.001560        27.2538 
 158   0.0000       1.003660        27.3110 
 159   0.0000       1.011822        27.5331 
 160   0.0000       1.042619        28.3711 
 161   0.0000       1.052253        28.6333 
 162   0.0000       1.056850        28.7584 
 163   0.0000       1.092185        29.7199 
 164   0.0000       1.094011        29.7696 
 165   0.0000       1.124561        30.6008 
 166   0.0000       1.126747        30.6603 
 167   0.0000       1.143498        31.1162 
 168   0.0000       1.165067        31.7031 
 169   0.0000       1.182764        32.1846 
 170   0.0000       1.191881        32.4327 
 171   0.0000       1.200425        32.6652 
 172   0.0000       1.211851        32.9761 
 173   0.0000       1.228473        33.4284 
 174   0.0000       1.238494        33.7011 
 175   0.0000       1.242206        33.8022 
 176   0.0000       1.245408        33.8893 
 177   0.0000       1.258296        34.2400 
 178   0.0000       1.274266        34.6745 
 179   0.0000       1.287876        35.0449 
 180   0.0000       1.299774        35.3686 
 181   0.0000       1.303896        35.4808 
 182   0.0000       1.308163        35.5969 
 183   0.0000       1.324395        36.0386 
 184   0.0000       1.364017        37.1168 
 185   0.0000       1.368285        37.2329 
 186   0.0000       1.388439        37.7814 
 187   0.0000       1.404055        38.2063 
 188   0.0000       1.410867        38.3917 
 189   0.0000       1.438517        39.1440 
 190   0.0000       1.442957        39.2648 
 191   0.0000       1.453074        39.5402 
 192   0.0000       1.464403        39.8484 
 193   0.0000       1.464935        39.8629 
 194   0.0000       1.490724        40.5647 
 195   0.0000       1.495552        40.6960 
 196   0.0000       1.510605        41.1057 
 197   0.0000       1.518821        41.3292 
 198   0.0000       1.521498        41.4021 
 199   0.0000       1.541245        41.9394 
 200   0.0000       1.572014        42.7767 
 201   0.0000       1.582843        43.0714 
 202   0.0000       1.587449        43.1967 
 203   0.0000       1.597713        43.4760 
 204   0.0000       1.607443        43.7408 
 205   0.0000       1.630128        44.3580 
 206   0.0000       1.632607        44.4255 
 207   0.0000       1.649084        44.8739 
 208   0.0000       1.655410        45.0460 
 209   0.0000       1.660614        45.1876 
 210   0.0000       1.685543        45.8660 
 211   0.0000       1.686235        45.8848 
 212   0.0000       1.706140        46.4264 
 213   0.0000       1.718951        46.7750 
 214   0.0000       1.723127        46.8887 
 215   0.0000       1.730966        47.1020 
 216   0.0000       1.742927        47.4274 
 217   0.0000       1.753142        47.7054 
 218   0.0000       1.758001        47.8376 
 219   0.0000       1.776307        48.3358 
 220   0.0000       1.780917        48.4612 
 221   0.0000       1.785904        48.5969 
 222   0.0000       1.819700        49.5165 
 223   0.0000       1.828825        49.7649 
 224   0.0000       1.847970        50.2858 
 225   0.0000       1.856472        50.5172 
 226   0.0000       1.869143        50.8620 
 227   0.0000       1.898705        51.6664 
 228   0.0000       1.903877        51.8071 
 229   0.0000       1.920990        52.2728 
 230   0.0000       1.935988        52.6809 
 231   0.0000       1.940516        52.8041 
 232   0.0000       1.942528        52.8589 
 233   0.0000       1.975423        53.7540 
 234   0.0000       2.001671        54.4682 
 235   0.0000       2.004360        54.5414 
 236   0.0000       2.037116        55.4327 
 237   0.0000       2.053783        55.8863 
 238   0.0000       2.075202        56.4691 
 239   0.0000       2.078303        56.5535 
 240   0.0000       2.089046        56.8458 
 241   0.0000       2.095620        57.0247 
 242   0.0000       2.114894        57.5492 
 243   0.0000       2.132924        58.0398 
 244   0.0000       2.140071        58.2343 
 245   0.0000       2.146554        58.4107 
 246   0.0000       2.171155        59.0801 
 247   0.0000       2.179056        59.2951 
 248   0.0000       2.205286        60.0089 
 249   0.0000       2.207551        60.0705 
 250   0.0000       2.214204        60.2516 
 251   0.0000       2.228548        60.6419 
 252   0.0000       2.238137        60.9028 
 253   0.0000       2.254779        61.3556 
 254   0.0000       2.274305        61.8870 
 255   0.0000       2.289337        62.2960 
 256   0.0000       2.306616        62.7662 
 257   0.0000       2.322051        63.1862 
 258   0.0000       2.349860        63.9429 
 259   0.0000       2.380981        64.7898 
 260   0.0000       2.401697        65.3535 
 261   0.0000       2.406895        65.4950 
 262   0.0000       2.423642        65.9507 
 263   0.0000       2.424756        65.9810 
 264   0.0000       2.436050        66.2883 
 265   0.0000       2.447040        66.5873 
 266   0.0000       2.467365        67.1404 
 267   0.0000       2.494191        67.8704 
 268   0.0000       2.528129        68.7939 
 269   0.0000       2.545190        69.2581 
 270   0.0000       2.551604        69.4327 
 271   0.0000       2.558781        69.6280 
 272   0.0000       2.566873        69.8482 
 273   0.0000       2.569977        69.9326 
 274   0.0000       2.583859        70.3104 
 275   0.0000       2.591748        70.5250 
 276   0.0000       2.605947        70.9114 
 277   0.0000       2.613424        71.1149 
 278   0.0000       2.616468        71.1977 
 279   0.0000       2.627930        71.5096 
 280   0.0000       2.643119        71.9229 
 281   0.0000       2.651170        72.1420 
 282   0.0000       2.654077        72.2211 
 283   0.0000       2.655544        72.2610 
 284   0.0000       2.673235        72.7424 
 285   0.0000       2.675164        72.7949 
 286   0.0000       2.677686        72.8636 
 287   0.0000       2.706142        73.6379 
 288   0.0000       2.707191        73.6664 
 289   0.0000       2.722447        74.0815 
 290   0.0000       2.741142        74.5903 
 291   0.0000       2.749899        74.8286 
 292   0.0000       2.762198        75.1632 
 293   0.0000       2.785309        75.7921 
 294   0.0000       2.793864        76.0249 
 295   0.0000       2.799519        76.1788 
 296   0.0000       2.808936        76.4350 
 297   0.0000       2.813273        76.5530 
 298   0.0000       2.823656        76.8356 
 299   0.0000       2.844793        77.4108 
 300   0.0000       2.888219        78.5924 
 301   0.0000       2.892050        78.6967 
 302   0.0000       2.895562        78.7922 
 303   0.0000       2.920570        79.4728 
 304   0.0000       2.924675        79.5845 
 305   0.0000       2.948403        80.2301 
 306   0.0000       2.953736        80.3753 
 307   0.0000       2.967169        80.7408 
 308   0.0000       2.969938        80.8161 
 309   0.0000       2.976369        80.9911 
 310   0.0000       3.005352        81.7798 
 311   0.0000       3.032390        82.5155 
 312   0.0000       3.036417        82.6251 
 313   0.0000       3.056289        83.1658 
 314   0.0000       3.061933        83.3194 
 315   0.0000       3.065796        83.4246 
 316   0.0000       3.070680        83.5575 
 317   0.0000       3.092792        84.1591 
 318   0.0000       3.105929        84.5166 
 319   0.0000       3.108158        84.5773 
 320   0.0000       3.132208        85.2317 
 321   0.0000       3.137213        85.3679 
 322   0.0000       3.148259        85.6685 
 323   0.0000       3.148906        85.6861 
 324   0.0000       3.155331        85.8609 
 325   0.0000       3.155639        85.8693 
 326   0.0000       3.184235        86.6474 
 327   0.0000       3.202914        87.1557 
 328   0.0000       3.210657        87.3664 
 329   0.0000       3.211440        87.3877 
 330   0.0000       3.218366        87.5762 
 331   0.0000       3.231500        87.9336 
 332   0.0000       3.236788        88.0775 
 333   0.0000       3.245748        88.3213 
 334   0.0000       3.259085        88.6842 
 335   0.0000       3.278076        89.2010 
 336   0.0000       3.284650        89.3799 
 337   0.0000       3.326506        90.5188 
 338   0.0000       3.338121        90.8349 
 339   0.0000       3.340648        90.9037 
 340   0.0000       3.361605        91.4739 
 341   0.0000       3.384802        92.1051 
 342   0.0000       3.385197        92.1159 
 343   0.0000       3.395064        92.3844 
 344   0.0000       3.400934        92.5441 
 345   0.0000       3.417552        92.9963 
 346   0.0000       3.440904        93.6318 
 347   0.0000       3.445084        93.7455 
 348   0.0000       3.471073        94.4527 
 349   0.0000       3.506202        95.4086 
 350   0.0000       3.513176        95.5984 
 351   0.0000       3.526625        95.9643 
 352   0.0000       3.537953        96.2726 
 353   0.0000       3.553253        96.6889 
 354   0.0000       3.619886        98.5021 
 355   0.0000       3.671511        99.9069 
 356   0.0000       3.706185       100.8504 
 357   0.0000       3.715541       101.1050 
 358   0.0000       3.717334       101.1538 
 359   0.0000       3.725206       101.3680 
 360   0.0000       3.750202       102.0482 
 361   0.0000       3.753701       102.1434 
 362   0.0000       3.799310       103.3845 
 363   0.0000       3.801890       103.4547 
 364   0.0000       3.859954       105.0347 
 365   0.0000       3.870398       105.3189 
 366   0.0000       3.887520       105.7848 
 367   0.0000       3.897143       106.0467 
 368   0.0000       3.940491       107.2262 
 369   0.0000       3.947624       107.4203 
 370   0.0000       3.962364       107.8214 
 371   0.0000       3.998465       108.8038 
 372   0.0000       4.014474       109.2394 
 373   0.0000       4.022610       109.4608 
 374   0.0000       4.046359       110.1070 
 375   0.0000       4.085903       111.1831 
 376   0.0000       4.088547       111.2550 
 377   0.0000       4.116636       112.0194 
 378   0.0000       4.139510       112.6418 
 379   0.0000       4.170588       113.4875 
 380   0.0000       4.171327       113.5076 
 381   0.0000       4.199316       114.2692 
 382   0.0000       4.243839       115.4807 
 383   0.0000       4.267456       116.1234 
 384   0.0000       4.310155       117.2853 
 385   0.0000       4.317415       117.4828 
 386   0.0000       4.340334       118.1065 
 387   0.0000       4.347087       118.2903 
 388   0.0000       4.377155       119.1084 
 389   0.0000       4.385885       119.3460 
 390   0.0000       4.448978       121.0629 
 391   0.0000       4.474894       121.7681 
 392   0.0000       4.493598       122.2770 
 393   0.0000       4.515746       122.8797 
 394   0.0000       4.555999       123.9750 
 395   0.0000       4.608639       125.4074 
 396   0.0000       4.638853       126.2296 
 397   0.0000       4.646711       126.4434 
 398   0.0000       4.664821       126.9362 
 399   0.0000       4.677977       127.2942 
 400   0.0000       4.708663       128.1292 
 401   0.0000       4.723597       128.5356 
 402   0.0000       4.759685       129.5176 
 403   0.0000       4.773998       129.9071 
 404   0.0000       4.810403       130.8977 
 405   0.0000       4.840742       131.7233 
 406   0.0000       4.875189       132.6606 
 407   0.0000       4.883987       132.9000 
 408   0.0000       4.910908       133.6326 
 409   0.0000       4.919034       133.8537 
 410   0.0000       4.975291       135.3845 
 411   0.0000       5.009733       136.3218 
 412   0.0000       5.044013       137.2546 
 413   0.0000       5.061456       137.7292 
 414   0.0000       5.091869       138.5568 
 415   0.0000       5.106396       138.9521 
 416   0.0000       5.115640       139.2036 
 417   0.0000       5.126247       139.4923 
 418   0.0000       5.130735       139.6144 
 419   0.0000       5.143350       139.9577 
 420   0.0000       5.170927       140.7081 
 421   0.0000       5.203159       141.5852 
 422   0.0000       5.232237       142.3764 
 423   0.0000       5.254368       142.9786 
 424   0.0000       5.278787       143.6431 
 425   0.0000       5.317254       144.6898 
 426   0.0000       5.345257       145.4518 
 427   0.0000       5.355141       145.7208 
 428   0.0000       5.392894       146.7481 
 429   0.0000       5.397096       146.8624 
 430   0.0000       5.426192       147.6542 
 431   0.0000       5.474433       148.9669 
 432   0.0000       5.576209       151.7364 
 433   0.0000       5.577784       151.7792 
 434   0.0000       5.601774       152.4320 
 435   0.0000       5.645383       153.6187 
 436   0.0000       5.701076       155.1342 
 437   0.0000       5.740765       156.2142 
 438   0.0000       5.947316       161.8347 
 439   0.0000       5.957577       162.1139 
 440   0.0000       6.073172       165.2594 
 441   0.0000       6.235414       169.6742 
 442   0.0000       6.266809       170.5285 
 443   0.0000       6.280919       170.9125 
 444   0.0000       6.328922       172.2187 
 445   0.0000       6.345145       172.6602 
 446   0.0000       6.359731       173.0571 
 447   0.0000       6.378250       173.5610 
 448   0.0000       6.400303       174.1611 
 449   0.0000       6.407142       174.3472 
 450   0.0000       6.458327       175.7400 
 451   0.0000       6.673659       181.5995 
 452   0.0000       6.838631       186.0886 
 453   0.0000       6.861313       186.7058 
 454   0.0000       6.914943       188.1652 
 455   0.0000       6.938887       188.8167 
 456   0.0000       7.094417       193.0489 
 457   0.0000       7.099736       193.1936 
 458   0.0000       7.244231       197.1256 
 459   0.0000       7.266944       197.7436 
 460   0.0000       7.294970       198.5062 
 461   0.0000       7.405907       201.5250 
 462   0.0000      22.060543       600.2979 
 463   0.0000      22.173923       603.3831 
 464   0.0000      22.411697       609.8533 
 465   0.0000      22.488475       611.9425 
 466   0.0000      22.541784       613.3931 
 467   0.0000      22.647240       616.2627 
 468   0.0000      22.658761       616.5762 
 469   0.0000      22.906857       623.3273 
 470   0.0000      32.373701       880.9332 
 471   0.0000      32.386048       881.2692 
 472   0.0000      43.476135      1183.0458 
 473   0.0000      43.908861      1194.8208 
 474   0.0000      43.986682      1196.9385 

                    ********************************
                    * MULLIKEN POPULATION ANALYSIS *
                    ********************************

-----------------------
MULLIKEN ATOMIC CHARGES
-----------------------
   0 C :   -0.147064
   1 H :    0.150588
   2 N :    0.443416
   3 O :   -0.351166
   4 O :   -0.362495
   5 H :    0.146302
   6 C :   -0.101613
   7 H :    0.182908
   8 H :    0.173460
   9 C :   -0.309530
  10 H :    0.146030
  11 C :   -0.013471
  12 C :   -0.128459
  13 C :   -0.119410
  14 C :   -0.125544
  15 C :   -0.029288
  16 N :   -0.325171
  17 H :    0.155516
  18 H :    0.155539
  19 H :    0.155415
  20 H :    0.155875
  21 H :    0.161458
  22 H :    0.351219
  23 H :    0.343387
  24 O :   -0.707902
Sum of atomic charges:    0.0000000

--------------------------------
MULLIKEN REDUCED ORBITAL CHARGES
--------------------------------
  0 C s       :     3.238403  s :     3.238403
      pz      :     0.936618  p :     2.823703
      px      :     0.957104
      py      :     0.929981
      dz2     :     0.014974  d :     0.077801
      dxz     :     0.006199
      dyz     :     0.027649
      dx2y2   :     0.012967
      dxy     :     0.016011
      f0      :     0.001175  f :     0.007156
      f+1     :     0.000256
      f-1     :     0.001405
      f+2     :     0.001219
      f-2     :     0.000877
      f+3     :     0.001010
      f-3     :     0.001214
  1 H s       :     0.827149  s :     0.827149
      pz      :     0.012424  p :     0.022263
      px      :     0.004279
      py      :     0.005560
  2 N s       :     3.314172  s :     3.314172
      pz      :     0.853708  p :     2.987894
      px      :     1.070706
      py      :     1.063480
      dz2     :     0.074522  d :     0.240046
      dxz     :     0.055543
      dyz     :     0.061611
      dx2y2   :     0.024858
      dxy     :     0.023513
      f0      :     0.003825  f :     0.014472
      f+1     :     0.001656
      f-1     :     0.002364
      f+2     :     0.002602
      f-2     :     0.002601
      f+3     :     0.000671
      f-3     :     0.000752
  3 O s       :     3.887153  s :     3.887153
      pz      :     1.291200  p :     4.419322
      px      :     1.402565
      py      :     1.725557
      dz2     :     0.012876  d :     0.041408
      dxz     :     0.011719
      dyz     :     0.010903
      dx2y2   :     0.003137
      dxy     :     0.002773
      f0      :     0.000737  f :     0.003284
      f+1     :     0.000738
      f-1     :     0.000847
      f+2     :     0.000440
      f-2     :     0.000441
      f+3     :     0.000034
      f-3     :     0.000046
  4 O s       :     3.881690  s :     3.881690
      pz      :     1.346707  p :     4.436508
      px      :     1.499371
      py      :     1.590430
      dz2     :     0.011280  d :     0.041018
      dxz     :     0.007952
      dyz     :     0.014437
      dx2y2   :     0.003498
      dxy     :     0.003852
      f0      :     0.000602  f :     0.003279
      f+1     :     0.000339
      f-1     :     0.001153
      f+2     :     0.000541
      f-2     :     0.000515
      f+3     :     0.000073
      f-3     :     0.000055
  5 H s       :     0.831803  s :     0.831803
      pz      :     0.011604  p :     0.021895
      px      :     0.004519
      py      :     0.005772
  6 C s       :     3.215520  s :     3.215520
      pz      :     1.009890  p :     2.787960
      px      :     1.033634
      py      :     0.744435
      dz2     :     0.023702  d :     0.090669
      dxz     :     0.007966
      dyz     :     0.016476
      dx2y2   :     0.023288
      dxy     :     0.019236
      f0      :     0.000916  f :     0.007465
      f+1     :     0.000734
      f-1     :     0.001636
      f+2     :     0.000772
      f-2     :     0.000686
      f+3     :     0.001623
      f-3     :     0.001099
  7 H s       :     0.791672  s :     0.791672
      pz      :     0.004096  p :     0.025420
      px      :     0.018106
      py      :     0.003218
  8 H s       :     0.805559  s :     0.805559
      pz      :     0.012306  p :     0.020981
      px      :     0.004215
      py      :     0.004460
  9 C s       :     3.287300  s :     3.287300
      pz      :     1.053857  p :     2.973880
      px      :     0.981764
      py      :     0.938259
      dz2     :     0.005080  d :     0.043390
      dxz     :     0.001596
      dyz     :     0.020166
      dx2y2   :     0.007046
      dxy     :     0.009502
      f0      :     0.000516  f :     0.004960
      f+1     :     0.000069
      f-1     :     0.001077
      f+2     :     0.000700
      f-2     :     0.000451
      f+3     :     0.000961
      f-3     :     0.001186
 10 H s       :     0.831914  s :     0.831914
      pz      :     0.008933  p :     0.022057
      px      :     0.005463
      py      :     0.007661
 11 C s       :     3.190926  s :     3.190926
      pz      :     0.913210  p :     2.709421
      px      :     0.891594
      py      :     0.904617
      dz2     :     0.003729  d :     0.102667
      dxz     :     0.019303
      dyz     :     0.013805
      dx2y2   :     0.028465
      dxy     :     0.037366
      f0      :     0.001564  f :     0.010458
      f+1     :     0.000649
      f-1     :     0.000966
      f+2     :     0.001092
      f-2     :     0.000879
      f+3     :     0.001966
      f-3     :     0.003343
 12 C s       :     3.215007  s :     3.215007
      pz      :     0.961245  p :     2.829746
      px      :     0.908831
      py      :     0.959670
      dz2     :     0.005846  d :     0.076512
      dxz     :     0.014469
      dyz     :     0.008631
      dx2y2   :     0.021706
      dxy     :     0.025859
[...]
   5   O   :   -0.000105423    0.000305879   -0.000038836
   6   H   :    0.000093900    0.000057883    0.000099915
   7   C   :   -0.000223402   -0.001396051    0.000194347
   8   H   :    0.000265582    0.000145104    0.000420284
   9   H   :    0.000747408    0.000344248    0.000122900
  10   C   :   -0.000212200   -0.000013496   -0.000198396
  11   H   :   -0.000135862    0.000205005    0.000177526
  12   C   :   -0.000047859   -0.000620500    0.000420208
  13   C   :   -0.000173968   -0.000045952   -0.000126855
  14   C   :   -0.000316729   -0.000149161   -0.000555410
  15   C   :    0.000739122    0.000255152    0.000842619
  16   C   :   -0.000616026   -0.000397022   -0.000306028
  17   N   :    0.000615909    0.001265029    0.000170753
  18   H   :    0.000256928    0.000098252    0.000127683
  19   H   :   -0.000069390   -0.000124404   -0.000064059
  20   H   :   -0.000156286    0.000010615   -0.000171782
  21   H   :   -0.000066906   -0.000044979    0.000027484
  22   H   :   -0.000140784   -0.000062971   -0.000153544
  23   H   :   -0.000560911   -0.000987742    0.000134097
  24   H   :   -0.000243990    0.000316042   -0.000361744
  25   O   :    0.000721580    0.000535391    0.000291794

Difference to translation invariance:
           :   -0.0000329636   -0.0000295883   -0.0000029915

Difference to rotation invariance:
           :   -0.0005959355    0.0016943467    0.0000225416

Norm of the cartesian gradient     ...    0.0043121628
RMS gradient                       ...    0.0004979257
MAX gradient                       ...    0.0015585399

-------
TIMINGS
-------

Total SCF gradient time            ...        5.888 sec

One electron gradient       ....       0.088 sec  (  1.5%)
RI-J Coulomb gradient       ....       0.461 sec  (  7.8%)
COSX gradient               ....       1.861 sec  ( 31.6%)
XC gradient                 ....       0.848 sec  ( 14.4%)
CPCM gradient               ....       0.339 sec  (  5.8%)
   A-Matrix (El+Nuc)        ....       0.200 sec  (  3.4%)
   Potential                ....       0.140 sec  (  2.4%)

Maximum memory used throughout the entire SCFGRAD-calculation: 69.8 MB
------------------------------------------------------------------------------
                         ORCA GEOMETRY RELAXATION STEP
------------------------------------------------------------------------------

Reading the OPT-File                    .... done
Getting information on internals        .... done
Copying old internal coords+grads       .... done
Making the new internal coordinates     .... (new redundants).... done
Validating the new internal coordinates .... (new redundants).... done
Calculating the B-matrix                .... done
Calculating the G,G- and P matrices     .... done
Transforming gradient to internals      .... done
Projecting the internal gradient        .... done
Number of atoms                         ....  25
Number of internal coordinates          .... 140
Current Energy                          ....  -647.099066259 Eh
Current gradient norm                   ....     0.004312163 Eh/bohr
Maximum allowed component of the step   ....  0.300
Current trust radius                    ....  0.300
Updating the Hessian (BFGS)             .... done
Forming the augmented Hessian           .... done
Diagonalizing the augmented Hessian     .... done
Last element of RFO vector              ....  0.762386364
Lowest eigenvalues of augmented Hessian:
 -0.000446422  0.000330029  0.000756966  0.002217648  0.003775620
Length of the computed step             ....  0.848811240
Warning: the length of the step is outside the trust region - taking restricted step instead
The input lambda is                     ....    -0.000446
   iter:   1  x=   -0.000668  g= 2843.152468 f(x)=     0.630481
   iter:   2  x=   -0.000946  g=  941.662215 f(x)=     0.261969
   iter:   3  x=   -0.001222  g=  357.848187 f(x)=     0.098582
   iter:   4  x=   -0.001389  g=  175.093447 f(x)=     0.029189
   iter:   5  x=   -0.001427  g=  122.317813 f(x)=     0.004754
   iter:   6  x=   -0.001429  g=  113.199156 f(x)=     0.000180
   iter:   7  x=   -0.001429  g=  112.845376 f(x)=     0.000000
   iter:   8  x=   -0.001429  g=  112.844822 f(x)=     0.000000
The output lambda is                    ....    -0.001429 (8 iterations)
The final length of the internal step   ....  0.300000000
Converting the step to cartesian space:
 Initial RMS(Int)=    0.0253546276
Transforming coordinates:
 Iter   0:  RMS(Cart)=    0.1403749034 RMS(Int)=    0.7496375697
 Iter   1:  RMS(Cart)=    0.0052895650 RMS(Int)=    0.0022490682
 Iter   2:  RMS(Cart)=    0.0004348047 RMS(Int)=    0.0001303351
 Iter   3:  RMS(Cart)=    0.0000316977 RMS(Int)=    0.0000121709
 Iter   4:  RMS(Cart)=    0.0000024379 RMS(Int)=    0.0000010995
 Iter   5:  RMS(Cart)=    0.0000002121 RMS(Int)=    0.0000000777
 Iter   6:  RMS(Cart)=    0.0000000177 RMS(Int)=    0.0000000091
done
Storing new coordinates                 .... done

                                .--------------------.
          ----------------------|Geometry convergence|-------------------------
          Item                value                   Tolerance       Converged
          ---------------------------------------------------------------------
          Energy change      -0.0000851303            0.0000050000      NO
          RMS gradient        0.0002961043            0.0001000000      NO
          MAX gradient        0.0014457877            0.0003000000      NO
          RMS step            0.0253546276            0.0020000000      NO
          MAX step            0.1025556170            0.0040000000      NO
          ........................................................
          Max(Bonds)      0.0320      Max(Angles)    2.96
          Max(Dihed)        5.88      Max(Improp)    0.00
          ---------------------------------------------------------------------

The optimization has not yet converged - more geometry cycles are needed


    ---------------------------------------------------------------------------
                         Redundant Internal Coordinates
                            (Angstroem and degrees)

        Definition                    Value    dE/dq     Step     New-Value
    ----------------------------------------------------------------------------
     1. B(H   1,C   0)                1.0827 -0.000009 -0.0002    1.0825   
     2. B(O   3,N   2)                1.2169 -0.000949  0.0001    1.2170   
     3. B(O   4,N   2)                1.2204 -0.000270  0.0008    1.2212   
     4. B(C   6,N   2)                1.5181  0.000548 -0.0021    1.5160   
     5. B(C   6,C   0)                1.4873  0.000332 -0.0005    1.4868   
     6. B(H   7,C   6)                1.0880  0.000007  0.0001    1.0881   
     7. B(H   8,C   6)                1.0898  0.000055 -0.0001    1.0897   
     8. B(C   9,H   5)                1.0845  0.000087 -0.0002    1.0844   
     9. B(C   9,C   0)                1.3268  0.000243 -0.0002    1.3266   
    10. B(H  10,C   9)                1.0827  0.000027  0.0001    1.0828   
    11. B(C  12,C  11)                1.3880 -0.000425  0.0002    1.3882   
    12. B(C  13,C  12)                1.3898  0.000104  0.0001    1.3900   
    13. B(C  14,C  13)                1.3883 -0.000593  0.0000    1.3883   
    14. B(C  15,C  14)                1.3886  0.000216  0.0005    1.3891   
    15. B(N  16,C  11)                1.3363  0.000218 -0.0003    1.3360   
    16. B(N  16,C  15)                1.3355 -0.000392 -0.0001    1.3354   
    17. B(H  17,C  11)                1.0841 -0.000065  0.0001    1.0841   
    18. B(H  18,C  12)                1.0816 -0.000058  0.0000    1.0816   
    19. B(H  19,C  14)                1.0818  0.000075 -0.0001    1.0816   
    20. B(H  20,C  15)                1.0840 -0.000006 -0.0000    1.0840   
    21. B(H  21,C  13)                1.0823 -0.000178  0.0004    1.0827   
    22. B(H  22,H   7)                2.7169  0.000273  0.0135    2.7304   
    23. B(H  23,N  16)                1.8369  0.000242 -0.0067    1.8302   
    24. B(H  23,H   7)                2.4484 -0.000291  0.0258    2.4741   
    25. B(O  24,H   7)                2.7711 -0.000275  0.0320    2.8031   
    26. B(O  24,H  23)                0.9877  0.000016  0.0026    0.9903   
    27. B(O  24,H  22)                0.9649  0.000671  0.0044    0.9693   
    28. A(C   6,C   0,C   9)          122.51 -0.000568    0.02    122.53   
    29. A(H   1,C   0,C   6)          116.68  0.000606    0.03    116.72   
    30. A(H   1,C   0,C   9)          120.76 -0.000037   -0.07    120.69   
    31. A(O   3,N   2,C   6)          119.34  0.001446   -0.10    119.24   
    32. A(O   4,N   2,C   6)          116.45 -0.000609    0.02    116.47   
    33. A(O   3,N   2,O   4)          124.21 -0.000841    0.07    124.28   
    34. A(N   2,C   6,H   7)          104.16  0.000934    0.04    104.20   
    35. A(C   0,C   6,H   7)          113.05 -0.000085   -0.06    112.98   
    36. A(N   2,C   6,H   8)          104.92  0.000052   -0.20    104.72   
    37. A(H   7,C   6,H   8)          108.67 -0.000390   -0.29    108.38   
    38. A(C   0,C   6,H   8)          112.50  0.000054    0.27    112.77   
    39. A(C   0,C   6,N   2)          112.89 -0.000504    0.20    113.09   
    40. A(H  23,H   7,O  24)           20.64  0.000023   -0.21     20.43   
    41. A(H  22,H   7,O  24)           20.22  0.000138   -0.18     20.04   
    42. A(H  22,H   7,H  23)           34.57  0.000161   -0.21     34.36   
    43. A(C   6,H   7,H  23)          124.14 -0.000076   -2.96    121.18   
    44. A(C   6,H   7,H  22)          124.15 -0.000009   -0.58    123.57   
    45. A(C   6,H   7,O  24)          114.94 -0.000053   -1.63    113.31   
    46. A(H   5,C   9,H  10)          117.08 -0.000230   -0.28    116.81   
    47. A(C   0,C   9,H  10)          121.47  0.000339    0.10    121.56   
    48. A(C   0,C   9,H   5)          121.45 -0.000109    0.18    121.63   
    49. A(N  16,C  11,H  17)          116.56  0.000512    0.02    116.58   
    50. A(C  12,C  11,H  17)          120.68 -0.000068   -0.03    120.65   
    51. A(C  12,C  11,N  16)          122.76 -0.000444    0.01    122.77   
    52. A(C  13,C  12,H  18)          121.33  0.000125   -0.08    121.25   
    53. A(C  11,C  12,H  18)          120.08 -0.000172    0.08    120.16   
    54. A(C  11,C  12,C  13)          118.60  0.000046   -0.01    118.59   
    55. A(C  14,C  13,H  21)          120.52 -0.000229   -0.02    120.49   
    56. A(C  12,C  13,H  21)          120.62 -0.000038    0.02    120.63   
    57. A(C  12,C  13,C  14)          118.86  0.000268    0.01    118.87   
    58. A(C  15,C  14,H  19)          120.00 -0.000146   -0.02    119.98   
    59. A(C  13,C  14,H  19)          121.47  0.000244    0.04    121.51   
    60. A(C  13,C  14,C  15)          118.53 -0.000098   -0.02    118.51   
    61. A(N  16,C  15,H  20)          116.37  0.000073   -0.04    116.33   
    62. A(C  14,C  15,H  20)          120.77  0.000208    0.04    120.81   
    63. A(C  14,C  15,N  16)          122.86 -0.000281    0.00    122.86   
    64. A(C  15,N  16,H  23)          117.95 -0.000355   -1.06    116.90   
    65. A(C  11,N  16,H  23)          123.27 -0.000143    0.85    124.13   
    66. A(C  11,N  16,C  15)          118.39  0.000509    0.01    118.40   
    67. A(H   7,H  22,O  24)           83.06 -0.000386    1.15     84.21   
    68. A(H   7,H  23,N  16)           80.43 -0.000579    1.57     81.99   
    69. A(H   7,H  23,O  24)           98.43 -0.000007    0.43     98.87   
    70. A(H   7,O  24,H  23)           60.92 -0.000017   -0.23     60.70   
    71. A(H   7,O  24,H  22)           76.72  0.000249   -0.96     75.75   
    72. A(H  22,O  24,H  23)          105.66  0.000248   -0.28    105.38   
    73. D(H   7,C   6,C   0,C   9)   -121.49  0.000264    2.18   -119.31   
    74. D(N   2,C   6,C   0,C   9)    120.59 -0.000530    2.03    122.61   
    75. D(H   7,C   6,N   2,O   4)     50.29  0.000026    0.92     51.21   
    76. D(H   8,C   6,C   0,H   1)    179.47 -0.000241    1.68    181.16   
    77. D(C   0,C   6,N   2,O   4)    173.31  0.000254    0.98    174.29   
    78. D(H   7,C   6,C   0,H   1)     55.91  0.000305    1.91     57.82   
    79. D(H   8,C   6,N   2,O   4)    -63.85  0.000059    1.31    -62.54   
    80. D(N   2,C   6,C   0,H   1)    -62.01 -0.000489    1.76    -60.25   
    81. D(H   8,C   6,N   2,O   3)    115.46 -0.000340    1.62    117.08   
    82. D(H   7,C   6,N   2,O   3)   -130.40 -0.000373    1.22   -129.17   
    83. D(C   0,C   6,N   2,O   3)     -7.39 -0.000144    1.29     -6.09   
    84. D(H   8,C   6,C   0,C   9)      2.07 -0.000282    1.95      4.02   
    85. D(H  22,H   7,C   6,N   2)     28.51 -0.000085    0.74     29.26   
    86. D(H  22,H   7,C   6,C   0)    -94.40 -0.000042    0.49    -93.90   
    87. D(O  24,H   7,C   6,H   8)    160.72  0.000395   -0.80    159.92   
    88. D(O  24,H   7,C   6,N   2)     49.28  0.000062   -0.46     48.82   
    89. D(O  24,H   7,C   6,C   0)    -73.63  0.000105   -0.71    -74.35   
    90. D(H  23,H   7,C   6,H   8)   -177.96  0.000424   -1.34   -179.31   
    91. D(H  23,H   7,C   6,N   2)     70.59  0.000092   -1.01     69.59   
    92. D(H  23,H   7,C   6,C   0)    -52.32  0.000134   -1.26    -53.58   
    93. D(H  22,H   7,C   6,H   8)    139.96  0.000248    0.41    140.37   
    94. D(H  10,C   9,C   0,C   6)    177.19  0.000135   -0.30    176.89   
    95. D(H  10,C   9,C   0,H   1)     -0.11  0.000077   -0.02     -0.13   
    96. D(H   5,C   9,C   0,C   6)     -2.11  0.000113   -0.38     -2.49   
    97. D(H   5,C   9,C   0,H   1)   -179.40  0.000055   -0.11   -179.51   
    98. D(C  13,C  12,C  11,H  17)   -179.86 -0.000059    0.11   -179.75   
    99. D(H  18,C  12,C  11,N  16)    179.90  0.000040   -0.13    179.77   
   100. D(H  18,C  12,C  11,H  17)      0.20 -0.000028    0.02      0.22   
   101. D(C  13,C  12,C  11,N  16)     -0.16  0.000009   -0.04     -0.20   
   102. D(C  14,C  13,C  12,H  18)    179.98 -0.000019    0.04    180.03   
   103. D(C  14,C  13,C  12,C  11)      0.04  0.000013   -0.05     -0.01   
   104. D(H  21,C  13,C  12,H  18)     -0.14 -0.000034    0.08     -0.06   
   105. D(H  21,C  13,C  12,C  11)    179.92 -0.000002   -0.01    179.91   
   106. D(H  19,C  14,C  13,H  21)     -0.05 -0.000009    0.06      0.02   
   107. D(H  19,C  14,C  13,C  12)    179.83 -0.000024    0.10    179.93   
   108. D(C  15,C  14,C  13,H  21)   -179.83 -0.000018    0.10   -179.73   
   109. D(C  15,C  14,C  13,C  12)      0.04 -0.000033    0.14      0.18   
   110. D(H  20,C  15,C  14,H  19)     -0.27  0.000009   -0.07     -0.34   
   111. D(H  20,C  15,C  14,C  13)    179.52  0.000019   -0.10    179.42   
   112. D(N  16,C  15,C  14,H  19)   -179.81  0.000027   -0.11   -179.92   
   113. D(N  16,C  15,C  14,C  13)     -0.02  0.000037   -0.14     -0.17   
   114. D(H  23,N  16,C  15,H  20)     -6.50  0.000089   -1.35     -7.85   
   115. D(H  23,N  16,C  15,C  14)    173.06  0.000073   -1.30    171.75   
   116. D(C  11,N  16,C  15,H  20)   -179.65 -0.000001    0.01   -179.63   
   117. D(C  11,N  16,C  15,C  14)     -0.09 -0.000017    0.05     -0.03   
   118. D(H  23,N  16,C  11,H  17)      7.14 -0.000026    1.45      8.59   
   119. D(H  23,N  16,C  11,C  12)   -172.58 -0.000089    1.60   -170.98   
   120. D(C  15,N  16,C  11,H  17)    179.89  0.000057   -0.11    179.78   
   121. D(C  15,N  16,C  11,C  12)      0.18 -0.000006    0.04      0.22   
   122. D(O  24,H  22,H   7,H  23)    -33.73  0.000161    0.35    -33.38   
   123. D(O  24,H  22,H   7,C   6)     68.45  0.000098   -3.99     64.45   
   124. D(H   7,H  23,N  16,C  15)   -113.68  0.000088   -4.34   -118.02   
   125. D(H   7,H  23,N  16,C  11)     59.11  0.000230   -5.83     53.27   
   126. D(N  16,H  23,H   7,O  24)    174.37  0.000058   -1.08    173.29   
   127. D(N  16,H  23,H   7,H  22)   -152.64  0.000103   -1.47   -154.12   
   128. D(N  16,H  23,H   7,C   6)    105.17 -0.000043   -3.57    101.60   
   129. D(O  24,H  23,H   7,H  22)     32.98  0.000046   -0.39     32.60   
   130. D(O  24,H  23,H   7,C   6)    -69.20 -0.000100   -2.48    -71.69   
   131. D(H  22,O  24,N  16,C  11)     -4.82  0.000131   -4.50     -9.32   
   132. D(H  23,O  24,H   7,H  22)   -116.66 -0.000139   -0.64   -117.30   
   133. D(H  23,O  24,H   7,C   6)    121.43 -0.000106   -3.68    117.75   
   134. D(H  22,O  24,H   7,H  23)    116.66  0.000139    0.64    117.30   
   135. D(H  22,O  24,H   7,C   6)   -121.91  0.000033   -3.04   -124.95   
   136. D(H  22,O  24,H  23,H   7)    -64.60 -0.000123    1.24    -63.36   
   137. D(H  23,O  24,H  22,H   7)     54.21 -0.000013   -0.88     53.33   
   138. D(H   7,O  24,N  16,C  15)   -114.27  0.000191   -4.80   -119.07   
   139. D(H   7,O  24,N  16,C  11)     57.04  0.000150   -5.88     51.16   
   140. D(H  22,O  24,N  16,C  15)   -176.13  0.000171   -3.42   -179.54   
    ----------------------------------------------------------------------------




    ----------------------------------------------------------------------------
                                  WARNING !!!
       The optimization did not converge but reached the maximum number of
       optimization cycles.
       Please check your results very carefully.
    ----------------------------------------------------------------------------



                            ***************************************
                            *     ORCA property calculations      *
                            ***************************************

                                    ---------------------
                                    Active property flags
                                    ---------------------
   (+) Dipole Moment


------------------------------------------------------------------------------
                       ORCA ELECTRIC PROPERTIES CALCULATION
------------------------------------------------------------------------------

Dipole Moment Calculation                       ... on
Quadrupole Moment Calculation                   ... off
Polarizability Calculation                      ... off
GBWName                                         ... /home/rudenko/mop_saddle_orca_4_serv/for_orca/CH2CHCH2NO2_pyridine/orca/orca_start/start.gbw
Electron density                                ... /home/rudenko/mop_saddle_orca_4_serv/for_orca/CH2CHCH2NO2_pyridine/orca/orca_start/start.scfp
The origin for moment calculation is the CENTER OF MASS  = ( 6.249639, -3.583234  1.069258)

-------------
DIPOLE MOMENT
-------------
                                X             Y             Z
Electronic contribution:     -4.99720      -1.52881      -3.74177
Nuclear contribution   :      7.85394       4.70679       1.84539
                        -----------------------------------------
Total Dipole Moment    :      2.85674       3.17798      -1.89637
                        -----------------------------------------
Magnitude (a.u.)       :      4.67512
Magnitude (Debye)      :     11.88321



--------------------
Rotational spectrum 
--------------------
 
Rotational constants in cm-1:     0.040336     0.013684     0.012226 
Rotational constants in MHz :  1209.240540   410.229830   366.527652 

 Dipole components along the rotational axes: 
x,y,z [a.u.] :     3.651753     1.676287     2.389874 
x,y,z [Debye]:     9.282019     4.260783     6.074577 

 

Timings for individual modules:

Sum of individual times         ...     3800.436 sec (=  63.341 min)
GTO integral calculation        ...      354.542 sec (=   5.909 min)   9.3 %
SCF iterations                  ...     2729.666 sec (=  45.494 min)  71.8 %
SCF Gradient evaluation         ...      712.980 sec (=  11.883 min)  18.8 %
Geometry relaxation             ...        3.247 sec (=   0.054 min)   0.1 %
                             ****ORCA TERMINATED NORMALLY****
TOTAL RUN TIME: 0 days 1 hours 8 minutes 11 seconds 390 msec
