 *******************************************************************************
 **                                                                           **
 **                              MOPAC v22.0.6                                **
 **                                                                           **
 *******************************************************************************
 **          Digital Object Identifier (DOI): 10.5281/zenodo.6511958          **
 **    Visit the DOI location for information on how to cite this program.    **
 *******************************************************************************

                              PM7 CALCULATION RESULTS

 *******************************************************************************
 *  CALCULATION DONE:                                Tue Mar 26 11:44:05 2024  *
 *  PM7        - The PM7 Hamiltonian to be used
 *  SINGLET    - SPIN STATE DEFINED AS A SINGLET
 *
 *
 *
 *                 CHARGE ON SYSTEM = 0
 *
 *
 *
 *  EPS=78.4   - USE ANDREAS KLAMT'S COSMO IMPLICIT SOLVATION MODEL
 *  SADDLE     - TRANSITION STATE TO BE OPTIMIZED
 *  T=         - A TIME OF 14.0 DAYS REQUESTED
 *  DUMP=N     - RESTART FILE WRITTEN EVERY 30.0 MINUTES REQUESTED
 *  RELSCF     - DEFAULT SCF CRITERION MULTIPLIED BY 1.0000
 *              (DEFAULT SCF CRITERION = 0.00010)
 *  ITRY=      - DO A MAXIMUM OF 15000 ITERATIONS FOR SCF
 *  AUX        - OUTPUT AUXILIARY INFORMATION
 *  BONDS      - FINAL BOND-ORDER MATRIX TO BE PRINTED
 *******************************************************************************
SADDLE PM7 BONDS AUX DUMP=30M ITRY=15000 T=14D CHARGE=0 SINGLET eps=78.4 RELSCF=1


   ATOM   CHEMICAL          X               Y               Z
  NUMBER   SYMBOL      (ANGSTROMS)     (ANGSTROMS)     (ANGSTROMS)

     1       C         -0.10189000  *   0.05190000  *   0.14134000  *
     2       H         -1.14386000  *   0.17402000  *   0.44525000  *
     3       N         -0.22720000  *  -2.37867000  *   0.18199000  *
     4       O         -1.41804000  *  -2.57110000  *   0.35820000  *
     5       O          0.62529000  *  -3.12396000  *   0.64517000  *
     6       H          1.87775000  *   0.85951000  *   0.10187000  *
     7       C          0.20305000  *  -1.20609000  *  -0.61092000  *
     8       H         -0.34017000  *  -1.21506000  *  -1.59621000  *
     9       H          1.29163000  *  -1.30062000  *  -0.86766000  *
    10       C          0.83768000  *   0.96210000  *   0.38844000  *
    11       H          0.64114000  *   1.89565000  *   0.90081000  *
    12       C          6.53960000  *  -2.73916000  *   0.25285000  *
    13       C          7.91656000  *  -2.73222000  *  -0.02148000  *
    14       C          8.52901000  *  -1.50219000  *  -0.27685000  *
    15       C          7.76531000  *  -0.33872000  *  -0.24515000  *
    16       C          6.40015000  *  -0.43313000  *   0.05046000  *
    17       N          5.79890000  *  -1.61513000  *   0.28781000  *
    18       H          5.99752000  *  -3.67465000  *   0.44714000  *
    19       H          8.21705000  *   0.63148000  *  -0.44864000  *
    20       H          5.76067000  *   0.45737000  *   0.09949000  *
    21       C          8.68107000  *  -4.00249000  *  -0.06315000  *
    22       H          9.74894000  *  -3.86665000  *   0.16885000  *
    23       H          8.63196000  *  -4.46016000  *  -1.06673000  *
    24       H          8.29856000  *  -4.75428000  *   0.64447000  *
    25       H          9.59758000  *  -1.45501000  *  -0.50037000  *
    26       H          2.51964000  *  -2.99355000  *  -0.23081000  *
    27       O          3.17164000  *  -2.66951000  *  -0.85693000  *
    28       H          3.88518000  *  -2.30811000  *  -0.31179000  *



          CARTESIAN COORDINATES 

    NO.       ATOM           X           Y           Z

     1         C         -0.1019      0.0519      0.1413
     2         H         -1.1439      0.1740      0.4452
     3         N         -0.2272     -2.3787      0.1820
     4         O         -1.4180     -2.5711      0.3582
     5         O          0.6253     -3.1240      0.6452
     6         H          1.8778      0.8595      0.1019
     7         C          0.2031     -1.2061     -0.6109
     8         H         -0.3402     -1.2151     -1.5962
     9         H          1.2916     -1.3006     -0.8677
    10         C          0.8377      0.9621      0.3884
    11         H          0.6411      1.8957      0.9008
    12         C          6.5396     -2.7392      0.2529
    13         C          7.9166     -2.7322     -0.0215
    14         C          8.5290     -1.5022     -0.2769
    15         C          7.7653     -0.3387     -0.2452
    16         C          6.4002     -0.4331      0.0505
    17         N          5.7989     -1.6151      0.2878
    18         H          5.9975     -3.6747      0.4471
    19         H          8.2171      0.6315     -0.4486
    20         H          5.7607      0.4574      0.0995
    21         C          8.6811     -4.0025     -0.0631
    22         H          9.7489     -3.8666      0.1689
    23         H          8.6320     -4.4602     -1.0667
    24         H          8.2986     -4.7543      0.6445
    25         H          9.5976     -1.4550     -0.5004
    26         H          2.5196     -2.9935     -0.2308
    27         O          3.1716     -2.6695     -0.8569
    28         H          3.8852     -2.3081     -0.3118

 General Reference for PM7:
 "Optimization of Parameters for Semiempirical Methods VI: More Modifications to the 
 NDDO Approximations and Re-optimization of Parameters", J. J. P. Stewart, J. Mol. Mod., 1:32, 19 (2013)
 https://link.springer.com/article/10.1007/s00894-012-1667-x

           Empirical Formula: C9 H14 N2 O3  =    28 atoms



      MOLECULAR POINT GROUP   :   C1  


 SINGLET STATE CALCULATION


      RHF CALCULATION, NO. OF DOUBLY OCCUPIED LEVELS = 39



  CARTESIAN GEOMETRY OF FIRST SYSTEM


   1    C          0.60892       0.24295       0.27192
   2    H          0.21285      -0.01921       1.26000
   3    N          0.82951      -2.12598      -0.21564
   4    O          0.57958      -2.44158       0.97501
   5    O          1.06986      -3.06652      -1.02037
   6    H          1.24815       1.83195      -1.00699
   7    C          0.86320      -0.85638      -0.62636
   8    H          1.08765      -0.65449      -1.66982
   9    H          3.01710      -0.31394      -0.73659
  10    C          0.84284       1.51823      -0.06024
  11    H          0.65256       2.34737       0.59941
  12    C          6.86565       1.37220      -0.18214
  13    C          7.87416       2.33348      -0.05292
  14    C          7.51221       3.68560      -0.03265
  15    C          6.17052       4.04352      -0.13560
  16    C          5.20020       3.05142      -0.26449
  17    N          5.56294       1.74218      -0.28874
  18    H          7.09342       0.29109      -0.19995
  19    H          5.86989       5.09781      -0.11825
  20    H          4.12561       3.29001      -0.34978
  21    C          9.28816       1.90440       0.04461
  22    H          9.96711       2.72153       0.33589
  23    H          9.66293       1.51611      -0.92031
  24    H          9.43754       1.09671       0.78241
  25    H          8.28234       4.45889       0.06355
  26    H          4.27679      -1.02230      -0.22313
  27    O          3.98163      -0.34853      -0.86061
  28    H          4.81987       0.99379      -0.40894


  CARTESIAN GEOMETRY OF SECOND SYSTEM


   1    C         -0.02029       0.00879      -0.06854
   2    H         -0.94383      -0.50469       0.20785
   3    N          1.28940      -2.04295      -0.06087
   4    O          0.42948      -2.89553       0.07993
   5    O          2.40896      -2.16652       0.41667
   6    H          1.12192       1.81641      -0.04335
   7    C          0.97046      -0.81834      -0.82727
   8    H          0.54892      -1.11544      -1.82727
   9    H          1.91516      -0.25657      -1.05488
  10    C          0.21155       1.28859       0.21552
  11    H         -0.49877       1.92087       0.73354
  12    C          7.00403       1.59066       0.19304
  13    C          8.12471       2.40289      -0.04293
  14    C          7.91231       3.76608      -0.26629
  15    C          6.61434       4.26865      -0.24164
  16    C          5.55377       3.39154       0.01487
  17    N          5.74765       2.07440       0.22111
  18    H          7.10349       0.50960       0.36088
  19    H          6.42135       5.32574      -0.42075
  20    H          4.51522       3.74365       0.05697
  21    C          9.48554       1.81414      -0.07882
  22    H         10.27196       2.53866       0.18431
  23    H          9.72707       1.43925      -1.08885
  24    H          9.60015       0.96189       0.60876
  25    H          8.75787       4.43069      -0.45953
  26    H          3.88823      -0.93779      -0.40485
  27    O          4.24019      -0.27928      -1.00869
  28    H          4.60237       0.41494      -0.43964


   "DISTANCE":     4.288345


  REACTION COORDINATE VECTOR


   1    C          0.62922       0.23416       0.34046
   2    H          1.15669       0.48548       1.05215
   3    N         -0.45989      -0.08303      -0.15477
   4    O          0.15010       0.45395       0.89508
   5    O         -1.33910      -0.89999      -1.43704
   6    H          0.12623       0.01554      -0.96365
   7    C         -0.10726      -0.03804       0.20091
   8    H          0.53873       0.46096       0.15745
   9    H          1.10194      -0.05737       0.31829
  10    C          0.63130       0.22965      -0.27576
  11    H          1.15133       0.42651      -0.13413
  12    C         -0.13838      -0.21845      -0.37518
  13    C         -0.25054      -0.06941      -0.00999
  14    C         -0.40010      -0.08048       0.23364
  15    C         -0.44383      -0.22514       0.10605
  16    C         -0.35357      -0.34011      -0.27936
  17    N         -0.18470      -0.33222      -0.50985
  18    H         -0.01007      -0.21851      -0.56082
  19    H         -0.55146      -0.22794       0.30250
  20    H         -0.38961      -0.45363      -0.40675
  21    C         -0.19738       0.09026       0.12342
  22    H         -0.30485       0.18287       0.15158
  23    H         -0.06413       0.07686       0.16855
  24    H         -0.16261       0.13482       0.17365
  25    H         -0.47553       0.02820       0.52308
  26    H          0.38856      -0.08451       0.18172
  27    O         -0.25857      -0.06925       0.14808
  28    H          0.21750       0.57884       0.03070
 *+*+*+*+*+*+*+*+*+*+*+*+*+*+*+*+*+*+*+*+*+*+*+*+*+*+*+*+*+*+*+*+*+*+*+*+*+*+*+*+
            BAR SHORTENED BY       0.000 PERCENT
 GRADIENT CRITERION IN FLEPO =     1.000
  SCF CRITERION =    0.1000E-03
 

                    SINCE COS WAS JUST RESET,THE SEARCH IS BEING ENDED


          FOR POINT    1 SECOND STRUCTURE
 DISTANCE A - B      4.288345
 HEAT              -59.814077
 GRADIENT NORM       2.599798
 DIRECTION COSINE    0.000021
* ===============================
* Input file for Mopac
* ===============================
 PM7 BONDS AUX DUMP=30M ITRY=15000 T=14D CHARGE=0 SINGLET eps=78.4 RELSCF=1


  C     0.00000000 +0    0.0000000 +0    0.0000000 +0     0     0     0
  H     1.09631051 +1    0.0000000 +0    0.0000000 +0     1     0     0
  N     2.42862296 +1   88.8826409 +1    0.0000000 +0     1     2     0
  O     1.25686839 +1   92.1023057 +1   -9.6624351 +1     3     1     2
  O     1.26093708 +1  150.8098108 +1  171.8652466 +1     3     1     2
  H     2.13755930 +1  145.5925395 +1 -173.8669329 +1     1     2     3
  C     1.33480606 +1   30.2646760 +1  170.5382127 +1     3     1     2
  H     1.08625213 +1  118.5269469 +1 -179.8818882 +1     7     3     1
  H     2.17017865 +1   78.4508924 +1  -99.0224053 +1     8     7     3
  C     1.07658700 +1   31.2011473 +1   -1.8657158 +1     6     1     2
  H     1.07648335 +1  112.3949045 +1  179.4862465 +1    10     6     1
  C     4.23813294 +1  157.8251648 +1 -150.3294633 +1     9     8     7
  C     1.39923247 +1  160.0369576 +1   50.4449370 +1    12     9     8
  C     1.39987702 +1  118.5902439 +1    5.4922875 +1    13    12     9
  C     1.39242471 +1  119.7585953 +1    0.2214707 +1    14    13    12
  C     1.39369478 +1  119.6508985 +1   -0.3101674 +1    15    14    13
  N     1.35841037 +1   39.3991440 +1   57.6937367 +1    12     9     8
  H     1.10499589 +1   78.2186993 +1 -124.9918507 +1    12     9     8
  H     1.09644956 +1  120.6762585 +1  179.8099798 +1    15    14    13
  H     1.10405403 +1  122.0695816 +1 -179.9545813 +1    16    15    14
  C     1.48088363 +1  119.6852622 +1 -173.8923395 +1    13    12     9
  H     1.10160071 +1  113.0152941 +1 -168.8890489 +1    21    13    12
  H     1.10556425 +1  111.5900412 +1   71.2406370 +1    21    13    12
  H     1.10409729 +1  112.6529014 +1  -48.2292441 +1    21    13    12
  H     1.09559874 +1  120.0834439 +1 -179.7580690 +1    14    13    12
  H     1.53369476 +1  143.2947978 +1   82.4227999 +1     9     8     7
  O     0.97307709 +1  145.1724560 +1  150.0813479 +1     9     8     7
  H     1.06146367 +1  119.2222474 +1    1.4277161 +1    17    12     9

 TIME=     0.29
  REACTANTS AND PRODUCTS SWAPPED AROUND
 *+*+*+*+*+*+*+*+*+*+*+*+*+*+*+*+*+*+*+*+*+*+*+*+*+*+*+*+*+*+*+*+*+*+*+*+*+*+*+*+
            BAR SHORTENED BY       1.000 PERCENT
 GRADIENT CRITERION IN FLEPO =     1.000
 

                    SINCE COS WAS JUST RESET,THE SEARCH IS BEING ENDED


          FOR POINT    2 FIRST  STRUCTURE
 DISTANCE A - B      4.245462
 HEAT              -60.167018
 GRADIENT NORM       7.205947
 DIRECTION COSINE    0.086621
* ===============================
* Input file for Mopac
* ===============================
 PM7 BONDS AUX DUMP=30M ITRY=15000 T=14D CHARGE=0 SINGLET eps=78.4 RELSCF=1


  C     0.00000000 +0    0.0000000 +0    0.0000000 +0     0     0     0
  H     1.09173019 +1    0.0000000 +0    0.0000000 +0     1     0     0
  N     2.42851024 +1   93.0722914 +1    0.0000000 +0     1     2     0
  O     1.21923158 +1  102.4347373 +1    7.8778157 +1     3     1     2
  O     1.22444617 +1  125.5611852 +1 -136.4221975 +1     3     1     2
  H     2.14121212 +1  147.7266158 +1 -153.0676616 +1     1     2     3
  C     1.47744021 +1   35.5303610 +1  132.4349086 +1     3     1     2
  H     1.12545112 +1  108.9001134 +1 -121.0257846 +1     7     3     1
  H     1.12278337 +1  109.6459626 +1  123.9961406 +1     7     3     1
  C     1.08498324 +1   30.8503608 +1   -0.6000190 +1     6     1     2
  H     1.08244568 +1  112.0822946 +1 -179.9405192 +1    10     6     1
  C     5.54392663 +1  153.6316371 +1  -37.3446166 +1     9     7     3
  C     1.40370726 +1  152.4908452 +1 -167.1661327 +1    12     9     7
  C     1.39648569 +1  118.0139422 +1   48.8997014 +1    13    12     9
  C     1.39207725 +1  119.5612784 +1    0.2531379 +1    14    13    12
  C     1.39948166 +1  118.7610187 +1    0.3710502 +1    15    14    13
  N     1.34626115 +1   42.9434470 +1  -97.7303903 +1    12     9     7
  H     1.09836477 +1   78.2119391 +1   54.5610377 +1    12     9     7
  H     1.08844320 +1  120.9593058 +1 -179.6328736 +1    15    14    13
  H     1.09711457 +1  121.6337566 +1  179.5010285 +1    16    15    14
  C     1.48299366 +1  120.3852695 +1 -130.0256735 +1    13    12     9
  H     1.10095768 +1  112.7008488 +1 -153.9101206 +1    21    13    12
  H     1.10461588 +1  111.2021970 +1   86.4445259 +1    21    13    12
  H     1.10216056 +1  112.6720599 +1  -33.2316575 +1    21    13    12
  H     1.09188207 +1  120.3128644 +1 -179.7171463 +1    14    13    12
  H     2.09881027 +1  115.8533015 +1  -59.4178289 +1     5     3     1
  O     0.96123809 +1  154.7324405 +1   -3.5623741 +1    26     5     3
  H     0.96800829 +1  105.1669649 +1  123.5523083 +1    27    26     5

 *+*+*+*+*+*+*+*+*+*+*+*+*+*+*+*+*+*+*+*+*+*+*+*+*+*+*+*+*+*+*+*+*+*+*+*+*+*+*+*+
            BAR SHORTENED BY       1.000 PERCENT
 GRADIENT CRITERION IN FLEPO =     4.206
 

                    SINCE COS WAS JUST RESET,THE SEARCH IS BEING ENDED


          FOR POINT    3 FIRST  STRUCTURE
 DISTANCE A - B      4.203007
 HEAT              -60.013368
 GRADIENT NORM      23.339605
 DIRECTION COSINE    0.332414
* ===============================
* Input file for Mopac
* ===============================
 PM7 BONDS AUX DUMP=30M ITRY=15000 T=14D CHARGE=0 SINGLET eps=78.4 RELSCF=1


  C     0.00000000 +0    0.0000000 +0    0.0000000 +0     0     0     0
  H     1.09274525 +1    0.0000000 +0    0.0000000 +0     1     0     0
  N     2.42026747 +1   92.9245709 +1    0.0000000 +0     1     2     0
  O     1.21592917 +1  102.8190307 +1    7.9043734 +1     3     1     2
  O     1.21909774 +1  125.8899967 +1 -136.0343400 +1     3     1     2
  H     2.14040408 +1  147.4536842 +1 -153.1209992 +1     1     2     3
  C     1.47464240 +1   35.5813268 +1  133.0501984 +1     3     1     2
  H     1.12246743 +1  108.9057639 +1 -121.3539693 +1     7     3     1
  H     1.12569660 +1  109.4602852 +1  123.8445618 +1     7     3     1
  C     1.08174646 +1   30.9481641 +1   -0.7878088 +1     6     1     2
  H     1.08298944 +1  112.0107725 +1  179.8008777 +1    10     6     1
  C     5.53095514 +1  154.1182184 +1  -37.8363866 +1     9     7     3
  C     1.40630370 +1  152.7077734 +1 -166.4928029 +1    12     9     7
  C     1.40014413 +1  117.7557423 +1   48.9255334 +1    13    12     9
  C     1.39053479 +1  119.5826357 +1    0.0450178 +1    14    13    12
  C     1.39820554 +1  118.9281540 +1    0.4147421 +1    15    14    13
  N     1.34626615 +1   42.8856366 +1  -97.3852162 +1    12     9     7
  H     1.09822763 +1   78.2032347 +1   55.1546477 +1    12     9     7
  H     1.09216883 +1  120.7898633 +1 -179.4834613 +1    15    14    13
  H     1.09706449 +1  121.6442472 +1  179.4624083 +1    16    15    14
  C     1.47912144 +1  120.3865923 +1 -130.3456140 +1    13    12     9
  H     1.10351065 +1  112.5411969 +1 -154.1032846 +1    21    13    12
  H     1.10321224 +1  111.0136486 +1   86.6121913 +1    21    13    12
  H     1.09909705 +1  112.7954316 +1  -33.4116402 +1    21    13    12
  H     1.09151586 +1  120.1444179 +1 -179.6951313 +1    14    13    12
  H     2.11099044 +1  116.0325799 +1  -58.5770647 +1     5     3     1
  O     0.95941592 +1  153.9818710 +1   -4.9774305 +1    26     5     3
  H     0.96659782 +1  105.3609035 +1  124.2854224 +1    27    26     5

 *+*+*+*+*+*+*+*+*+*+*+*+*+*+*+*+*+*+*+*+*+*+*+*+*+*+*+*+*+*+*+*+*+*+*+*+*+*+*+*+
            BAR SHORTENED BY       1.000 PERCENT
 GRADIENT CRITERION IN FLEPO =    10.000


          FOR POINT    4 FIRST  STRUCTURE
 DISTANCE A - B      4.160977
 HEAT              -59.823581
 GRADIENT NORM      24.311928
 DIRECTION COSINE    0.387293
* ===============================
* Input file for Mopac
* ===============================
 PM7 BONDS AUX DUMP=30M ITRY=15000 T=14D CHARGE=0 SINGLET eps=78.4 RELSCF=1


  C     0.00000000 +0    0.0000000 +0    0.0000000 +0     0     0     0
  H     1.09509753 +1    0.0000000 +0    0.0000000 +0     1     0     0
  N     2.41884061 +1   92.3226540 +1    0.0000000 +0     1     2     0
  O     1.21895014 +1  102.9847312 +1    8.6174771 +1     3     1     2
  O     1.22387046 +1  125.9968454 +1 -135.3157695 +1     3     1     2
  H     2.14225618 +1  147.8157172 +1 -152.4397905 +1     1     2     3
  C     1.47402902 +1   35.6942361 +1  134.0292429 +1     3     1     2
  H     1.12669406 +1  109.1048663 +1 -121.4426085 +1     7     3     1
  H     1.12452897 +1  109.3384061 +1  123.8804362 +1     7     3     1
  C     1.08419529 +1   30.8026979 +1   -1.3078754 +1     6     1     2
  H     1.07976475 +1  111.6815895 +1 -179.5966504 +1    10     6     1
  C     5.52462256 +1  154.5914969 +1  -38.3712249 +1     9     7     3
  C     1.40394332 +1  152.9100704 +1 -165.3948051 +1    12     9     7
  C     1.39696572 +1  117.9187478 +1   48.3033714 +1    13    12     9
  C     1.39247894 +1  119.5274162 +1    0.5094677 +1    14    13    12
  C     1.39951623 +1  118.9043852 +1   -0.4757582 +1    15    14    13
  N     1.34414414 +1   42.2303071 +1  -98.1554584 +1    12     9     7
  H     1.09813327 +1   77.9850436 +1   56.1317293 +1    12     9     7
  H     1.09043200 +1  121.1103079 +1 -179.3160619 +1    15    14    13
  H     1.10042070 +1  121.9077646 +1 -179.9890945 +1    16    15    14
  C     1.48205176 +1  120.3496527 +1 -130.8425949 +1    13    12     9
  H     1.10111089 +1  112.4631267 +1 -154.3581182 +1    21    13    12
  H     1.10303417 +1  111.0866482 +1   86.1858046 +1    21    13    12
  H     1.10053638 +1  112.5807095 +1  -33.4070627 +1    21    13    12
  H     1.09215901 +1  120.5490994 +1 -179.7795211 +1    14    13    12
  H     2.11831110 +1  116.1104630 +1  -58.2432446 +1     5     3     1
  O     0.95956453 +1  153.1743057 +1   -5.4552124 +1    26     5     3
  H     0.98925301 +1  106.3281756 +1  123.3655085 +1    27    26     5

 TIME=     0.93
  REACTANTS AND PRODUCTS SWAPPED AROUND
 *+*+*+*+*+*+*+*+*+*+*+*+*+*+*+*+*+*+*+*+*+*+*+*+*+*+*+*+*+*+*+*+*+*+*+*+*+*+*+*+
            BAR SHORTENED BY       0.000 PERCENT
 GRADIENT CRITERION IN FLEPO =    10.000


          FOR POINT    5 SECOND STRUCTURE
 DISTANCE A - B      4.160977
 HEAT              -59.814077
 GRADIENT NORM       2.598216
 DIRECTION COSINE    0.156955
* ===============================
* Input file for Mopac
* ===============================
 PM7 BONDS AUX DUMP=30M ITRY=15000 T=14D CHARGE=0 SINGLET eps=78.4 RELSCF=1


  C     0.00000000 +0    0.0000000 +0    0.0000000 +0     0     0     0
  H     1.09631051 +1    0.0000000 +0    0.0000000 +0     1     0     0
  N     2.42862296 +1   88.8826409 +1    0.0000000 +0     1     2     0
  O     1.25686839 +1   92.1023057 +1   -9.6624351 +1     3     1     2
  O     1.26093708 +1  150.8098108 +1  171.8652466 +1     3     1     2
  H     2.13755930 +1  145.5925395 +1 -173.8669329 +1     1     2     3
  C     1.33480606 +1   30.2646760 +1  170.5382127 +1     3     1     2
  H     1.08625213 +1  118.5269469 +1 -179.8818882 +1     7     3     1
  H     2.17017865 +1   78.4508924 +1  -99.0224053 +1     8     7     3
  C     1.07658700 +1   31.2011473 +1   -1.8657158 +1     6     1     2
  H     1.07648335 +1  112.3949045 +1  179.4862465 +1    10     6     1
  C     4.23813294 +1  157.8251648 +1 -150.3294633 +1     9     8     7
  C     1.39923247 +1  160.0369576 +1   50.4449370 +1    12     9     8
  C     1.39987702 +1  118.5902439 +1    5.4922875 +1    13    12     9
  C     1.39242471 +1  119.7585953 +1    0.2214707 +1    14    13    12
  C     1.39369478 +1  119.6508985 +1   -0.3101674 +1    15    14    13
  N     1.35841037 +1   39.3991440 +1   57.6937367 +1    12     9     8
  H     1.10499589 +1   78.2186993 +1 -124.9918507 +1    12     9     8
  H     1.09644956 +1  120.6762585 +1  179.8099798 +1    15    14    13
  H     1.10405403 +1  122.0695816 +1 -179.9545813 +1    16    15    14
  C     1.48088363 +1  119.6852622 +1 -173.8923395 +1    13    12     9
  H     1.10160071 +1  113.0152941 +1 -168.8890489 +1    21    13    12
  H     1.10556425 +1  111.5900412 +1   71.2406370 +1    21    13    12
  H     1.10409729 +1  112.6529014 +1  -48.2292441 +1    21    13    12
  H     1.09559874 +1  120.0834439 +1 -179.7580690 +1    14    13    12
  H     1.53369476 +1  143.2947978 +1   82.4227999 +1     9     8     7
  O     0.97307709 +1  145.1724560 +1  150.0813479 +1     9     8     7
  H     1.06146367 +1  119.2222474 +1    1.4277161 +1    17    12     9

 TIME=     0.06
  REACTANTS AND PRODUCTS SWAPPED AROUND
 *+*+*+*+*+*+*+*+*+*+*+*+*+*+*+*+*+*+*+*+*+*+*+*+*+*+*+*+*+*+*+*+*+*+*+*+*+*+*+*+
            BAR SHORTENED BY       1.000 PERCENT
 GRADIENT CRITERION IN FLEPO =    10.000


          FOR POINT    6 FIRST  STRUCTURE
 DISTANCE A - B      4.119367
 HEAT              -59.981997
 GRADIENT NORM      16.668845
 DIRECTION COSINE    0.136667
* ===============================
* Input file for Mopac
* ===============================
 PM7 BONDS AUX DUMP=30M ITRY=15000 T=14D CHARGE=0 SINGLET eps=78.4 RELSCF=1


  C     0.00000000 +0    0.0000000 +0    0.0000000 +0     0     0     0
  H     1.09774900 +1    0.0000000 +0    0.0000000 +0     1     0     0
  N     2.43561764 +1   91.6029873 +1    0.0000000 +0     1     2     0
  O     1.21712703 +1  102.8762099 +1    9.5990980 +1     3     1     2
  O     1.22285496 +1  125.3377154 +1 -134.4965034 +1     3     1     2
  H     2.13716340 +1  148.0296225 +1 -151.3848155 +1     1     2     3
  C     1.48197467 +1   35.5045336 +1  135.2580533 +1     3     1     2
  H     1.12237031 +1  108.9827072 +1 -121.7461790 +1     7     3     1
  H     1.12618346 +1  109.2427150 +1  123.6652592 +1     7     3     1
  C     1.08418076 +1   31.0388950 +1   -2.8568866 +1     6     1     2
  H     1.07673123 +1  112.3325398 +1  179.8990043 +1    10     6     1
  C     5.51494158 +1  155.1180563 +1  -38.9269240 +1     9     7     3
  C     1.40192524 +1  153.2888278 +1 -163.9860658 +1    12     9     7
  C     1.39772031 +1  117.9151987 +1   47.1345670 +1    13    12     9
  C     1.39459947 +1  119.5862325 +1    0.4957381 +1    14    13    12
  C     1.39754527 +1  118.6896313 +1   -0.2373345 +1    15    14    13
  N     1.34594808 +1  122.1511345 +1   -0.2843805 +1    16    15    14
  H     1.09979829 +1   78.0732243 +1   56.5111290 +1    12     9     7
  H     1.08697349 +1  121.0228336 +1 -179.7781981 +1    15    14    13
  H     1.09779010 +1  121.4778677 +1  179.5804033 +1    16    15    14
  C     1.47956217 +1  120.5597409 +1 -131.7081103 +1    13    12     9
  H     1.10028150 +1  112.7252281 +1 -154.5428057 +1    21    13    12
  H     1.10579946 +1  111.2161899 +1   85.2094563 +1    21    13    12
  H     1.10675553 +1  112.3924525 +1  -33.6461952 +1    21    13    12
  H     1.09249877 +1  120.2172495 +1 -179.3327575 +1    14    13    12
  H     2.13268198 +1  116.6623078 +1  -57.1045228 +1     5     3     1
  O     0.95874351 +1  152.4378430 +1   -9.2504284 +1    26     5     3
  H     0.96823184 +1  105.3744878 +1  126.3000378 +1    27    26     5

 *+*+*+*+*+*+*+*+*+*+*+*+*+*+*+*+*+*+*+*+*+*+*+*+*+*+*+*+*+*+*+*+*+*+*+*+*+*+*+*+
            BAR SHORTENED BY       1.000 PERCENT
 GRADIENT CRITERION IN FLEPO =    10.000


          FOR POINT    7 FIRST  STRUCTURE
 DISTANCE A - B      4.078174
 HEAT              -60.027345
 GRADIENT NORM      15.208202
 DIRECTION COSINE    0.284079
* ===============================
* Input file for Mopac
* ===============================
 PM7 BONDS AUX DUMP=30M ITRY=15000 T=14D CHARGE=0 SINGLET eps=78.4 RELSCF=1


  C     0.00000000 +0    0.0000000 +0    0.0000000 +0     0     0     0
  H     1.09009121 +1    0.0000000 +0    0.0000000 +0     1     0     0
  N     2.42404932 +1   92.3080581 +1    0.0000000 +0     1     2     0
  O     1.21848921 +1  103.2487976 +1   10.3773513 +1     3     1     2
  O     1.22354626 +1  125.3932856 +1 -134.1503091 +1     3     1     2
  H     2.13990791 +1  146.8144661 +1 -152.7823787 +1     1     2     3
  C     1.47709236 +1   35.4434247 +1  135.6304347 +1     3     1     2
  H     1.12260135 +1  109.3695571 +1 -122.1408594 +1     7     3     1
  H     1.12608551 +1  109.1782746 +1  123.3395699 +1     7     3     1
  C     1.08881864 +1   30.9715420 +1   -1.6736651 +1     6     1     2
  H     1.08054468 +1  111.8777792 +1  179.6500267 +1    10     6     1
  C     5.50378368 +1  155.5345482 +1  -39.3334092 +1     9     7     3
  C     1.40337051 +1  153.5777720 +1 -162.8017079 +1    12     9     7
  C     1.39716431 +1  118.0203636 +1   46.3535506 +1    13    12     9
  C     1.39210317 +1  119.5106154 +1    0.5593689 +1    14    13    12
  C     1.39991365 +1  118.8141244 +1   -0.1969561 +1    15    14    13
  N     1.34598483 +1   42.2588912 +1  -96.9422046 +1    12     9     7
  H     1.09827983 +1   78.1372781 +1   56.8502540 +1    12     9     7
  H     1.08841336 +1  121.1599967 +1  179.9584622 +1    15    14    13
  H     1.09799722 +1  121.7108540 +1  179.8716658 +1    16    15    14
  C     1.48262471 +1  120.3543946 +1 -132.5281750 +1    13    12     9
  H     1.09849433 +1  112.5656752 +1 -155.2248110 +1    21    13    12
  H     1.10265487 +1  111.1939298 +1   85.4243451 +1    21    13    12
  H     1.10177487 +1  112.5388993 +1  -33.9289161 +1    21    13    12
  H     1.09080661 +1  120.3819762 +1 -179.5006968 +1    14    13    12
  H     2.14178076 +1  116.7422666 +1  -56.4851611 +1     5     3     1
  O     0.95996262 +1  151.4502511 +1   -9.9743137 +1    26     5     3
  H     0.97031427 +1  105.1789607 +1  126.7177790 +1    27    26     5

 *+*+*+*+*+*+*+*+*+*+*+*+*+*+*+*+*+*+*+*+*+*+*+*+*+*+*+*+*+*+*+*+*+*+*+*+*+*+*+*+
            BAR SHORTENED BY       1.000 PERCENT
 GRADIENT CRITERION IN FLEPO =    10.000


          FOR POINT    8 FIRST  STRUCTURE
 DISTANCE A - B      4.037392
 HEAT              -59.913270
 GRADIENT NORM      20.771041
 DIRECTION COSINE    0.484337
* ===============================
* Input file for Mopac
* ===============================
 PM7 BONDS AUX DUMP=30M ITRY=15000 T=14D CHARGE=0 SINGLET eps=78.4 RELSCF=1


  C     0.00000000 +0    0.0000000 +0    0.0000000 +0     0     0     0
  H     1.08948946 +1    0.0000000 +0    0.0000000 +0     1     0     0
  N     2.42261992 +1   91.9156305 +1    0.0000000 +0     1     2     0
  O     1.21758121 +1  103.4144446 +1   10.4891209 +1     3     1     2
  O     1.22184315 +1  125.6295433 +1 -133.8657090 +1     3     1     2
  H     2.13921394 +1  147.1438782 +1 -153.2244461 +1     1     2     3
  C     1.47579121 +1   35.5771202 +1  136.1233188 +1     3     1     2
  H     1.12370670 +1  109.3835255 +1 -122.3115856 +1     7     3     1
  H     1.12753582 +1  109.0179491 +1  123.3265575 +1     7     3     1
  C     1.08218013 +1   31.1287431 +1   -1.3194751 +1     6     1     2
  H     1.07837120 +1  112.2686023 +1  179.6512466 +1    10     6     1
  C     5.49234549 +1  155.9788168 +1  -40.0163936 +1     9     7     3
  C     1.40254775 +1  153.6682936 +1 -161.6189546 +1    12     9     7
  C     1.39680798 +1  118.1378866 +1   46.0402061 +1    13    12     9
  C     1.39382817 +1  119.3846653 +1    0.3106097 +1    14    13    12
  C     1.40008856 +1  118.9631324 +1   -0.0579885 +1    15    14    13
  N     1.34574793 +1   42.3083884 +1  -96.5237533 +1    12     9     7
  H     1.09917552 +1   78.2405930 +1   57.7160035 +1    12     9     7
  H     1.08692260 +1  120.9346806 +1  178.9216641 +1    15    14    13
  H     1.09617591 +1  121.7806743 +1  179.9846681 +1    16    15    14
  C     1.48500841 +1  120.1792053 +1 -133.1010399 +1    13    12     9
  H     1.10227957 +1  112.5847306 +1 -155.3456440 +1    21    13    12
  H     1.10399325 +1  111.0653119 +1   85.3438910 +1    21    13    12
  H     1.10219150 +1  112.5821193 +1  -34.2668065 +1    21    13    12
  H     1.09193010 +1  120.4150575 +1 -179.5804692 +1    14    13    12
  H     2.15464224 +1  116.9816121 +1  -56.0043399 +1     5     3     1
  O     0.95883728 +1  150.2534639 +1  -10.2707020 +1    26     5     3
  H     0.96962607 +1  105.2599411 +1  126.7270690 +1    27    26     5

 TIME=     0.66
  REACTANTS AND PRODUCTS SWAPPED AROUND
 *+*+*+*+*+*+*+*+*+*+*+*+*+*+*+*+*+*+*+*+*+*+*+*+*+*+*+*+*+*+*+*+*+*+*+*+*+*+*+*+
            BAR SHORTENED BY       0.000 PERCENT
 GRADIENT CRITERION IN FLEPO =    10.000


          FOR POINT    9 SECOND STRUCTURE
 DISTANCE A - B      4.037392
 HEAT              -59.814077
 GRADIENT NORM       2.598216
 DIRECTION COSINE    0.221144
* ===============================
* Input file for Mopac
* ===============================
 PM7 BONDS AUX DUMP=30M ITRY=15000 T=14D CHARGE=0 SINGLET eps=78.4 RELSCF=1


  C     0.00000000 +0    0.0000000 +0    0.0000000 +0     0     0     0
  H     1.09631051 +1    0.0000000 +0    0.0000000 +0     1     0     0
  N     2.42862296 +1   88.8826409 +1    0.0000000 +0     1     2     0
  O     1.25686839 +1   92.1023057 +1   -9.6624351 +1     3     1     2
  O     1.26093708 +1  150.8098108 +1  171.8652466 +1     3     1     2
  H     2.13755930 +1  145.5925395 +1 -173.8669329 +1     1     2     3
  C     1.33480606 +1   30.2646760 +1  170.5382127 +1     3     1     2
  H     1.08625213 +1  118.5269469 +1 -179.8818882 +1     7     3     1
  H     2.17017865 +1   78.4508924 +1  -99.0224053 +1     8     7     3
  C     1.07658700 +1   31.2011473 +1   -1.8657158 +1     6     1     2
  H     1.07648335 +1  112.3949045 +1  179.4862465 +1    10     6     1
  C     4.23813294 +1  157.8251648 +1 -150.3294633 +1     9     8     7
  C     1.39923247 +1  160.0369576 +1   50.4449370 +1    12     9     8
  C     1.39987702 +1  118.5902439 +1    5.4922875 +1    13    12     9
  C     1.39242471 +1  119.7585953 +1    0.2214707 +1    14    13    12
  C     1.39369478 +1  119.6508985 +1   -0.3101674 +1    15    14    13
  N     1.35841037 +1   39.3991440 +1   57.6937367 +1    12     9     8
  H     1.10499589 +1   78.2186993 +1 -124.9918507 +1    12     9     8
  H     1.09644956 +1  120.6762585 +1  179.8099798 +1    15    14    13
  H     1.10405403 +1  122.0695816 +1 -179.9545813 +1    16    15    14
  C     1.48088363 +1  119.6852622 +1 -173.8923395 +1    13    12     9
  H     1.10160071 +1  113.0152941 +1 -168.8890489 +1    21    13    12
  H     1.10556425 +1  111.5900412 +1   71.2406370 +1    21    13    12
  H     1.10409729 +1  112.6529014 +1  -48.2292441 +1    21    13    12
  H     1.09559874 +1  120.0834439 +1 -179.7580690 +1    14    13    12
  H     1.53369476 +1  143.2947978 +1   82.4227999 +1     9     8     7
  O     0.97307709 +1  145.1724560 +1  150.0813479 +1     9     8     7
  H     1.06146367 +1  119.2222474 +1    1.4277161 +1    17    12     9

 TIME=     0.06
  REACTANTS AND PRODUCTS SWAPPED AROUND
 *+*+*+*+*+*+*+*+*+*+*+*+*+*+*+*+*+*+*+*+*+*+*+*+*+*+*+*+*+*+*+*+*+*+*+*+*+*+*+*+
            BAR SHORTENED BY       1.000 PERCENT
 GRADIENT CRITERION IN FLEPO =    10.000


          FOR POINT   10 FIRST  STRUCTURE
 DISTANCE A - B      3.997018
 HEAT              -59.796796
 GRADIENT NORM      19.555194
 DIRECTION COSINE    0.026413
* ===============================
* Input file for Mopac
* ===============================
 PM7 BONDS AUX DUMP=30M ITRY=15000 T=14D CHARGE=0 SINGLET eps=78.4 RELSCF=1


  C     0.00000000 +0    0.0000000 +0    0.0000000 +0     0     0     0
  H     1.08952602 +1    0.0000000 +0    0.0000000 +0     1     0     0
  N     2.42230784 +1   91.1458129 +1    0.0000000 +0     1     2     0
  O     1.22027383 +1  103.4303864 +1   11.4669501 +1     3     1     2
  O     1.22607118 +1  125.5543141 +1 -133.4288438 +1     3     1     2
  H     2.14141316 +1  147.6831905 +1 -153.1107185 +1     1     2     3
  C     1.47606371 +1   35.6060648 +1  136.7601646 +1     3     1     2
  H     1.12503973 +1  109.4927971 +1 -122.3022553 +1     7     3     1
  H     1.12567237 +1  108.9856307 +1  123.3210425 +1     7     3     1
  C     1.07981176 +1   30.7475616 +1   -0.9035197 +1     6     1     2
  H     1.08117635 +1  111.7911602 +1 -179.4472449 +1    10     6     1
  C     5.48586406 +1  156.3465067 +1  -40.6038633 +1     9     7     3
  C     1.40130930 +1  153.9868501 +1 -160.5106246 +1    12     9     7
  C     1.39671605 +1  118.0082649 +1   45.4493939 +1    13    12     9
  C     1.39395740 +1  119.4936126 +1    0.6170312 +1    14    13    12
  C     1.40460982 +1  118.5475288 +1   -0.5607524 +1    15    14    13
  N     1.34491230 +1  122.3023020 +1    0.0433670 +1    16    15    14
  H     1.09978185 +1   78.0740180 +1   58.3904243 +1    12     9     7
  H     1.08843760 +1  121.1112273 +1  179.3328679 +1    15    14    13
  H     1.09431089 +1  121.9448116 +1 -179.3155313 +1    16    15    14
  C     1.48206403 +1  120.2220195 +1 -133.5867489 +1    13    12     9
  H     1.10267658 +1  112.6583041 +1 -155.3391549 +1    21    13    12
  H     1.10243801 +1  111.2457178 +1   84.8805818 +1    21    13    12
  H     1.10115245 +1  112.1403373 +1  -34.8109978 +1    21    13    12
  H     1.09024229 +1  120.6342507 +1 -179.7786990 +1    14    13    12
  H     2.16049262 +1  117.1269575 +1  -55.6649496 +1     5     3     1
  O     0.96071598 +1  149.2692410 +1  -10.5572703 +1    26     5     3
  H     0.97097536 +1  105.0851282 +1  127.0186325 +1    27    26     5

 TIME=     0.21
  REACTANTS AND PRODUCTS SWAPPED AROUND
 *+*+*+*+*+*+*+*+*+*+*+*+*+*+*+*+*+*+*+*+*+*+*+*+*+*+*+*+*+*+*+*+*+*+*+*+*+*+*+*+
            BAR SHORTENED BY       1.000 PERCENT
 GRADIENT CRITERION IN FLEPO =    10.000


          FOR POINT   11 SECOND STRUCTURE
 DISTANCE A - B      3.957048
 HEAT              -59.732788
 GRADIENT NORM      14.789779
 DIRECTION COSINE    0.028113
* ===============================
* Input file for Mopac
* ===============================
 PM7 BONDS AUX DUMP=30M ITRY=15000 T=14D CHARGE=0 SINGLET eps=78.4 RELSCF=1


  C     0.00000000 +0    0.0000000 +0    0.0000000 +0     0     0     0
  H     1.09403103 +1    0.0000000 +0    0.0000000 +0     1     0     0
  N     2.42223191 +1   88.6785630 +1    0.0000000 +0     1     2     0
  O     1.25312557 +1   92.5913699 +1   -9.4627830 +1     3     1     2
  O     1.25677506 +1  150.8279743 +1  171.7488596 +1     3     1     2
  H     2.13517996 +1  145.4533499 +1 -173.5715036 +1     1     2     3
  C     1.33639612 +1   30.4155511 +1  170.4298130 +1     3     1     2
  H     1.08423453 +1  118.4004008 +1 -179.0570580 +1     7     3     1
  H     2.17065931 +1   77.9091904 +1  -99.1322933 +1     8     7     3
  C     1.07466120 +1   31.3579520 +1   -1.9092605 +1     6     1     2
  H     1.07317367 +1  112.4487064 +1  179.4148137 +1    10     6     1
  C     4.24667544 +1  157.9414868 +1 -150.0127067 +1     9     8     7
  C     1.40090902 +1  160.1966801 +1   49.2703569 +1    12     9     8
  C     1.39943624 +1  118.5087146 +1    6.6450539 +1    13    12     9
  C     1.39325193 +1  119.7163781 +1    0.0974912 +1    14    13    12
  C     1.39329171 +1  119.6437249 +1   -0.1957725 +1    15    14    13
  N     1.35722230 +1   39.3110830 +1   57.9033040 +1    12     9     8
  H     1.10491822 +1   78.1426225 +1 -125.1222597 +1    12     9     8
  H     1.09642552 +1  120.6722912 +1  179.7935537 +1    15    14    13
  H     1.10363931 +1  122.0315260 +1 -179.9290226 +1    16    15    14
  C     1.48173650 +1  119.6590641 +1 -172.7965173 +1    13    12     9
  H     1.10208976 +1  112.8907840 +1 -168.5072328 +1    21    13    12
  H     1.10387886 +1  111.7548369 +1   71.5038538 +1    21    13    12
  H     1.10526772 +1  112.6625393 +1  -48.0994133 +1    21    13    12
  H     1.09732615 +1  120.2837195 +1 -179.9607325 +1    14    13    12
  H     1.53895427 +1  142.9819570 +1   82.6573844 +1     9     8     7
  O     0.97748543 +1   38.1439511 +1  121.8875347 +1    26     9     8
  H     1.06343875 +1  119.2278825 +1    1.3907159 +1    17    12     9

 TIME=     0.12
  REACTANTS AND PRODUCTS SWAPPED AROUND
 *+*+*+*+*+*+*+*+*+*+*+*+*+*+*+*+*+*+*+*+*+*+*+*+*+*+*+*+*+*+*+*+*+*+*+*+*+*+*+*+
            BAR SHORTENED BY       1.000 PERCENT
 GRADIENT CRITERION IN FLEPO =    10.000


          FOR POINT   12 FIRST  STRUCTURE
 DISTANCE A - B      3.917477
 HEAT              -59.727905
 GRADIENT NORM      19.416189
 DIRECTION COSINE    0.234312
* ===============================
* Input file for Mopac
* ===============================
 PM7 BONDS AUX DUMP=30M ITRY=15000 T=14D CHARGE=0 SINGLET eps=78.4 RELSCF=1


  C     0.00000000 +0    0.0000000 +0    0.0000000 +0     0     0     0
  H     1.09097643 +1    0.0000000 +0    0.0000000 +0     1     0     0
  N     2.42392436 +1   90.8188786 +1    0.0000000 +0     1     2     0
  O     1.21625896 +1  103.5209454 +1   11.3816957 +1     3     1     2
  O     1.22102032 +1  125.4325478 +1 -133.3011153 +1     3     1     2
  H     2.13881190 +1  147.7570331 +1 -153.6420213 +1     1     2     3
  C     1.47870635 +1   35.5838368 +1  137.1854117 +1     3     1     2
  H     1.12008772 +1  109.3521517 +1 -122.5567238 +1     7     3     1
  H     1.12863709 +1  108.8984300 +1  123.1684075 +1     7     3     1
  C     1.08250146 +1   30.6946754 +1   -0.8105495 +1     6     1     2
  H     1.08127399 +1  111.4352803 +1 -179.8241470 +1    10     6     1
  C     5.47610711 +1  156.7705723 +1  -41.2584100 +1     9     7     3
  C     1.40348316 +1  154.0403001 +1 -159.3763542 +1    12     9     7
  C     1.39682612 +1  117.9802852 +1   45.0719947 +1    13    12     9
  C     1.39211257 +1  119.5074790 +1    0.3607558 +1    14    13    12
  C     1.39847411 +1  118.7501537 +1   -0.4252183 +1    15    14    13
  N     1.34724960 +1  122.3570290 +1    0.0299118 +1    16    15    14
  H     1.10180622 +1   79.3339747 +1   59.4198206 +1    12     9     7
  H     1.08904576 +1  121.0455730 +1  179.5316942 +1    15    14    13
  H     1.09801997 +1  121.9652453 +1 -179.3128653 +1    16    15    14
  C     1.48203638 +1  120.0373758 +1 -134.3524780 +1    13    12     9
  H     1.09895511 +1  112.6882592 +1 -155.4065245 +1    21    13    12
  H     1.10361888 +1  111.1831312 +1   84.7303503 +1    21    13    12
  H     1.10261234 +1  112.3692145 +1  -34.7074694 +1    21    13    12
  H     1.09126239 +1  120.4544226 +1 -179.7658878 +1    14    13    12
  H     2.17967982 +1  117.6783052 +1  -55.0925329 +1     5     3     1
  O     0.95732437 +1  147.6553338 +1  -10.3552932 +1    26     5     3
  H     0.97004149 +1  105.1882062 +1  126.8060942 +1    27    26     5

 TIME=     0.12
  REACTANTS AND PRODUCTS SWAPPED AROUND
 *+*+*+*+*+*+*+*+*+*+*+*+*+*+*+*+*+*+*+*+*+*+*+*+*+*+*+*+*+*+*+*+*+*+*+*+*+*+*+*+
            BAR SHORTENED BY       1.000 PERCENT
 GRADIENT CRITERION IN FLEPO =    10.000


          FOR POINT   13 SECOND STRUCTURE
 DISTANCE A - B      3.878303
 HEAT              -59.467718
 GRADIENT NORM      25.120191
 DIRECTION COSINE    0.059413
* ===============================
* Input file for Mopac
* ===============================
 PM7 BONDS AUX DUMP=30M ITRY=15000 T=14D CHARGE=0 SINGLET eps=78.4 RELSCF=1


  C     0.00000000 +0    0.0000000 +0    0.0000000 +0     0     0     0
  H     1.09210587 +1    0.0000000 +0    0.0000000 +0     1     0     0
  N     2.42046935 +1   88.3672623 +1    0.0000000 +0     1     2     0
  O     1.25298142 +1   92.9390292 +1   -9.2802331 +1     3     1     2
  O     1.25208765 +1  151.0125052 +1  171.8257610 +1     3     1     2
  H     2.13125296 +1  145.5714549 +1 -172.9277471 +1     1     2     3
  C     1.33252040 +1   30.3812515 +1  170.2196868 +1     3     1     2
  H     1.08557559 +1  118.1649321 +1 -178.4717846 +1     7     3     1
  H     2.17255321 +1   77.5241011 +1  -99.1220515 +1     8     7     3
  C     1.07332002 +1   31.2306312 +1   -2.3446734 +1     6     1     2
  H     1.07841112 +1  112.5142935 +1  179.2121578 +1    10     6     1
  C     4.25664723 +1  158.1404390 +1 -149.8522717 +1     9     8     7
  C     1.40029533 +1  160.1787202 +1   48.4838143 +1    12     9     8
  C     1.40231059 +1  118.5346536 +1    7.2055384 +1    13    12     9
  C     1.38984095 +1  119.7278004 +1    0.2762650 +1    14    13    12
  C     1.39763356 +1  119.6074396 +1   -0.2529408 +1    15    14    13
  N     1.35652716 +1  120.3873449 +1    0.1106015 +1    16    15    14
  H     1.10159970 +1   78.1962102 +1 -125.2346292 +1    12     9     8
  H     1.09741239 +1  120.8525917 +1  179.7654979 +1    15    14    13
  H     1.10309235 +1  121.7740285 +1 -179.9564011 +1    16    15    14
  C     1.48097139 +1  119.7745237 +1 -172.0894473 +1    13    12     9
  H     1.10015162 +1  113.2321246 +1 -168.5119072 +1    21    13    12
  H     1.10807517 +1  111.6579982 +1   71.5011344 +1    21    13    12
  H     1.10486542 +1  112.7471549 +1  -47.6130037 +1    21    13    12
  H     1.09634953 +1  120.0857490 +1 -179.9750742 +1    14    13    12
  H     1.53844156 +1  143.0740290 +1   82.6972959 +1     9     8     7
  O     0.97137232 +1   38.3282972 +1  122.2346773 +1    26     9     8
  H     1.05626676 +1  119.6920635 +1 -177.5188647 +1    17    16    15

 TIME=     0.12
  REACTANTS AND PRODUCTS SWAPPED AROUND
 *+*+*+*+*+*+*+*+*+*+*+*+*+*+*+*+*+*+*+*+*+*+*+*+*+*+*+*+*+*+*+*+*+*+*+*+*+*+*+*+
            BAR SHORTENED BY       1.000 PERCENT
 GRADIENT CRITERION IN FLEPO =    10.000


          FOR POINT   14 FIRST  STRUCTURE
 DISTANCE A - B      3.839519
 HEAT              -59.566591
 GRADIENT NORM      21.543326
 DIRECTION COSINE    0.138361
* ===============================
* Input file for Mopac
* ===============================
 PM7 BONDS AUX DUMP=30M ITRY=15000 T=14D CHARGE=0 SINGLET eps=78.4 RELSCF=1


  C     0.00000000 +0    0.0000000 +0    0.0000000 +0     0     0     0
  H     1.09095724 +1    0.0000000 +0    0.0000000 +0     1     0     0
  N     2.41965206 +1   90.6365065 +1    0.0000000 +0     1     2     0
  O     1.21994998 +1  103.5726789 +1   11.5079706 +1     3     1     2
  O     1.22376125 +1  125.6106840 +1 -132.7994064 +1     3     1     2
  H     2.14137448 +1  147.7613924 +1 -153.6249075 +1     1     2     3
  C     1.47473413 +1   35.6841116 +1  137.9156761 +1     3     1     2
  H     1.12086543 +1  109.8291479 +1 -122.2437313 +1     7     3     1
  H     1.12751328 +1  108.9662570 +1  123.1420256 +1     7     3     1
  C     1.08512238 +1   30.8053806 +1   -0.8740634 +1     6     1     2
  H     1.08340823 +1  111.5599360 +1 -179.9465798 +1    10     6     1
  C     5.46817608 +1  157.1234499 +1  -41.5001063 +1     9     7     3
  C     1.40153219 +1  154.2624611 +1 -158.1456352 +1    12     9     7
  C     1.39682803 +1  118.1661446 +1   44.1722701 +1    13    12     9
  C     1.39978210 +1  119.2412245 +1    0.3399769 +1    14    13    12
  C     1.39799622 +1  118.8476153 +1   -0.5124737 +1    15    14    13
  N     1.34526822 +1   41.4585966 +1  -95.9394040 +1    12     9     7
  H     1.09774345 +1   78.6787626 +1   59.5287907 +1    12     9     7
  H     1.08800757 +1  120.7017769 +1  179.6400139 +1    15    14    13
  H     1.09319048 +1  121.9517958 +1 -179.3599666 +1    16    15    14
  C     1.48121290 +1  119.8261683 +1 -135.1980955 +1    13    12     9
  H     1.10026330 +1  112.5996509 +1 -155.8277092 +1    21    13    12
  H     1.10256993 +1  111.3391008 +1   84.4854414 +1    21    13    12
  H     1.10346174 +1  112.5559104 +1  -35.2314465 +1    21    13    12
  H     1.08934251 +1  120.6068134 +1 -179.6011811 +1    14    13    12
  H     2.18524637 +1  117.6187675 +1  -54.6564929 +1     5     3     1
  O     0.95930448 +1  147.0593959 +1  -10.8555546 +1    26     5     3
  H     0.96985531 +1  105.3521069 +1  127.0605122 +1    27    26     5

 *+*+*+*+*+*+*+*+*+*+*+*+*+*+*+*+*+*+*+*+*+*+*+*+*+*+*+*+*+*+*+*+*+*+*+*+*+*+*+*+
            BAR SHORTENED BY       1.000 PERCENT
 GRADIENT CRITERION IN FLEPO =    10.000


          FOR POINT   15 FIRST  STRUCTURE
 DISTANCE A - B      3.801124
 HEAT              -59.748933
 GRADIENT NORM      15.502360
 DIRECTION COSINE    0.242626
* ===============================
* Input file for Mopac
* ===============================
 PM7 BONDS AUX DUMP=30M ITRY=15000 T=14D CHARGE=0 SINGLET eps=78.4 RELSCF=1


  C     0.00000000 +0    0.0000000 +0    0.0000000 +0     0     0     0
  H     1.09265071 +1    0.0000000 +0    0.0000000 +0     1     0     0
  N     2.43102275 +1   90.0484908 +1    0.0000000 +0     1     2     0
  O     1.21830501 +1  103.1925255 +1   11.9592596 +1     3     1     2
  O     1.22412363 +1  124.7139290 +1 -132.8211249 +1     3     1     2
  H     2.14014115 +1  148.1468320 +1 -154.8268048 +1     1     2     3
  C     1.48402245 +1   35.4490377 +1  138.0213348 +1     3     1     2
  H     1.12712578 +1  109.5609018 +1 -122.7782657 +1     7     3     1
  H     1.12829769 +1  108.9644018 +1  122.8939500 +1     7     3     1
  C     1.08644596 +1   30.9987733 +1   -0.3984104 +1     6     1     2
  H     1.08241320 +1  112.0863838 +1  179.9770086 +1    10     6     1
  C     5.45988343 +1  157.4277688 +1  -42.4930434 +1     9     7     3
  C     1.40246541 +1  154.5084154 +1 -156.7953451 +1    12     9     7
  C     1.39549868 +1  118.0918813 +1   43.4952842 +1    13    12     9
  C     1.39272258 +1  119.3818916 +1    0.2649186 +1    14    13    12
  C     1.40247528 +1  118.7871119 +1   -0.3688243 +1    15    14    13
  N     1.34257178 +1   41.1225548 +1  -95.8055328 +1    12     9     7
  H     1.10166776 +1   78.2489594 +1   60.3300911 +1    12     9     7
  H     1.08971348 +1  121.1923392 +1  179.3447030 +1    15    14    13
  H     1.09733089 +1  121.7260123 +1 -179.0977401 +1    16    15    14
  C     1.48143338 +1  119.8456856 +1 -135.8589769 +1    13    12     9
  H     1.10332125 +1  112.5689137 +1 -156.0342946 +1    21    13    12
  H     1.10608649 +1  111.3046441 +1   83.9566665 +1    21    13    12
  H     1.10426137 +1  112.4613096 +1  -35.3454931 +1    21    13    12
  H     1.09381989 +1  120.6127748 +1 -179.7178828 +1    14    13    12
  H     2.19301419 +1  118.0754230 +1  -54.3131113 +1     5     3     1
  O     0.95995942 +1  146.1698931 +1  -10.9969224 +1    26     5     3
  H     0.97176081 +1  105.1928460 +1  127.5405670 +1    27    26     5

 *+*+*+*+*+*+*+*+*+*+*+*+*+*+*+*+*+*+*+*+*+*+*+*+*+*+*+*+*+*+*+*+*+*+*+*+*+*+*+*+
            BAR SHORTENED BY       1.000 PERCENT
 GRADIENT CRITERION IN FLEPO =    10.000


          FOR POINT   16 FIRST  STRUCTURE
 DISTANCE A - B      3.763113
 HEAT              -59.648646
 GRADIENT NORM      14.760409
 DIRECTION COSINE    0.425016
* ===============================
* Input file for Mopac
* ===============================
 PM7 BONDS AUX DUMP=30M ITRY=15000 T=14D CHARGE=0 SINGLET eps=78.4 RELSCF=1


  C     0.00000000 +0    0.0000000 +0    0.0000000 +0     0     0     0
  H     1.08360179 +1    0.0000000 +0    0.0000000 +0     1     0     0
  N     2.42474591 +1   90.9049804 +1    0.0000000 +0     1     2     0
  O     1.21910919 +1  103.4263549 +1   12.4217471 +1     3     1     2
  O     1.22307746 +1  125.0237937 +1 -132.0402171 +1     3     1     2
  H     2.13749871 +1  146.9553847 +1 -155.3554104 +1     1     2     3
  C     1.47797889 +1   35.5513909 +1  138.8497585 +1     3     1     2
  H     1.12326058 +1  109.6532583 +1 -122.7850400 +1     7     3     1
  H     1.12661690 +1  108.9938557 +1  122.7517558 +1     7     3     1
  C     1.08257185 +1   30.9417088 +1   -0.2740916 +1     6     1     2
  H     1.08431153 +1  111.8730257 +1  179.6613827 +1    10     6     1
  C     5.45386643 +1  157.7400996 +1  -42.8758567 +1     9     7     3
  C     1.40321465 +1  154.6607663 +1 -155.8195257 +1    12     9     7
  C     1.39636247 +1  118.0747873 +1   43.0452082 +1    13    12     9
  C     1.39249571 +1  119.4009575 +1    0.1608427 +1    14    13    12
  C     1.39908129 +1  118.8657235 +1   -0.3875679 +1    15    14    13
  N     1.34586150 +1   41.2423412 +1  -95.6393514 +1    12     9     7
  H     1.09843686 +1   78.3173527 +1   60.8981810 +1    12     9     7
  H     1.08906600 +1  121.2083630 +1  179.5241485 +1    15    14    13
  H     1.09788875 +1  121.9151872 +1 -179.1579556 +1    16    15    14
  C     1.48217839 +1  119.7893777 +1 -136.3715636 +1    13    12     9
  H     1.10005869 +1  112.5476365 +1 -156.3170859 +1    21    13    12
  H     1.10344961 +1  111.1734924 +1   83.7842240 +1    21    13    12
  H     1.10240672 +1  112.3814595 +1  -35.5241651 +1    21    13    12
  H     1.09097949 +1  120.4622074 +1 -179.6279554 +1    14    13    12
  H     2.19817146 +1  127.9990876 +1   -2.3365385 +1     9     7     3
  O     0.95960573 +1   80.7368358 +1  165.9773218 +1    26     9     7
  H     0.97077711 +1  105.3653011 +1  109.2619259 +1    27    26     9

 TIME=     0.50
  REACTANTS AND PRODUCTS SWAPPED AROUND
 *+*+*+*+*+*+*+*+*+*+*+*+*+*+*+*+*+*+*+*+*+*+*+*+*+*+*+*+*+*+*+*+*+*+*+*+*+*+*+*+
            BAR SHORTENED BY       0.000 PERCENT
 GRADIENT CRITERION IN FLEPO =    10.000


          FOR POINT   17 SECOND STRUCTURE
 DISTANCE A - B      3.763113
 HEAT              -59.668591
 GRADIENT NORM      14.403833
 DIRECTION COSINE    0.070705
* ===============================
* Input file for Mopac
* ===============================
 PM7 BONDS AUX DUMP=30M ITRY=15000 T=14D CHARGE=0 SINGLET eps=78.4 RELSCF=1


  C     0.00000000 +0    0.0000000 +0    0.0000000 +0     0     0     0
  H     1.09868188 +1    0.0000000 +0    0.0000000 +0     1     0     0
  N     2.41766866 +1   87.5301710 +1    0.0000000 +0     1     2     0
  O     1.25465557 +1   92.7260941 +1   -9.3738922 +1     3     1     2
  O     1.25990432 +1  150.9577807 +1  171.9453534 +1     3     1     2
  H     2.13446066 +1  146.3563782 +1 -172.7821376 +1     1     2     3
  C     1.33393969 +1   30.5402590 +1  170.0362669 +1     3     1     2
  H     1.08601426 +1  118.3640899 +1 -178.6685793 +1     7     3     1
  H     2.17842039 +1   77.5017713 +1  -98.9295611 +1     8     7     3
  C     1.07326524 +1   31.2639974 +1   -2.7785827 +1     6     1     2
  H     1.07385984 +1  112.4862294 +1  179.0568551 +1    10     6     1
  C     4.25568544 +1  157.9535557 +1 -149.5808621 +1     9     8     7
  C     1.39767632 +1  160.1229153 +1   47.9149543 +1    12     9     8
  C     1.39831161 +1  118.7426970 +1    7.6643705 +1    13    12     9
  C     1.39350437 +1  119.5620306 +1   -0.1425549 +1    14    13    12
  C     1.39215641 +1  119.6653735 +1    0.1642024 +1    15    14    13
  N     1.35740852 +1  120.3168349 +1   -0.3568353 +1    16    15    14
  H     1.10512572 +1   78.1255268 +1 -125.5861455 +1    12     9     8
  H     1.09628735 +1  120.5936228 +1 -179.9696080 +1    15    14    13
  H     1.10311107 +1  121.7610552 +1  179.8587378 +1    16    15    14
  C     1.48498316 +1  119.5976604 +1 -171.8999341 +1    13    12     9
  H     1.10365250 +1  113.0381182 +1 -168.2542566 +1    21    13    12
  H     1.10272083 +1  111.5881048 +1   71.7345032 +1    21    13    12
  H     1.10203647 +1  112.6131198 +1  -47.6196453 +1    21    13    12
  H     1.09828308 +1  120.3265037 +1 -179.8660561 +1    14    13    12
  H     1.53319688 +1  143.0612588 +1   82.8949759 +1     9     8     7
  O     0.97252681 +1   38.1883537 +1  122.4224654 +1    26     9     8
  H     1.06144570 +1  119.5853870 +1 -177.7640402 +1    17    16    15

 *+*+*+*+*+*+*+*+*+*+*+*+*+*+*+*+*+*+*+*+*+*+*+*+*+*+*+*+*+*+*+*+*+*+*+*+*+*+*+*+
            BAR SHORTENED BY       1.000 PERCENT
 GRADIENT CRITERION IN FLEPO =    10.000


          FOR POINT   18 SECOND STRUCTURE
 DISTANCE A - B      3.725482
 HEAT              -59.582893
 GRADIENT NORM      13.911485
 DIRECTION COSINE    0.595738
* ===============================
* Input file for Mopac
* ===============================
 PM7 BONDS AUX DUMP=30M ITRY=15000 T=14D CHARGE=0 SINGLET eps=78.4 RELSCF=1


  C     0.00000000 +0    0.0000000 +0    0.0000000 +0     0     0     0
  H     1.09777696 +1    0.0000000 +0    0.0000000 +0     1     0     0
  N     2.41505097 +1   87.7826972 +1    0.0000000 +0     1     2     0
  O     1.25297984 +1   92.4400673 +1   -9.9223744 +1     3     1     2
  O     1.26183800 +1  151.0604385 +1  171.6829930 +1     3     1     2
  H     2.13440733 +1  146.0837943 +1 -173.4049307 +1     1     2     3
  C     1.33364761 +1   30.6759984 +1  169.2812782 +1     3     1     2
  H     1.08860830 +1  118.2315453 +1 -177.9892260 +1     7     3     1
  H     2.18345400 +1   77.0559301 +1  -99.1141816 +1     8     7     3
  C     1.07377423 +1   31.1909935 +1   -1.8516111 +1     6     1     2
  H     1.07453343 +1  112.3296258 +1  179.1372775 +1    10     6     1
  C     4.25751402 +1  158.1515803 +1 -149.5992275 +1     9     8     7
  C     1.40037421 +1  160.1811537 +1   47.3665456 +1    12     9     8
  C     1.39943901 +1  118.6268535 +1    8.1122195 +1    13    12     9
  C     1.39149546 +1  119.6251807 +1    0.3092620 +1    14    13    12
  C     1.39484564 +1  119.7152507 +1   -0.2655161 +1    15    14    13
  N     1.35784994 +1   39.5115078 +1   58.3902407 +1    12     9     8
  H     1.10384522 +1   78.2179793 +1 -125.6536501 +1    12     9     8
  H     1.09877935 +1  120.4463883 +1 -179.9197228 +1    15    14    13
  H     1.10559936 +1  121.0138067 +1  179.9915661 +1    16    15    14
  C     1.48188596 +1  119.6944768 +1 -171.1212097 +1    13    12     9
  H     1.10181156 +1  113.3025960 +1 -168.3371601 +1    21    13    12
  H     1.10546405 +1  111.7191742 +1   71.7643450 +1    21    13    12
  H     1.10403392 +1  112.6524417 +1  -47.4989126 +1    21    13    12
  H     1.09873976 +1  120.0702914 +1 -179.5837555 +1    14    13    12
  H     1.52511723 +1  142.6110237 +1   82.7358509 +1     9     8     7
  O     0.96881517 +1   38.4426307 +1  123.0476640 +1    26     9     8
  H     1.06431544 +1  119.2160984 +1    2.6353576 +1    17    12     9

 TIME=     0.23
  REACTANTS AND PRODUCTS SWAPPED AROUND
 *+*+*+*+*+*+*+*+*+*+*+*+*+*+*+*+*+*+*+*+*+*+*+*+*+*+*+*+*+*+*+*+*+*+*+*+*+*+*+*+
            BAR SHORTENED BY       1.000 PERCENT
 GRADIENT CRITERION IN FLEPO =    10.000


          FOR POINT   19 FIRST  STRUCTURE
 DISTANCE A - B      3.688227
 HEAT              -59.552366
 GRADIENT NORM      22.428051
 DIRECTION COSINE    0.150576
* ===============================
* Input file for Mopac
* ===============================
 PM7 BONDS AUX DUMP=30M ITRY=15000 T=14D CHARGE=0 SINGLET eps=78.4 RELSCF=1


  C     0.00000000 +0    0.0000000 +0    0.0000000 +0     0     0     0
  H     1.09107785 +1    0.0000000 +0    0.0000000 +0     1     0     0
  N     2.42717937 +1   90.2104905 +1    0.0000000 +0     1     2     0
  O     1.21716525 +1  103.7550331 +1   12.6396865 +1     3     1     2
  O     1.22113778 +1  125.2305713 +1 -131.8107303 +1     3     1     2
  H     2.13300705 +1  147.3945033 +1 -155.1927322 +1     1     2     3
  C     1.47560304 +1   35.5083550 +1  139.1733181 +1     3     1     2
  H     1.12141029 +1  109.6340441 +1 -122.8327768 +1     7     3     1
  H     1.12999352 +1  108.8368026 +1  122.5634390 +1     7     3     1
  C     1.07815489 +1   30.8439265 +1    0.0035273 +1     6     1     2
  H     1.08602808 +1  111.9594487 +1 -179.2420916 +1    10     6     1
  C     5.44185587 +1  158.0836631 +1  -43.5962796 +1     9     7     3
  C     1.40177235 +1  154.7517372 +1 -154.3571600 +1    12     9     7
  C     1.39783064 +1  118.3088837 +1   42.3666322 +1    13    12     9
  C     1.39561121 +1  119.1648386 +1    0.1008954 +1    14    13    12
  C     1.40039946 +1  118.8863981 +1   -0.3950393 +1    15    14    13
  N     1.34345574 +1  122.0989247 +1    0.3250250 +1    16    15    14
  H     1.09991412 +1   78.2781790 +1   61.7310288 +1    12     9     7
  H     1.08834253 +1  120.8720861 +1  179.6056057 +1    15    14    13
  H     1.09780228 +1  121.5876546 +1 -179.2707468 +1    16    15    14
  C     1.48436101 +1  119.7917464 +1 -137.1088197 +1    13    12     9
  H     1.10551589 +1  112.3347410 +1 -156.6960477 +1    21    13    12
  H     1.10337840 +1  111.2001335 +1   83.6277147 +1    21    13    12
  H     1.09862397 +1  112.4573613 +1  -35.8829428 +1    21    13    12
  H     1.09151176 +1  120.5908072 +1 -179.4998026 +1    14    13    12
  H     2.19637494 +1  128.3773658 +1   -2.4587897 +1     9     7     3
  O     0.96039043 +1   80.2975793 +1  166.0827158 +1    26     9     7
  H     0.97051311 +1  105.5438699 +1  109.4251684 +1    27    26     9

 TIME=     0.17
  REACTANTS AND PRODUCTS SWAPPED AROUND
 *+*+*+*+*+*+*+*+*+*+*+*+*+*+*+*+*+*+*+*+*+*+*+*+*+*+*+*+*+*+*+*+*+*+*+*+*+*+*+*+
            BAR SHORTENED BY       1.000 PERCENT
 GRADIENT CRITERION IN FLEPO =    10.000


          FOR POINT   20 SECOND STRUCTURE
 DISTANCE A - B      3.651345
 HEAT              -59.512842
 GRADIENT NORM      19.187854
 DIRECTION COSINE    0.124250
* ===============================
* Input file for Mopac
* ===============================
 PM7 BONDS AUX DUMP=30M ITRY=15000 T=14D CHARGE=0 SINGLET eps=78.4 RELSCF=1


  C     0.00000000 +0    0.0000000 +0    0.0000000 +0     0     0     0
  H     1.09290595 +1    0.0000000 +0    0.0000000 +0     1     0     0
  N     2.41336919 +1   87.7407942 +1    0.0000000 +0     1     2     0
  O     1.25457370 +1   92.5773122 +1   -9.7730714 +1     3     1     2
  O     1.25972506 +1  151.2025457 +1  171.8308071 +1     3     1     2
  H     2.13845091 +1  145.9483124 +1 -172.7105365 +1     1     2     3
  C     1.33435981 +1   30.7568545 +1  168.0961708 +1     3     1     2
  H     1.08564974 +1  118.4605022 +1 -179.4922419 +1     7     3     1
  H     2.18443238 +1   77.6602644 +1  -98.0822987 +1     8     7     3
  C     1.07563286 +1   31.0152976 +1   -2.3781487 +1     6     1     2
  H     1.07976469 +1  112.3407431 +1  178.9711828 +1    10     6     1
  C     4.26069658 +1  158.4336775 +1 -149.6940498 +1     9     8     7
  C     1.40221419 +1  160.2202551 +1   46.3211435 +1    12     9     8
  C     1.39860740 +1  118.6851797 +1    8.8974456 +1    13    12     9
  C     1.39052110 +1  119.4631815 +1    0.5500763 +1    14    13    12
  C     1.40135080 +1  119.9396190 +1   -0.4615267 +1    15    14    13
  N     1.35927828 +1  120.1047085 +1    0.0521731 +1    16    15    14
  H     1.10396760 +1   78.2459806 +1 -125.9962947 +1    12     9     8
  H     1.09895825 +1  120.9430055 +1 -179.9495346 +1    15    14    13
  H     1.10076934 +1  121.6657308 +1  179.9087765 +1    16    15    14
  C     1.47904267 +1  119.6926547 +1 -170.2357813 +1    13    12     9
  H     1.09920591 +1  113.3455691 +1 -168.6109897 +1    21    13    12
  H     1.11044169 +1  111.5673168 +1   72.1039856 +1    21    13    12
  H     1.10344949 +1  112.7994250 +1  -47.1849020 +1    21    13    12
  H     1.09414040 +1  120.3698037 +1 -179.7397114 +1    14    13    12
  H     1.53303910 +1  142.3487009 +1   82.1934246 +1     9     8     7
  O     0.97323817 +1   38.1582707 +1  123.3946726 +1    26     9     8
  H     1.06232503 +1  120.2347451 +1 -179.6724663 +1    17    16    15

 TIME=     0.11
  REACTANTS AND PRODUCTS SWAPPED AROUND
 *+*+*+*+*+*+*+*+*+*+*+*+*+*+*+*+*+*+*+*+*+*+*+*+*+*+*+*+*+*+*+*+*+*+*+*+*+*+*+*+
            BAR SHORTENED BY       1.000 PERCENT
 GRADIENT CRITERION IN FLEPO =    10.000


          FOR POINT   21 FIRST  STRUCTURE
 DISTANCE A - B      3.614831
 HEAT              -59.334252
 GRADIENT NORM      22.496993
 DIRECTION COSINE    0.164321
* ===============================
* Input file for Mopac
* ===============================
 PM7 BONDS AUX DUMP=30M ITRY=15000 T=14D CHARGE=0 SINGLET eps=78.4 RELSCF=1


  C     0.00000000 +0    0.0000000 +0    0.0000000 +0     0     0     0
  H     1.09369399 +1    0.0000000 +0    0.0000000 +0     1     0     0
  N     2.42301147 +1   89.7642220 +1    0.0000000 +0     1     2     0
  O     1.21860705 +1  103.8062414 +1   13.1117956 +1     3     1     2
  O     1.22204086 +1  125.5491195 +1 -131.2073434 +1     3     1     2
  H     2.14138154 +1  147.6732639 +1 -154.6777895 +1     1     2     3
  C     1.47442740 +1   35.5026518 +1  140.0690367 +1     3     1     2
  H     1.11935303 +1  109.8563574 +1 -122.9594436 +1     7     3     1
  H     1.13155778 +1  108.6330784 +1  122.7391339 +1     7     3     1
  C     1.08758565 +1   30.8719417 +1   -0.7576774 +1     6     1     2
  H     1.08313238 +1  111.7269396 +1 -179.1687075 +1    10     6     1
  C     5.43183508 +1  158.4965442 +1  -44.6791821 +1     9     7     3
  C     1.40206697 +1  155.2503729 +1 -152.3424589 +1    12     9     7
  C     1.39823928 +1  118.1423840 +1   41.0125503 +1    13    12     9
  C     1.39234345 +1  119.2865756 +1    0.6521355 +1    14    13    12
  C     1.39929359 +1  119.0177058 +1   -0.6237047 +1    15    14    13
  N     1.34610474 +1   41.1380456 +1  -94.3951225 +1    12     9     7
  H     1.09902824 +1   78.2019793 +1   62.9198941 +1    12     9     7
  H     1.08878122 +1  121.1300712 +1  179.3532781 +1    15    14    13
  H     1.10150536 +1  122.0585349 +1 -179.0674570 +1    16    15    14
  C     1.48256054 +1  119.9261765 +1 -137.6086266 +1    13    12     9
  H     1.09999236 +1  112.4645356 +1 -157.3910756 +1    21    13    12
  H     1.09070562 +1  111.5988523 +1   82.7854871 +1    21    13    12
  H     1.10205149 +1  112.2913302 +1  -36.6113264 +1    21    13    12
  H     1.09121595 +1  120.4507912 +1 -179.0960029 +1    14    13    12
  H     2.19618530 +1  128.8893612 +1   -2.7220326 +1     9     7     3
  O     0.95871570 +1   79.4187750 +1  166.1505395 +1    26     9     7
  H     0.97321869 +1  105.4867265 +1  110.0494182 +1    27    26     9

 TIME=     0.11
  REACTANTS AND PRODUCTS SWAPPED AROUND
 *+*+*+*+*+*+*+*+*+*+*+*+*+*+*+*+*+*+*+*+*+*+*+*+*+*+*+*+*+*+*+*+*+*+*+*+*+*+*+*+
            BAR SHORTENED BY       1.000 PERCENT
 GRADIENT CRITERION IN FLEPO =    10.000


          FOR POINT   22 SECOND STRUCTURE
 DISTANCE A - B      3.578683
 HEAT              -59.465407
 GRADIENT NORM      15.993540
 DIRECTION COSINE    0.151351
* ===============================
* Input file for Mopac
* ===============================
 PM7 BONDS AUX DUMP=30M ITRY=15000 T=14D CHARGE=0 SINGLET eps=78.4 RELSCF=1


  C     0.00000000 +0    0.0000000 +0    0.0000000 +0     0     0     0
  H     1.09252650 +1    0.0000000 +0    0.0000000 +0     1     0     0
  N     2.41152196 +1   87.6225291 +1    0.0000000 +0     1     2     0
  O     1.25451206 +1   92.3379298 +1   -9.5235628 +1     3     1     2
  O     1.26056840 +1  151.2736100 +1  172.7114860 +1     3     1     2
  H     2.13765239 +1  145.8340926 +1 -171.6825459 +1     1     2     3
  C     1.33341555 +1   30.8203842 +1  168.7970345 +1     3     1     2
  H     1.08865233 +1  118.3713102 +1 -178.0654846 +1     7     3     1
  H     2.18836001 +1   77.1158755 +1  -98.5618446 +1     8     7     3
  C     1.07316641 +1   31.1926965 +1   -2.9538327 +1     6     1     2
  H     1.07537516 +1  112.6557099 +1  179.8871040 +1    10     6     1
  C     4.26747810 +1  158.5965335 +1 -149.8016129 +1     9     8     7
  C     1.39903116 +1  160.1650115 +1   45.3778448 +1    12     9     8
  C     1.39977275 +1  118.7004577 +1   10.0960983 +1    13    12     9
  C     1.39251724 +1  119.3556198 +1    0.2194332 +1    14    13    12
  C     1.39496826 +1  119.9163564 +1   -0.0575559 +1    15    14    13
  N     1.35729624 +1  120.2954345 +1   -0.1732093 +1    16    15    14
  H     1.10398877 +1   78.2037942 +1 -126.1445967 +1    12     9     8
  H     1.09617939 +1  120.4985042 +1 -179.7827629 +1    15    14    13
  H     1.10381228 +1  121.4362875 +1  179.6124835 +1    16    15    14
  C     1.48146362 +1  119.7003578 +1 -169.2163574 +1    13    12     9
  H     1.10182428 +1  113.2535363 +1 -168.0983892 +1    21    13    12
  H     1.10552878 +1  111.5027597 +1   72.3916618 +1    21    13    12
  H     1.10266547 +1  112.8164320 +1  -46.7917246 +1    21    13    12
  H     1.09577095 +1  120.3394341 +1 -178.9964992 +1    14    13    12
  H     1.53797520 +1  141.5156019 +1   82.0573706 +1     9     8     7
  O     0.97422977 +1  147.0460965 +1  149.5331302 +1     9     8     7
  H     1.06299165 +1  120.3902380 +1 -178.3537384 +1    17    16    15

 *+*+*+*+*+*+*+*+*+*+*+*+*+*+*+*+*+*+*+*+*+*+*+*+*+*+*+*+*+*+*+*+*+*+*+*+*+*+*+*+
            BAR SHORTENED BY       1.000 PERCENT
 GRADIENT CRITERION IN FLEPO =    10.000


          FOR POINT   23 SECOND STRUCTURE
 DISTANCE A - B      3.542896
 HEAT              -59.255920
 GRADIENT NORM      23.249605
 DIRECTION COSINE    0.195649
* ===============================
* Input file for Mopac
* ===============================
 PM7 BONDS AUX DUMP=30M ITRY=15000 T=14D CHARGE=0 SINGLET eps=78.4 RELSCF=1


  C     0.00000000 +0    0.0000000 +0    0.0000000 +0     0     0     0
  H     1.09602519 +1    0.0000000 +0    0.0000000 +0     1     0     0
  N     2.40984697 +1   87.3880246 +1    0.0000000 +0     1     2     0
  O     1.25410632 +1   92.7172508 +1   -9.4652440 +1     3     1     2
  O     1.25431130 +1  151.4494317 +1  172.9334400 +1     3     1     2
  H     2.13292336 +1  145.8585793 +1 -171.6167833 +1     1     2     3
  C     1.33430239 +1   30.8371260 +1  168.1699900 +1     3     1     2
  H     1.08314700 +1  118.3374185 +1 -177.9943433 +1     7     3     1
  H     2.18549768 +1   76.9495758 +1  -98.3222944 +1     8     7     3
  C     1.07375508 +1   31.1036872 +1   -3.1129801 +1     6     1     2
  H     1.08189500 +1  112.7959563 +1  179.3434649 +1    10     6     1
  C     4.27649193 +1  158.7187246 +1 -149.2631204 +1     9     8     7
  C     1.40144459 +1  160.2908329 +1   44.0394737 +1    12     9     8
  C     1.40051858 +1  118.4297539 +1   10.7910274 +1    13    12     9
  C     1.38970631 +1  119.6758760 +1    0.3153391 +1    14    13    12
  C     1.39651907 +1  119.6682562 +1   -0.0452326 +1    15    14    13
  N     1.35558453 +1   39.4541824 +1   58.8735410 +1    12     9     8
  H     1.10378263 +1   78.1309876 +1 -126.6623315 +1    12     9     8
  H     1.09587729 +1  120.6477514 +1 -179.9142217 +1    15    14    13
  H     1.10279494 +1  121.3440449 +1  179.6102787 +1    16    15    14
  C     1.48225620 +1  119.6599327 +1 -168.2538462 +1    13    12     9
  H     1.10237587 +1  113.0968983 +1 -167.7513370 +1    21    13    12
  H     1.10564448 +1  111.6747253 +1   72.5125738 +1    21    13    12
  H     1.10513541 +1  112.7589560 +1  -46.9351072 +1    21    13    12
  H     1.09820685 +1  120.0409129 +1 -179.0510968 +1    14    13    12
  H     1.53787123 +1  141.7678429 +1   82.0433997 +1     9     8     7
  O     0.97204786 +1   38.2231907 +1  125.8996510 +1    26     9     8
  H     1.06436490 +1  119.2317451 +1    3.9194141 +1    17    12     9

 TIME=     0.22
  REACTANTS AND PRODUCTS SWAPPED AROUND
 *+*+*+*+*+*+*+*+*+*+*+*+*+*+*+*+*+*+*+*+*+*+*+*+*+*+*+*+*+*+*+*+*+*+*+*+*+*+*+*+
            BAR SHORTENED BY       1.000 PERCENT
 GRADIENT CRITERION IN FLEPO =    10.000


          FOR POINT   24 FIRST  STRUCTURE
 DISTANCE A - B      3.507467
 HEAT              -59.392212
 GRADIENT NORM      20.301696
 DIRECTION COSINE    0.214084
* ===============================
* Input file for Mopac
* ===============================
 PM7 BONDS AUX DUMP=30M ITRY=15000 T=14D CHARGE=0 SINGLET eps=78.4 RELSCF=1


  C     0.00000000 +0    0.0000000 +0    0.0000000 +0     0     0     0
  H     1.08906034 +1    0.0000000 +0    0.0000000 +0     1     0     0
  N     2.42923826 +1   89.7366499 +1    0.0000000 +0     1     2     0
  O     1.21741711 +1  103.4467148 +1   13.2631336 +1     3     1     2
  O     1.22316156 +1  125.1614141 +1 -130.9807274 +1     3     1     2
  H     2.14265005 +1  148.2164367 +1 -156.7867524 +1     1     2     3
  C     1.48022177 +1   35.5842014 +1  140.4474810 +1     3     1     2
  H     1.12040759 +1  110.1684612 +1 -122.9388817 +1     7     3     1
  H     1.12980804 +1  108.6191952 +1  122.7886920 +1     7     3     1
  C     1.09182982 +1   30.9583948 +1    1.3485306 +1     6     1     2
  H     1.08024293 +1  112.1329304 +1 -178.9865605 +1    10     6     1
  C     5.42551627 +1  158.7491313 +1  -45.5632816 +1     9     7     3
  C     1.40339456 +1  155.1860747 +1 -151.6339938 +1    12     9     7
  C     1.39708909 +1  117.9576461 +1   41.0916355 +1    13    12     9
  C     1.39430417 +1  119.5849082 +1    0.5717010 +1    14    13    12
  C     1.39327202 +1  118.6835484 +1   -1.1103839 +1    15    14    13
  N     1.34572830 +1   41.0606585 +1  -94.1635922 +1    12     9     7
  H     1.10092699 +1   78.2429127 +1   63.8047248 +1    12     9     7
  H     1.08774225 +1  121.0217115 +1  179.7022768 +1    15    14    13
  H     1.09821206 +1  121.7099397 +1 -178.6992178 +1    16    15    14
  C     1.48224046 +1  119.8990781 +1 -138.0763462 +1    13    12     9
  H     1.10284574 +1  112.5241419 +1 -157.2826765 +1    21    13    12
  H     1.10134915 +1  111.5396450 +1   82.8435825 +1    21    13    12
  H     1.10178739 +1  112.4989542 +1  -36.4472914 +1    21    13    12
  H     1.09270645 +1  120.1333286 +1 -179.7296254 +1    14    13    12
  H     2.20093188 +1  129.2713769 +1   -3.0407116 +1     9     7     3
  O     0.95966289 +1   78.9377058 +1  166.2002012 +1    26     9     7
  H     0.97062173 +1  105.5028126 +1  110.1841748 +1    27    26     9

 *+*+*+*+*+*+*+*+*+*+*+*+*+*+*+*+*+*+*+*+*+*+*+*+*+*+*+*+*+*+*+*+*+*+*+*+*+*+*+*+
            BAR SHORTENED BY       1.000 PERCENT
 GRADIENT CRITERION IN FLEPO =    10.000


          FOR POINT   25 FIRST  STRUCTURE
 DISTANCE A - B      3.472393
 HEAT              -59.250538
 GRADIENT NORM      19.594886
 DIRECTION COSINE    0.637950
* ===============================
* Input file for Mopac
* ===============================
 PM7 BONDS AUX DUMP=30M ITRY=15000 T=14D CHARGE=0 SINGLET eps=78.4 RELSCF=1


  C     0.00000000 +0    0.0000000 +0    0.0000000 +0     0     0     0
  H     1.09227998 +1    0.0000000 +0    0.0000000 +0     1     0     0
  N     2.42268399 +1   89.5152667 +1    0.0000000 +0     1     2     0
  O     1.21887448 +1  103.6255584 +1   13.8130793 +1     3     1     2
  O     1.22266316 +1  125.4280629 +1 -130.4899637 +1     3     1     2
  H     2.13565634 +1  148.0689733 +1 -157.1460777 +1     1     2     3
  C     1.47575649 +1   35.5020073 +1  141.0546703 +1     3     1     2
  H     1.12133894 +1  110.0839404 +1 -123.1304324 +1     7     3     1
  H     1.13129554 +1  108.5433610 +1  122.6930819 +1     7     3     1
  C     1.08701351 +1   31.1718301 +1    1.3775181 +1     6     1     2
  H     1.08142884 +1  112.1682233 +1 -179.4627098 +1    10     6     1
  C     5.41725383 +1  159.0481930 +1  -46.2431748 +1     9     7     3
  C     1.40309886 +1  155.4394102 +1 -150.2547281 +1    12     9     7
  C     1.39767580 +1  118.0236931 +1   40.3729505 +1    13    12     9
  C     1.39267532 +1  119.6031590 +1    0.4288963 +1    14    13    12
  C     1.39805455 +1  118.6795834 +1   -0.6222960 +1    15    14    13
  N     1.34479592 +1   41.0298992 +1  -93.4958098 +1    12     9     7
  H     1.09916761 +1   78.2210161 +1   64.2965535 +1    12     9     7
  H     1.09296460 +1  121.2893252 +1  179.5476832 +1    15    14    13
  H     1.09629472 +1  122.1621251 +1 -178.7268044 +1    16    15    14
  C     1.48229389 +1  119.9436652 +1 -138.8457393 +1    13    12     9
  H     1.10023207 +1  112.7107291 +1 -157.4067472 +1    21    13    12
  H     1.10318772 +1  111.3024223 +1   82.5820462 +1    21    13    12
  H     1.10337126 +1  112.3027236 +1  -36.8732927 +1    21    13    12
  H     1.10177430 +1  121.0177733 +1 -179.9142452 +1    14    13    12
  H     2.19975298 +1  129.5644569 +1   -3.2480497 +1     9     7     3
  O     0.95999588 +1   78.1841973 +1  166.2401515 +1    26     9     7
  H     0.97282628 +1  105.4611593 +1  110.7568240 +1    27    26     9

 TIME=     0.26
  REACTANTS AND PRODUCTS SWAPPED AROUND
 *+*+*+*+*+*+*+*+*+*+*+*+*+*+*+*+*+*+*+*+*+*+*+*+*+*+*+*+*+*+*+*+*+*+*+*+*+*+*+*+
            BAR SHORTENED BY       1.000 PERCENT
 GRADIENT CRITERION IN FLEPO =    10.000


          FOR POINT   26 SECOND STRUCTURE
 DISTANCE A - B      3.437669
 HEAT              -59.431783
 GRADIENT NORM      17.478338
 DIRECTION COSINE    0.364364
* ===============================
* Input file for Mopac
* ===============================
 PM7 BONDS AUX DUMP=30M ITRY=15000 T=14D CHARGE=0 SINGLET eps=78.4 RELSCF=1


  C     0.00000000 +0    0.0000000 +0    0.0000000 +0     0     0     0
  H     1.08899904 +1    0.0000000 +0    0.0000000 +0     1     0     0
  N     2.40914107 +1   87.9116154 +1    0.0000000 +0     1     2     0
  O     1.25288927 +1   91.3747947 +1  -10.6478690 +1     3     1     2
  O     1.25923743 +1  151.3923074 +1  172.6444348 +1     3     1     2
  H     2.13757110 +1  145.2689198 +1 -172.9033348 +1     1     2     3
  C     1.33528203 +1   31.0903312 +1  167.4377141 +1     3     1     2
  H     1.08568311 +1  119.0282095 +1 -177.5691835 +1     7     3     1
  H     2.18574385 +1   77.0955067 +1  -98.1163423 +1     8     7     3
  C     1.06739125 +1   30.9524627 +1   -0.1222558 +1     6     1     2
  H     1.07889599 +1  112.5605958 +1 -178.5807695 +1    10     6     1
  C     4.27934970 +1  158.6809582 +1 -149.4645578 +1     9     8     7
  C     1.39985035 +1  160.1670472 +1   42.4634140 +1    12     9     8
  C     1.39932240 +1  118.5111443 +1   11.7996799 +1    13    12     9
  C     1.39234238 +1  119.6053605 +1    0.6922551 +1    14    13    12
  C     1.39524864 +1  119.7334085 +1   -0.5270890 +1    15    14    13
  N     1.35857075 +1   39.5088859 +1   58.5115322 +1    12     9     8
  H     1.10506513 +1   78.2170011 +1 -127.2604141 +1    12     9     8
  H     1.09630338 +1  120.2664328 +1 -179.9506705 +1    15    14    13
  H     1.10253336 +1  121.4958157 +1  179.7970644 +1    16    15    14
  C     1.48255758 +1  119.6903224 +1 -167.2242048 +1    13    12     9
  H     1.10206700 +1  113.2731162 +1 -167.3969011 +1    21    13    12
  H     1.10363271 +1  111.4700601 +1   72.8658169 +1    21    13    12
  H     1.10418437 +1  112.6779469 +1  -46.4900500 +1    21    13    12
  H     1.09558439 +1  120.0869055 +1 -179.2384656 +1    14    13    12
  H     1.53510274 +1  141.6525282 +1   81.8037075 +1     9     8     7
  O     0.97347140 +1   37.9763590 +1  125.7428190 +1    26     9     8
  H     1.06197709 +1  119.3337737 +1    4.0713933 +1    17    12     9

 *+*+*+*+*+*+*+*+*+*+*+*+*+*+*+*+*+*+*+*+*+*+*+*+*+*+*+*+*+*+*+*+*+*+*+*+*+*+*+*+
            BAR SHORTENED BY       1.000 PERCENT
 GRADIENT CRITERION IN FLEPO =    10.000


          FOR POINT   27 SECOND STRUCTURE
 DISTANCE A - B      3.403292
 HEAT              -59.275787
 GRADIENT NORM      20.528683
 DIRECTION COSINE    0.343463
* ===============================
* Input file for Mopac
* ===============================
 PM7 BONDS AUX DUMP=30M ITRY=15000 T=14D CHARGE=0 SINGLET eps=78.4 RELSCF=1


  C     0.00000000 +0    0.0000000 +0    0.0000000 +0     0     0     0
  H     1.09359982 +1    0.0000000 +0    0.0000000 +0     1     0     0
  N     2.40715567 +1   87.6933510 +1    0.0000000 +0     1     2     0
  O     1.25320228 +1   91.7793537 +1  -10.5612276 +1     3     1     2
  O     1.25506393 +1  151.5535254 +1  172.9287885 +1     3     1     2
  H     2.13580165 +1  145.3904733 +1 -172.8571225 +1     1     2     3
  C     1.33454746 +1   30.9737383 +1  166.9238673 +1     3     1     2
  H     1.08674514 +1  118.5644559 +1 -177.5295483 +1     7     3     1
  H     2.18181925 +1   76.9060780 +1  -97.9504225 +1     8     7     3
  C     1.07236363 +1   30.8835705 +1   -0.2479924 +1     6     1     2
  H     1.07747542 +1  112.4464202 +1 -178.8679414 +1    10     6     1
  C     4.28928333 +1  158.8136509 +1 -149.2936656 +1     9     8     7
  C     1.39963144 +1  160.1005538 +1   41.7702706 +1    12     9     8
  C     1.40155641 +1  118.5987368 +1   11.9701629 +1    13    12     9
  C     1.39023169 +1  119.4114713 +1    1.9861010 +1    14    13    12
  C     1.39489059 +1  119.9791274 +1   -1.8197436 +1    15    14    13
  N     1.36104960 +1  120.3457101 +1    0.3504227 +1    16    15    14
  H     1.10121743 +1   78.1034162 +1 -127.2441433 +1    12     9     8
  H     1.09922467 +1  120.1706914 +1  179.3272783 +1    15    14    13
  H     1.10257686 +1  121.6080330 +1 -179.5353963 +1    16    15    14
  C     1.47891302 +1  119.7565189 +1 -166.6008007 +1    13    12     9
  H     1.10130581 +1  113.6311387 +1 -167.2787240 +1    21    13    12
  H     1.10856371 +1  111.4416984 +1   73.1135268 +1    21    13    12
  H     1.10390793 +1  112.9141222 +1  -45.8622851 +1    21    13    12
  H     1.09599156 +1  120.2247487 +1  179.7215603 +1    14    13    12
  H     1.53549242 +1  141.7399072 +1   82.2025259 +1     9     8     7
  O     0.97206809 +1   38.2304407 +1  126.1796445 +1    26     9     8
  H     1.06390847 +1  120.3343341 +1 -177.0330965 +1    17    16    15

[...]
  H     1.09968775 +1  121.3776045 +1 -179.5544967 +1    16    15    14
  C     1.48354754 +1  120.6330677 +1  178.7327609 +1    13    12     9
  H     1.10258415 +1  112.9593844 +1 -166.7512791 +1    21    13    12
  H     1.10386707 +1  111.5818176 +1   73.6530255 +1    21    13    12
  H     1.10166426 +1  112.5901862 +1  -46.1738706 +1    21    13    12
  H     1.09450502 +1  120.3614645 +1  179.7405657 +1    14    13    12
  H     1.69078620 +1  143.2923438 +1   16.3984086 +1     9     7     3
  O     0.97396316 +1   41.8658813 +1  140.9628447 +1    26     9     7
  H     1.18014594 +1  102.3228306 +1  132.5851112 +1    27    26     9

 *+*+*+*+*+*+*+*+*+*+*+*+*+*+*+*+*+*+*+*+*+*+*+*+*+*+*+*+*+*+*+*+*+*+*+*+*+*+*+*+
            BAR SHORTENED BY       1.000 PERCENT
 AT END OF STEPWISE ASCENT OF REACTION BARRIER

 -------------------------------------------------------------------------------
 PM7 BONDS AUX DUMP=30M ITRY=15000 T=14D CHARGE=0 SINGLET eps=78.4 RELSCF=1




     TRANSITION STATE LOCATED USING THE "SADDLE" TECHNIQUE    
     SCF FIELD WAS ACHIEVED                                   


                              PM7 CALCULATION
                                                       MOPAC v22.0.6 Linux
                                                       Tue Mar 26 11:44:53 2024




          FINAL HEAT OF FORMATION =        -43.92231 KCAL/MOL =    -183.77096 KJ/MOL
          VAN DER WAALS AREA      =        258.15 SQUARE ANGSTROMS



          DIELECTRIC ENERGY       =         -1.10208 EV
          COSMO AREA              =        258.15 SQUARE ANGSTROMS
          COSMO VOLUME            =        259.20 CUBIC ANGSTROMS

          GRADIENT NORM           =          6.67170          =       1.26083 PER ATOM
          IONIZATION POTENTIAL    =          9.484280 EV
          HOMO LUMO ENERGIES (EV) =         -9.484 -0.651
          NO. OF FILLED LEVELS    =         39
          MOLECULAR WEIGHT        =        198.2212         POINT GROUP:  C1  

          MOLECULAR DIMENSIONS (Angstroms)

            Atom       Atom       Distance
            H    22    O     4    10.69992
            H    11    H    24     5.61188
            H     8    H     2     2.61700


          SCF CALCULATIONS        =       2458

          WALL-CLOCK TIME         =     48.398 SECONDS
          COMPUTATION TIME        =         13 MINUTES AND 49.776 SECONDS



       FINAL  POINT  AND  DERIVATIVES

   PARAMETER     ATOM    TYPE            VALUE        GRADIENT
      1          1  C    CARTESIAN X     0.497842     -0.284971  KCAL/ANGSTROM
      2          1  C    CARTESIAN Y     0.234989     -1.934897  KCAL/ANGSTROM
      3          1  C    CARTESIAN Z     0.174763     -0.157402  KCAL/ANGSTROM
      4          2  H    CARTESIAN X    -0.179991      0.463432  KCAL/ANGSTROM
      5          2  H    CARTESIAN Y    -0.188231      0.636778  KCAL/ANGSTROM
      6          2  H    CARTESIAN Z     0.923510     -0.274098  KCAL/ANGSTROM
      7          3  N    CARTESIAN X     1.158330      0.428449  KCAL/ANGSTROM
      8          3  N    CARTESIAN Y    -2.070795      0.305587  KCAL/ANGSTROM
      9          3  N    CARTESIAN Z    -0.252118     -0.908754  KCAL/ANGSTROM
     10          4  O    CARTESIAN X     0.622394     -0.813250  KCAL/ANGSTROM
     11          4  O    CARTESIAN Y    -2.414533      0.288240  KCAL/ANGSTROM
     12          4  O    CARTESIAN Z     0.806599      0.568076  KCAL/ANGSTROM
     13          5  O    CARTESIAN X     1.581105     -0.801796  KCAL/ANGSTROM
     14          5  O    CARTESIAN Y    -2.944876     -1.284219  KCAL/ANGSTROM
     15          5  O    CARTESIAN Z    -1.018035      0.951744  KCAL/ANGSTROM
     16          6  H    CARTESIAN X     1.212121      0.103480  KCAL/ANGSTROM
     17          6  H    CARTESIAN Y     2.020278     -0.274567  KCAL/ANGSTROM
     18          6  H    CARTESIAN Z    -0.747918      0.146271  KCAL/ANGSTROM
     19          7  C    CARTESIAN X     1.318322     -1.306323  KCAL/ANGSTROM
     20          7  C    CARTESIAN Y    -0.715702     -0.150782  KCAL/ANGSTROM
     21          7  C    CARTESIAN Z    -0.576174     -0.354112  KCAL/ANGSTROM
     22          8  H    CARTESIAN X     1.460157     -0.315798  KCAL/ANGSTROM
     23          8  H    CARTESIAN Y    -0.515759      0.457672  KCAL/ANGSTROM
     24          8  H    CARTESIAN Z    -1.651441     -0.229230  KCAL/ANGSTROM
     25          9  H    CARTESIAN X     2.683801     -0.679415  KCAL/ANGSTROM
     26          9  H    CARTESIAN Y    -0.292855     -0.900177  KCAL/ANGSTROM
     27          9  H    CARTESIAN Z    -0.362708      0.029759  KCAL/ANGSTROM
     28         10  C    CARTESIAN X     0.566482     -0.713084  KCAL/ANGSTROM
     29         10  C    CARTESIAN Y     1.553963      0.700685  KCAL/ANGSTROM
     30         10  C    CARTESIAN Z    -0.022257     -0.175161  KCAL/ANGSTROM
     31         11  H    CARTESIAN X    -0.019310     -0.390539  KCAL/ANGSTROM
     32         11  H    CARTESIAN Y     2.266832     -0.854148  KCAL/ANGSTROM
     33         11  H    CARTESIAN Z     0.534161     -0.513333  KCAL/ANGSTROM
     34         12  C    CARTESIAN X     6.867624      1.405070  KCAL/ANGSTROM
     35         12  C    CARTESIAN Y     1.402563     -0.433696  KCAL/ANGSTROM
     36         12  C    CARTESIAN Z    -0.097106      0.616402  KCAL/ANGSTROM
     37         13  C    CARTESIAN X     7.909964     -0.178771  KCAL/ANGSTROM
     38         13  C    CARTESIAN Y     2.338778     -0.787129  KCAL/ANGSTROM
     39         13  C    CARTESIAN Z    -0.013694     -0.821776  KCAL/ANGSTROM
     40         14  C    CARTESIAN X     7.581275     -0.032436  KCAL/ANGSTROM
     41         14  C    CARTESIAN Y     3.697470     -0.366378  KCAL/ANGSTROM
     42         14  C    CARTESIAN Z    -0.016158     -0.390649  KCAL/ANGSTROM
     43         15  C    CARTESIAN X     6.245258     -1.816986  KCAL/ANGSTROM
     44         15  C    CARTESIAN Y     4.079948     -1.408334  KCAL/ANGSTROM
     45         15  C    CARTESIAN Z    -0.105983     -0.629399  KCAL/ANGSTROM
     46         16  C    CARTESIAN X     5.260632      0.606650  KCAL/ANGSTROM
     47         16  C    CARTESIAN Y     3.094495      1.605474  KCAL/ANGSTROM
     48         16  C    CARTESIAN Z    -0.191374      0.575099  KCAL/ANGSTROM
     49         17  N    CARTESIAN X     5.575411      1.364888  KCAL/ANGSTROM
     50         17  N    CARTESIAN Y     1.781880      0.915804  KCAL/ANGSTROM
     51         17  N    CARTESIAN Z    -0.183833     -0.765105  KCAL/ANGSTROM
     52         18  H    CARTESIAN X     7.071304     -0.139917  KCAL/ANGSTROM
     53         18  H    CARTESIAN Y     0.321633      0.067081  KCAL/ANGSTROM
     54         18  H    CARTESIAN Z    -0.097587     -0.477180  KCAL/ANGSTROM
     55         19  H    CARTESIAN X     5.966849     -0.549637  KCAL/ANGSTROM
     56         19  H    CARTESIAN Y     5.135711     -0.000996  KCAL/ANGSTROM
     57         19  H    CARTESIAN Z    -0.108925     -0.403055  KCAL/ANGSTROM
     58         20  H    CARTESIAN X     4.194537     -0.090789  KCAL/ANGSTROM
     59         20  H    CARTESIAN Y     3.350780      0.172719  KCAL/ANGSTROM
     60         20  H    CARTESIAN Z    -0.272905     -0.545051  KCAL/ANGSTROM
     61         21  C    CARTESIAN X     9.321632      0.636210  KCAL/ANGSTROM
     62         21  C    CARTESIAN Y     1.891261     -0.159545  KCAL/ANGSTROM
     63         21  C    CARTESIAN Z     0.066885     -0.212014  KCAL/ANGSTROM
     64         22  H    CARTESIAN X    10.011319     -0.330993  KCAL/ANGSTROM
     65         22  H    CARTESIAN Y     2.697919     -0.822796  KCAL/ANGSTROM
     66         22  H    CARTESIAN Z     0.360309     -0.390104  KCAL/ANGSTROM
     67         23  H    CARTESIAN X     9.680058     -1.076042  KCAL/ANGSTROM
     68         23  H    CARTESIAN Y     1.512847     -0.268580  KCAL/ANGSTROM
     69         23  H    CARTESIAN Z    -0.905759     -0.154031  KCAL/ANGSTROM
     70         24  H    CARTESIAN X     9.465676     -0.209949  KCAL/ANGSTROM
     71         24  H    CARTESIAN Y     1.076341     -0.273603  KCAL/ANGSTROM
     72         24  H    CARTESIAN Z     0.794395     -0.415125  KCAL/ANGSTROM
     73         25  H    CARTESIAN X     8.368330     -0.188475  KCAL/ANGSTROM
     74         25  H    CARTESIAN Y     4.454101     -0.530979  KCAL/ANGSTROM
     75         25  H    CARTESIAN Z     0.053081     -0.333359  KCAL/ANGSTROM
     76         26  H    CARTESIAN X     4.332938     -1.277342  KCAL/ANGSTROM
     77         26  H    CARTESIAN Y    -0.840683      0.767534  KCAL/ANGSTROM
     78         26  H    CARTESIAN Z    -0.141928     -1.311546  KCAL/ANGSTROM
     79         27  O    CARTESIAN X     3.899632      1.508874  KCAL/ANGSTROM
     80         27  O    CARTESIAN Y    -0.114582     -0.473363  KCAL/ANGSTROM
     81         27  O    CARTESIAN Z    -0.611770      0.692219  KCAL/ANGSTROM
     82         28  H    CARTESIAN X     4.500991      0.588238  KCAL/ANGSTROM
     83         28  H    CARTESIAN Y     0.787995      0.846461  KCAL/ANGSTROM
     84         28  H    CARTESIAN Z    -0.318932      0.050986  KCAL/ANGSTROM




   ATOM   CHEMICAL          X               Y               Z
  NUMBER   SYMBOL      (ANGSTROMS)     (ANGSTROMS)     (ANGSTROMS)

     1       C          0.49784201  *   0.23498897  *   0.17476346  *
     2       H         -0.17999072  *  -0.18823064  *   0.92350959  *
     3       N          1.15833045  *  -2.07079513  *  -0.25211838  *
     4       O          0.62239400  *  -2.41453321  *   0.80659916  *
     5       O          1.58110473  *  -2.94487625  *  -1.01803472  *
     6       H          1.21212114  *   2.02027818  *  -0.74791808  *
     7       C          1.31832172  *  -0.71570214  *  -0.57617415  *
     8       H          1.46015709  *  -0.51575901  *  -1.65144137  *
     9       H          2.68380083  *  -0.29285476  *  -0.36270842  *
    10       C          0.56648193  *   1.55396349  *  -0.02225684  *
    11       H         -0.01931000  *   2.26683250  *   0.53416107  *
    12       C          6.86762353  *   1.40256321  *  -0.09710643  *
    13       C          7.90996362  *   2.33877801  *  -0.01369409  *
    14       C          7.58127459  *   3.69747031  *  -0.01615793  *
    15       C          6.24525819  *   4.07994810  *  -0.10598336  *
    16       C          5.26063173  *   3.09449465  *  -0.19137354  *
    17       N          5.57541055  *   1.78187960  *  -0.18383312  *
    18       H          7.07130377  *   0.32163281  *  -0.09758654  *
    19       H          5.96684891  *   5.13571074  *  -0.10892485  *
    20       H          4.19453735  *   3.35077987  *  -0.27290472  *
    21       C          9.32163150  *   1.89126132  *   0.06688504  *
    22       H         10.01131919  *   2.69791879  *   0.36030906  *
    23       H          9.68005813  *   1.51284655  *  -0.90575872  *
    24       H          9.46567597  *   1.07634149  *   0.79439475  *
    25       H          8.36833031  *   4.45410075  *   0.05308085  *
    26       H          4.33293806  *  -0.84068314  *  -0.14192796  *
    27       O          3.89963207  *  -0.11458247  *  -0.61177014  *
    28       H          4.50099127  *   0.78799496  *  -0.31893200  *

                             CARTESIAN COORDINATES

   1    C        0.497842007     0.234988975     0.174763464
   2    H       -0.179990717    -0.188230640     0.923509586
   3    N        1.158330450    -2.070795127    -0.252118377
   4    O        0.622394003    -2.414533211     0.806599162
   5    O        1.581104735    -2.944876250    -1.018034723
   6    H        1.212121142     2.020278180    -0.747918077
   7    C        1.318321721    -0.715702145    -0.576174154
   8    H        1.460157087    -0.515759015    -1.651441371
   9    H        2.683800835    -0.292854762    -0.362708420
  10    C        0.566481929     1.553963486    -0.022256838
  11    H       -0.019310004     2.266832496     0.534161075
  12    C        6.867623533     1.402563207    -0.097106427
  13    C        7.909963615     2.338778012    -0.013694086
  14    C        7.581274594     3.697470310    -0.016157929
  15    C        6.245258186     4.079948096    -0.105983355
  16    C        5.260631729     3.094494649    -0.191373537
  17    N        5.575410552     1.781879603    -0.183833123
  18    H        7.071303766     0.321632812    -0.097586544
  19    H        5.966848911     5.135710741    -0.108924850
  20    H        4.194537349     3.350779872    -0.272904720
  21    C        9.321631502     1.891261319     0.066885036
  22    H       10.011319193     2.697918785     0.360309057
  23    H        9.680058134     1.512846551    -0.905758723
  24    H        9.465675974     1.076341493     0.794394750
  25    H        8.368330309     4.454100752     0.053080846
  26    H        4.332938061    -0.840683137    -0.141927959
  27    O        3.899632070    -0.114582466    -0.611770140
  28    H        4.500991272     0.787994957    -0.318931996


           Empirical Formula: C9 H14 N2 O3  =    28 atoms



      MOLECULAR POINT GROUP   :   C1  


                  EIGENVALUES  
 -36.88917 -36.85504 -29.85265 -29.59797 -29.04236 -28.12542 -27.45257 -26.13674
 -24.70725 -22.78194 -22.07985 -21.48304 -19.86210 -18.79211 -18.37210 -17.83024
 -17.40383 -17.26351 -17.15010 -16.32971 -15.92088 -15.45834 -14.82818 -14.69241
 -14.46003 -14.30885 -14.02287 -13.67942 -13.49568 -12.76885 -12.46831 -11.79614
 -11.71424 -11.51704 -11.47357 -11.32428 -11.21951 -10.22873  -9.48428  -0.65088
  -0.51879  -0.10353   0.91375   1.18666   1.84173   2.20020   3.22990   3.59666
   3.79750   3.87665   4.08421   4.40984   4.62318   4.71850   4.83284   4.98071
   5.19459   5.43665   5.48010   5.49364   5.54079   5.57779   5.64144   5.78016
   5.86533   5.89993   6.17675   6.33138   6.62303   6.69802


              NET ATOMIC CHARGES AND DIPOLE CONTRIBUTIONS

  ATOM NO.   TYPE          CHARGE      No. of ELECS.   s-Pop       p-Pop       
    1          C          -0.074350        4.0744     1.08265     2.99170
    2          H           0.162072        0.8379     0.83793
    3          N           0.730971        4.2690     1.43554     2.83349
    4          O          -0.552227        6.5522     1.94158     4.61065
    5          O          -0.564993        6.5650     1.94193     4.62306
    6          H           0.153159        0.8468     0.84684
    7          C          -0.503138        4.5031     1.08955     3.41359
    8          H           0.216605        0.7834     0.78340
    9          H           0.428892        0.5711     0.57111
   10          C          -0.381368        4.3814     1.09110     3.29027
   11          H           0.152122        0.8479     0.84788
   12          C           0.013955        3.9860     1.10083     2.88522
   13          C          -0.022161        4.0222     1.07434     2.94782
   14          C          -0.104702        4.1047     1.09741     3.00729
   15          C          -0.205617        4.2056     1.09239     3.11323
   16          C           0.029671        3.9703     1.09744     2.87289
   17          N          -0.387306        5.3873     1.67096     3.71635
   18          H           0.201788        0.7982     0.79821
   19          H           0.189339        0.8107     0.81066
   20          H           0.197519        0.8025     0.80248
   21          C          -0.465156        4.4652     1.04836     3.41680
   22          H           0.174056        0.8259     0.82594
   23          H           0.181184        0.8188     0.81882
   24          H           0.178159        0.8218     0.82184
   25          H           0.183502        0.8165     0.81650
   26          H           0.388025        0.6120     0.61197
   27          O          -0.766869        6.7669     1.81692     4.94995
   28          H           0.446867        0.5531     0.55313
 DIPOLE           X         Y         Z       TOTAL
 POINT-CHG.    12.600    11.765     0.567    17.248
 HYBRID         0.117    -0.349     0.127     0.389
 SUM           12.717    11.415     0.694    17.103


          ATOMIC ORBITAL ELECTRON POPULATIONS

     Atom    s        px        py        pz   
    1  C   1.08265   0.99199   0.98687   1.01284
    2  H   0.83793
    3  N   1.43554   0.89667   1.00791   0.92891
    4  O   1.94158   1.52533   1.88066   1.20466
    5  O   1.94193   1.59723   1.51375   1.51208
    6  H   0.84684
    7  C   1.08955   1.36646   0.85469   1.19244
    8  H   0.78340
    9  H   0.57111
   10  C   1.09110   1.12473   1.04167   1.12387
   11  H   0.84788
   12  C   1.10083   0.86554   1.08013   0.93955
   13  C   1.07434   0.99038   0.98046   0.97697
   14  C   1.09741   1.04275   1.03566   0.92888
   15  C   1.09239   0.99581   1.10184   1.01557
   16  C   1.09744   1.07572   0.86414   0.93303
   17  N   1.67096   1.24809   1.23510   1.23316
   18  H   0.79821
   19  H   0.81066
   20  H   0.80248
   21  C   1.04836   1.02463   1.19210   1.20006
   22  H   0.82594
   23  H   0.81882
   24  H   0.82184
   25  H   0.81650
   26  H   0.61197
   27  O   1.81692   1.61860   1.52605   1.80530
   28  H   0.55313

          BONDING CONTRIBUTION OF EACH M.O.

  1.3649  1.3713  0.9810  1.6371  1.3741  1.5426  1.8973  1.3480  1.9775  1.8288
  1.2204  1.9373  1.6907  1.6618  1.6039  1.2743  1.5931  1.9277  1.6625  1.3426
  1.9021  1.9197  1.7852  1.9961  1.8463  1.5284  1.8634  1.7140  1.0834  1.9752
  1.7787  1.4675  0.7286  0.2955  0.6143  1.4538  1.9482  2.0679  1.4480 -2.0365
 -1.9307 -2.3276 -2.0150 -2.1211 -1.9833 -1.9170 -1.8729 -1.9388 -1.9625 -1.9667
 -2.0098 -2.0057 -1.9271 -1.9739 -1.9016 -1.9514 -1.8893 -1.9464 -1.8652 -1.9457
 -1.9530 -1.9069 -1.9597 -1.9418 -1.9734 -1.8731 -1.7405 -1.9736 -1.9537 -1.8892





            (VALENCIES)   BOND ORDERS

     1  C     (3.967)    10  C 1.953     7  C 1.033     2  H 0.957

     2  H     (0.974)     1  C 0.957

     3  N     (3.786)     4  O 1.367     5  O 1.355     7  C 1.023    10  C 0.011     9  H 0.011

     4  O     (1.727)     3  N 1.367     5  O 0.234     7  C 0.094

     5  O     (1.711)     3  N 1.355     4  O 0.234     7  C 0.091

     6  H     (0.977)    10  C 0.967

     7  C     (3.686)     1  C 1.033     3  N 1.023     8  H 0.913     9  H 0.418     4  O 0.094     5  O 0.091
                         27  O 0.058    10  C 0.026

     8  H     (0.953)     7  C 0.913     9  H 0.012

     9  H     (0.816)     7  C 0.418    27  O 0.343     8  H 0.012     3  N 0.011

    10  C     (3.947)     1  C 1.953     6  H 0.967    11  H 0.967     7  C 0.026     3  N 0.011

    11  H     (0.977)    10  C 0.967

    12  C     (3.925)    13  C 1.409    17  N 1.380    18  H 0.940    15  C 0.114    16  C 0.024    14  C 0.012
                         20  H 0.011

    13  C     (3.993)    14  C 1.423    12  C 1.409    21  C 1.019    16  C 0.116

    14  C     (3.960)    15  C 1.444    13  C 1.423    25  H 0.953    17  N 0.095    12  C 0.012

    15  C     (3.965)    14  C 1.444    16  C 1.432    19  H 0.951    12  C 0.114

    16  C     (3.926)    15  C 1.432    17  N 1.374    20  H 0.942    13  C 0.116    12  C 0.024    18  H 0.011

    17  N     (3.171)    12  C 1.380    16  C 1.374    28  H 0.226    14  C 0.095    27  O 0.053

    18  H     (0.959)    12  C 0.940    16  C 0.011

    19  H     (0.964)    15  C 0.951

    20  H     (0.961)    16  C 0.942    12  C 0.011

    21  C     (3.906)    13  C 1.019    22  H 0.959    24  H 0.953    23  H 0.946

    22  H     (0.970)    21  C 0.959

    23  H     (0.967)    21  C 0.946

    24  H     (0.968)    21  C 0.953

    25  H     (0.966)    14  C 0.953

    26  H     (0.849)    27  O 0.838

    27  O     (1.881)    26  H 0.838    28  H 0.551     9  H 0.343     7  C 0.058    17  N 0.053

    28  H     (0.800)    27  O 0.551    17  N 0.226


 **********************
 *                    *
 * JOB ENDED NORMALLY *
 *                    *
 **********************



 TOTAL JOB TIME:            48.43 SECONDS

 == MOPAC DONE ==
