
                                 *****************
                                 * O   R   C   A *
                                 *****************

                                            #,                                       
                                            ###                                      
                                            ####                                     
                                            #####                                    
                                            ######                                   
                                           ########,                                 
                                     ,,################,,,,,                         
                               ,,#################################,,                 
                          ,,##########################################,,             
                       ,#########################################, ''#####,          
                    ,#############################################,,   '####,        
                  ,##################################################,,,,####,       
                ,###########''''           ''''###############################       
              ,#####''   ,,,,##########,,,,          '''####'''          '####       
            ,##' ,,,,###########################,,,                        '##       
           ' ,,###''''                  '''############,,,                           
         ,,##''                                '''############,,,,        ,,,,,,###''
      ,#''                                            '''#######################'''  
     '                                                          ''''####''''         
             ,#######,   #######,   ,#######,      ##                                
            ,#'     '#,  ##    ##  ,#'     '#,    #''#        ######   ,####,        
            ##       ##  ##   ,#'  ##            #'  '#       #        #'  '#        
            ##       ##  #######   ##           ,######,      #####,   #    #        
            '#,     ,#'  ##    ##  '#,     ,#' ,#      #,         ##   #,  ,#        
             '#######'   ##     ##  '#######'  #'      '#     #####' # '####'        



                  #######################################################
                  #                        -***-                        #
                  #          Department of theory and spectroscopy      #
                  #    Directorship and core code : Frank Neese         #
                  #        Max Planck Institute fuer Kohlenforschung    #
                  #                Kaiser Wilhelm Platz 1               #
                  #                 D-45470 Muelheim/Ruhr               #
                  #                      Germany                        #
                  #                                                     #
                  #                  All rights reserved                #
                  #                        -***-                        #
                  #######################################################


                         Program Version 5.0.4 -  RELEASE  -


 With contributions from (in alphabetic order):
   Daniel Aravena         : Magnetic Suceptibility
   Michael Atanasov       : Ab Initio Ligand Field Theory (pilot matlab implementation)
   Alexander A. Auer      : GIAO ZORA, VPT2 properties, NMR spectrum
   Ute Becker             : Parallelization
   Giovanni Bistoni       : ED, misc. LED, open-shell LED, HFLD
   Martin Brehm           : Molecular dynamics
   Dmytro Bykov           : SCF Hessian
   Vijay G. Chilkuri      : MRCI spin determinant printing, contributions to CSF-ICE
   Dipayan Datta          : RHF DLPNO-CCSD density
   Achintya Kumar Dutta   : EOM-CC, STEOM-CC
   Dmitry Ganyushin       : Spin-Orbit,Spin-Spin,Magnetic field MRCI
   Miquel Garcia          : C-PCM and meta-GGA Hessian, CC/C-PCM, Gaussian charge scheme
   Yang Guo               : DLPNO-NEVPT2, F12-NEVPT2, CIM, IAO-localization
   Andreas Hansen         : Spin unrestricted coupled pair/coupled cluster methods
   Benjamin Helmich-Paris : MC-RPA, TRAH-SCF, COSX integrals
   Lee Huntington         : MR-EOM, pCC
   Robert Izsak           : Overlap fitted RIJCOSX, COSX-SCS-MP3, EOM
   Marcus Kettner         : VPT2
   Christian Kollmar      : KDIIS, OOCD, Brueckner-CCSD(T), CCSD density, CASPT2, CASPT2-K
   Simone Kossmann        : Meta GGA functionals, TD-DFT gradient, OOMP2, MP2 Hessian
   Martin Krupicka        : Initial AUTO-CI
   Lucas Lang             : DCDCAS
   Marvin Lechner         : AUTO-CI (C++ implementation), FIC-MRCC
   Dagmar Lenk            : GEPOL surface, SMD
   Dimitrios Liakos       : Extrapolation schemes; Compound Job, initial MDCI parallelization
   Dimitrios Manganas     : Further ROCIS development; embedding schemes
   Dimitrios Pantazis     : SARC Basis sets
   Anastasios Papadopoulos: AUTO-CI, single reference methods and gradients
   Taras Petrenko         : DFT Hessian,TD-DFT gradient, ASA, ECA, R-Raman, ABS, FL, XAS/XES, NRVS
   Peter Pinski           : DLPNO-MP2, DLPNO-MP2 Gradient
   Christoph Reimann      : Effective Core Potentials
   Marius Retegan         : Local ZFS, SOC
   Christoph Riplinger    : Optimizer, TS searches, QM/MM, DLPNO-CCSD(T), (RO)-DLPNO pert. Triples
   Tobias Risthaus        : Range-separated hybrids, TD-DFT gradient, RPA, STAB
   Michael Roemelt        : Original ROCIS implementation
   Masaaki Saitow         : Open-shell DLPNO-CCSD energy and density
   Barbara Sandhoefer     : DKH picture change effects
   Avijit Sen             : IP-ROCIS
   Kantharuban Sivalingam : CASSCF convergence, NEVPT2, FIC-MRCI
   Bernardo de Souza      : ESD, SOC TD-DFT
   Georgi Stoychev        : AutoAux, RI-MP2 NMR, DLPNO-MP2 response
   Willem Van den Heuvel  : Paramagnetic NMR
   Boris Wezisla          : Elementary symmetry handling
   Frank Wennmohs         : Technical directorship


 We gratefully acknowledge several colleagues who have allowed us to
 interface, adapt or use parts of their codes:
   Stefan Grimme, W. Hujo, H. Kruse, P. Pracht,  : VdW corrections, initial TS optimization,
                  C. Bannwarth, S. Ehlert          DFT functionals, gCP, sTDA/sTD-DF
   Ed Valeev, F. Pavosevic, A. Kumar             : LibInt (2-el integral package), F12 methods
   Garnet Chan, S. Sharma, J. Yang, R. Olivares  : DMRG
   Ulf Ekstrom                                   : XCFun DFT Library
   Mihaly Kallay                                 : mrcc  (arbitrary order and MRCC methods)
   Jiri Pittner, Ondrej Demel                    : Mk-CCSD
   Frank Weinhold                                : gennbo (NPA and NBO analysis)
   Christopher J. Cramer and Donald G. Truhlar   : smd solvation model
   Lars Goerigk                                  : TD-DFT with DH, B97 family of functionals
   V. Asgeirsson, H. Jonsson                     : NEB implementation
   FAccTs GmbH                                   : IRC, NEB, NEB-TS, DLPNO-Multilevel, CI-OPT
                                                   MM, QMMM, 2- and 3-layer-ONIOM, Crystal-QMMM,
                                                   LR-CPCM, SF, NACMEs, symmetry and pop. for TD-DFT,
                                                   nearIR, NL-DFT gradient (VV10), updates on ESD,
                                                   ML-optimized integration grids
   S Lehtola, MJT Oliveira, MAL Marques          : LibXC Library
   Liviu Ungur et al                             : ANISO software


 Your calculation uses the libint2 library for the computation of 2-el integrals
 For citations please refer to: http://libint.valeyev.net

 Your ORCA version has been built with support for libXC version: 5.1.0
 For citations please refer to: https://tddft.org/programs/libxc/

 This ORCA versions uses:
   CBLAS   interface :  Fast vector & matrix operations
   LAPACKE interface :  Fast linear algebra routines
   SCALAPACK package :  Parallel linear algebra routines
   Shared memory     :  Shared parallel matrices
   BLAS/LAPACK       :  OpenBLAS 0.3.15  USE64BITINT DYNAMIC_ARCH NO_AFFINITY Prescott SINGLE_THREADED
        Core in use  :  Prescott
   Copyright (c) 2011-2014, The OpenBLAS Project




***************************************
The coordinates will be read from file: start.xyz
***************************************


Your calculation utilizes the atom-pairwise dispersion correction
with the Becke-Johnson damping scheme (D3BJ)
Cite in your paper:
S.Grimme, S.Ehrlich, L.Goerigk, J Comput Chem, (2011), 32, 1456–1465 
S.Grimme, J.Antony, S.Ehrlich and H.Krieg, J.Chem.Phys., 132, (2010), 154104 
   

Your calculation utilizes a Nudged-Elastic-Band implementation
 by V.Asgeirsson, C. Riplinger & H. Jonsson
Please cite in your paper:
 V. Asgeirsson et al., in prep. (2019)
   

================================================================================

----- Orbital basis set information -----
Your calculation utilizes the basis: def2-TZVP
   F. Weigend and R. Ahlrichs, Phys. Chem. Chem. Phys. 7, 3297 (2005).

----- AuxJ basis set information -----
Your calculation utilizes the auxiliary basis: def2/J
   F. Weigend, Phys. Chem. Chem. Phys. 8, 1057 (2006).

================================================================================
                                        WARNINGS
                       Please study these warnings very carefully!
================================================================================


WARNING: Geometry Optimization
  ===> : Switching off AutoStart
         For restart on a previous wavefunction, please use MOREAD

INFO   : the flag for use of the SHARK integral package has been found!

================================================================================
                                       INPUT FILE
================================================================================
NAME = neb.inp
|  1> ! NEB-TS b3lyp D3 def2-TZVP CPCM
|  2> 
|  3> %pal
|  4> nprocs 102
|  5> end
|  6> 
|  7> %cpcm
|  8> epsilon 78.4
|  9> end
| 10> 
| 11> %neb
| 12> NEB_End_XYZFile "end.xyz"
| 13> Nimages 6
| 14> end
| 15> 
| 16> 
| 17> *XYZfile -1 1 start.xyz
| 18> 
| 19>                          ****END OF INPUT****
================================================================================


--------------------------------------------------------------------------------
                        Nudged Elastic Band Calculation
--------------------------------------------------------------------------------

Number of images (incl. end points)     ....  8
Number of intermediate images           ....  6
Number of optimized images              ....  6
Optimization of end points before NEB   ....  NO
Use existing gbw files for MO input     ....  NO
Number of atoms                         ....  17
Number of (active) degrees of freedom   ....  51
Constrained atoms                       ....  None

-----------------------------------------
  REACTANT (ANGSTROEM)
-----------------------------------------
C      0.616007    -0.759749     0.807630 
H      1.016281    -1.348761    -0.009620 
H      0.138135     0.142083     0.429001 
H      1.359856    -0.514884     1.555770 
N     -0.461457    -1.561739     1.459050 
O     -0.607844    -1.457616     2.666534 
O     -1.159182    -2.262339     0.741883 
C      5.859942     0.654090    -0.085739 
O      7.051686     0.771959    -0.439351 
O      4.886334     0.288968    -0.790845 
C      5.646477     1.038061     1.390550 
Cl     4.010788     0.669636     2.086324 
H      5.794278     2.109450     1.512654 
H      6.363105     0.506722     2.009611 
H      2.294735     1.838186     0.038347 
O      2.474117     1.555857    -0.866872 
H      3.331486     1.070418    -0.797734 

-----------------------------------------
  PRODUCT (ANGSTROEM)
-----------------------------------------
C      0.783670    -0.475025     0.274858 
H      0.915435    -1.506034    -0.009559 
H      2.370839    -0.308067     1.600913 
H      0.129502    -0.146810     1.065808 
N      1.308118     0.455592    -0.518222 
O      1.135701     1.702716    -0.272520 
O      2.025817     0.126467    -1.529236 
C      5.085184     0.125976    -0.813351 
O      5.656921    -0.100432    -1.858024 
O      4.848662    -0.840185     0.058993 
C      4.642199     1.529320    -0.436342 
Cl     5.785011     2.188247     0.812501 
H      3.646865     1.558993    -0.007771 
H      4.710393     2.177341    -1.302079 
H      3.268812    -0.564154     2.842970 
O      3.246410    -0.101865     1.997404 
H      4.294164    -0.546382     0.843528 



----------------------
NEB settings
----------------------
Method type                             ....  climbing image
Threshold for climbing image            ....  2.00e-02 Eh/Bohr 
Free endpoints                          ....  off 
Tangent type                            ....  improved 
Number of intermediate images           ....  6 
Number of images free to move           ....  6 
Spring type for image distribution      ....  distance between adjacent images 
Spring constant                         ....  energy weighted (0.0100 -to- 0.1000) Eh/Bohr^2 
Spring force perp. to the path          ....  none 
Generation of initial path              ....  image dependent pair potential 
Initial path via TS guess               ....  off 

Minimization of RMSD: Rotation          ....  always 
Minimization of RMSD: Translation type  ....  centroid 
Center fixed to origin                  ....  true 
Remove external force                   ....  true 

Reparametrization of the path           ....  off 
Convergence thresholds:
Convergence monitored for               ....  all images
Scaling factor                          ....  10.00

Convergence parameters for regular images:
               Max(|Fp|)                ....  2.00e-02 Eh/Bohr
               RMS(Fp)                  ....  1.00e-02 Eh/Bohr

Convergence parameters for climbing image:
               Max(|F|)                 ....  2.00e-03 Eh/Bohr
               RMS(F)                   ....  1.00e-03 Eh/Bohr
Optimization method:
Method                                  ....  L-BFGS
Max. iterations                         ....  500 
Step size                               ....  1.00 
Maximum allowed step size               ....  0.10 Bohr

LBFGS parameters: 
               Memory                   ....  20 
               Initial step size        ....  0.0010 
               Estimate curvature       ....  YES 
               Reset on maxmove         ....  YES 
               Reparam. on reset        ....  NO 
Generation of  the initial path:
Minimize RMSD between reactant and product configurations     .... done
       RMSD before minimization         ....  3.1146 Bohr
       RMSD after minimization          ....  2.6515 Bohr
Performing linear interpolation         ....  done
Interpolation using                     ....  IDPP (Image Dependent Pair Potential)
IDPP-Settings:
       Remove global transl. and rot.   ...   true
       Convergence tolerance            ....  0.0100 1/Ang.^3
       Max. numer of iterations         ....    7000
       Spring constant                  ....  1.0000 1/Ang.^4
       Time step                        ....  0.0100 fs
       Max. movement per iteration      ....  0.0500 Ang.
       Full print                       ....  false 
idpp initial path generation successfully converged in 605 iterations
Displacement along initial path:             25.0328 Bohr
Writing initial trajectory to file      ....  neb_initial_path_trj.xyz



----------------------
NEB OPTIMIZATION      
----------------------

Following output files will be written:
Energy profile during opt. written to    ....  neb.interp
Optimization log-file                    ....  neb.NEB.log
Current trajectory will be written to    ....  neb_MEP_trj.xyz
       and to allxyz file                ....  neb_MEP.allxyz
       and individual images to xyz file ....  neb_im{NIm}.xyz
Trajectory history will be written to    ....  neb_MEP_ALL_trj.xyz
Converged CI will be written to          ....  neb_NEB-CI_converged.xyz
Converged TS will be written to          ....  neb_NEB-TS_converged.xyz

Single point energy and gradient calculation of reactant and
product configurations (have to be performed only once)
Properties of fixed NEB end points:
               Reactant:
                         E               ....  -1009.657015 Eh
                         RMS(F)          ....      0.000628 Eh/Bohr
                         MAX(|F|)        ....      0.002477 Eh/Bohr
               Product:
                         E               ....  -1009.633698 Eh
                         RMS(F)          ....      0.000655 Eh/Bohr
                         MAX(|F|)        ....      0.002416 Eh/Bohr



Starting iterations:

Optim.  Iteration  HEI  E(HEI)-E(0)  max(|Fp|)   RMS(Fp)    dS
Switch-on CI threshold               0.020000 
   LBFGS     0      3    0.129536    0.119274   0.021966  25.0328       
   LBFGS     1      4    0.098361    0.077746   0.016569  24.9299       
   LBFGS     2      4    0.077803    0.069830   0.012122  24.8284       
   LBFGS     3      5    0.067366    0.053359   0.009667  24.7515       
   LBFGS     4      5    0.061492    0.048066   0.007888  24.6909       
   LBFGS     5      5    0.056839    0.038081   0.006650  24.6311       
   LBFGS     6      5    0.053249    0.031473   0.005572  24.5933       
   LBFGS     7      5    0.050941    0.028826   0.005054  24.5745       
   LBFGS     8      5    0.049243    0.027818   0.004724  24.5653       
   LBFGS     9      5    0.047557    0.025853   0.004333  24.5658       
   LBFGS    10      5    0.046279    0.024843   0.004214  24.5681       
   LBFGS    11      5    0.044933    0.022704   0.003953  24.5830       
   LBFGS    12      5    0.043801    0.021011   0.003711  24.5989       
   LBFGS    13      5    0.042632    0.028756   0.004584  24.6265       
   LBFGS    14      5    0.041475    0.022837   0.004246  24.6665       
   LBFGS    15      5    0.040211    0.054982   0.007303  24.7050       
   LBFGS    16      5    0.038354    0.079604   0.010846  24.7768       
   LBFGS    17      5    0.037156    0.024091   0.003789  24.8094       
   LBFGS    18      5    0.035839    0.016358   0.003078  24.8201       

Image  5 will be converted to a climbing image in the next iteration (max(|Fp|) < 0.0200) 

Optim.  Iteration  CI   E(CI)-E(0)   max(|Fp|)   RMS(Fp)    dS     max(|FCI|)   RMS(FCI)
Convergence thresholds               0.020000   0.010000            0.002000    0.001000 
   LBFGS    19      5    0.035807    0.015748   0.002930  24.8203    0.014954    0.004035       
   LBFGS    20      5    0.035719    0.013398   0.002781  24.8216    0.014961    0.004029       
   LBFGS    21      5    0.032450    0.030913   0.003978  24.8956    0.011300    0.003425       
   LBFGS    22      5    0.031918    0.036181   0.004731  24.9668    0.010257    0.003342       
   LBFGS    23      5    0.031336    0.009327   0.002054  25.0254    0.009822    0.002893       
   LBFGS    24      5    0.030610    0.007692   0.001640  25.0794    0.009578    0.002567       
   LBFGS    25      4    0.030762    0.016087   0.002695  25.2606    0.025340    0.007868       
   LBFGS    26      4    0.030762    0.016086   0.002695  25.2606    0.025340    0.007868       
   LBFGS    27      4    0.031315    0.015884   0.002470  25.2556    0.025040    0.007187       
   LBFGS    28      4    0.031838    0.016736   0.003092  25.2705    0.024504    0.007333       
   LBFGS    29      4    0.032218    0.020867   0.003095  25.2778    0.024200    0.006763       
   LBFGS    30      4    0.032812    0.021472   0.003798  25.3054    0.023567    0.006898       
   LBFGS    31      4    0.033139    0.024667   0.003393  25.3217    0.023209    0.006342       
   LBFGS    32      4    0.033642    0.024454   0.003904  25.3494    0.022592    0.006345       
   LBFGS    33      4    0.033994    0.024861   0.003318  25.3718    0.022115    0.005907       
   LBFGS    34      4    0.034458    0.023787   0.003975  25.3946    0.021423    0.005912       
   LBFGS    35      4    0.034792    0.022181   0.002934  25.4159    0.020820    0.005472       
   LBFGS    36      4    0.035185    0.020468   0.003095  25.4315    0.020067    0.005295       
   LBFGS    37      4    0.035553    0.017899   0.002539  25.4454    0.019240    0.004990       
   LBFGS    38      4    0.035960    0.023580   0.003544  25.4455    0.018190    0.004798       
   LBFGS    39      4    0.036305    0.013382   0.002570  25.4529    0.017048    0.004394       
   LBFGS    40      4    0.036621    0.013228   0.002163  25.4567    0.015805    0.004065       
   LBFGS    41      4    0.036908    0.013215   0.002108  25.4525    0.014308    0.003693       
   LBFGS    42      4    0.037194    0.044701   0.005096  25.4279    0.012150    0.003607       
   LBFGS    43      4    0.037314    0.048201   0.005444  25.4379    0.010352    0.003226       
   LBFGS    44      4    0.037448    0.065255   0.007229  25.4615    0.010617    0.003576       
   LBFGS    45      4    0.037363    0.055678   0.006245  25.4429    0.009220    0.002938       
   LBFGS    46      4    0.037259    0.036554   0.004521  25.4636    0.007457    0.002450       
   LBFGS    47      4    0.037035    0.030043   0.003632  25.4913    0.005089    0.001683       
   LBFGS    48      4    0.036883    0.041570   0.004618  25.5136    0.004723    0.001666       
   LBFGS    49      4    0.036670    0.052747   0.005630  25.5518    0.005242    0.001773       
   LBFGS    50      4    0.036378    0.059358   0.006191  25.6382    0.005468    0.001864       
   LBFGS    51      4    0.036273    0.065361   0.006758  25.6922    0.006140    0.001936       
   LBFGS    52      4    0.036203    0.016460   0.002573  25.7226    0.004324    0.001454       
   LBFGS    53      4    0.036132    0.011107   0.002108  25.7584    0.004350    0.001372       
   LBFGS    54      4    0.035934    0.035113   0.003910  25.8986    0.004432    0.001679       
   LBFGS    55      4    0.035722    0.048527   0.005086  26.1647    0.005971    0.002048       
   LBFGS    56      4    0.035664    0.019872   0.002510  26.1987    0.005820    0.001662       
   LBFGS    57      4    0.035639    0.016600   0.002193  26.2166    0.005716    0.001572       
   LBFGS    58      4    0.035452    0.009843   0.001595  26.3765    0.004689    0.001198       
   LBFGS    59      4    0.035359    0.049321   0.005252  26.3235    0.004129    0.001369       
   LBFGS    60      4    0.035328    0.011608   0.001724  26.3151    0.004011    0.001014       
   LBFGS    61      4    0.035238    0.055442   0.005662  26.2477    0.003783    0.001268       
   LBFGS    62      4    0.035175    0.040560   0.004177  26.2083    0.003138    0.001074       
   LBFGS    63      4    0.035081    0.028284   0.003088  26.1345    0.002495    0.000828       
   LBFGS    64      4    0.035068    0.015063   0.001721  26.1103    0.001803    0.000594       

                                .--------------------.
          ----------------------| CI-NEB convergence |-------------------------
          Item                value                   Tolerance       Converged
          ---------------------------------------------------------------------
          RMS(Fp)             0.0017213255            0.0100000000      YES
          MAX(|Fp|)           0.0150631089            0.0200000000      YES
          RMS(FCI)            0.0005938327            0.0010000000      YES
          MAX(|FCI|)          0.0018029732            0.0020000000      YES
          ---------------------------------------------------------------------

The elastic band and climbing image have converged successfully to a MEP in 64 iterations!


                    *********************H U R R A Y*********************
                    ***        THE NEB OPTIMIZATION HAS CONVERGED     ***
                    *****************************************************



---------------------------------------------------------------
                         PATH SUMMARY              
---------------------------------------------------------------
All forces in Eh/Bohr.

Image Dist.(Ang.)    E(Eh)   dE(kcal/mol)  max(|Fp|)  RMS(Fp)
  0     0.000   -1009.65702      0.00       0.00248   0.00063
  1     2.315   -1009.65569      0.83       0.00208   0.00059
  2     5.283   -1009.65275      2.68       0.00345   0.00143
  3     9.244   -1009.64363      8.40       0.00310   0.00105
  4     9.653   -1009.62195     22.01       0.00119   0.00054 <= CI
  5    10.290   -1009.63017     16.85       0.00518   0.00173
  6    11.666   -1009.63141     16.07       0.01506   0.00378
  7    13.817   -1009.63370     14.63       0.00242   0.00065

Straight line distance between images along the path:
        D( 0- 1) =   2.3147 Ang.
        D( 1- 2) =   2.9687 Ang.
        D( 2- 3) =   3.9606 Ang.
        D( 3- 4) =   0.4095 Ang.
        D( 4- 5) =   0.6365 Ang.
        D( 5- 6) =   1.3756 Ang.
        D( 6- 7) =   2.1514 Ang.

---------------------------------------------------------------
               INFORMATION ABOUT SADDLE POINT     
---------------------------------------------------------------

Climbing image                            ....  4 
Energy                                    ....  -1009.62194790 Eh
Max. abs. force                           ....  1.8030e-03 Eh/Bohr

-----------------------------------------
  SADDLE POINT (ANGSTROEM)
-----------------------------------------
C     -2.395541    -0.830749    -0.241313 
H     -3.132833    -0.096047    -0.543508 
H     -1.210058    -0.456043    -0.918129 
H     -2.611346    -1.856746    -0.516718 
N     -2.135052    -0.733297     1.133206 
O     -1.693826    -1.724880     1.750001 
O     -2.276351     0.364646     1.710208 
C      2.335042     1.402929    -0.124480 
O      3.216369     2.227681     0.071495 
O      1.589293     1.414987    -1.190607 
C      2.072065     0.321110     0.917695 
Cl     2.485938    -1.315938     0.264313 
H      1.024696     0.292596     1.210969 
H      2.711364     0.481713     1.778081 
H     -0.529913     0.002131    -2.463320 
O     -0.227850    -0.172421    -1.562618 
H      0.778004     0.678326    -1.275276 

-----------------------------------------
  FORCES (Eh/Bohr)
-----------------------------------------
C     -0.001469    -0.000199     0.000971 
H     -0.000358     0.000109    -0.000323 
H      0.001803     0.000538    -0.000385 
H      0.000330     0.000130    -0.000646 
N     -0.000012     0.000036    -0.000167 
O      0.001029     0.000177    -0.000278 
O      0.000776     0.000321     0.000008 
C      0.001122     0.001048     0.000345 
O     -0.000847    -0.001116    -0.000023 
O     -0.000459    -0.000100     0.000172 
C     -0.000218     0.000110    -0.000131 
Cl     0.000117     0.000029     0.000178 
H     -0.000194    -0.000316    -0.000522 
H     -0.000550     0.000121     0.000116 
H     -0.000808     0.000037     0.000450 
O     -0.000147    -0.001369     0.000027 
H      0.000083     0.000296     0.000257 

-----------------------------------------
  UNIT TANGENT
-----------------------------------------
C     -0.344175    -0.119670     0.260206 
H     -0.140452    -0.041388     0.049925 
H      0.411756     0.117582    -0.408193 
H      0.044378    -0.083273     0.057536 
N     -0.186179    -0.034771     0.083858 
O      0.005755     0.018277     0.127950 
O     -0.239164    -0.001644     0.131488 
C      0.078747    -0.006242     0.047513 
O      0.070654    -0.009559     0.010558 
O      0.070263     0.029342    -0.000830 
C      0.042138     0.002679     0.012421 
Cl    -0.015640     0.019613    -0.033216 
H      0.039453     0.044505    -0.003104 
H      0.037279    -0.026430     0.020164 
H     -0.111726     0.018980    -0.185216 
O     -0.074315    -0.108525    -0.229601 
H      0.311227     0.180525     0.058541 
 => Unit tangent is an approximation to the TS mode at the saddle point

Next a TS optimization is performed on the CI from the NEB run.

         *************************************************************
         *                       TS OPTIMIZATION                     *
         *************************************************************


Following output files will be written:
Converged TS will be written to          ....  neb_NEB-TS_converged.xyz
                                         ....  neb.xyz
Current trajectory will be written to    ....  neb_trj.xyz
Initial Hessian will be stored in        ....  neb.appr.hess
Geometry optimization settings:
Update method            Update   .... Bofill
Choice of coordinates    CoordSys .... Z-matrix Internals
Initial Hessian          InHess   .... Read

Convergence Tolerances:
Energy Change            TolE     ....  5.0000e-06 Eh
Max. Gradient            TolMAXG  ....  3.0000e-04 Eh/bohr
RMS Gradient             TolRMSG  ....  1.0000e-04 Eh/bohr
Max. Displacement        TolMAXD  ....  4.0000e-03 bohr
RMS Displacement         TolRMSD  ....  2.0000e-03 bohr
Strict Convergence                ....  False
------------------------------------------------------------------------------
                        ORCA OPTIMIZATION COORDINATE SETUP
------------------------------------------------------------------------------

The optimization will be done in new redundant internal coordinates
Making redundant internal coordinates   ...  (new redundants) done
Following TS mode number                ...     0
TS-active-atoms for coordinate setup... 0 2 16 
Evaluating the initial hessian          ... (Reading Exact Hessian)...  
InHessName: neb.appr.hess	The file <neb.appr.hess> is opened as a .hess file
done
done
Diagonalizing the Hessian               .... done
Dimension of the hessian                .... 66
Lowest eigenvalues of the non projected Hessian:
 -0.011369955 -0.000000000 -0.000000000 -0.000000000 -0.000000000
done
Evaluating the coordinates              ...  done
Calculating the B-matrix                .... done
Calculating the G-matrix                .... done
Diagonalizing the G-matrix              .... done
Small eigenvalue found = 4.409e-03
Small eigenvalue found = 1.271e-02
Small eigenvalue found = 2.128e-02
The first mode is                       ....   21
The number of degrees of freedom        ....   45

    -----------------------------------------------------------------
                    Redundant Internal Coordinates


    -----------------------------------------------------------------
         Definition                    Initial Value    d2E/dq (diagonal element)
    -----------------------------------------------------------------
      1. B(H   1,C   0)                  1.0838         0.370228   
      2. B(H   2,C   0)                  1.4156         0.225515   
      3. B(H   3,C   0)                  1.0840         0.371444   
      4. B(N   4,C   0)                  1.4024         0.291654   
      5. B(O   5,C   0)                  2.2929         0.123994   
      6. B(O   5,N   4)                  1.2483         0.590592   
      7. B(O   6,N   4)                  1.2483         0.582692   
      8. B(O   6,C   0)                  2.2916         0.119698   
      9. B(O   8,C   7)                  1.2228         1.036028   
     10. B(O   9,C   7)                  1.3011         0.772804   
     11. B(C  10,C   7)                  1.5250         0.380298   
     12. B(Cl 11,C  10)                  1.8106         0.299018   
     13. B(H  12,C  10)                  1.0880         0.363099   
     14. B(H  13,C  10)                  1.0839         0.368670   
     15. B(O  15,H  14)                  0.9659         0.523029   
     16. B(O  15,H   2)                  1.2085         0.424672   
     17. B(H  16,O   9)                  1.0991         0.383536   
     18. B(H  16,O  15)                  1.3484         0.158785   
     19. A(H   2,C   0,N   4)          107.1379         0.498704   
     20. A(H   3,C   0,N   4)          110.5952         0.131871   
     21. A(H   2,C   0,H   3)          107.2046         0.104833   
     22. A(H   1,C   0,H   3)          115.8061         0.060674   
     23. A(H   1,C   0,N   4)          110.6422         0.172523   
     24. A(H   1,C   0,H   2)          104.8889         0.087356   
     25. L(C   0,H   2,O  15,N   4, 2) 177.8194         0.215868   
     26. L(C   0,H   2,O  15,N   4, 1) 183.6670         0.489363   
     27. A(C   0,N   4,O   5)          119.6522         0.169576   
     28. A(O   5,N   4,O   6)          120.6804         0.261197   
     29. A(C   0,N   4,O   6)          119.5462         0.169921   
     30. A(O   9,C   7,C  10)          117.8854         0.286726   
     31. A(O   8,C   7,C  10)          119.5518         0.295766   
     32. A(O   8,C   7,O   9)          122.5579         0.311444   
     33. A(C   7,O   9,H  16)          118.6841         0.415069   
     34. A(Cl 11,C  10,H  12)          107.0749         0.139287   
     35. A(C   7,C  10,H  12)          111.6415         0.229435   
     36. A(C   7,C  10,Cl 11)          110.8161         0.258577   
     37. A(H  12,C  10,H  13)          110.9594         0.130265   
     38. A(Cl 11,C  10,H  13)          106.5955         0.133720   
     39. A(C   7,C  10,H  13)          109.6127         0.229098   
     40. A(H  14,O  15,H  16)          108.5412         0.133092   
     41. A(H   2,O  15,H  16)          129.8448         0.438500   
     42. A(H   2,O  15,H  14)          106.5908         0.199858   
     43. A(O   9,H  16,O  15)          171.8659         0.254368   
     44. D(O   6,N   4,C   0,H   1)    -28.0974         0.032900   
     45. D(O   6,N   4,C   0,H   2)     85.6997         0.044649   
     46. D(O   5,N   4,C   0,H   1)    155.8780         0.054622   
     47. D(O   5,N   4,C   0,H   2)    -90.3250         0.027527   
     48. D(O   6,N   4,C   0,H   3)   -157.7786         0.068809   
     49. D(O   5,N   4,C   0,H   3)     26.1968         0.039064   
     50. D(H  16,O   9,C   7,O   8)   -176.5510         0.026542   
     51. D(H  16,O   9,C   7,C  10)      2.6391         0.026058   
     52. D(H  13,C  10,C   7,O   9)   -175.5991         0.033552   
     53. D(H  13,C  10,C   7,O   8)      3.6161         0.031442   
     54. D(H  12,C  10,C   7,O   9)    -52.2379         0.032494   
     55. D(H  12,C  10,C   7,O   8)    126.9774         0.031478   
     56. D(Cl 11,C  10,C   7,O   9)     67.0234         0.034411   
     57. D(Cl 11,C  10,C   7,O   8)   -113.7613         0.032152   
     58. D(H  14,O  15,C   0,H   1)    -45.1389         0.034633   
     59. D(H  16,O  15,C   0,N   4)    -30.5558         0.042433   
     60. D(H  16,O  15,C   0,H   3)   -149.4831         0.029715   
     61. D(H  16,O  15,C   0,H   1)     87.7086         0.049317   
     62. D(H  14,O  15,C   0,N   4)   -163.4034         0.030182   
     63. D(H  14,O  15,C   0,H   3)     77.6694         0.028016   
     64. D(O   9,H  16,O  15,H  14)     -6.6618         0.054261   
     65. D(O   9,H  16,O  15,H   2)   -138.8942         0.019795   
     66. D(O  15,H  16,O   9,C   7)   -167.5025         0.171646   
    -----------------------------------------------------------------

Number of atoms                         .... 17
Number of degrees of freedom            .... 66

         *************************************************************
         *                GEOMETRY OPTIMIZATION CYCLE   1            *
         *************************************************************


           ************************************************************
           *        Program running with 102 parallel MPI-processes   *
           *              working on a common directory               *
           ************************************************************
------------------------------------------------------------------------------
                           ORCA GTO INTEGRAL CALCULATION
                           -- RI-GTO INTEGRALS CHOSEN --
------------------------------------------------------------------------------
------------------------------------------------------------------------------
                   ___                                                        
                  /   \      - P O W E R E D   B Y -                         
                 /     \                                                     
                 |  |  |   _    _      __       _____    __    __             
                 |  |  |  | |  | |    /  \     |  _  \  |  |  /  |          
                  \  \/   | |  | |   /    \    | | | |  |  | /  /          
                 / \  \   | |__| |  /  /\  \   | |_| |  |  |/  /          
                |  |  |   |  __  | /  /__\  \  |    /   |      \           
                |  |  |   | |  | | |   __   |  |    \   |  |\   \          
                \     /   | |  | | |  |  |  |  | |\  \  |  | \   \       
                 \___/    |_|  |_| |__|  |__|  |_| \__\ |__|  \__/        
                                                                              
                      - O R C A' S   B I G   F R I E N D -                    
                                      &                                       
                       - I N T E G R A L  F E E D E R -                       
                                                                              
 v1 FN, 2020, v2 2021                                                         
------------------------------------------------------------------------------


Reading SHARK input file neb.SHARKINP.tmp ... ok
----------------------
SHARK INTEGRAL PACKAGE
----------------------

Number of atoms                             ...     17
Number of basis functions                   ...    358
Number of shells                            ...    140
Maximum angular momentum                    ...      3
Integral batch strategy                     ... SHARK/LIBINT Hybrid
RI-J (if used) integral strategy            ... SPLIT-RIJ (Revised 2003 algorithm where possible)
Printlevel                                  ...      1
Contraction scheme used                     ... SEGMENTED contraction
Coulomb Range Separation                    ... NOT USED
Exchange Range Separation                   ... NOT USED
Finite Nucleus Model                        ... NOT USED
Auxiliary Coulomb fitting basis             ... AVAILABLE
   # of basis functions in Aux-J            ...    569
   # of shells in Aux-J                     ...    187
   Maximum angular momentum in Aux-J        ...      4
Auxiliary J/K fitting basis                 ... NOT available
Auxiliary Correlation fitting basis         ... NOT available
Auxiliary 'external' fitting basis          ... NOT available
Integral threshold                          ...     2.500000e-11
Primitive cut-off                           ...     2.500000e-12
Primitive pair pre-selection threshold      ...     2.500000e-12

Calculating pre-screening integrals         ... done (  0.1 sec) Dimension = 140
Organizing shell pair data                  ... done (  0.2 sec)
Shell pair information
Total number of shell pairs                 ...      9870
Shell pairs after pre-screening             ...      7824
Total number of primitive shell pairs       ...     31380
Primitive shell pairs kept                  ...     17202
          la=0 lb=0:   1985 shell pairs
          la=1 lb=0:   2272 shell pairs
          la=1 lb=1:    681 shell pairs
          la=2 lb=0:   1075 shell pairs
          la=2 lb=1:    643 shell pairs
          la=2 lb=2:    163 shell pairs
          la=3 lb=0:    525 shell pairs
          la=3 lb=1:    301 shell pairs
          la=3 lb=2:    140 shell pairs
          la=3 lb=3:     39 shell pairs

Calculating one electron integrals          ... done (  0.0 sec)
Calculating RI/J V-Matrix + Cholesky decomp.... done (  0.0 sec)
Calculating Nuclear repulsion               ... done (  0.0 sec) ENN=    622.212159379112 Eh

SHARK setup successfully completed in   0.6 seconds

Maximum memory used throughout the entire GTOINT-calculation: 22.4 MB


           ************************************************************
           *        Program running with 102 parallel MPI-processes   *
           *              working on a common directory               *
           ************************************************************
-------------------------------------------------------------------------------
                                 ORCA SCF
-------------------------------------------------------------------------------

------------
SCF SETTINGS
------------
Hamiltonian:
 Density Functional     Method          .... DFT(GTOs)
 Exchange Functional    Exchange        .... B88
   X-Alpha parameter    XAlpha          ....  0.666667
   Becke's b parameter  XBeta           ....  0.004200
 Correlation Functional Correlation     .... LYP
 LDA part of GGA corr.  LDAOpt          .... VWN-5
 Gradients option       PostSCFGGA      .... off
 Hybrid DFT is turned on
   Fraction HF Exchange ScalHFX         ....  0.200000
   Scaling of DF-GGA-X  ScalDFX         ....  0.720000
   Scaling of DF-GGA-C  ScalDFC         ....  0.810000
   Scaling of DF-LDA-C  ScalLDAC        ....  1.000000
   Perturbative correction              ....  0.000000
   Density functional embedding theory  .... OFF
   NL short-range parameter             ....  4.800000
 RI-approximation to the Coulomb term is turned on
   Number of AuxJ basis functions       .... 569
   RIJ-COSX (HFX calculated with COS-X)).... on


General Settings:
 Integral files         IntName         .... neb
 Hartree-Fock type      HFTyp           .... RHF
 Total Charge           Charge          ....   -1
 Multiplicity           Mult            ....    1
 Number of Electrons    NEL             ....   90
 Basis Dimension        Dim             ....  358
 Nuclear Repulsion      ENuc            ....    622.2121593791 Eh

Convergence Acceleration:
 DIIS                   CNVDIIS         .... on
   Start iteration      DIISMaxIt       ....    12
   Startup error        DIISStart       ....  0.200000
   # of expansion vecs  DIISMaxEq       ....     5
   Bias factor          DIISBfac        ....   1.050
   Max. coefficient     DIISMaxC        ....  10.000
 Trust-Rad. Augm. Hess. CNVTRAH         .... auto
   Auto Start mean grad. ratio tolernc. ....  1.125000
   Auto Start start iteration           ....     1
   Auto Start num. interpolation iter.  ....    10
   Max. Number of Micro iterations      ....    16
   Max. Number of Macro iterations      .... Maxiter - #DIIS iter
   Number of Davidson start vectors     ....     2
   Converg. threshold I  (grad. norm)   ....   1.000e-05
   Converg. threshold II (energy diff.) ....   1.000e-08
   Grad. Scal. Fac. for Micro threshold ....   0.100
   Minimum threshold for Micro iter.    ....   0.010
   NR start threshold (gradient norm)   ....   0.001
   Initial trust radius                 ....   0.400
   Minimum AH scaling param. (alpha)    ....   1.000
   Maximum AH scaling param. (alpha)    .... 1000.000
   Orbital update algorithm             .... Taylor
   White noise on init. David. guess    .... on
   Maximum white noise                  ....   0.010
   Quad. conv. algorithm                .... NR
 SOSCF                  CNVSOSCF        .... on
   Start iteration      SOSCFMaxIt      ....   150
   Startup grad/error   SOSCFStart      ....  0.003300
 Level Shifting         CNVShift        .... on
   Level shift para.    LevelShift      ....    0.2500
   Turn off err/grad.   ShiftErr        ....    0.0010
 Zerner damping         CNVZerner       .... off
 Static damping         CNVDamp         .... on
   Fraction old density DampFac         ....    0.7000
   Max. Damping (<1)    DampMax         ....    0.9800
   Min. Damping (>=0)   DampMin         ....    0.0000
   Turn off err/grad.   DampErr         ....    0.1000
 Fernandez-Rico         CNVRico         .... off

SCF Procedure:
 Maximum # iterations   MaxIter         ....   125
 SCF integral mode      SCFMode         .... Direct
   Integral package                     .... SHARK and LIBINT hybrid scheme
 Reset frequency        DirectResetFreq ....    20
 Integral Threshold     Thresh          ....  2.500e-11 Eh
 Primitive CutOff       TCut            ....  2.500e-12 Eh

Convergence Tolerance:
 Convergence Check Mode ConvCheckMode   .... Total+1el-Energy
 Convergence forced     ConvForced      .... 0
 Energy Change          TolE            ....  1.000e-08 Eh
 1-El. energy change                    ....  1.000e-05 Eh
 Orbital Gradient       TolG            ....  1.000e-05
 Orbital Rotation angle TolX            ....  1.000e-05
 DIIS Error             TolErr          ....  5.000e-07


Diagonalization of the overlap matrix:
Smallest eigenvalue                        ... 4.532e-04
Time for diagonalization                   ...    0.052 sec
Threshold for overlap eigenvalues          ... 1.000e-08
Number of eigenvalues below threshold      ... 0
Time for construction of square roots      ...    0.067 sec
Total time needed                          ...    0.121 sec

---------------------
INITIAL GUESS: MOREAD
---------------------
Guess MOs are being read from file: neb.gbw
Input Geometry matches current geometry (good)
Input basis set matches current basis set (good)
MOs were renormalized
MOs were reorthogonalized (Cholesky)
                      ------------------
                      INITIAL GUESS DONE (   0.1 sec)
                      ------------------
-------------------
DFT GRID GENERATION
-------------------

General Integration Accuracy     IntAcc      ... 4.388
Radial Grid Type                 RadialGrid  ... OptM3 with GC (2021)
Angular Grid (max. ang.)         AngularGrid ... 4 (Lebedev-302)
Angular grid pruning method      GridPruning ... 4 (adaptive)
Weight generation scheme         WeightScheme... Becke
Basis function cutoff            BFCut       ... 1.0000e-11
Integration weight cutoff        WCut        ... 1.0000e-14
Angular grids for H and He will be reduced by one unit
Partially contracted basis set               ... off
Rotationally invariant grid construction     ... off

Total number of grid points                  ...    84595
Total number of batches                      ...     1330
Average number of points per batch           ...       63
Average number of grid points per atom       ...     4976
Time for grid setup =    0.698 sec

--------------------
COSX GRID GENERATION
--------------------

GRIDX 1
-------
General Integration Accuracy     IntAcc      ... 3.816
Radial Grid Type                 RadialGrid  ... OptM3 with GC (2021)
Angular Grid (max. ang.)         AngularGrid ... 1 (Lebedev-50)
Angular grid pruning method      GridPruning ... 4 (adaptive)
Weight generation scheme         WeightScheme... Becke
Basis function cutoff            BFCut       ... 1.0000e-11
Integration weight cutoff        WCut        ... 1.0000e-14
Angular grids for H and He will be reduced by one unit
Partially contracted basis set               ... on
Rotationally invariant grid construction     ... off

Total number of grid points                  ...    10685
Total number of batches                      ...      176
Average number of points per batch           ...       60
Average number of grid points per atom       ...      629
UseSFitting                                  ... on

GRIDX 2
-------
General Integration Accuracy     IntAcc      ... 4.020
Radial Grid Type                 RadialGrid  ... OptM3 with GC (2021)
Angular Grid (max. ang.)         AngularGrid ... 2 (Lebedev-110)
Angular grid pruning method      GridPruning ... 4 (adaptive)
Weight generation scheme         WeightScheme... Becke
Basis function cutoff            BFCut       ... 1.0000e-11
Integration weight cutoff        WCut        ... 1.0000e-14
Angular grids for H and He will be reduced by one unit
Partially contracted basis set               ... on
Rotationally invariant grid construction     ... off

Total number of grid points                  ...    23710
Total number of batches                      ...      379
Average number of points per batch           ...       62
Average number of grid points per atom       ...     1395
UseSFitting                                  ... on

GRIDX 3
-------
General Integration Accuracy     IntAcc      ... 4.338
Radial Grid Type                 RadialGrid  ... OptM3 with GC (2021)
Angular Grid (max. ang.)         AngularGrid ... 3 (Lebedev-194)
Angular grid pruning method      GridPruning ... 4 (adaptive)
Weight generation scheme         WeightScheme... Becke
Basis function cutoff            BFCut       ... 1.0000e-11
Integration weight cutoff        WCut        ... 1.0000e-14
Angular grids for H and He will be reduced by one unit
Partially contracted basis set               ... on
Rotationally invariant grid construction     ... off

Total number of grid points                  ...    52777
Total number of batches                      ...      835
Average number of points per batch           ...       63
Average number of grid points per atom       ...     3105
UseSFitting                                  ... on

Time for X-Grid setup             =    0.779 sec


--------------------
CPCM SOLVATION MODEL
--------------------
CPCM parameters:
  Epsilon                                         ...      78.4000
  Refrac                                          ...       1.3300
  Rsolv                                           ...       1.3000
  Surface type                                    ... GAUSSIAN VDW
  Epsilon function type                           ...         CPCM
Radii:
 Radius for C  used is    3.8550 Bohr (=   2.0400 Ang.)
 Radius for H  used is    2.4944 Bohr (=   1.3200 Ang.)
 Radius for N  used is    3.5149 Bohr (=   1.8600 Ang.)
 Radius for O  used is    3.4469 Bohr (=   1.8240 Ang.)
 Radius for Cl used is    3.9684 Bohr (=   2.1000 Ang.)
Calculating surface                               ...        done! (  0.0s)
GEPOL surface points                              ...         1059
GEPOL Volume                                      ...    1282.2278
GEPOL Surface-area                                ...     783.8686
Calculating surface distance matrix               ...        done! (  0.1s)
Performing Cholesky decomposition & store         ...        done! (  0.2s)
Overall time for CPCM initialization              ...                 0.3s
--------------
SCF ITERATIONS
--------------
ITER       Energy         Delta-E        Max-DP      RMS-DP      [F,P]     Damp
               ***  Starting incremental Fock matrix formation  ***
                      *** Initiating the SOSCF procedure ***
                      *** Re-Reading the Fockian *** 
                      *** Removing any level shift *** 
ITER      Energy       Delta-E        Grad      Rot      Max-DP    RMS-DP
  0  -1009.59939121 -1009.5993912128  0.000002  0.000002  0.000004  0.000000
               *** Restarting incremental Fock matrix formation ***
  1  -1009.59939121  -0.0000000000  0.000003  0.000012  0.000011  0.000000
  2  -1009.59939121   0.0000000024  0.000008  0.000011  0.000007  0.000000
                  ***Gradient check signals convergence***
              ***Rediagonalizing the Fockian in SOSCF/NRSCF***

               *****************************************************
               *                     SUCCESS                       *
               *           SCF CONVERGED AFTER   3 CYCLES          *
               *****************************************************

Old exchange energy                            =    -18.677003621 Eh
New exchange energy                            =    -18.676987561 Eh
Exchange energy change after final integration =      0.000016059 Eh
Total energy after final integration           =  -1009.599375157 Eh
Final COS-X integration done in                =     0.636 sec

----------------
TOTAL SCF ENERGY
----------------

Total Energy       :        -1009.59937516 Eh          -27472.59568 eV

Components:
Nuclear Repulsion  :          622.21215938 Eh           16931.25363 eV
Electronic Energy  :        -1631.81153454 Eh          -44403.84930 eV
One Electron Energy:        -2639.52562000 Eh          -71825.14364 eV
Two Electron Energy:         1007.71408547 Eh           27421.29434 eV
Max COSX asymmetry :            0.00000242 Eh               0.00007 eV
CPCM Dielectric    :           -0.09071647 Eh              -2.46852 eV

Virial components:
Potential Energy   :        -2016.47269248 Eh          -54871.01155 eV
Kinetic Energy     :         1006.87331732 Eh           27398.41587 eV
Virial Ratio       :            2.00270745


DFT components:
N(Alpha)           :       45.000036082096 electrons
N(Beta)            :       45.000036082096 electrons
N(Total)           :       90.000072164192 electrons
E(X)               :      -74.397223117984 Eh       
E(C)               :       -3.840375595345 Eh       
E(XC)              :      -78.237598713329 Eh       
DFET-embed. en.    :        0.000000000000 Eh       
CPCM Solvation Model Properties:
Surface-charge          :            0.97672117
Charge-correction       :           -0.00286552 Eh              -0.07797 eV
Free-energy (cav+disp)  :  This term is not implemented in the current solvation scheme

---------------
SCF CONVERGENCE
---------------

  Last Energy change         ...   -6.1400e-09  Tolerance :   1.0000e-08
  Last MAX-Density change    ...    6.2172e-15  Tolerance :   1.0000e-07
  Last RMS-Density change    ...    2.7769e-17  Tolerance :   5.0000e-09
  Last Orbital Gradient      ...    7.7294e-07  Tolerance :   1.0000e-05
  Last Orbital Rotation      ...    2.2455e-06  Tolerance :   1.0000e-05

             **** THE GBW FILE WAS UPDATED (neb.gbw) ****
             **** DENSITY neb.scfp WAS UPDATED ****
             **** ENERGY FILE WAS UPDATED (neb.en.tmp) ****
             **** THE GBW FILE WAS UPDATED (neb.gbw) ****
             **** DENSITY neb.scfp WAS UPDATED ****
----------------
ORBITAL ENERGIES
----------------

  NO   OCC          E(Eh)            E(eV) 
   0   2.0000    -101.518557     -2762.4604 
   1   2.0000     -19.132181      -520.6131 
   2   2.0000     -19.121869      -520.3325 
   3   2.0000     -19.121840      -520.3317 
   4   2.0000     -19.103163      -519.8235 
   5   2.0000     -19.096602      -519.6449 
   6   2.0000     -14.515667      -394.9914 
   7   2.0000     -10.298178      -280.2277 
   8   2.0000     -10.231304      -278.4079 
   9   2.0000     -10.164612      -276.5931 
  10   2.0000      -9.450640      -257.1650 
  11   2.0000      -7.212239      -196.2550 
  12   2.0000      -7.203618      -196.0204 
  13   2.0000      -7.203434      -196.0154 
  14   2.0000      -1.185898       -32.2699 
  15   2.0000      -1.082417       -29.4541 
  16   2.0000      -1.008156       -27.4333 
  17   2.0000      -0.999894       -27.2085 
  18   2.0000      -0.960856       -26.1462 
  19   2.0000      -0.855717       -23.2853 
  20   2.0000      -0.787194       -21.4206 
  21   2.0000      -0.704772       -19.1778 
  22   2.0000      -0.595250       -16.1976 
  23   2.0000      -0.579504       -15.7691 
  24   2.0000      -0.519637       -14.1400 
  25   2.0000      -0.512850       -13.9554 
  26   2.0000      -0.503187       -13.6924 
  27   2.0000      -0.497105       -13.5269 
  28   2.0000      -0.477167       -12.9844 
  29   2.0000      -0.459997       -12.5172 
  30   2.0000      -0.459136       -12.4937 
  31   2.0000      -0.433930       -11.8078 
  32   2.0000      -0.404339       -11.0026 
  33   2.0000      -0.402694       -10.9579 
  34   2.0000      -0.397895       -10.8273 
  35   2.0000      -0.342477        -9.3193 
  36   2.0000      -0.319789        -8.7019 
  37   2.0000      -0.310253        -8.4424 
  38   2.0000      -0.301481        -8.2037 
  39   2.0000      -0.296337        -8.0637 
  40   2.0000      -0.293590        -7.9890 
  41   2.0000      -0.291574        -7.9341 
  42   2.0000      -0.270930        -7.3724 
  43   2.0000      -0.265625        -7.2280 
  44   2.0000      -0.229341        -6.2407 
  45   0.0000      -0.043587        -1.1861 
  46   0.0000      -0.020760        -0.5649 
  47   0.0000       0.040506         1.1022 
  48   0.0000       0.059550         1.6204 
  49   0.0000       0.091132         2.4798 
  50   0.0000       0.091736         2.4963 
  51   0.0000       0.111466         3.0331 
  52   0.0000       0.125741         3.4216 
  53   0.0000       0.128298         3.4912 
  54   0.0000       0.141350         3.8463 
  55   0.0000       0.146981         3.9996 
  56   0.0000       0.173978         4.7342 
  57   0.0000       0.184141         5.0107 
  58   0.0000       0.188726         5.1355 
  59   0.0000       0.222113         6.0440 
  60   0.0000       0.230252         6.2655 
  61   0.0000       0.244130         6.6431 
  62   0.0000       0.253693         6.9033 
  63   0.0000       0.262760         7.1501 
  64   0.0000       0.265658         7.2289 
  65   0.0000       0.271543         7.3891 
  66   0.0000       0.295210         8.0331 
  67   0.0000       0.307176         8.3587 
  68   0.0000       0.325811         8.8658 
  69   0.0000       0.331045         9.0082 
  70   0.0000       0.339962         9.2508 
  71   0.0000       0.356205         9.6928 
  72   0.0000       0.363562         9.8930 
  73   0.0000       0.378880        10.3099 
  74   0.0000       0.381848        10.3906 
  75   0.0000       0.395859        10.7719 
  76   0.0000       0.408244        11.1089 
  77   0.0000       0.412621        11.2280 
  78   0.0000       0.420553        11.4438 
  79   0.0000       0.421097        11.4586 
  80   0.0000       0.428352        11.6561 
  81   0.0000       0.440247        11.9797 
  82   0.0000       0.450289        12.2530 
  83   0.0000       0.460418        12.5286 
  84   0.0000       0.464072        12.6280 
  85   0.0000       0.470163        12.7938 
  86   0.0000       0.485785        13.2189 
  87   0.0000       0.493739        13.4353 
  88   0.0000       0.499182        13.5834 
  89   0.0000       0.512200        13.9377 
  90   0.0000       0.522558        14.2195 
  91   0.0000       0.526833        14.3359 
  92   0.0000       0.530835        14.4448 
  93   0.0000       0.536444        14.5974 
  94   0.0000       0.549957        14.9651 
  95   0.0000       0.561194        15.2709 
  96   0.0000       0.578890        15.7524 
  97   0.0000       0.581966        15.8361 
  98   0.0000       0.606433        16.5019 
  99   0.0000       0.615353        16.7446 
 100   0.0000       0.636848        17.3295 
 101   0.0000       0.646337        17.5877 
 102   0.0000       0.678521        18.4635 
 103   0.0000       0.686181        18.6719 
 104   0.0000       0.713141        19.4056 
 105   0.0000       0.735986        20.0272 
 106   0.0000       0.764177        20.7943 
 107   0.0000       0.792958        21.5775 
 108   0.0000       0.805099        21.9079 
 109   0.0000       0.830585        22.6014 
 110   0.0000       0.834934        22.7197 
 111   0.0000       0.856622        23.3099 
 112   0.0000       0.863797        23.5051 
 113   0.0000       0.888284        24.1714 
 114   0.0000       0.894117        24.3302 
 115   0.0000       0.902113        24.5478 
 116   0.0000       0.950534        25.8653 
 117   0.0000       0.972962        26.4756 
 118   0.0000       0.981137        26.6981 
 119   0.0000       0.997016        27.1302 
 120   0.0000       1.015764        27.6404 
 121   0.0000       1.025235        27.8981 
 122   0.0000       1.081705        29.4347 
 123   0.0000       1.086671        29.5698 
 124   0.0000       1.100405        29.9435 
 125   0.0000       1.140463        31.0336 
 126   0.0000       1.181512        32.1506 
 127   0.0000       1.206775        32.8380 
 128   0.0000       1.210214        32.9316 
 129   0.0000       1.248476        33.9728 
 130   0.0000       1.253819        34.1181 
 131   0.0000       1.302249        35.4360 
 132   0.0000       1.359919        37.0053 
 133   0.0000       1.379732        37.5444 
 134   0.0000       1.401930        38.1485 
 135   0.0000       1.414469        38.4897 
 136   0.0000       1.425520        38.7904 
 137   0.0000       1.441696        39.2305 
 138   0.0000       1.503310        40.9072 
 139   0.0000       1.510023        41.0898 
 140   0.0000       1.538135        41.8548 
 141   0.0000       1.543403        41.9981 
 142   0.0000       1.549016        42.1509 
 143   0.0000       1.570558        42.7371 
 144   0.0000       1.589202        43.2444 
 145   0.0000       1.609651        43.8008 
 146   0.0000       1.630445        44.3667 
 147   0.0000       1.637541        44.5597 
 148   0.0000       1.652349        44.9627 
 149   0.0000       1.661407        45.2092 
 150   0.0000       1.667431        45.3731 
 151   0.0000       1.680906        45.7398 
 152   0.0000       1.695269        46.1306 
 153   0.0000       1.721250        46.8376 
 154   0.0000       1.742473        47.4151 
 155   0.0000       1.766417        48.0666 
 156   0.0000       1.785125        48.5757 
 157   0.0000       1.792120        48.7661 
 158   0.0000       1.798721        48.9457 
 159   0.0000       1.805524        49.1308 
 160   0.0000       1.812957        49.3331 
 161   0.0000       1.837633        50.0045 
 162   0.0000       1.855472        50.4900 
 163   0.0000       1.873371        50.9770 
 164   0.0000       1.889067        51.4041 
 165   0.0000       1.924422        52.3662 
 166   0.0000       1.940278        52.7976 
 167   0.0000       1.946669        52.9715 
 168   0.0000       1.953565        53.1592 
 169   0.0000       1.965340        53.4796 
 170   0.0000       1.974592        53.7314 
 171   0.0000       1.987329        54.0780 
 172   0.0000       2.011913        54.7469 
 173   0.0000       2.016267        54.8654 
 174   0.0000       2.045204        55.6528 
 175   0.0000       2.057337        55.9830 
 176   0.0000       2.068699        56.2922 
 177   0.0000       2.089547        56.8595 
 178   0.0000       2.091605        56.9155 
 179   0.0000       2.115077        57.5542 
 180   0.0000       2.121064        57.7171 
 181   0.0000       2.129514        57.9470 
 182   0.0000       2.145507        58.3822 
 183   0.0000       2.181181        59.3530 
 184   0.0000       2.197949        59.8092 
 185   0.0000       2.206906        60.0530 
 186   0.0000       2.224810        60.5401 
 187   0.0000       2.238884        60.9231 
 188   0.0000       2.241217        60.9866 
 189   0.0000       2.257582        61.4319 
 190   0.0000       2.268225        61.7215 
 191   0.0000       2.287518        62.2465 
 192   0.0000       2.310125        62.8617 
 193   0.0000       2.314349        62.9766 
 194   0.0000       2.331644        63.4473 
 195   0.0000       2.341974        63.7284 
 196   0.0000       2.366285        64.3899 
 197   0.0000       2.386539        64.9410 
 198   0.0000       2.414455        65.7007 
 199   0.0000       2.455233        66.8103 
 200   0.0000       2.494778        67.8864 
 201   0.0000       2.528109        68.7934 
 202   0.0000       2.548136        69.3383 
 203   0.0000       2.594245        70.5930 
 204   0.0000       2.599871        70.7461 
 205   0.0000       2.601338        70.7860 
 206   0.0000       2.606973        70.9393 
 207   0.0000       2.618669        71.2576 
 208   0.0000       2.637637        71.7737 
 209   0.0000       2.657405        72.3117 
 210   0.0000       2.671610        72.6982 
 211   0.0000       2.718884        73.9846 
 212   0.0000       2.724795        74.1454 
 213   0.0000       2.737569        74.4930 
 214   0.0000       2.756257        75.0016 
 215   0.0000       2.772813        75.4521 
 216   0.0000       2.784272        75.7639 
 217   0.0000       2.801154        76.2233 
 218   0.0000       2.821721        76.7829 
 219   0.0000       2.880989        78.3957 
 220   0.0000       2.896575        78.8198 
 221   0.0000       2.907649        79.1212 
 222   0.0000       2.921149        79.4885 
 223   0.0000       2.940618        80.0183 
 224   0.0000       2.953447        80.3674 
 225   0.0000       2.986254        81.2601 
 226   0.0000       2.995209        81.5038 
 227   0.0000       3.015071        82.0443 
 228   0.0000       3.022991        82.2598 
 229   0.0000       3.040508        82.7364 
 230   0.0000       3.081613        83.8550 
 231   0.0000       3.091257        84.1174 
 232   0.0000       3.146105        85.6099 
 233   0.0000       3.160748        86.0083 
 234   0.0000       3.185849        86.6914 
 235   0.0000       3.207654        87.2847 
 236   0.0000       3.259499        88.6955 
 237   0.0000       3.263658        88.8086 
 238   0.0000       3.271289        89.0163 
 239   0.0000       3.277559        89.1869 
 240   0.0000       3.288072        89.4730 
 241   0.0000       3.317539        90.2748 
 242   0.0000       3.355914        91.3190 
 243   0.0000       3.374125        91.8146 
 244   0.0000       3.427878        93.2773 
 245   0.0000       3.437785        93.5469 
 246   0.0000       3.481237        94.7293 
 247   0.0000       3.491648        95.0126 
 248   0.0000       3.505122        95.3792 
 249   0.0000       3.556548        96.7786 
 250   0.0000       3.573771        97.2473 
 251   0.0000       3.629685        98.7687 
 252   0.0000       3.642723        99.1235 
 253   0.0000       3.666306        99.7652 
 254   0.0000       3.757058       102.2348 
 255   0.0000       3.759432       102.2993 
 256   0.0000       3.793413       103.2240 
 257   0.0000       3.802946       103.4834 
 258   0.0000       3.832075       104.2761 
 259   0.0000       3.906908       106.3124 
 260   0.0000       3.938500       107.1720 
 261   0.0000       4.021494       109.4304 
 262   0.0000       4.039093       109.9093 
 263   0.0000       4.046029       110.0981 
 264   0.0000       4.100000       111.5667 
 265   0.0000       4.112773       111.9142 
 266   0.0000       4.138734       112.6207 
 267   0.0000       4.170196       113.4768 
 268   0.0000       4.316642       117.4618 
 269   0.0000       4.353148       118.4552 
 270   0.0000       4.382986       119.2671 
 271   0.0000       4.424195       120.3885 
 272   0.0000       4.447381       121.0194 
 273   0.0000       4.500200       122.4567 
 274   0.0000       4.606840       125.3585 
 275   0.0000       4.623562       125.8135 
 276   0.0000       4.659737       126.7979 
 277   0.0000       4.707372       128.0941 
 278   0.0000       4.718745       128.4036 
 279   0.0000       4.749060       129.2285 
 280   0.0000       4.906724       133.5188 
 281   0.0000       4.935903       134.3128 
 282   0.0000       5.132910       139.6736 
 283   0.0000       5.133306       139.6844 
 284   0.0000       5.154165       140.2520 
 285   0.0000       5.154957       140.2735 
 286   0.0000       5.163895       140.5167 
 287   0.0000       5.168491       140.6418 
 288   0.0000       5.188640       141.1901 
 289   0.0000       5.200069       141.5011 
 290   0.0000       5.239083       142.5627 
 291   0.0000       5.266469       143.3079 
 292   0.0000       5.285133       143.8158 
 293   0.0000       5.288823       143.9162 
 294   0.0000       5.346203       145.4776 
 295   0.0000       5.364139       145.9656 
 296   0.0000       5.382070       146.4536 
 297   0.0000       5.407043       147.1331 
 298   0.0000       5.427457       147.6886 
 299   0.0000       5.532463       150.5460 
 300   0.0000       5.589159       152.0888 
 301   0.0000       5.597821       152.3245 
 302   0.0000       5.617558       152.8615 
 303   0.0000       5.638483       153.4309 
 304   0.0000       5.700884       155.1289 
 305   0.0000       5.807408       158.0276 
 306   0.0000       5.903272       160.6362 
 307   0.0000       5.929300       161.3444 
 308   0.0000       5.949655       161.8984 
 309   0.0000       5.970709       162.4713 
 310   0.0000       6.140623       167.0948 
 311   0.0000       6.180182       168.1713 
 312   0.0000       6.255673       170.2255 
 313   0.0000       6.270769       170.6363 
 314   0.0000       6.298702       171.3964 
 315   0.0000       6.312995       171.7853 
 316   0.0000       6.322361       172.0402 
 317   0.0000       6.355396       172.9391 
 318   0.0000       6.370001       173.3366 
 319   0.0000       6.380618       173.6254 
 320   0.0000       6.382846       173.6861 
 321   0.0000       6.402817       174.2295 
 322   0.0000       6.444458       175.3626 
 323   0.0000       6.462740       175.8601 
 324   0.0000       6.488580       176.5632 
 325   0.0000       6.658418       181.1848 
 326   0.0000       6.693965       182.1520 
 327   0.0000       6.757153       183.8715 
 328   0.0000       6.818273       185.5346 
 329   0.0000       6.822710       185.6554 
 330   0.0000       6.850146       186.4020 
 331   0.0000       6.859382       186.6533 
 332   0.0000       6.860343       186.6794 
 333   0.0000       6.894216       187.6011 
 334   0.0000       6.956886       189.3065 
 335   0.0000       7.028014       191.2420 
 336   0.0000       7.081974       192.7103 
 337   0.0000       7.102111       193.2583 
 338   0.0000       7.120518       193.7591 
 339   0.0000       7.197900       195.8648 
 340   0.0000       7.228531       196.6983 
 341   0.0000       7.257400       197.4839 
 342   0.0000       7.379143       200.7967 
 343   0.0000       7.400004       201.3643 
 344   0.0000       7.463816       203.1008 
 345   0.0000      10.725969       291.8685 
 346   0.0000      10.746819       292.4358 
 347   0.0000      11.193366       304.5870 
 348   0.0000      22.142837       602.5372 
 349   0.0000      22.428493       610.3103 
 350   0.0000      23.336454       635.0172 
 351   0.0000      25.191460       685.4945 
 352   0.0000      32.232028       877.0781 
 353   0.0000      43.642135      1187.5629 
 354   0.0000      43.789291      1191.5672 
 355   0.0000      43.884729      1194.1642 
 356   0.0000      43.893069      1194.3911 
 357   0.0000      43.984928      1196.8907 
-------
TIMINGS
-------

Total SCF time: 0 days 0 hours 0 min 7 sec 

Total time                  ....       7.633 sec
Sum of individual times     ....       6.551 sec  ( 85.8%)

Fock matrix formation       ....       4.320 sec  ( 56.6%)
  Split-RI-J                ....       0.887 sec  ( 20.5% of F)
  Chain of spheres X        ....       1.917 sec  ( 44.4% of F)
  XC integration            ....       0.447 sec  ( 10.3% of F)
    Basis function eval.    ....       0.026 sec  (  5.8% of XC)
    Density eval.           ....       0.060 sec  ( 13.3% of XC)
    XC-Functional eval.     ....       0.004 sec  (  0.8% of XC)
    XC-Potential eval.      ....       0.028 sec  (  6.4% of XC)
Diagonalization             ....       0.121 sec  (  1.6%)
Density matrix formation    ....       0.057 sec  (  0.8%)
Population analysis         ....       0.000 sec  (  0.0%)
Initial guess               ....       0.144 sec  (  1.9%)
Orbital Transformation      ....       0.000 sec  (  0.0%)
Orbital Orthonormalization  ....       0.116 sec  (  1.5%)
DIIS solution               ....       0.063 sec  (  0.8%)
SOSCF solution              ....       0.368 sec  (  4.8%)
Grid generation             ....       1.477 sec  ( 19.4%)

Maximum memory used throughout the entire SCF-calculation: 81.7 MB


-------------------------------------------------------------------------------
                          DFT DISPERSION CORRECTION                            
                                                                               
                              DFTD3 V3.1  Rev 1                                
                          USING Becke-Johnson damping                          
-------------------------------------------------------------------------------
The B3LYP functional is recognized
Active option DFTDOPT                   ...         4   

molecular C6(AA) [au] = 3182.974839 


            DFT-D V3
 parameters
 s6 scaling factor         :     1.0000 
 a1 scaling factor         :     0.3981 
 s8 scaling factor         :     1.9889 
 a2 scaling factor         :     4.4211 
 ad hoc parameters k1-k3   :    16.0000     1.3333    -4.0000 

 Edisp/kcal,au: -14.164610974246  -0.022572742004 
 E6   /kcal   :  -6.902532618 
 E8   /kcal   :  -7.262078357 
 % E8         :  51.269169127 

-------------------------   ----------------
Dispersion correction           -0.022572742
-------------------------   ----------------


-------------------------   --------------------
FINAL SINGLE POINT ENERGY     -1009.621947899091
-------------------------   --------------------



           ************************************************************
           *        Program running with 102 parallel MPI-processes   *
           *              working on a common directory               *
           ************************************************************
------------------------------------------------------------------------------
                         ORCA SCF GRADIENT CALCULATION
------------------------------------------------------------------------------

 ... reading COSX grid (gridx3)
Gradient of the Kohn-Sham DFT energy:
Kohn-Sham wavefunction type      ... RKS
Hartree-Fock exchange scaling    ...    0.200
Number of operators              ...    1
Number of atoms                  ...   17
Basis set dimensions             ...  358
Integral neglect threshold       ... 2.5e-11
Integral primitive cutoff        ... 2.5e-12
SHARK Integral package           ... ON

Nuc. rep. gradient       (SHARK) ... done (  0.0 sec)
HCore & Overlap gradient (SHARK) ... done (  0.0 sec)
RI-J gradient            (SHARK) ... done (  0.3 sec)
COSX-gradient                    ... done (  0.8 sec)
Exchange-correlation gradient    ... done
Dispersion correction            ... done

------------------
CARTESIAN GRADIENT
------------------

   1   C   :    0.001469042    0.000198922   -0.000970101
   2   H   :    0.000358040   -0.000109094    0.000322452
   3   H   :   -0.001802616   -0.000538080    0.000384363
   4   H   :   -0.000329735   -0.000130608    0.000645442
   5   N   :    0.000011266   -0.000033837    0.000166616
   6   O   :   -0.001029078   -0.000177705    0.000278356
   7   O   :   -0.000775383   -0.000321976   -0.000008621
   8   C   :   -0.001121041   -0.001047269   -0.000343622
   9   O   :    0.000845737    0.001115006    0.000022313
  10   O   :    0.000459115    0.000100536   -0.000172682
  11   C   :    0.000218053   -0.000109742    0.000130742
  12   Cl  :   -0.000117131   -0.000028558   -0.000177969
  13   H   :    0.000194396    0.000315789    0.000522320
  14   H   :    0.000549829   -0.000121134   -0.000116476
  15   H   :    0.000808198   -0.000037276   -0.000449965
  16   O   :    0.000146768    0.001369425   -0.000027173
  17   H   :   -0.000083495   -0.000296740   -0.000257394

Difference to translation invariance:
           :   -0.0001980326    0.0001476594   -0.0000513997

Difference to rotation invariance:
           :    0.0003189034   -0.0006780098   -0.0012326597

Norm of the cartesian gradient     ...    0.0042396867
RMS gradient                       ...    0.0005936749
MAX gradient                       ...    0.0018026159

-------
TIMINGS
-------

Total SCF gradient time            ...        3.072 sec

One electron gradient       ....       0.048 sec  (  1.6%)
RI-J Coulomb gradient       ....       0.283 sec  (  9.2%)
COSX gradient               ....       0.829 sec  ( 27.0%)
XC gradient                 ....       0.391 sec  ( 12.7%)
CPCM gradient               ....       0.184 sec  (  6.0%)
   A-Matrix (El+Nuc)        ....       0.093 sec  (  3.0%)
   Potential                ....       0.092 sec  (  3.0%)

Maximum memory used throughout the entire SCFGRAD-calculation: 54.0 MB
------------------------------------------------------------------------------
                         ORCA GEOMETRY RELAXATION STEP
------------------------------------------------------------------------------

Reading the OPT-File                    .... done
Getting information on internals        .... done
Copying old internal coords+grads       .... done
Making the new internal coordinates     .... (new redundants).... done
Validating the new internal coordinates .... (new redundants).... done
Calculating the B-matrix                .... done
Calculating the G,G- and P matrices     .... done
Transforming gradient to internals      .... done
Projecting the internal gradient        .... done
Number of atoms                         ....  17
Number of internal coordinates          ....  66
Current Energy                          .... -1009.621947899 Eh
Current gradient norm                   ....     0.004239687 Eh/bohr
Maximum allowed component of the step   ....  0.300
Current trust radius                    ....  0.100
Evaluating the initial hessian          ....  (read) 
(Reading Exact Hessian)...  
InHessName: neb.appr.hess	The file <neb.appr.hess> is opened as a .hess file
done
done
Diagonalizing the Hessian               .... done
Dimension of the hessian                .... 66
Lowest eigenvalues of the non projected Hessian:
 -0.011369955 -0.000000000 -0.000000000 -0.000000000 -0.000000000
done
Projecting the Hessian                  .... done
Diagonalizing the Hessian               .... done
Dimension of the hessian                ....  66
Lowest eigenvalues of the Hessian:
 -0.011369955  0.003520204  0.010869795  0.014386599  0.020247123
Hessian has   1 negative eigenvalues
Taking P-RFO step
Searching for lambda that maximizes along the lowest mode
TS mode is mode number   0 with eigenvalue  -0.01136996 and components:
   1.    0.01879149
   2.   -0.69958558
   3.    0.04259032
   4.    0.09649594
   5.    0.03947653
   6.   -0.03501192
   7.   -0.04198495
   8.    0.02751405
   9.    0.01005072
  10.   -0.03305297
  11.    0.01743764
  12.    0.00860320
  13.    0.00219685
  14.    0.00050314
  15.    0.00372439
  16.    0.37186864
  17.    0.19884869
  18.   -0.36996037
  19.   -0.01311004
  20.   -0.08299206
  21.    0.17387008
  22.   -0.10027938
  23.   -0.07148293
  24.    0.12274523
  25.    0.10137535
  26.    0.00365667
  27.   -0.01266316
  28.    0.02848973
  29.   -0.01745175
  30.   -0.00145563
  31.   -0.02055385
  32.    0.02191659
  33.    0.02789363
  34.   -0.00380900
  35.    0.00551621
  36.    0.00584297
  37.   -0.00079112
  38.   -0.00746782
  39.    0.00011012
  40.   -0.02741443
  41.    0.07562449
  42.   -0.02316004
  43.    0.06939544
  44.   -0.15295023
  45.   -0.05111880
  46.   -0.12749870
  47.   -0.02566727
  48.    0.10470390
  49.    0.13015543
  50.    0.01797357
  51.    0.01012460
  52.    0.00738813
  53.    0.00013467
  54.    0.01025048
  55.    0.00299703
  56.    0.01297893
  57.    0.00572547
  58.   -0.05142367
  59.   -0.03277442
  60.   -0.02999296
  61.   -0.05903461
  62.   -0.02516348
  63.   -0.02238202
  64.   -0.03091378
  65.   -0.04203249
  66.    0.03461770

Lambda that maximizes along the TS mode:       0.00005802
Searching for lambda that minimizes along all other modes
In cycle   1: lambdaN =  -0.00082552   step =   0.00082552
In cycle   2: lambdaN =  -0.00084325   step =   0.00001774
In cycle   3: lambdaN =  -0.00084326   step =   0.00000001
Lambda that minimizes along all other modes:  -0.00084326
Calculated stepsize too large (   0.3069 >    0.1000). Scaled with    0.3258.
The final length of the internal step   ....       0.1000
Converting the step to cartesian space:
 Initial RMS(Int)=    0.0123091491
[...]
  65   0.0000       0.282666         7.6917 
  66   0.0000       0.302523         8.2321 
  67   0.0000       0.318419         8.6646 
  68   0.0000       0.325518         8.8578 
  69   0.0000       0.332219         9.0401 
  70   0.0000       0.336720         9.1626 
  71   0.0000       0.354228         9.6390 
  72   0.0000       0.360410         9.8072 
  73   0.0000       0.367816        10.0088 
  74   0.0000       0.381582        10.3834 
  75   0.0000       0.399128        10.8608 
  76   0.0000       0.409425        11.1410 
  77   0.0000       0.416486        11.3332 
  78   0.0000       0.418113        11.3774 
  79   0.0000       0.429824        11.6961 
  80   0.0000       0.436266        11.8714 
  81   0.0000       0.448111        12.1937 
  82   0.0000       0.453812        12.3488 
  83   0.0000       0.464897        12.6505 
  84   0.0000       0.466234        12.6869 
  85   0.0000       0.476616        12.9694 
  86   0.0000       0.485412        13.2087 
  87   0.0000       0.499428        13.5901 
  88   0.0000       0.510332        13.8868 
  89   0.0000       0.523520        14.2457 
  90   0.0000       0.529658        14.4127 
  91   0.0000       0.531426        14.4608 
  92   0.0000       0.542266        14.7558 
  93   0.0000       0.543142        14.7797 
  94   0.0000       0.567013        15.4292 
  95   0.0000       0.579184        15.7604 
  96   0.0000       0.588895        16.0247 
  97   0.0000       0.595756        16.2113 
  98   0.0000       0.617201        16.7949 
  99   0.0000       0.629388        17.1265 
 100   0.0000       0.651228        17.7208 
 101   0.0000       0.657954        17.9038 
 102   0.0000       0.690369        18.7859 
 103   0.0000       0.706238        19.2177 
 104   0.0000       0.723973        19.7003 
 105   0.0000       0.752919        20.4880 
 106   0.0000       0.770594        20.9689 
 107   0.0000       0.777420        21.1547 
 108   0.0000       0.806181        21.9373 
 109   0.0000       0.820350        22.3229 
 110   0.0000       0.836928        22.7740 
 111   0.0000       0.852479        23.1971 
 112   0.0000       0.870301        23.6821 
 113   0.0000       0.898003        24.4359 
 114   0.0000       0.919007        25.0074 
 115   0.0000       0.940555        25.5938 
 116   0.0000       0.946731        25.7619 
 117   0.0000       0.978094        26.6153 
 118   0.0000       0.996808        27.1245 
 119   0.0000       0.998847        27.1800 
 120   0.0000       1.033173        28.1141 
 121   0.0000       1.063923        28.9508 
 122   0.0000       1.088986        29.6328 
 123   0.0000       1.100245        29.9392 
 124   0.0000       1.108090        30.1527 
 125   0.0000       1.132085        30.8056 
 126   0.0000       1.198398        32.6101 
 127   0.0000       1.205292        32.7977 
 128   0.0000       1.226798        33.3829 
 129   0.0000       1.252584        34.0845 
 130   0.0000       1.262718        34.3603 
 131   0.0000       1.305515        35.5249 
 132   0.0000       1.371705        37.3260 
 133   0.0000       1.378210        37.5030 
 134   0.0000       1.401941        38.1487 
 135   0.0000       1.415061        38.5058 
 136   0.0000       1.430433        38.9241 
 137   0.0000       1.467577        39.9348 
 138   0.0000       1.495492        40.6944 
 139   0.0000       1.516638        41.2698 
 140   0.0000       1.529300        41.6144 
 141   0.0000       1.541651        41.9505 
 142   0.0000       1.546369        42.0788 
 143   0.0000       1.572718        42.7958 
 144   0.0000       1.595738        43.4222 
 145   0.0000       1.611694        43.8564 
 146   0.0000       1.627356        44.2826 
 147   0.0000       1.641707        44.6731 
 148   0.0000       1.649966        44.8978 
 149   0.0000       1.662275        45.2328 
 150   0.0000       1.681328        45.7513 
 151   0.0000       1.687185        45.9106 
 152   0.0000       1.702317        46.3224 
 153   0.0000       1.729377        47.0587 
 154   0.0000       1.754963        47.7550 
 155   0.0000       1.768823        48.1321 
 156   0.0000       1.782780        48.5119 
 157   0.0000       1.789379        48.6915 
 158   0.0000       1.801749        49.0281 
 159   0.0000       1.806885        49.1678 
 160   0.0000       1.814470        49.3742 
 161   0.0000       1.842122        50.1267 
 162   0.0000       1.862566        50.6830 
 163   0.0000       1.881441        51.1966 
 164   0.0000       1.908722        51.9390 
 165   0.0000       1.915347        52.1193 
 166   0.0000       1.936902        52.7058 
 167   0.0000       1.949229        53.0412 
 168   0.0000       1.961989        53.3884 
 169   0.0000       1.978127        53.8276 
 170   0.0000       1.991142        54.1817 
 171   0.0000       2.001555        54.4651 
 172   0.0000       2.009244        54.6743 
 173   0.0000       2.035036        55.3761 
 174   0.0000       2.050432        55.7951 
 175   0.0000       2.072026        56.3827 
 176   0.0000       2.077107        56.5210 
 177   0.0000       2.091032        56.8999 
 178   0.0000       2.098615        57.1062 
 179   0.0000       2.120674        57.7065 
 180   0.0000       2.125118        57.8274 
 181   0.0000       2.144275        58.3487 
 182   0.0000       2.164780        58.9067 
 183   0.0000       2.191866        59.6437 
 184   0.0000       2.207736        60.0755 
 185   0.0000       2.222828        60.4862 
 186   0.0000       2.226530        60.5870 
 187   0.0000       2.244744        61.0826 
 188   0.0000       2.249121        61.2017 
 189   0.0000       2.259651        61.4882 
 190   0.0000       2.284290        62.1587 
 191   0.0000       2.293874        62.4195 
 192   0.0000       2.308729        62.8237 
 193   0.0000       2.320407        63.1415 
 194   0.0000       2.353343        64.0377 
 195   0.0000       2.373756        64.5932 
 196   0.0000       2.383794        64.8663 
 197   0.0000       2.408308        65.5334 
 198   0.0000       2.425443        65.9997 
 199   0.0000       2.464845        67.0718 
 200   0.0000       2.489106        67.7320 
 201   0.0000       2.515997        68.4637 
 202   0.0000       2.526409        68.7471 
 203   0.0000       2.569104        69.9089 
 204   0.0000       2.581728        70.2524 
 205   0.0000       2.603423        70.8427 
 206   0.0000       2.613153        71.1075 
 207   0.0000       2.630273        71.5734 
 208   0.0000       2.645142        71.9780 
 209   0.0000       2.653501        72.2054 
 210   0.0000       2.679349        72.9088 
 211   0.0000       2.713929        73.8498 
 212   0.0000       2.727446        74.2176 
 213   0.0000       2.744647        74.6856 
 214   0.0000       2.767340        75.3031 
 215   0.0000       2.787684        75.8567 
 216   0.0000       2.812576        76.5341 
 217   0.0000       2.814893        76.5971 
 218   0.0000       2.838767        77.2468 
 219   0.0000       2.889701        78.6328 
 220   0.0000       2.908944        79.1564 
 221   0.0000       2.918000        79.4028 
 222   0.0000       2.930141        79.7332 
 223   0.0000       2.965331        80.6908 
 224   0.0000       2.980535        81.1045 
 225   0.0000       2.997289        81.5604 
 226   0.0000       3.003603        81.7322 
 227   0.0000       3.018830        82.1466 
 228   0.0000       3.043387        82.8148 
 229   0.0000       3.067957        83.4834 
 230   0.0000       3.088112        84.0318 
 231   0.0000       3.129125        85.1478 
 232   0.0000       3.140015        85.4442 
 233   0.0000       3.153210        85.8032 
 234   0.0000       3.195849        86.9635 
 235   0.0000       3.206292        87.2476 
 236   0.0000       3.247345        88.3647 
 237   0.0000       3.275484        89.1304 
 238   0.0000       3.283625        89.3520 
 239   0.0000       3.288080        89.4732 
 240   0.0000       3.301800        89.8465 
 241   0.0000       3.331788        90.6626 
 242   0.0000       3.366531        91.6080 
 243   0.0000       3.378059        91.9217 
 244   0.0000       3.409237        92.7701 
 245   0.0000       3.436808        93.5203 
 246   0.0000       3.484272        94.8118 
 247   0.0000       3.501814        95.2892 
 248   0.0000       3.517241        95.7090 
 249   0.0000       3.559661        96.8633 
 250   0.0000       3.580783        97.4381 
 251   0.0000       3.622800        98.5814 
 252   0.0000       3.653092        99.4057 
 253   0.0000       3.667071        99.7861 
 254   0.0000       3.755128       102.1822 
 255   0.0000       3.767618       102.5221 
 256   0.0000       3.795280       103.2748 
 257   0.0000       3.823851       104.0523 
 258   0.0000       3.849388       104.7472 
 259   0.0000       3.906520       106.3018 
 260   0.0000       3.966141       107.9242 
 261   0.0000       4.031177       109.6939 
 262   0.0000       4.040378       109.9443 
 263   0.0000       4.041659       109.9791 
 264   0.0000       4.114684       111.9663 
 265   0.0000       4.119202       112.0892 
 266   0.0000       4.140198       112.6605 
 267   0.0000       4.185818       113.9019 
 268   0.0000       4.308294       117.2346 
 269   0.0000       4.375177       119.0546 
 270   0.0000       4.400069       119.7320 
 271   0.0000       4.431554       120.5887 
 272   0.0000       4.461395       121.4007 
 273   0.0000       4.491514       122.2203 
 274   0.0000       4.606524       125.3499 
 275   0.0000       4.624474       125.8383 
 276   0.0000       4.662806       126.8814 
 277   0.0000       4.707713       128.1034 
 278   0.0000       4.720784       128.4591 
 279   0.0000       4.746592       129.1613 
 280   0.0000       4.904730       133.4645 
 281   0.0000       4.949592       134.6852 
 282   0.0000       5.131264       139.6288 
 283   0.0000       5.132924       139.6740 
 284   0.0000       5.138377       139.8223 
 285   0.0000       5.154317       140.2561 
 286   0.0000       5.166331       140.5830 
 287   0.0000       5.169020       140.6562 
 288   0.0000       5.190965       141.2534 
 289   0.0000       5.193572       141.3243 
 290   0.0000       5.220528       142.0578 
 291   0.0000       5.271878       143.4551 
 292   0.0000       5.279976       143.6754 
 293   0.0000       5.286502       143.8530 
 294   0.0000       5.351434       145.6199 
 295   0.0000       5.363682       145.9532 
 296   0.0000       5.378120       146.3461 
 297   0.0000       5.416743       147.3971 
 298   0.0000       5.432986       147.8391 
 299   0.0000       5.521464       150.2467 
 300   0.0000       5.589117       152.0876 
 301   0.0000       5.600304       152.3920 
 302   0.0000       5.615948       152.8177 
 303   0.0000       5.636577       153.3791 
 304   0.0000       5.701118       155.1353 
 305   0.0000       5.797719       157.7640 
 306   0.0000       5.893003       160.3568 
 307   0.0000       5.929577       161.3520 
 308   0.0000       5.963042       162.2626 
 309   0.0000       5.977377       162.6527 
 310   0.0000       6.145199       167.2194 
 311   0.0000       6.181805       168.2155 
 312   0.0000       6.257216       170.2675 
 313   0.0000       6.273117       170.7002 
 314   0.0000       6.308745       171.6697 
 315   0.0000       6.315865       171.8634 
 316   0.0000       6.328077       172.1957 
 317   0.0000       6.360740       173.0845 
 318   0.0000       6.375638       173.4899 
 319   0.0000       6.384429       173.7292 
 320   0.0000       6.399535       174.1402 
 321   0.0000       6.414787       174.5552 
 322   0.0000       6.455983       175.6762 
 323   0.0000       6.475505       176.2075 
 324   0.0000       6.501291       176.9091 
 325   0.0000       6.660482       181.2409 
 326   0.0000       6.695067       182.1820 
 327   0.0000       6.754427       183.7973 
 328   0.0000       6.769209       184.1996 
 329   0.0000       6.823930       185.6886 
 330   0.0000       6.850143       186.4019 
 331   0.0000       6.861698       186.7163 
 332   0.0000       6.875834       187.1009 
 333   0.0000       6.898785       187.7255 
 334   0.0000       6.970003       189.6634 
 335   0.0000       7.040040       191.5692 
 336   0.0000       7.080046       192.6579 
 337   0.0000       7.100443       193.2129 
 338   0.0000       7.131557       194.0595 
 339   0.0000       7.199520       195.9089 
 340   0.0000       7.216894       196.3817 
 341   0.0000       7.236883       196.9256 
 342   0.0000       7.372870       200.6260 
 343   0.0000       7.431986       202.2346 
 344   0.0000       7.480758       203.5618 
 345   0.0000      10.720869       291.7297 
 346   0.0000      10.738292       292.2038 
 347   0.0000      11.200947       304.7933 
 348   0.0000      22.159019       602.9776 
 349   0.0000      22.434307       610.4685 
 350   0.0000      23.341396       635.1517 
 351   0.0000      25.291819       688.2254 
 352   0.0000      32.232166       877.0818 
 353   0.0000      43.658879      1188.0185 
 354   0.0000      43.796257      1191.7567 
 355   0.0000      43.897391      1194.5087 
 356   0.0000      43.936711      1195.5787 
 357   0.0000      43.989149      1197.0056 
-------
TIMINGS
-------

Total SCF time: 0 days 0 hours 0 min 11 sec 

Total time                  ....      11.102 sec
Sum of individual times     ....       9.841 sec  ( 88.6%)

Fock matrix formation       ....       7.130 sec  ( 64.2%)
  Split-RI-J                ....       1.383 sec  ( 19.4% of F)
  Chain of spheres X        ....       2.988 sec  ( 41.9% of F)
  XC integration            ....       0.858 sec  ( 12.0% of F)
    Basis function eval.    ....       0.078 sec  (  9.1% of XC)
    Density eval.           ....       0.173 sec  ( 20.1% of XC)
    XC-Functional eval.     ....       0.008 sec  (  0.9% of XC)
    XC-Potential eval.      ....       0.079 sec  (  9.2% of XC)
Diagonalization             ....       0.136 sec  (  1.2%)
Density matrix formation    ....       0.092 sec  (  0.8%)
Population analysis         ....       0.000 sec  (  0.0%)
Initial guess               ....       0.157 sec  (  1.4%)
Orbital Transformation      ....       0.000 sec  (  0.0%)
Orbital Orthonormalization  ....       0.124 sec  (  1.1%)
DIIS solution               ....       0.068 sec  (  0.6%)
SOSCF solution              ....       0.799 sec  (  7.2%)
Grid generation             ....       1.459 sec  ( 13.1%)

Maximum memory used throughout the entire SCF-calculation: 82.2 MB


-------------------------------------------------------------------------------
                          DFT DISPERSION CORRECTION                            
                                                                               
                              DFTD3 V3.1  Rev 1                                
                          USING Becke-Johnson damping                          
-------------------------------------------------------------------------------
The B3LYP functional is recognized
Active option DFTDOPT                   ...         4   

molecular C6(AA) [au] = 3178.699750 


            DFT-D V3
 parameters
 s6 scaling factor         :     1.0000 
 a1 scaling factor         :     0.3981 
 s8 scaling factor         :     1.9889 
 a2 scaling factor         :     4.4211 
 ad hoc parameters k1-k3   :    16.0000     1.3333    -4.0000 

 Edisp/kcal,au: -15.178456271537  -0.024188407155 
 E6   /kcal   :  -7.412686524 
 E8   /kcal   :  -7.765769748 
 % E8         :  51.163106502 

-------------------------   ----------------
Dispersion correction           -0.024188407
-------------------------   ----------------


-------------------------   --------------------
FINAL SINGLE POINT ENERGY     -1009.624661344769
-------------------------   --------------------

                                *** OPTIMIZATION RUN DONE ***


                    ***********************HURRAY************************
                    ***        THE TS OPTIMIZATION HAS CONVERGED      ***
                    *****************************************************



---------------------------------------------------------------
                      PATH SUMMARY FOR NEB-TS             
---------------------------------------------------------------
All forces in Eh/Bohr. Global forces for TS.

Image     E(Eh)   dE(kcal/mol)  max(|Fp|)  RMS(Fp)
  0   -1009.65702     0.00       0.00248   0.00063
  1   -1009.65569     0.83       0.00208   0.00059
  2   -1009.65275     2.68       0.00345   0.00143
  3   -1009.64363     8.40       0.00310   0.00105
  4   -1009.62195    22.01       0.00119   0.00054 <= CI
 TS   -1009.62466    20.30       0.00147   0.00030 <= TS
  5   -1009.63017    16.85       0.00518   0.00173
  6   -1009.63141    16.07       0.01506   0.00378
  7   -1009.63370    14.63       0.00242   0.00065
----------
STATISTICS
----------

For the individual parts of the NEB, NEB-CI or NEB-TS run:

Number of iterations:
     NEB                               ... 65  70.7%
     TS optimization                   ... 27  29.3%
Number of SCF / gradient calculations:
     NEB                               ... 548  95.3%
     TS optimization                   ... 27  4.7%

----------
 TIMINGS
----------

For the individual parts of the NEB, NEB-CI or NEB-TS run:

Total                                  ...     5528.182 sec
NEB                                    ...     4649.339 sec  84.1%
TS Optimization                        ...      878.843 sec  15.9%


                            ***************************************
                            *     ORCA property calculations      *
                            ***************************************

                                    ---------------------
                                    Active property flags
                                    ---------------------
   (+) Dipole Moment


------------------------------------------------------------------------------
                       ORCA ELECTRIC PROPERTIES CALCULATION
------------------------------------------------------------------------------

Dipole Moment Calculation                       ... on
Quadrupole Moment Calculation                   ... off
Polarizability Calculation                      ... off
GBWName                                         ... neb.gbw
Electron density                                ... neb.scfp
The origin for moment calculation is the CENTER OF MASS  = ( 1.106154,  0.253284  0.320542)

-------------
DIPOLE MOMENT
-------------
                                X             Y             Z
Electronic contribution:      9.68073      -0.07818       1.62909
Nuclear contribution   :    -10.00164      -2.02448      -3.00148
                        -----------------------------------------
Total Dipole Moment    :     -0.32091      -2.10266      -1.37239
                        -----------------------------------------
Magnitude (a.u.)       :      2.53132
Magnitude (Debye)      :      6.43411



--------------------
Rotational spectrum 
--------------------
 
Rotational constants in cm-1:     0.045065     0.019118     0.017508 
Rotational constants in MHz :  1351.021247   573.148429   524.870992 

 Dipole components along the rotational axes: 
x,y,z [a.u.] :     0.055783    -2.509732    -0.325166 
x,y,z [Debye]:     0.141788    -6.379232    -0.826507 

 

Timings for individual modules:

Sum of individual times         ...     5566.652 sec (=  92.778 min)
GTO integral calculation        ...      128.181 sec (=   2.136 min)   2.3 %
SCF iterations                  ...      586.252 sec (=   9.771 min)  10.5 %
SCF Gradient evaluation         ...      202.358 sec (=   3.373 min)   3.6 %
Geometry relaxation             ...        0.522 sec (=   0.009 min)   0.0 %
NEB Iterations                  ...     4649.339 sec (=  77.489 min)  83.5 %
                             ****ORCA TERMINATED NORMALLY****
TOTAL RUN TIME: 0 days 1 hours 32 minutes 17 seconds 136 msec
