 *******************************************************************************
 **                                                                           **
 **                              MOPAC v22.0.6                                **
 **                                                                           **
 *******************************************************************************
 **          Digital Object Identifier (DOI): 10.5281/zenodo.6511958          **
 **    Visit the DOI location for information on how to cite this program.    **
 *******************************************************************************

                              PM7 CALCULATION RESULTS

 *******************************************************************************
 *  CALCULATION DONE:                                Mon Mar 25 23:19:42 2024  *
 *  PM7        - The PM7 Hamiltonian to be used
 *  SINGLET    - SPIN STATE DEFINED AS A SINGLET
 *
 *
 *
 *                 CHARGE ON SYSTEM = -1
 *
 *
 *
 *  EPS=78.4   - USE ANDREAS KLAMT'S COSMO IMPLICIT SOLVATION MODEL
 *  T=         - A TIME OF 14.0 DAYS REQUESTED
 *  DUMP=N     - RESTART FILE WRITTEN EVERY 30.0 MINUTES REQUESTED
 *  RELSCF     - DEFAULT SCF CRITERION MULTIPLIED BY 1.0000
 *              (DEFAULT SCF CRITERION = 0.00010)
 *  ITRY=      - DO A MAXIMUM OF 15000 ITERATIONS FOR SCF
 *  AUX        - OUTPUT AUXILIARY INFORMATION
 *  BONDS      - FINAL BOND-ORDER MATRIX TO BE PRINTED
 *******************************************************************************
PM7 BONDS AUX DUMP=30M ITRY=15000 T=14D CHARGE=-1 SINGLET eps=78.4 RELSCF=1
 Title: ASE calculation

   ATOM   CHEMICAL          X               Y               Z
  NUMBER   SYMBOL      (ANGSTROMS)     (ANGSTROMS)     (ANGSTROMS)

     1       C          0.15133000  *   1.25816000  *   0.58990000  *
     2       C          0.49656000  *   1.03336000  *  -0.73896000  *
     3       C          0.31536000  *  -0.22534000  *  -1.33757000  *
     4       C         -0.20049000  *  -1.26511000  *  -0.55438000  *
     5       C         -0.52253000  *  -1.03024000  *   0.78582000  *
     6       C         -0.36266000  *   0.22898000  *   1.37146000  *
     7       H          0.28270000  *   2.25214000  *   1.02575000  *
     8       H          0.89355000  *   1.86479000  *  -1.33093000  *
     9       H         -0.37506000  *  -2.25553000  *  -0.98775000  *
    10       H         -0.62984000  *   0.40235000  *   2.41792000  *
    11       N         -1.03816000  *  -2.11466000  *   1.58420000  *
    12       O         -1.36169000  *  -1.90394000  *   2.74724000  *
    13       O         -1.13806000  *  -3.23203000  *   1.09044000  *
    14       C          0.61286000  *  -0.43932000  *  -2.74836000  *
    15       H          2.60591000  *  -0.21740000  *  -2.83394000  *
    16       C          0.65444000  *  -1.84058000  *  -3.27304000  *
    17       H          1.03437000  *  -1.90389000  *  -4.30301000  *
    18       H         -0.36402000  *  -2.26855000  *  -3.30380000  *
    19       H          1.26282000  *  -2.51089000  *  -2.65287000  *
    20       N          0.22756000  *   0.51566000  *  -3.64803000  *
    21       O          0.39763000  *   0.35120000  *  -4.87456000  *
    22       O         -0.25514000  *   1.60689000  *  -3.27841000  *
    23       O          6.62776000  *   1.37579000  *  -2.92278000  *
    24       H          6.08101000  *   0.66867000  *  -2.89281000  *
    25       H          3.86192000  *   0.37948000  *  -2.02732000  *
    26       H          3.74838000  *   0.60524000  *  -3.60750000  *
    27       O          3.64019000  *  -0.12177000  *  -2.89472000  *



          CARTESIAN COORDINATES 

    NO.       ATOM           X           Y           Z

     1         C          0.1513      1.2582      0.5899
     2         C          0.4966      1.0334     -0.7390
     3         C          0.3154     -0.2253     -1.3376
     4         C         -0.2005     -1.2651     -0.5544
     5         C         -0.5225     -1.0302      0.7858
     6         C         -0.3627      0.2290      1.3715
     7         H          0.2827      2.2521      1.0257
     8         H          0.8935      1.8648     -1.3309
     9         H         -0.3751     -2.2555     -0.9878
    10         H         -0.6298      0.4024      2.4179
    11         N         -1.0382     -2.1147      1.5842
    12         O         -1.3617     -1.9039      2.7472
    13         O         -1.1381     -3.2320      1.0904
    14         C          0.6129     -0.4393     -2.7484
    15         H          2.6059     -0.2174     -2.8339
    16         C          0.6544     -1.8406     -3.2730
    17         H          1.0344     -1.9039     -4.3030
    18         H         -0.3640     -2.2685     -3.3038
    19         H          1.2628     -2.5109     -2.6529
    20         N          0.2276      0.5157     -3.6480
    21         O          0.3976      0.3512     -4.8746
    22         O         -0.2551      1.6069     -3.2784
    23         O          6.6278      1.3758     -2.9228
    24         H          6.0810      0.6687     -2.8928
    25         H          3.8619      0.3795     -2.0273
    26         H          3.7484      0.6052     -3.6075
    27         O          3.6402     -0.1218     -2.8947

 General Reference for PM7:
 "Optimization of Parameters for Semiempirical Methods VI: More Modifications to the 
 NDDO Approximations and Re-optimization of Parameters", J. J. P. Stewart, J. Mol. Mod., 1:32, 19 (2013)
 https://link.springer.com/article/10.1007/s00894-012-1667-x

           Empirical Formula: C8 H11 N2 O6  =    27 atoms



      MOLECULAR POINT GROUP   :   C1  


 SINGLET STATE CALCULATION


      RHF CALCULATION, NO. OF DOUBLY OCCUPIED LEVELS = 45


          Geometry optimization using EF
  SCF CRITERION =    0.1000E-03

          DIAGONAL MATRIX USED AS START HESSIAN

 CYCLE:     1 TIME:   0.234 TIME LEFT:  2.00W  GRAD.:    18.533 HEAT: -188.0859
 CYCLE:     2 TIME:   0.156 TIME LEFT:  2.00W  GRAD.:    15.308 HEAT: -188.2229
 CYCLE:     3 TIME:   0.078 TIME LEFT:  2.00W  GRAD.:    16.843 HEAT: -188.3334
 CYCLE:     4 TIME:   0.062 TIME LEFT:  2.00W  GRAD.:    19.811 HEAT: -188.4450
 CYCLE:     5 TIME:   0.102 TIME LEFT:  2.00W  GRAD.:    18.874 HEAT: -188.5795
 CYCLE:     6 TIME:   0.070 TIME LEFT:  2.00W  GRAD.:    37.704 HEAT: -188.6793
 CYCLE:     7 TIME:   0.102 TIME LEFT:  2.00W  GRAD.:    21.974 HEAT: -189.0924
 CYCLE:     8 TIME:   0.570 TIME LEFT:  2.00W  GRAD.:    12.145 HEAT: -189.1858
 CYCLE:     9 TIME:   0.297 TIME LEFT:  2.00W  GRAD.:     9.336 HEAT: -189.2040
 CYCLE:    10 TIME:   0.484 TIME LEFT:  2.00W  GRAD.:     9.220 HEAT: -189.2061

     TRUST RADIUS NOW LESS THAN  0.00010 OPTIMIZATION TERMINATING
      THE GEOMETRY MAY NOT BE COMPLETELY OPTIMIZED
      (TO CONTINUE, ADD 'LET DDMIN=0.0' TO THE KEYWORD LINE)

 -------------------------------------------------------------------------------
 PM7 BONDS AUX DUMP=30M ITRY=15000 T=14D CHARGE=-1 SINGLET eps=78.4 RELSCF=1
 Title: ASE calculation



     GEOMETRY OPTIMISED USING EIGENVECTOR FOLLOWING (EF).     
     SCF FIELD WAS ACHIEVED                                   


                              PM7 CALCULATION
                                                       MOPAC v22.0.6 Linux
                                                       Mon Mar 25 23:19:44 2024




          FINAL HEAT OF FORMATION =       -189.20606 KCAL/MOL =    -791.63816 KJ/MOL
          VAN DER WAALS AREA      =        262.20 SQUARE ANGSTROMS



          DIELECTRIC ENERGY       =         -5.18000 EV
          COSMO AREA              =        262.20 SQUARE ANGSTROMS
          COSMO VOLUME            =        269.25 CUBIC ANGSTROMS

          GRADIENT NORM           =          9.22001          =       1.77439 PER ATOM
          IONIZATION POTENTIAL    =          8.786588 EV
          HOMO LUMO ENERGIES (EV) =         -8.787 -1.336
          NO. OF FILLED LEVELS    =         45
          MOLECULAR WEIGHT        =        231.1847         POINT GROUP:  C1  

          MOLECULAR DIMENSIONS (Angstroms)

            Atom       Atom       Distance
            O    23    O    12    10.33190
            H    17    H     7     6.42890
            H    24    O    22     4.66586


          SCF CALCULATIONS        =         24

          WALL-CLOCK TIME         =      2.664 SECONDS
          COMPUTATION TIME        =          2 MINUTES AND 59.902 SECONDS



       FINAL  POINT  AND  DERIVATIVES

   PARAMETER     ATOM    TYPE            VALUE        GRADIENT
      1          1  C    CARTESIAN X     0.156457     -0.394794  KCAL/ANGSTROM
      2          1  C    CARTESIAN Y     1.256956     -0.407405  KCAL/ANGSTROM
      3          1  C    CARTESIAN Z     0.590981      0.157507  KCAL/ANGSTROM
      4          2  C    CARTESIAN X     0.499315      0.083241  KCAL/ANGSTROM
      5          2  C    CARTESIAN Y     1.033487      0.113982  KCAL/ANGSTROM
      6          2  C    CARTESIAN Z    -0.739532     -0.250192  KCAL/ANGSTROM
      7          3  C    CARTESIAN X     0.307411      0.248593  KCAL/ANGSTROM
      8          3  C    CARTESIAN Y    -0.223474     -0.487371  KCAL/ANGSTROM
      9          3  C    CARTESIAN Z    -1.338680      0.068413  KCAL/ANGSTROM
     10          4  C    CARTESIAN X    -0.197676      0.363942  KCAL/ANGSTROM
     11          4  C    CARTESIAN Y    -1.266619     -0.402326  KCAL/ANGSTROM
     12          4  C    CARTESIAN Z    -0.554266     -1.059005  KCAL/ANGSTROM
     13          5  C    CARTESIAN X    -0.515490     -0.008661  KCAL/ANGSTROM
     14          5  C    CARTESIAN Y    -1.031996      0.630688  KCAL/ANGSTROM
     15          5  C    CARTESIAN Z     0.787168     -0.024881  KCAL/ANGSTROM
     16          6  C    CARTESIAN X    -0.357896     -0.236172  KCAL/ANGSTROM
     17          6  C    CARTESIAN Y     0.227654      0.122847  KCAL/ANGSTROM
     18          6  C    CARTESIAN Z     1.372373     -0.172435  KCAL/ANGSTROM
     19          7  H    CARTESIAN X     0.285934     -0.532534  KCAL/ANGSTROM
     20          7  H    CARTESIAN Y     2.251670      0.292653  KCAL/ANGSTROM
     21          7  H    CARTESIAN Z     1.026597     -0.016422  KCAL/ANGSTROM
     22          8  H    CARTESIAN X     0.904691     -0.573436  KCAL/ANGSTROM
     23          8  H    CARTESIAN Y     1.863045      0.175041  KCAL/ANGSTROM
     24          8  H    CARTESIAN Z    -1.327526     -0.046451  KCAL/ANGSTROM
     25          9  H    CARTESIAN X    -0.365744     -0.392319  KCAL/ANGSTROM
     26          9  H    CARTESIAN Y    -2.257654      0.428287  KCAL/ANGSTROM
     27          9  H    CARTESIAN Z    -0.986611      0.141192  KCAL/ANGSTROM
     28         10  H    CARTESIAN X    -0.630090     -0.213782  KCAL/ANGSTROM
     29         10  H    CARTESIAN Y     0.402367      0.050914  KCAL/ANGSTROM
     30         10  H    CARTESIAN Z     2.416934      0.069058  KCAL/ANGSTROM
     31         11  N    CARTESIAN X    -1.033193     -0.411897  KCAL/ANGSTROM
     32         11  N    CARTESIAN Y    -2.116751      0.172004  KCAL/ANGSTROM
     33         11  N    CARTESIAN Z     1.585661      1.521478  KCAL/ANGSTROM
     34         12  O    CARTESIAN X    -1.359734     -0.081090  KCAL/ANGSTROM
     35         12  O    CARTESIAN Y    -1.905374      0.106578  KCAL/ANGSTROM
     36         12  O    CARTESIAN Z     2.747168     -0.312098  KCAL/ANGSTROM
     37         13  O    CARTESIAN X    -1.135405     -0.072681  KCAL/ANGSTROM
     38         13  O    CARTESIAN Y    -3.233083     -0.715569  KCAL/ANGSTROM
     39         13  O    CARTESIAN Z     1.089516     -0.441089  KCAL/ANGSTROM
     40         14  C    CARTESIAN X     0.589703     -1.158604  KCAL/ANGSTROM
     41         14  C    CARTESIAN Y    -0.438738      0.603940  KCAL/ANGSTROM
     42         14  C    CARTESIAN Z    -2.751228      0.826524  KCAL/ANGSTROM
     43         15  H    CARTESIAN X     2.522710      3.178325  KCAL/ANGSTROM
     44         15  H    CARTESIAN Y    -0.204938     -2.896467  KCAL/ANGSTROM
     45         15  H    CARTESIAN Z    -2.830395     -0.684330  KCAL/ANGSTROM
     46         16  C    CARTESIAN X     0.663201     -0.643675  KCAL/ANGSTROM
     47         16  C    CARTESIAN Y    -1.841281     -0.602748  KCAL/ANGSTROM
     48         16  C    CARTESIAN Z    -3.271928     -0.470496  KCAL/ANGSTROM
     49         17  H    CARTESIAN X     1.059491     -1.429576  KCAL/ANGSTROM
     50         17  H    CARTESIAN Y    -1.899170     -0.307723  KCAL/ANGSTROM
     51         17  H    CARTESIAN Z    -4.295830     -0.084300  KCAL/ANGSTROM
     52         18  H    CARTESIAN X    -0.343579     -1.514864  KCAL/ANGSTROM
     53         18  H    CARTESIAN Y    -2.293657      0.864772  KCAL/ANGSTROM
     54         18  H    CARTESIAN Z    -3.310901      0.222272  KCAL/ANGSTROM
     55         19  H    CARTESIAN X     1.283650     -0.973739  KCAL/ANGSTROM
     56         19  H    CARTESIAN Y    -2.495000     -0.883711  KCAL/ANGSTROM
     57         19  H    CARTESIAN Z    -2.643704     -0.263694  KCAL/ANGSTROM
     58         20  N    CARTESIAN X     0.229542     -0.798528  KCAL/ANGSTROM
     59         20  N    CARTESIAN Y     0.519739     -0.574440  KCAL/ANGSTROM
     60         20  N    CARTESIAN Z    -3.654608      0.237330  KCAL/ANGSTROM
     61         21  O    CARTESIAN X     0.399022      0.471788  KCAL/ANGSTROM
     62         21  O    CARTESIAN Y     0.343933      0.416364  KCAL/ANGSTROM
     63         21  O    CARTESIAN Z    -4.879215      1.123916  KCAL/ANGSTROM
     64         22  O    CARTESIAN X    -0.217978     -2.073273  KCAL/ANGSTROM
     65         22  O    CARTESIAN Y     1.626987     -1.437722  KCAL/ANGSTROM
     66         22  O    CARTESIAN Z    -3.289961     -0.013865  KCAL/ANGSTROM
     67         23  O    CARTESIAN X     6.625639      0.074940  KCAL/ANGSTROM
     68         23  O    CARTESIAN Y     1.385690     -0.096373  KCAL/ANGSTROM
     69         23  O    CARTESIAN Z    -2.923014      0.140121  KCAL/ANGSTROM
     70         24  H    CARTESIAN X     6.092117     -0.707145  KCAL/ANGSTROM
     71         24  H    CARTESIAN Y     0.668255      0.037172  KCAL/ANGSTROM
     72         24  H    CARTESIAN Z    -2.888414     -0.073507  KCAL/ANGSTROM
     73         25  H    CARTESIAN X     3.853134      3.605563  KCAL/ANGSTROM
     74         25  H    CARTESIAN Y     0.376672      2.267431  KCAL/ANGSTROM
     75         25  H    CARTESIAN Z    -2.025733      1.218519  KCAL/ANGSTROM
     76         26  H    CARTESIAN X     3.749629      1.581565  KCAL/ANGSTROM
     77         26  H    CARTESIAN Y     0.579716      2.176018  KCAL/ANGSTROM
     78         26  H    CARTESIAN Z    -3.598008      0.409374  KCAL/ANGSTROM
     79         27  O    CARTESIAN X     3.589950      2.608897  KCAL/ANGSTROM
     80         27  O    CARTESIAN Y    -0.134175      0.353209  KCAL/ANGSTROM
     81         27  O    CARTESIAN Z    -2.880712     -2.222894  KCAL/ANGSTROM




   ATOM   CHEMICAL          X               Y               Z
  NUMBER   SYMBOL      (ANGSTROMS)     (ANGSTROMS)     (ANGSTROMS)

     1       C          0.15645726  *   1.25695591  *   0.59098119  *
     2       C          0.49931481  *   1.03348683  *  -0.73953161  *
     3       C          0.30741095  *  -0.22347396  *  -1.33868032  *
     4       C         -0.19767633  *  -1.26661930  *  -0.55426621  *
     5       C         -0.51549027  *  -1.03199573  *   0.78716835  *
     6       C         -0.35789609  *   0.22765368  *   1.37237262  *
     7       H          0.28593408  *   2.25166987  *   1.02659726  *
     8       H          0.90469141  *   1.86304545  *  -1.32752647  *
     9       H         -0.36574439  *  -2.25765378  *  -0.98661103  *
    10       H         -0.63008972  *   0.40236690  *   2.41693377  *
    11       N         -1.03319330  *  -2.11675090  *   1.58566082  *
    12       O         -1.35973413  *  -1.90537396  *   2.74716806  *
    13       O         -1.13540504  *  -3.23308274  *   1.08951565  *
    14       C          0.58970252  *  -0.43873755  *  -2.75122793  *
    15       H          2.52271032  *  -0.20493824  *  -2.83039453  *
    16       C          0.66320083  *  -1.84128074  *  -3.27192811  *
    17       H          1.05949120  *  -1.89916972  *  -4.29582962  *
    18       H         -0.34357922  *  -2.29365679  *  -3.31090112  *
    19       H          1.28365025  *  -2.49499950  *  -2.64370369  *
    20       N          0.22954246  *   0.51973890  *  -3.65460769  *
    21       O          0.39902199  *   0.34393304  *  -4.87921524  *
    22       O         -0.21797803  *   1.62698665  *  -3.28996058  *
    23       O          6.62563900  *   1.38568957  *  -2.92301367  *
    24       H          6.09211687  *   0.66825451  *  -2.88841405  *
    25       H          3.85313432  *   0.37667215  *  -2.02573253  *
    26       H          3.74962902  *   0.57971630  *  -3.59800811  *
    27       O          3.58994989  *  -0.13417489  *  -2.88071199  *

                             CARTESIAN COORDINATES

   1    C        0.156457260     1.256955912     0.590981187
   2    C        0.499314809     1.033486829    -0.739531610
   3    C        0.307410948    -0.223473956    -1.338680321
   4    C       -0.197676331    -1.266619302    -0.554266210
   5    C       -0.515490270    -1.031995731     0.787168346
   6    C       -0.357896087     0.227653678     1.372372620
   7    H        0.285934080     2.251669873     1.026597258
   8    H        0.904691414     1.863045445    -1.327526473
   9    H       -0.365744394    -2.257653785    -0.986611029
  10    H       -0.630089719     0.402366900     2.416933766
  11    N       -1.033193304    -2.116750902     1.585660815
  12    O       -1.359734132    -1.905373956     2.747168064
  13    O       -1.135405038    -3.233082745     1.089515645
  14    C        0.589702525    -0.438737550    -2.751227933
  15    H        2.522710319    -0.204938239    -2.830394527
  16    C        0.663200832    -1.841280739    -3.271928108
  17    H        1.059491200    -1.899169717    -4.295829618
  18    H       -0.343579224    -2.293656794    -3.310901119
  19    H        1.283650254    -2.494999504    -2.643703691
  20    N        0.229542457     0.519738903    -3.654607689
  21    O        0.399021990     0.343933040    -4.879215236
  22    O       -0.217978026     1.626986655    -3.289960577
  23    O        6.625639002     1.385689566    -2.923013669
  24    H        6.092116865     0.668254514    -2.888414055
  25    H        3.853134319     0.376672148    -2.025732532
  26    H        3.749629018     0.579716303    -3.598008109
  27    O        3.589949894    -0.134174888    -2.880711986


           Empirical Formula: C8 H11 N2 O6  =    27 atoms



      MOLECULAR POINT GROUP   :   C1  


                  EIGENVALUES  
 -37.40174 -36.34916 -32.77527 -31.22277 -30.72504 -28.97175 -28.34547 -27.42763
 -25.87890 -24.86953 -24.65112 -24.21582 -22.00236 -21.21154 -19.93893 -19.37253
 -19.21075 -19.03080 -18.13883 -17.55991 -17.40000 -16.97200 -16.65930 -16.45569
 -16.07619 -15.49901 -14.95823 -14.32306 -13.84800 -13.64789 -13.21214 -13.20142
 -12.96322 -12.35637 -11.91165 -11.79723 -11.64063 -11.31927 -11.10314 -11.02074
 -10.75926 -10.46872 -10.32463 -10.31180  -8.78659  -1.33586  -0.37871   0.29499
   0.37904   0.55787   0.98539   1.64664   2.16660   3.25960   3.61163   3.74210
   3.79719   4.05602   4.15724   4.29410   4.38597   4.52822   4.79720   4.82220
   5.18861   5.41267   5.52684   5.64835   5.77179   5.81045   5.87338   5.91322
   5.98967   6.98795   8.06856


              NET ATOMIC CHARGES AND DIPOLE CONTRIBUTIONS

  ATOM NO.   TYPE          CHARGE      No. of ELECS.   s-Pop       p-Pop       
    1          C          -0.157614        4.1576     1.08647     3.07114
    2          C          -0.113987        4.1140     1.09682     3.01716
    3          C           0.047409        3.9526     1.05980     2.89279
    4          C          -0.129408        4.1294     1.09278     3.03663
    5          C          -0.073191        4.0732     1.06985     3.00334
    6          C          -0.108656        4.1087     1.09141     3.01725
    7          H           0.178233        0.8218     0.82177
    8          H           0.185333        0.8147     0.81467
    9          H           0.193289        0.8067     0.80671
   10          H           0.187404        0.8126     0.81260
   11          N           0.671108        4.3289     1.45012     2.87877
   12          O          -0.466145        6.4661     1.94080     4.52535
   13          O          -0.468374        6.4684     1.94097     4.52740
   14          C          -0.373979        4.3740     1.05926     3.31472
   15          H           0.424780        0.5752     0.57522
   16          C          -0.415386        4.4154     1.04518     3.37020
   17          H           0.165031        0.8350     0.83497
   18          H           0.150860        0.8491     0.84914
   19          H           0.164472        0.8355     0.83553
   20          N           0.709609        4.2904     1.42986     2.86053
   21          O          -0.632971        6.6330     1.94367     4.68930
   22          O          -0.638684        6.6387     1.94360     4.69508
   23          O          -1.326097        7.3261     1.87409     5.45201
   24          H           0.327230        0.6728     0.67277
   25          H           0.443584        0.5564     0.55642
   26          H           0.438770        0.5612     0.56123
   27          O          -0.382622        6.3826     1.79698     4.58564
 DIPOLE           X         Y         Z       TOTAL
 POINT-CHG.   -12.860    -6.568     8.343    16.678
 HYBRID        -1.246    -0.256     0.169     1.283
 SUM          -14.106    -6.825     8.512    17.833


          ATOMIC ORBITAL ELECTRON POPULATIONS

     Atom    s        px        py        pz   
    1  C   1.08647   0.99461   1.07456   1.00197
    2  C   1.09682   0.96857   1.04321   1.00538
    3  C   1.05980   0.96099   0.96917   0.96264
    4  C   1.09278   0.96613   1.09730   0.97320
    5  C   1.06985   1.11240   0.91775   0.97320
    6  C   1.09141   0.96645   0.96137   1.08943
    7  H   0.82177
    8  H   0.81467
    9  H   0.80671
   10  H   0.81260
   11  N   1.45012   0.92189   0.98863   0.96825
   12  O   1.94080   1.56340   1.88189   1.08005
   13  O   1.94097   1.62243   1.16859   1.73639
   14  C   1.05926   1.44520   0.95501   0.91452
   15  H   0.57522
   16  C   1.04518   1.18985   1.01313   1.16722
   17  H   0.83497
   18  H   0.84914
   19  H   0.83553
   20  N   1.42986   0.92663   0.97189   0.96201
   21  O   1.94367   1.72274   1.88975   1.07681
   22  O   1.94360   1.61713   1.22457   1.85339
   23  O   1.87409   1.80502   1.64784   1.99915
   24  H   0.67277
   25  H   0.55642
   26  H   0.56123
   27  O   1.79698   1.53562   1.57025   1.47977

          BONDING CONTRIBUTION OF EACH M.O.

  1.3444  1.3922  1.0795  1.8851  0.9967  1.0215  1.6621  1.4807  1.5112  1.5152
  1.0916  1.2538  1.6613  1.5157  1.5043  1.5339  1.5259  1.4210  1.2176  1.5234
  1.2132  1.5661  1.5190  1.8193  0.8044  1.8828  1.9582  1.8356  1.8547  1.8636
  1.8706  0.7509  1.8101  1.9968  0.8454  0.2974  0.6639  0.5924  0.5271  0.5926
  1.5418  1.8785  0.0006  0.0002  1.3245 -2.2097 -2.0251 -2.1391 -2.0007 -2.0998
 -2.1607 -2.1094 -2.0329 -1.9540 -1.9379 -1.9137 -1.7176 -1.5985 -1.9764 -2.0286
 -1.9963 -1.9602 -1.9727 -1.9718 -1.9878 -1.9580 -1.9559 -1.9625 -1.9534 -1.9778
 -1.9598 -1.9507 -1.9493 -1.9039 -1.7827





            (VALENCIES)   BOND ORDERS

     1  C     (3.968)     6  C 1.446     2  C 1.446     7  H 0.955     4  C 0.097

     2  C     (3.961)     1  C 1.446     3  C 1.381     8  H 0.951     5  C 0.104    14  C 0.013     4  C 0.012

     3  C     (3.992)     4  C 1.420     2  C 1.381    14  C 1.048     6  C 0.098    21  O 0.011

     4  C     (3.958)     3  C 1.420     5  C 1.381     9  H 0.946     1  C 0.097    12  O 0.019     6  C 0.016
                         14  C 0.014     2  C 0.012    20  N 0.012    13  O 0.012

     5  C     (3.929)     6  C 1.383     4  C 1.381    11  N 0.906     2  C 0.104    13  O 0.067    12  O 0.067

     6  C     (3.960)     1  C 1.446     5  C 1.383    10  H 0.951     3  C 0.098    13  O 0.019     4  C 0.016
                         12  O 0.012

     7  H     (0.968)     1  C 0.955

     8  H     (0.966)     2  C 0.951

     9  H     (0.963)     4  C 0.946

    10  H     (0.965)     6  C 0.951

    11  N     (3.778)    12  O 1.420    13  O 1.418     5  C 0.906

    12  O     (1.812)    11  N 1.420    13  O 0.284     5  C 0.067     4  C 0.019     6  C 0.012

    13  O     (1.809)    11  N 1.418    12  O 0.284     5  C 0.067     6  C 0.019     4  C 0.012

    14  C     (3.664)    20  N 1.199     3  C 1.048    16  C 0.993    22  O 0.129    21  O 0.129    15  H 0.083
                         27  O 0.027     4  C 0.014     2  C 0.013

    15  H     (0.820)    27  O 0.718    14  C 0.083

    16  C     (3.917)    14  C 0.993    18  H 0.964    17  H 0.962    19  H 0.962    22  O 0.012

    17  H     (0.973)    16  C 0.962

    18  H     (0.977)    16  C 0.964

    19  H     (0.973)    16  C 0.962

    20  N     (3.798)    21  O 1.271    22  O 1.269    14  C 1.199     4  C 0.012

    21  O     (1.620)    20  N 1.271    22  O 0.186    14  C 0.129     3  C 0.011

    22  O     (1.621)    20  N 1.269    21  O 0.186    14  C 0.129    16  C 0.012

    23  O     (0.894)    24  H 0.891

    24  H     (0.893)    23  O 0.891

    25  H     (0.803)    27  O 0.797

    26  H     (0.807)    27  O 0.801

    27  O     (2.358)    26  H 0.801    25  H 0.797    15  H 0.718    14  C 0.027


 **********************
 *                    *
 * JOB ENDED NORMALLY *
 *                    *
 **********************



 TOTAL JOB TIME:             2.68 SECONDS

 == MOPAC DONE ==
