
                                 *****************
                                 * O   R   C   A *
                                 *****************

                                            #,                                       
                                            ###                                      
                                            ####                                     
                                            #####                                    
                                            ######                                   
                                           ########,                                 
                                     ,,################,,,,,                         
                               ,,#################################,,                 
                          ,,##########################################,,             
                       ,#########################################, ''#####,          
                    ,#############################################,,   '####,        
                  ,##################################################,,,,####,       
                ,###########''''           ''''###############################       
              ,#####''   ,,,,##########,,,,          '''####'''          '####       
            ,##' ,,,,###########################,,,                        '##       
           ' ,,###''''                  '''############,,,                           
         ,,##''                                '''############,,,,        ,,,,,,###''
      ,#''                                            '''#######################'''  
     '                                                          ''''####''''         
             ,#######,   #######,   ,#######,      ##                                
            ,#'     '#,  ##    ##  ,#'     '#,    #''#        ######   ,####,        
            ##       ##  ##   ,#'  ##            #'  '#       #        #'  '#        
            ##       ##  #######   ##           ,######,      #####,   #    #        
            '#,     ,#'  ##    ##  '#,     ,#' ,#      #,         ##   #,  ,#        
             '#######'   ##     ##  '#######'  #'      '#     #####' # '####'        



                  #######################################################
                  #                        -***-                        #
                  #          Department of theory and spectroscopy      #
                  #    Directorship and core code : Frank Neese         #
                  #        Max Planck Institute fuer Kohlenforschung    #
                  #                Kaiser Wilhelm Platz 1               #
                  #                 D-45470 Muelheim/Ruhr               #
                  #                      Germany                        #
                  #                                                     #
                  #                  All rights reserved                #
                  #                        -***-                        #
                  #######################################################


                         Program Version 5.0.4 -  RELEASE  -


 With contributions from (in alphabetic order):
   Daniel Aravena         : Magnetic Suceptibility
   Michael Atanasov       : Ab Initio Ligand Field Theory (pilot matlab implementation)
   Alexander A. Auer      : GIAO ZORA, VPT2 properties, NMR spectrum
   Ute Becker             : Parallelization
   Giovanni Bistoni       : ED, misc. LED, open-shell LED, HFLD
   Martin Brehm           : Molecular dynamics
   Dmytro Bykov           : SCF Hessian
   Vijay G. Chilkuri      : MRCI spin determinant printing, contributions to CSF-ICE
   Dipayan Datta          : RHF DLPNO-CCSD density
   Achintya Kumar Dutta   : EOM-CC, STEOM-CC
   Dmitry Ganyushin       : Spin-Orbit,Spin-Spin,Magnetic field MRCI
   Miquel Garcia          : C-PCM and meta-GGA Hessian, CC/C-PCM, Gaussian charge scheme
   Yang Guo               : DLPNO-NEVPT2, F12-NEVPT2, CIM, IAO-localization
   Andreas Hansen         : Spin unrestricted coupled pair/coupled cluster methods
   Benjamin Helmich-Paris : MC-RPA, TRAH-SCF, COSX integrals
   Lee Huntington         : MR-EOM, pCC
   Robert Izsak           : Overlap fitted RIJCOSX, COSX-SCS-MP3, EOM
   Marcus Kettner         : VPT2
   Christian Kollmar      : KDIIS, OOCD, Brueckner-CCSD(T), CCSD density, CASPT2, CASPT2-K
   Simone Kossmann        : Meta GGA functionals, TD-DFT gradient, OOMP2, MP2 Hessian
   Martin Krupicka        : Initial AUTO-CI
   Lucas Lang             : DCDCAS
   Marvin Lechner         : AUTO-CI (C++ implementation), FIC-MRCC
   Dagmar Lenk            : GEPOL surface, SMD
   Dimitrios Liakos       : Extrapolation schemes; Compound Job, initial MDCI parallelization
   Dimitrios Manganas     : Further ROCIS development; embedding schemes
   Dimitrios Pantazis     : SARC Basis sets
   Anastasios Papadopoulos: AUTO-CI, single reference methods and gradients
   Taras Petrenko         : DFT Hessian,TD-DFT gradient, ASA, ECA, R-Raman, ABS, FL, XAS/XES, NRVS
   Peter Pinski           : DLPNO-MP2, DLPNO-MP2 Gradient
   Christoph Reimann      : Effective Core Potentials
   Marius Retegan         : Local ZFS, SOC
   Christoph Riplinger    : Optimizer, TS searches, QM/MM, DLPNO-CCSD(T), (RO)-DLPNO pert. Triples
   Tobias Risthaus        : Range-separated hybrids, TD-DFT gradient, RPA, STAB
   Michael Roemelt        : Original ROCIS implementation
   Masaaki Saitow         : Open-shell DLPNO-CCSD energy and density
   Barbara Sandhoefer     : DKH picture change effects
   Avijit Sen             : IP-ROCIS
   Kantharuban Sivalingam : CASSCF convergence, NEVPT2, FIC-MRCI
   Bernardo de Souza      : ESD, SOC TD-DFT
   Georgi Stoychev        : AutoAux, RI-MP2 NMR, DLPNO-MP2 response
   Willem Van den Heuvel  : Paramagnetic NMR
   Boris Wezisla          : Elementary symmetry handling
   Frank Wennmohs         : Technical directorship


 We gratefully acknowledge several colleagues who have allowed us to
 interface, adapt or use parts of their codes:
   Stefan Grimme, W. Hujo, H. Kruse, P. Pracht,  : VdW corrections, initial TS optimization,
                  C. Bannwarth, S. Ehlert          DFT functionals, gCP, sTDA/sTD-DF
   Ed Valeev, F. Pavosevic, A. Kumar             : LibInt (2-el integral package), F12 methods
   Garnet Chan, S. Sharma, J. Yang, R. Olivares  : DMRG
   Ulf Ekstrom                                   : XCFun DFT Library
   Mihaly Kallay                                 : mrcc  (arbitrary order and MRCC methods)
   Jiri Pittner, Ondrej Demel                    : Mk-CCSD
   Frank Weinhold                                : gennbo (NPA and NBO analysis)
   Christopher J. Cramer and Donald G. Truhlar   : smd solvation model
   Lars Goerigk                                  : TD-DFT with DH, B97 family of functionals
   V. Asgeirsson, H. Jonsson                     : NEB implementation
   FAccTs GmbH                                   : IRC, NEB, NEB-TS, DLPNO-Multilevel, CI-OPT
                                                   MM, QMMM, 2- and 3-layer-ONIOM, Crystal-QMMM,
                                                   LR-CPCM, SF, NACMEs, symmetry and pop. for TD-DFT,
                                                   nearIR, NL-DFT gradient (VV10), updates on ESD,
                                                   ML-optimized integration grids
   S Lehtola, MJT Oliveira, MAL Marques          : LibXC Library
   Liviu Ungur et al                             : ANISO software


 Your calculation uses the libint2 library for the computation of 2-el integrals
 For citations please refer to: http://libint.valeyev.net

 Your ORCA version has been built with support for libXC version: 5.1.0
 For citations please refer to: https://tddft.org/programs/libxc/

 This ORCA versions uses:
   CBLAS   interface :  Fast vector & matrix operations
   LAPACKE interface :  Fast linear algebra routines
   SCALAPACK package :  Parallel linear algebra routines
   Shared memory     :  Shared parallel matrices
   BLAS/LAPACK       :  OpenBLAS 0.3.15  USE64BITINT DYNAMIC_ARCH NO_AFFINITY Prescott SINGLE_THREADED
        Core in use  :  Prescott
   Copyright (c) 2011-2014, The OpenBLAS Project


Your calculation utilizes the atom-pairwise dispersion correction
with the Becke-Johnson damping scheme (D3BJ)
Cite in your paper:
S.Grimme, S.Ehrlich, L.Goerigk, J Comput Chem, (2011), 32, 1456–1465 
S.Grimme, J.Antony, S.Ehrlich and H.Krieg, J.Chem.Phys., 132, (2010), 154104 
   

================================================================================

----- Orbital basis set information -----
Your calculation utilizes the basis: def2-TZVP
   F. Weigend and R. Ahlrichs, Phys. Chem. Chem. Phys. 7, 3297 (2005).

----- AuxJ basis set information -----
Your calculation utilizes the auxiliary basis: def2/J
   F. Weigend, Phys. Chem. Chem. Phys. 8, 1057 (2006).

================================================================================
                                        WARNINGS
                       Please study these warnings very carefully!
================================================================================


WARNING: Geometry Optimization
  ===> : Switching off AutoStart
         For restart on a previous wavefunction, please use MOREAD

INFO   : the flag for use of the SHARK integral package has been found!

================================================================================
                                       INPUT FILE
================================================================================
NAME = /home/rudenko/mop_saddle_orca_4_serv/for_orca/ch32chno2_ch3coo_new/orca/orca_end/end.inp
|  1> !  opt B3LYP def2-TZVP CPCM D3 
|  2> %pal nprocs 102 end
|  3> %cpcm epsilon 78.4 end 
|  4> *xyz -1 1 
|  5> C   0.75044404 -0.78570466 0.02103457
|  6> H   3.07039379 -1.10892561 0.3990925
|  7> N   0.74295913 -1.41860221 1.18082238
|  8> O   0.70051795 -2.68836421 1.26090177
|  9> O   0.80701594 -0.79197741 2.28758975
| 10> C   6.67908426 -3.18590003 0.47249205
| 11> O   5.97797221 -2.31027909 1.20785516
| 12> O   6.29220528 -3.52405171 -0.62807149
| 13> C   7.90153989 -3.64395568 1.16959412
| 14> H   8.66818125 -4.00741729 0.46378325
| 15> H   7.68950416 -4.47846383 1.86226586
| 16> H   8.36817953 -2.84818268 1.77573284
| 17> C   0.7576648 0.70255462 -0.03112131
| 18> H   1.19249533 1.15772524 0.87105636
| 19> H   -0.26175437 1.10495474 -0.13208974
| 20> H   1.33592032 1.0734493 -0.88976674
| 21> C   0.67914793 -1.53781198 -1.26137119
| 22> H   -0.33760841 -1.52057931 -1.68045536
| 23> H   0.96470436 -2.59421268 -1.14960816
| 24> H   1.34732232 -1.10128601 -2.01781357
| 25> H   5.1567618 -1.90204892 0.75352551
| 26> O   3.96147653 -1.00878417 0.02874811
| 27> H   4.203032 -0.08805741 0.21906321
| 28> *
| 29> 
| 30>                          ****END OF INPUT****
================================================================================

                       *****************************
                       * Geometry Optimization Run *
                       *****************************

Geometry optimization settings:
Update method            Update   .... BFGS
Choice of coordinates    CoordSys .... Z-matrix Internals
Initial Hessian          InHess   .... Almoef's Model

Convergence Tolerances:
Energy Change            TolE     ....  5.0000e-06 Eh
Max. Gradient            TolMAXG  ....  3.0000e-04 Eh/bohr
RMS Gradient             TolRMSG  ....  1.0000e-04 Eh/bohr
Max. Displacement        TolMAXD  ....  4.0000e-03 bohr
RMS Displacement         TolRMSD  ....  2.0000e-03 bohr
Strict Convergence                ....  False
------------------------------------------------------------------------------
                        ORCA OPTIMIZATION COORDINATE SETUP
------------------------------------------------------------------------------

The optimization will be done in new redundant internal coordinates
Making redundant internal coordinates   ...  (new redundants) done
Evaluating the initial hessian          ...  (Almloef) done
Evaluating the coordinates              ...  done
Calculating the B-matrix                .... done
Calculating the G-matrix                .... done
Diagonalizing the G-matrix              .... done
Small eigenvalue found = 1.397e-02
Small eigenvalue found = 1.694e-02
The first mode is                       ....  342
The number of degrees of freedom        ....   63

    -----------------------------------------------------------------
                    Redundant Internal Coordinates


    -----------------------------------------------------------------
         Definition                    Initial Value    Approx d2E/dq
    -----------------------------------------------------------------
      1. B(H   1,C   0)                  2.3727         0.003236   
      2. B(N   2,C   0)                  1.3213         0.720359   
      3. B(N   2,H   1)                  2.4747         0.001993   
      4. B(O   3,H   1)                  2.9755         0.000316   
      5. B(O   3,N   2)                  1.2730         0.770355   
      6. B(O   4,H   1)                  2.9648         0.000329   
      7. B(O   4,N   2)                  1.2735         0.769037   
      8. B(O   6,C   5)                  1.3413         0.669279   
      9. B(O   7,C   5)                  1.2146         1.065882   
     10. B(C   8,C   5)                  1.4799         0.449031   
     11. B(H   9,C   8)                  1.1036         0.342506   
     12. B(H  10,C   8)                  1.1051         0.340719   
     13. B(H  11,C   8)                  1.1038         0.342278   
     14. B(C  12,H   1)                  2.9691         0.000362   
     15. B(C  12,C   0)                  1.4892         0.433997   
     16. B(H  13,C  12)                  1.1001         0.347006   
     17. B(H  13,H   1)                  2.9811         0.000066   
     18. B(H  14,C  12)                  1.1006         0.346338   
     19. B(H  15,H   1)                  3.0712         0.000048   
     20. B(H  15,C  12)                  1.0996         0.347567   
     21. B(C  16,H   1)                  2.9426         0.000399   
     22. B(C  16,C   0)                  1.4884         0.435270   
     23. B(H  17,C  16)                  1.0999         0.347273   
     24. B(H  18,H   1)                  3.0064         0.000060   
     25. B(H  18,C  16)                  1.1000         0.347102   
     26. B(H  19,H   1)                  2.9682         0.000069   
     27. B(H  19,C  16)                  1.0996         0.347566   
     28. B(H  20,O   6)                  1.0235         0.411844   
     29. B(O  21,H  20)                  1.6589         0.039896   
     30. B(O  21,H   1)                  0.9702         0.500906   
     31. B(H  22,O  21)                  0.9707         0.499869   
     32. B(H  22,H  20)                  2.1180         0.001579   
     33. A(C  12,C   0,C  16)          118.3630         0.382811   
     34. A(H   1,C   0,C  12)           97.8732         0.172794   
     35. A(N   2,C   0,C  16)          120.9296         0.415805   
     36. A(H   1,C   0,N   2)           78.4876         0.182203   
     37. A(N   2,C   0,C  12)          120.6293         0.415588   
     38. A(H   1,C   0,C  16)           96.6201         0.172849   
     39. A(C   0,H   1,N   2)           31.5453         0.110178   
     40. A(N   2,H   1,O   3)           24.9067         0.101367   
     41. A(C  12,H   1,H  13)           21.3074         0.093830   
     42. A(N   2,H   1,C  16)           52.8244         0.102185   
     43. A(O   3,H   1,O   4)           42.6263         0.097228   
     44. A(H  13,H   1,H  15)           33.9414         0.091440   
     45. A(C  16,H   1,O  21)          123.0946         0.135063   
     46. A(O   3,H   1,H  13)           81.7221         0.093631   
     47. A(C  12,H   1,H  19)           55.1287         0.093882   
     48. A(C   0,H   1,H  15)           44.2852         0.096358   
     49. A(C   0,H   1,H  18)           45.6037         0.096766   
     50. A(C   0,H   1,C  16)           30.1608         0.103888   
     51. A(H  13,H   1,H  19)           76.1888         0.091658   
     52. A(N   2,H   1,H  18)           56.0943         0.095877   
     53. A(O   3,H   1,C  16)           55.8646         0.097694   
     54. A(O   3,H   1,H  19)           76.9886         0.093681   
     55. A(O   4,H   1,H  19)           94.3138         0.093723   
     56. A(H  13,H   1,H  18)           90.9161         0.091575   
     57. A(C  12,H   1,C  16)           51.2572         0.098067   
     58. A(H  15,H   1,H  19)           47.8265         0.091467   
     59. A(H  13,H   1,C  16)           71.8357         0.093937   
     60. A(C   0,H   1,H  13)           46.0293         0.096931   
     61. A(O   4,H   1,H  13)           48.4678         0.093673   
     62. A(O   3,H   1,C  12)           75.2518         0.097505   
     63. A(O   3,H   1,H  15)           92.8049         0.093297   
     64. A(O   4,H   1,C  16)           75.7968         0.097772   
     65. A(N   2,H   1,H  19)           73.2363         0.096099   
     66. A(C  12,H   1,H  15)           20.8899         0.093481   
     67. A(O   4,H   1,H  18)           81.1552         0.093576   
     68. A(C  16,H   1,H  19)           21.4375         0.093990   
     69. A(C  12,H   1,H  18)           71.4101         0.093730   
     70. A(O   3,H   1,O  21)          153.7530         0.132208   
     71. A(C   0,H   1,O   3)           48.6771         0.102965   
     72. A(H  15,H   1,C  16)           53.6892         0.093581   
     73. A(H  18,H   1,O  21)          119.8454         0.113027   
     74. A(O   4,H   1,O  21)          158.9593         0.132596   
     75. A(C   0,H   1,O   4)           48.7357         0.103090   
     76. A(N   2,H   1,O   4)           25.0619         0.101478   
     77. A(C  16,H   1,H  18)           21.2761         0.093835   
     78. A(H  18,H   1,H  19)           34.4356         0.091603   
     79. A(C   0,H   1,O  21)          145.4058         0.162990   
     80. A(H  15,H   1,O  21)          106.5692         0.111767   
     81. A(C   0,H   1,C  12)           29.7914         0.103564   
     82. A(C  12,H   1,O  21)          126.6670         0.134063   
     83. A(H  19,H   1,O  21)          102.8318         0.113802   
     84. A(N   2,H   1,C  12)           52.3758         0.101898   
     85. A(C   0,H   1,H  19)           45.7576         0.097016   
     86. A(O   4,H   1,C  12)           55.4172         0.097581   
     87. A(H  15,H   1,H  18)           74.8900         0.091390   
     88. A(H  13,H   1,O  21)          124.0932         0.113538   
     89. A(O   3,H   1,H  18)           47.8646         0.093535   
     90. A(N   2,H   1,H  13)           56.8166         0.096024   
     91. A(O   4,H   1,H  15)           76.1253         0.093336   
     92. A(N   2,H   1,H  15)           71.9611         0.095517   
     93. A(C   0,N   2,O   3)          122.2221         0.454726   
     94. A(O   3,N   2,O   4)          115.9650         0.457064   
     95. A(C   0,N   2,O   4)          121.7963         0.454584   
     96. A(H   1,N   2,O   4)           99.5355         0.172070   
     97. A(H   1,N   2,O   3)          100.1397         0.172102   
     98. A(C   0,N   2,H   1)           69.9671         0.171543   
     99. A(H   1,O   3,N   2)           54.9536         0.143797   
    100. A(H   1,O   4,N   2)           55.4025         0.144268   
    101. A(O   7,C   5,C   8)          127.1391         0.448635   
    102. A(O   6,C   5,C   8)          112.0607         0.412682   
    103. A(O   6,C   5,O   7)          120.7992         0.479395   
    104. A(C   5,O   6,H  20)          115.8770         0.360326   
    105. A(C   5,C   8,H   9)          111.9927         0.331559   
    106. A(H  10,C   8,H  11)          106.3399         0.286051   
    107. A(H   9,C   8,H  11)          107.1543         0.286284   
    108. A(C   5,C   8,H  11)          112.6269         0.331522   
    109. A(H   9,C   8,H  10)          106.5862         0.286081   
    110. A(C   5,C   8,H  10)          111.7462         0.331272   
    111. A(C   0,C  12,H  14)          111.3528         0.330303   
    112. A(C   0,C  12,H  13)          112.7491         0.330408   
    113. A(H   1,C  12,H  15)           84.7970         0.130975   
    114. A(H   1,C  12,H  14)          163.3053         0.130941   
    115. A(H   1,C  12,H  13)           79.9631         0.130959   
    116. A(C   0,C  12,H   1)           52.3354         0.140033   
    117. A(H  14,C  12,H  15)          106.9847         0.287469   
    118. A(H  13,C  12,H  15)          107.0350         0.287556   
    119. A(C   0,C  12,H  15)          111.5290         0.330497   
    120. A(H  13,C  12,H  14)          106.8622         0.287397   
    121. A(H   1,H  13,C  12)           78.7295         0.111848   
    122. A(H   1,H  15,C  12)           74.3131         0.110207   
    123. A(H  18,C  16,H  19)          107.0609         0.287568   
    124. A(H  17,C  16,H  19)          107.0605         0.287590   
    125. A(C   0,C  16,H  19)          111.2842         0.330657   
    126. A(H  17,C  16,H  18)          107.0819         0.287530   
    127. A(C   0,C  16,H  18)          112.6628         0.330584   
    128. A(C   0,C  16,H  17)          111.3867         0.330611   
    129. A(H   1,C  16,H  19)           80.5920         0.131906   
    130. A(H   1,C  16,H  18)           82.6279         0.131893   
    131. A(H   1,C  16,H  17)          164.5647         0.131898   
    132. A(C   0,C  16,H   1)           53.2190         0.141201   
    133. A(H   1,H  18,C  16)           76.0959         0.111374   
    134. A(H   1,H  19,C  16)           77.9704         0.112102   
    135. A(O  21,H  20,H  22)           26.3765         0.117367   
    136. A(O   6,H  20,H  22)          144.5842         0.137115   
    137. A(O   6,H  20,O  21)          170.7091         0.212526   
    138. A(H   1,O  21,H  22)          104.5735         0.317825   
    139. A(H  20,O  21,H  22)          104.2280         0.218062   
    140. A(H   1,O  21,H  20)          116.0680         0.218122   
    141. A(H  20,H  22,O  21)           49.3955         0.139272   
    142. D(O   4,H   1,C   0,N   2)    -29.0513         0.001509   
    143. D(H  15,H   1,C   0,C  16)     94.3802         0.001509   
    144. D(O   3,H   1,C   0,N   2)     28.8108         0.001509   
    145. D(H  19,H   1,C   0,C  16)     24.4820         0.001509   
    146. D(H  15,H   1,C   0,N   2)   -145.3270         0.001509   
    147. D(H  18,H   1,C   0,C  16)    -24.3961         0.001509   
    148. D(H  13,H   1,C   0,N   2)    -96.7677         0.001509   
    149. D(H  13,H   1,C   0,C  16)    142.9395         0.001509   
    150. D(H  15,H   1,C   0,C  12)    -25.5434         0.001509   
    151. D(H  19,H   1,C   0,C  12)    -95.4416         0.001509   
    152. D(H  18,H   1,C   0,N   2)     95.8968         0.001509   
    153. D(O   4,H   1,C   0,C  16)   -149.3442         0.001509   
    154. D(C  12,H   1,C   0,N   2)   -119.7836         0.001509   
    155. D(H  13,H   1,C   0,C  12)     23.0159         0.001509   
    156. D(N   2,H   1,C   0,C  12)    119.7836         0.001509   
    157. D(O   3,H   1,C   0,C  16)    -91.4821         0.001509   
    158. D(C  16,H   1,C   0,C  12)   -119.9236         0.001509   
    159. D(H  18,H   1,C   0,C  12)   -144.3197         0.001509   
    160. D(O   3,H   1,C   0,C  12)    148.5943         0.001509   
    161. D(N   2,H   1,C   0,C  16)   -120.2929         0.001509   
    162. D(O   4,H   1,C   0,C  12)     90.7322         0.001509   
    163. D(O  21,H   1,C   0,C  16)     54.4813         0.001509   
    164. D(O  21,H   1,C   0,N   2)    174.7741         0.001509   
    165. D(O  21,H   1,C   0,C  12)    -65.4423         0.001509   
    166. D(C  12,H   1,C   0,C  16)    119.9236         0.001509   
    167. D(H  19,H   1,C   0,N   2)    144.7749         0.001509   
    168. D(C  16,H   1,C   0,N   2)    120.2929         0.001509   
    169. D(O   3,N   2,H   1,O   4)   -118.7535         0.001504   
    170. D(C   0,N   2,H   1,H  19)    -25.5659         0.001504   
    171. D(O   3,N   2,H   1,C  16)     87.7645         0.001504   
    172. D(O   3,N   2,C   0,C  12)    178.0768         0.050625   
    173. D(O   3,N   2,H   1,H  19)     95.1870         0.001504   
    174. D(O   4,N   2,H   1,C  12)    -87.5071         0.001504   
    175. D(O   4,N   2,H   1,O   3)    118.7535         0.001504   
    176. D(C   0,N   2,H   1,C  16)    -32.9885         0.001504   
    177. D(O   4,N   2,H   1,H  15)    -95.8009         0.001504   
    178. D(O   3,N   2,H   1,H  18)     61.8432         0.001504   
    179. D(O   4,N   2,H   1,C   0)   -120.4936         0.001504   
    180. D(O   3,N   2,H   1,H  15)    145.4457         0.001504   
    181. D(O   3,N   2,H   1,C  12)    153.7394         0.001504   
    182. D(O   3,N   2,C   0,H   1)    -89.5239         0.050625   
    183. D(O   3,N   2,H   1,C   0)    120.7529         0.001504   
    184. D(O   4,N   2,H   1,H  19)   -146.0595         0.001504   
    185. D(O   4,N   2,C   0,C  12)     -3.4639         0.050625   
    186. D(O   4,N   2,H   1,C  16)   -153.4821         0.001504   
    187. D(O   3,N   2,C   0,C  16)      1.3422         0.050625   
    188. D(O   3,N   2,H   1,H  13)    179.3956         0.001504   
    189. D(O   4,N   2,C   0,H   1)     88.9354         0.050625   
    190. D(C   0,N   2,H   1,H  15)     24.6927         0.001504   
    191. D(C   0,N   2,H   1,H  18)    -58.9097         0.001504   
    192. D(O   4,N   2,C   0,C  16)    179.8015         0.050625   
    193. D(C   0,N   2,H   1,H  13)     58.6427         0.001504   
    194. D(C   0,N   2,H   1,C  12)     32.9865         0.001504   
    195. D(O   4,N   2,H   1,H  13)    -61.8509         0.001504   
    196. D(O   4,N   2,H   1,H  18)   -179.4033         0.001504   
    197. D(C   0,N   2,H   1,O   3)   -120.7529         0.001504   
    198. D(H   1,N   2,C   0,C  16)     90.8661         0.050625   
    199. D(C   0,N   2,H   1,O   4)    120.4936         0.001504   
    200. D(H   1,N   2,C   0,C  12)    -92.3993         0.050625   
    201. D(N   2,O   3,H   1,C  12)    -21.2462         0.001500   
    202. D(N   2,O   3,H   1,O   4)     33.2556         0.001500   
    203. D(N   2,O   3,H   1,O  21)   -170.8373         0.001500   
    204. D(N   2,O   3,H   1,C   0)    -36.7750         0.001500   
    205. D(H   1,O   3,N   2,O   4)   -105.9187         0.059352   
    206. D(H   1,O   3,N   2,C   0)     72.6248         0.059352   
    207. D(N   2,O   3,H   1,H  19)    -78.1558         0.001500   
    208. D(N   2,O   3,H   1,C  16)    -74.1339         0.001500   
    209. D(N   2,O   3,H   1,H  15)    -32.6806         0.001500   
    210. D(N   2,O   3,H   1,H  13)     -0.5111         0.001500   
    211. D(N   2,O   3,H   1,H  18)    -99.3357         0.001500   
    212. D(H   1,O   4,N   2,O   3)    106.2817         0.059123   
    213. D(H   1,O   4,N   2,C   0)    -72.2686         0.059123   
    214. D(N   2,O   4,H   1,H  18)      0.5012         0.001500   
    215. D(N   2,O   4,H   1,C  16)     21.5286         0.001500   
    216. D(N   2,O   4,H   1,H  15)     77.0097         0.001500   
    217. D(N   2,O   4,H   1,H  13)     99.6757         0.001500   
    218. D(N   2,O   4,H   1,O   3)    -33.0380         0.001500   
    219. D(N   2,O   4,H   1,H  19)     32.4200         0.001500   
    220. D(N   2,O   4,H   1,C   0)     36.8513         0.001500   
    221. D(N   2,O   4,H   1,O  21)    177.1492         0.001500   
    222. D(N   2,O   4,H   1,C  12)     73.9668         0.001500   
    223. D(H  20,O   6,C   5,C   8)    175.6316         0.033269   
    224. D(H  20,O   6,C   5,O   7)     -4.7000         0.033269   
    225. D(H  10,C   8,C   5,O   6)     83.9911         0.014870   
    226. D(H  11,C   8,C   5,O   7)    144.7177         0.014870   
    227. D(H  11,C   8,C   5,O   6)    -35.6396         0.014870   
    228. D(H  10,C   8,C   5,O   7)    -95.6516         0.014870   
    229. D(H   9,C   8,C   5,O   7)     23.8566         0.014870   
    230. D(H   9,C   8,C   5,O   6)   -156.5008         0.014870   
    231. D(H  14,C  12,H   1,H  13)   -115.8040         0.001500   
    232. D(H  14,C  12,H   1,H  15)    135.8439         0.001500   
    233. D(H  14,C  12,H   1,N   2)    -21.5338         0.001500   
    234. D(H  14,C  12,H   1,C   0)     13.4464         0.001500   
    235. D(H  14,C  12,H   1,C  16)     47.3845         0.001500   
    236. D(H  13,C  12,H   1,H  19)   -170.3782         0.001500   
    237. D(H  13,C  12,H   1,H  18)    155.3346         0.001500   
    238. D(H  13,C  12,H   1,C  16)    163.1884         0.001500   
    239. D(H  13,C  12,H   1,O   4)     63.3381         0.001500   
    240. D(H  13,C  12,H   1,O   3)    105.3796         0.001500   
    241. D(H  13,C  12,H   1,N   2)     94.2702         0.001500   
    242. D(H  14,C  12,H   1,H  18)     39.5307         0.001500   
    243. D(H  13,C  12,H   1,C   0)    129.2503         0.001500   
    244. D(C   0,C  12,H   1,H  19)     60.3715         0.001500   
    245. D(C   0,C  12,H   1,H  18)     26.0843         0.001500   
    246. D(C   0,C  12,H   1,C  16)     33.9381         0.001500   
    247. D(C   0,C  12,H   1,H  15)    122.3975         0.001500   
    248. D(C   0,C  12,H   1,H  13)   -129.2503         0.001500   
    249. D(C   0,C  12,H   1,O   4)    -65.9122         0.001500   
    250. D(H  13,C  12,H   1,O  21)    -90.8252         0.001500   
    251. D(H   1,C  12,C   0,C  16)   -101.9416         0.015816   
    252. D(H  15,C  12,C   0,C  16)    -37.2610         0.015816   
    253. D(H  15,C  12,C   0,N   2)    145.9221         0.015816   
    254. D(H  13,C  12,C   0,C  16)   -157.7193         0.015816   
    255. D(H  13,C  12,H   1,H  15)   -108.3521         0.001500   
    256. D(H  14,C  12,C   0,N   2)    -94.6455         0.015816   
    257. D(H  13,C  12,C   0,H   1)    -55.7776         0.015816   
    258. D(H  14,C  12,C   0,H   1)   -175.8870         0.015816   
    259. D(H  14,C  12,H   1,O  21)    153.3709         0.001500   
    260. D(H  13,C  12,C   0,N   2)     25.4638         0.015816   
    261. D(H  14,C  12,C   0,C  16)     82.1714         0.015816   
    262. D(H  14,C  12,H   1,O   3)    -10.4243         0.001500   
    263. D(H  14,C  12,H   1,O   4)    -52.4658         0.001500   
    264. D(C   0,C  12,H   1,O  21)    139.9245         0.001500   
    265. D(H   1,C  12,C   0,N   2)     81.2414         0.015816   
    266. D(C   0,C  12,H   1,O   3)    -23.8707         0.001500   
    267. D(C   0,C  12,H   1,N   2)    -34.9802         0.001500   
    268. D(H  15,C  12,C   0,H   1)     64.6806         0.015816   
    269. D(H  15,C  12,H   1,H  19)    -62.0260         0.001500   
    270. D(H  15,C  12,H   1,H  18)    -96.3133         0.001500   
    271. D(H  15,C  12,H   1,C  16)    -88.4595         0.001500   
    272. D(H  15,C  12,H   1,H  13)    108.3521         0.001500   
    273. D(H  15,C  12,H   1,O   4)    171.6903         0.001500   
    274. D(H  15,C  12,H   1,O   3)   -146.2682         0.001500   
    275. D(H  15,C  12,H   1,N   2)   -157.3777         0.001500   
    276. D(H  15,C  12,H   1,C   0)   -122.3975         0.001500   
    277. D(H  15,C  12,H   1,O  21)     17.5270         0.001500   
    278. D(H  14,C  12,H   1,H  19)     73.8179         0.001500   
    279. D(H   1,H  13,C  12,H  15)    -81.3412         0.121078   
    280. D(H   1,H  13,C  12,H  14)    164.3210         0.121078   
    281. D(H   1,H  13,C  12,C   0)     41.6607         0.121078   
    282. D(C  12,H  13,H   1,H  19)      8.1181         0.001500   
    283. D(C  12,H  13,H   1,H  18)    -23.3031         0.001500   
    284. D(C  12,H  13,H   1,C  16)    -13.7341         0.001500   
    285. D(C  12,H  13,H   1,H  15)     37.3113         0.001500   
    286. D(C  12,H  13,H   1,O   4)   -100.6182         0.001500   
    287. D(C  12,H  13,H   1,O   3)    -70.4312         0.001500   
    288. D(C  12,H  13,H   1,N   2)    -70.6885         0.001500   
    289. D(C  12,H  13,H   1,C   0)    -32.3169         0.001500   
    290. D(C  12,H  13,H   1,O  21)    104.4202         0.001500   
    291. D(H   1,H  15,C  12,H  14)   -167.9219         0.121554   
    292. D(H   1,H  15,C  12,H  13)     77.8229         0.121554   
    293. D(C  12,H  15,H   1,H  19)    102.1261         0.001500   
    294. D(C  12,H  15,H   1,H  18)     77.3728         0.001500   
    295. D(C  12,H  15,H   1,C  16)     75.3676         0.001500   
    296. D(C  12,H  15,H   1,H  13)    -38.1485         0.001500   
    297. D(C  12,H  15,H   1,O   4)     -7.0401         0.001500   
    298. D(C  12,H  15,H   1,O   3)     32.5241         0.001500   
    299. D(H   1,H  15,C  12,C   0)    -45.9324         0.121554   
    300. D(C  12,H  15,H   1,N   2)     18.6876         0.001500   
    301. D(C  12,H  15,H   1,C   0)     36.9286         0.001500   
    302. D(C  12,H  15,H   1,O  21)   -165.4025         0.001500   
    303. D(H  19,C  16,H   1,H  18)   -108.7418         0.001500   
    304. D(H  19,C  16,H   1,H  15)     65.9166         0.001500   
    305. D(H  19,C  16,H   1,C  12)     92.1699         0.001500   
    306. D(H  19,C  16,H   1,O   4)    148.9681         0.001500   
    307. D(H  19,C  16,H   1,O   3)   -169.2237         0.001500   
    308. D(H  19,C  16,H   1,C   0)    125.6803         0.001500   
    309. D(H  19,C  16,H   1,O  21)    -20.8428         0.001500   
    310. D(H  18,C  16,H   1,H  19)    108.7418         0.001500   
    311. D(H  18,C  16,H   1,H  13)   -152.7379         0.001500   
    312. D(H  18,C  16,H   1,C  12)   -159.0883         0.001500   
    313. D(H  18,C  16,H   1,O   4)   -102.2901         0.001500   
    314. D(H  18,C  16,H   1,O   3)    -60.4818         0.001500   
    315. D(H  18,C  16,H   1,N   2)    -91.0400         0.001500   
    316. D(H  18,C  16,H   1,C   0)   -125.5778         0.001500   
    317. D(H  18,C  16,H   1,O  21)     87.8990         0.001500   
    318. D(H  17,C  16,H   1,H  18)    130.1105         0.001500   
    319. D(H  17,C  16,H   1,H  15)    -55.2311         0.001500   
    320. D(H  17,C  16,H   1,H  13)    -22.6275         0.001500   
    321. D(H  17,C  16,H   1,O   4)     27.8204         0.001500   
    322. D(H  17,C  16,H   1,O   3)     69.6286         0.001500   
    323. D(H  17,C  16,H   1,N   2)     39.0704         0.001500   
    324. D(H  17,C  16,H   1,C   0)      4.5327         0.001500   
    325. D(H  17,C  16,H   1,O  21)   -141.9905         0.001500   
    326. D(C   0,C  16,H   1,H  19)   -125.6803         0.001500   
    327. D(H  17,C  16,H   1,C  12)    -28.9778         0.001500   
    328. D(C   0,C  16,H   1,H  18)    125.5778         0.001500   
    329. D(C   0,C  16,H   1,H  15)    -59.7637         0.001500   
    330. D(C   0,C  16,H   1,H  13)    -27.1601         0.001500   
    331. D(H  17,C  16,H   1,H  19)   -121.1477         0.001500   
    332. D(C   0,C  16,H   1,C  12)    -33.5105         0.001500   
    333. D(C   0,C  16,H   1,O   4)     23.2878         0.001500   
    334. D(C   0,C  16,H   1,O   3)     65.0960         0.001500   
    335. D(C   0,C  16,H   1,N   2)     34.5378         0.001500   
    336. D(C   0,C  16,H   1,O  21)   -146.5232         0.001500   
    337. D(H   1,C  16,C   0,C  12)    102.6720         0.015908   
    338. D(H   1,C  16,C   0,N   2)    -80.5210         0.015908   
    339. D(H  18,C  16,H   1,H  15)    174.6584         0.001500   
    340. D(H  19,C  16,C   0,H   1)    -59.3187         0.015908   
    341. D(H  19,C  16,C   0,C  12)     43.3533         0.015908   
    342. D(H  19,C  16,C   0,N   2)   -139.8397         0.015908   
    343. D(H  19,C  16,H   1,N   2)    160.2181         0.001500   
    344. D(H  18,C  16,C   0,H   1)     60.9378         0.015908   
    345. D(H  18,C  16,C   0,C  12)    163.6099         0.015908   
    346. D(H  18,C  16,C   0,N   2)    -19.5832         0.015908   
    347. D(H  19,C  16,H   1,H  13)     98.5202         0.001500   
    348. D(H  17,C  16,C   0,H   1)   -178.7057         0.015908   
    349. D(H  17,C  16,C   0,C  12)    -76.0337         0.015908   
    350. D(H  17,C  16,C   0,N   2)    100.7733         0.015908   
    351. D(H   1,H  18,C  16,H  19)     77.7534         0.121160   
    352. D(H   1,H  18,C  16,H  17)   -167.7049         0.121160   
    353. D(C  16,H  18,H   1,H  19)    -37.7386         0.001500   
    354. D(C  16,H  18,H   1,H  15)     -4.4565         0.001500   
    355. D(C  16,H  18,H   1,H  13)     25.8038         0.001500   
    356. D(C  16,H  18,H   1,C  12)     17.0806         0.001500   
    357. D(C  16,H  18,H   1,O   4)     73.4586         0.001500   
    358. D(C  16,H  18,H   1,O   3)    103.7611         0.001500   
    359. D(H   1,H  18,C  16,C   0)    -44.9042         0.121160   
    360. D(C  16,H  18,H   1,N   2)     73.7144         0.001500   
    361. D(C  16,H  18,H   1,C   0)     34.8834         0.001500   
    362. D(C  16,H  18,H   1,O  21)   -105.1545         0.001500   
    363. D(H   1,H  19,C  16,H  18)    -79.2281         0.121552   
    364. D(H   1,H  19,C  16,H  17)    166.2158         0.121552   
    365. D(C  16,H  19,H   1,H  18)     37.4210         0.001500   
    366. D(C  16,H  19,H   1,H  15)    -96.9478         0.001500   
    367. D(C  16,H  19,H   1,H  13)    -75.3883         0.001500   
    368. D(C  16,H  19,H   1,C  12)    -71.8024         0.001500   
    369. D(C  16,H  19,H   1,O   4)    -30.0779         0.001500   
    370. D(C  16,H  19,H   1,O   3)      9.1396         0.001500   
    371. D(H   1,H  19,C  16,C   0)     44.2833         0.121552   
    372. D(C  16,H  19,H   1,N   2)    -16.3577         0.001500   
    373. D(C  16,H  19,H   1,C   0)    -34.7279         0.001500   
    374. D(C  16,H  19,H   1,O  21)    162.1986         0.001500   
    375. D(H  22,H  20,O   6,C   5)   -125.1896         0.190884   
    376. D(O  21,H  20,O   6,C   5)   -113.4956         0.190884   
    377. D(H  22,O  21,N   2,C   0)     78.1649         0.001500   
    378. D(H  20,O  21,H   1,H  19)   -140.7054         0.563537   
    379. D(H  20,O  21,H   1,H  18)   -108.3282         0.563537   
    380. D(H  20,O  21,H   1,H  15)    169.8841         0.563537   
    381. D(H  20,O  21,H   1,H  13)    137.4278         0.563537   
    382. D(H  20,O  21,H   1,C  12)    163.4515         0.563537   
    383. D(H  20,O  21,H   1,O   4)     75.4910         0.563537   
    384. D(H  20,O  21,H   1,O   3)    -54.1560         0.563537   
    385. D(H  20,O  21,H   1,C   0)   -162.2585         0.563537   
    386. D(H  22,O  21,H   1,H  19)    105.0963         0.563537   
    387. D(H  22,O  21,H   1,H  18)    137.4734         0.563537   
    388. D(H  22,O  21,H   1,C  16)    112.7608         0.563537   
    389. D(H  22,O  21,H   1,H  15)     55.6858         0.563537   
    390. D(H  22,O  21,H   1,H  13)     23.2294         0.563537   
    391. D(H  20,O  21,H   1,C  16)   -133.0408         0.563537   
    392. D(H  22,O  21,H   1,C  12)     49.2531         0.563537   
    393. D(H  22,O  21,H   1,O   4)    -38.7074         0.563537   
    394. D(H  22,O  21,H   1,O   3)   -168.3544         0.563537   
    395. D(H  22,O  21,N   2,O   3)   -160.9703         0.001500   
    396. D(H  22,O  21,H   1,C   0)     83.5431         0.563537   
    397. D(H  22,O  21,H  20,O   6)    -15.3303         0.002494   
    398. D(H   1,O  21,H  20,H  22)   -114.3949         0.002494   
    399. D(H   1,O  21,H  20,O   6)   -129.7252         0.002494   
    400. D(H  20,O  21,N   2,O   4)     74.2219         0.001500   
    401. D(H  20,O  21,N   2,O   3)    -44.7833         0.001500   
    402. D(H  20,O  21,N   2,C   0)   -165.6481         0.001500   
    403. D(H  22,O  21,N   2,O   4)    -41.9651         0.001500   
    404. D(H  20,H  22,O  21,H   1)    122.2989         0.312353   
    405. D(O  21,H  22,H  20,O   6)    175.7760         0.001522   
    -----------------------------------------------------------------

Number of atoms                         .... 23
Number of degrees of freedom            .... 405

         *************************************************************
         *                GEOMETRY OPTIMIZATION CYCLE   1            *
         *************************************************************
---------------------------------
CARTESIAN COORDINATES (ANGSTROEM)
---------------------------------
  C      0.750444   -0.785705    0.021035
  H      3.070394   -1.108926    0.399092
  N      0.742959   -1.418602    1.180822
  O      0.700518   -2.688364    1.260902
  O      0.807016   -0.791977    2.287590
  C      6.679084   -3.185900    0.472492
  O      5.977972   -2.310279    1.207855
  O      6.292205   -3.524052   -0.628071
  C      7.901540   -3.643956    1.169594
  H      8.668181   -4.007417    0.463783
  H      7.689504   -4.478464    1.862266
  H      8.368180   -2.848183    1.775733
  C      0.757665    0.702555   -0.031121
  H      1.192495    1.157725    0.871056
  H     -0.261754    1.104955   -0.132090
  H      1.335920    1.073449   -0.889767
  C      0.679148   -1.537812   -1.261371
  H     -0.337608   -1.520579   -1.680455
  H      0.964704   -2.594213   -1.149608
  H      1.347322   -1.101286   -2.017814
  H      5.156762   -1.902049    0.753526
  O      3.961477   -1.008784    0.028748
  H      4.203032   -0.088057    0.219063

----------------------------
CARTESIAN COORDINATES (A.U.)
----------------------------
  NO LB      ZA    FRAG     MASS         X           Y           Z
   0 C     6.0000    0    12.011    1.418134   -1.484767    0.039750
   1 H     1.0000    0     1.008    5.802203   -2.095566    0.754176
   2 N     7.0000    0    14.007    1.403989   -2.680770    2.231431
   3 O     8.0000    0    15.999    1.323787   -5.080272    2.382759
   4 O     8.0000    0    15.999    1.525039   -1.496620    4.322918
   5 C     6.0000    0    12.011   12.621640   -6.020479    0.892881
   6 O     8.0000    0    15.999   11.296730   -4.365795    2.282515
   7 O     8.0000    0    15.999   11.890545   -6.659493   -1.186883
   8 C     6.0000    0    12.011   14.931746   -6.886078    2.210213
   9 H     1.0000    0     1.008   16.380489   -7.572921    0.876423
  10 H     1.0000    0     1.008   14.531057   -8.463070    3.519172
  11 H     1.0000    0     1.008   15.813568   -5.382285    3.355649
  12 C     6.0000    0    12.011    1.431779    1.327636   -0.058811
  13 H     1.0000    0     1.008    2.253490    2.187784    1.646058
  14 H     1.0000    0     1.008   -0.494644    2.088062   -0.249613
  15 H     1.0000    0     1.008    2.524524    2.028525   -1.681415
  16 C     6.0000    0    12.011    1.283404   -2.906043   -2.383646
  17 H     1.0000    0     1.008   -0.637987   -2.873478   -3.175600
  18 H     1.0000    0     1.008    1.823027   -4.902351   -2.172445
  19 H     1.0000    0     1.008    2.546070   -2.081129   -3.813115
  20 H     1.0000    0     1.008    9.744868   -3.594352    1.423957
  21 O     8.0000    0    15.999    7.486106   -1.906326    0.054326
  22 H     1.0000    0     1.008    7.942579   -0.166404    0.413969

--------------------------------
INTERNAL COORDINATES (ANGSTROEM)
--------------------------------
 C      0   0   0     0.000000000000     0.00000000     0.00000000
 H      1   0   0     2.372670736423     0.00000000     0.00000000
 N      1   2   0     1.321258149227    78.48755065     0.00000000
 O      3   1   2     1.272992340553   122.22214290   270.47610590
 O      3   1   2     1.273458254588   121.79631637    88.93539912
 C      2   1   3     4.164355549607   156.64448915    80.18167156
 O      6   2   1     1.341278882549    39.74439297   220.33020015
 O      6   2   1     1.214603642935    81.19121645    44.93958654
 C      6   2   1     1.479920282250   151.45962323   231.31309293
 H      9   6   2     1.103635945870   111.99266260   195.94692277
 H      9   6   2     1.105059791417   111.74622895    76.43878032
 H      9   6   2     1.103816728009   112.62692844   316.80807945
 C      1   2   3     1.489190404112    97.87318294   119.78355091
 H     13   1   2     1.100082920228   112.74905965   304.22235934
 H     13   1   2     1.100607070937   111.35280687   184.11304075
 H     13   1   2     1.099642798604   111.52903896    64.68064467
 C      1   2   3     1.488392787331    96.62014793   239.70713658
 H     17   1   2     1.099873611553   111.38671495   181.29433614
 H     17   1   2     1.100007222044   112.66283714    60.93784655
 H     17   1   2     1.099644038858   111.28419538   300.68132751
 H      7   6   2     1.023451923668   115.87704739   349.99523429
 O      2   1   3     0.970160669547   145.40584422   174.77413980
 H     22   2   1     0.970724805985   104.57347647    83.54313288

---------------------------
INTERNAL COORDINATES (A.U.)
---------------------------
 C      0   0   0     0.000000000000     0.00000000     0.00000000
 H      1   0   0     4.483697897809     0.00000000     0.00000000
 N      1   2   0     2.496816054250    78.48755065     0.00000000
 O      3   1   2     2.405606894225   122.22214290   270.47610590
 O      3   1   2     2.406487344153   121.79631637    88.93539912
 C      2   1   3     7.869491513033   156.64448915    80.18167156
 O      6   2   1     2.534649757229    39.74439297   220.33020015
 O      6   2   1     2.295268246409    81.19121645    44.93958654
 C      6   2   1     2.796644033487   151.45962323   231.31309293
 H      9   6   2     2.085569689246   111.99266260   195.94692277
 H      9   6   2     2.088260367387   111.74622895    76.43878032
 H      9   6   2     2.085911317977   112.62692844   316.80807945
 C      1   2   3     2.814162025035    97.87318294   119.78355091
 H     13   1   2     2.078855443836   112.74905965   304.22235934
 H     13   1   2     2.079845945128   111.35280687   184.11304075
 H     13   1   2     2.078023734501   111.52903896    64.68064467
 C      1   2   3     2.812654747760    96.62014793   239.70713658
 H     17   1   2     2.078459907762   111.38671495   181.29433614
 H     17   1   2     2.078712394999   112.66283714    60.93784655
 H     17   1   2     2.078026078241   111.28419538   300.68132751
 H      7   6   2     1.934043846967   115.87704739   349.99523429
 O      2   1   3     1.833337971345   145.40584422   174.77413980
 H     22   2   1     1.834404034716   104.57347647    83.54313288

---------------------
BASIS SET INFORMATION
---------------------
There are 4 groups of distinct atoms

 Group   1 Type C   : 11s6p2d1f contracted to 5s3p2d1f pattern {62111/411/11/1}
 Group   2 Type H   : 5s1p contracted to 3s1p pattern {311/1}
 Group   3 Type N   : 11s6p2d1f contracted to 5s3p2d1f pattern {62111/411/11/1}
 Group   4 Type O   : 11s6p2d1f contracted to 5s3p2d1f pattern {62111/411/11/1}

Atom   0C    basis set group =>   1
Atom   1H    basis set group =>   2
Atom   2N    basis set group =>   3
Atom   3O    basis set group =>   4
Atom   4O    basis set group =>   4
Atom   5C    basis set group =>   1
Atom   6O    basis set group =>   4
Atom   7O    basis set group =>   4
Atom   8C    basis set group =>   1
Atom   9H    basis set group =>   2
Atom  10H    basis set group =>   2
Atom  11H    basis set group =>   2
Atom  12C    basis set group =>   1
Atom  13H    basis set group =>   2
Atom  14H    basis set group =>   2
Atom  15H    basis set group =>   2
Atom  16C    basis set group =>   1
Atom  17H    basis set group =>   2
Atom  18H    basis set group =>   2
Atom  19H    basis set group =>   2
Atom  20H    basis set group =>   2
Atom  21O    basis set group =>   4
Atom  22H    basis set group =>   2
---------------------------------
AUXILIARY/J BASIS SET INFORMATION
---------------------------------
There are 4 groups of distinct atoms

 Group   1 Type C   : 12s5p4d2f1g contracted to 6s4p3d1f1g pattern {711111/2111/211/2/1}
 Group   2 Type H   : 5s2p1d contracted to 3s1p1d pattern {311/2/1}
 Group   3 Type N   : 12s5p4d2f1g contracted to 6s4p3d1f1g pattern {711111/2111/211/2/1}
 Group   4 Type O   : 12s5p4d2f1g contracted to 6s4p3d1f1g pattern {711111/2111/211/2/1}

Atom   0C    basis set group =>   1
Atom   1H    basis set group =>   2
Atom   2N    basis set group =>   3
Atom   3O    basis set group =>   4
Atom   4O    basis set group =>   4
Atom   5C    basis set group =>   1
Atom   6O    basis set group =>   4
Atom   7O    basis set group =>   4
Atom   8C    basis set group =>   1
Atom   9H    basis set group =>   2
Atom  10H    basis set group =>   2
Atom  11H    basis set group =>   2
Atom  12C    basis set group =>   1
Atom  13H    basis set group =>   2
Atom  14H    basis set group =>   2
Atom  15H    basis set group =>   2
Atom  16C    basis set group =>   1
Atom  17H    basis set group =>   2
Atom  18H    basis set group =>   2
Atom  19H    basis set group =>   2
Atom  20H    basis set group =>   2
Atom  21O    basis set group =>   4
Atom  22H    basis set group =>   2


           ************************************************************
           *        Program running with 102 parallel MPI-processes   *
           *              working on a common directory               *
           ************************************************************
------------------------------------------------------------------------------
                           ORCA GTO INTEGRAL CALCULATION
                           -- RI-GTO INTEGRALS CHOSEN --
------------------------------------------------------------------------------
------------------------------------------------------------------------------
                   ___                                                        
                  /   \      - P O W E R E D   B Y -                         
                 /     \                                                     
                 |  |  |   _    _      __       _____    __    __             
                 |  |  |  | |  | |    /  \     |  _  \  |  |  /  |          
                  \  \/   | |  | |   /    \    | | | |  |  | /  /          
                 / \  \   | |__| |  /  /\  \   | |_| |  |  |/  /          
                |  |  |   |  __  | /  /__\  \  |    /   |      \           
                |  |  |   | |  | | |   __   |  |    \   |  |\   \          
                \     /   | |  | | |  |  |  |  | |\  \  |  | \   \       
                 \___/    |_|  |_| |__|  |__|  |_| \__\ |__|  \__/        
                                                                              
                      - O R C A' S   B I G   F R I E N D -                    
                                      &                                       
                       - I N T E G R A L  F E E D E R -                       
                                                                              
 v1 FN, 2020, v2 2021                                                         
------------------------------------------------------------------------------


Reading SHARK input file /home/rudenko/mop_saddle_orca_4_serv/for_orca/ch32chno2_ch3coo_new/orca/orca_end/end.SHARKINP.tmp ... ok
----------------------
SHARK INTEGRAL PACKAGE
----------------------

Number of atoms                             ...     23
Number of basis functions                   ...    413
Number of shells                            ...    169
Maximum angular momentum                    ...      3
Integral batch strategy                     ... SHARK/LIBINT Hybrid
RI-J (if used) integral strategy            ... SPLIT-RIJ (Revised 2003 algorithm where possible)
Printlevel                                  ...      1
Contraction scheme used                     ... SEGMENTED contraction
Coulomb Range Separation                    ... NOT USED
Exchange Range Separation                   ... NOT USED
Finite Nucleus Model                        ... NOT USED
Auxiliary Coulomb fitting basis             ... AVAILABLE
   # of basis functions in Aux-J            ...    671
   # of shells in Aux-J                     ...    225
   Maximum angular momentum in Aux-J        ...      4
Auxiliary J/K fitting basis                 ... NOT available
Auxiliary Correlation fitting basis         ... NOT available
Auxiliary 'external' fitting basis          ... NOT available
Integral threshold                          ...     2.500000e-11
Primitive cut-off                           ...     2.500000e-12
Primitive pair pre-selection threshold      ...     2.500000e-12

Calculating pre-screening integrals         ... done (  0.0 sec) Dimension = 169
Organizing shell pair data                  ... done (  0.3 sec)
Shell pair information
Total number of shell pairs                 ...     14365
Shell pairs after pre-screening             ...     10291
Total number of primitive shell pairs       ...     43056
Primitive shell pairs kept                  ...     21725
          la=0 lb=0:   2997 shell pairs
          la=1 lb=0:   3061 shell pairs
          la=1 lb=1:    806 shell pairs
          la=2 lb=0:   1368 shell pairs
          la=2 lb=1:    708 shell pairs
          la=2 lb=2:    160 shell pairs
          la=3 lb=0:    663 shell pairs
          la=3 lb=1:    345 shell pairs
          la=3 lb=2:    144 shell pairs
          la=3 lb=3:     39 shell pairs

Calculating one electron integrals          ... done (  0.1 sec)
Calculating RI/J V-Matrix + Cholesky decomp.... done (  0.0 sec)
Calculating Nuclear repulsion               ... done (  0.0 sec) ENN=    613.673529393887 Eh

SHARK setup successfully completed in   0.7 seconds

Maximum memory used throughout the entire GTOINT-calculation: 23.1 MB


           ************************************************************
           *        Program running with 102 parallel MPI-processes   *
           *              working on a common directory               *
           ************************************************************
-------------------------------------------------------------------------------
                                 ORCA SCF
-------------------------------------------------------------------------------

------------
SCF SETTINGS
------------
Hamiltonian:
 Density Functional     Method          .... DFT(GTOs)
 Exchange Functional    Exchange        .... B88
   X-Alpha parameter    XAlpha          ....  0.666667
   Becke's b parameter  XBeta           ....  0.004200
 Correlation Functional Correlation     .... LYP
 LDA part of GGA corr.  LDAOpt          .... VWN-5
 Gradients option       PostSCFGGA      .... off
 Hybrid DFT is turned on
   Fraction HF Exchange ScalHFX         ....  0.200000
   Scaling of DF-GGA-X  ScalDFX         ....  0.720000
   Scaling of DF-GGA-C  ScalDFC         ....  0.810000
   Scaling of DF-LDA-C  ScalLDAC        ....  1.000000
   Perturbative correction              ....  0.000000
   Density functional embedding theory  .... OFF
   NL short-range parameter             ....  4.800000
 RI-approximation to the Coulomb term is turned on
   Number of AuxJ basis functions       .... 671
   RIJ-COSX (HFX calculated with COS-X)).... on


General Settings:
 Integral files         IntName         .... /home/rudenko/mop_saddle_orca_4_serv/for_orca/ch32chno2_ch3coo_new/orca/orca_end/end
 Hartree-Fock type      HFTyp           .... RHF
 Total Charge           Charge          ....   -1
 Multiplicity           Mult            ....    1
 Number of Electrons    NEL             ....   90
 Basis Dimension        Dim             ....  413
 Nuclear Repulsion      ENuc            ....    613.6735293939 Eh

Convergence Acceleration:
 DIIS                   CNVDIIS         .... on
   Start iteration      DIISMaxIt       ....    12
   Startup error        DIISStart       ....  0.200000
   # of expansion vecs  DIISMaxEq       ....     5
   Bias factor          DIISBfac        ....   1.050
   Max. coefficient     DIISMaxC        ....  10.000
 Trust-Rad. Augm. Hess. CNVTRAH         .... auto
   Auto Start mean grad. ratio tolernc. ....  1.125000
   Auto Start start iteration           ....    20
   Auto Start num. interpolation iter.  ....    10
   Max. Number of Micro iterations      ....    16
   Max. Number of Macro iterations      .... Maxiter - #DIIS iter
   Number of Davidson start vectors     ....     2
   Converg. threshold I  (grad. norm)   ....   1.000e-05
   Converg. threshold II (energy diff.) ....   1.000e-08
   Grad. Scal. Fac. for Micro threshold ....   0.100
   Minimum threshold for Micro iter.    ....   0.010
   NR start threshold (gradient norm)   ....   0.001
   Initial trust radius                 ....   0.400
   Minimum AH scaling param. (alpha)    ....   1.000
   Maximum AH scaling param. (alpha)    .... 1000.000
   Orbital update algorithm             .... Taylor
   White noise on init. David. guess    .... on
   Maximum white noise                  ....   0.010
   Quad. conv. algorithm                .... NR
 SOSCF                  CNVSOSCF        .... on
   Start iteration      SOSCFMaxIt      ....   150
   Startup grad/error   SOSCFStart      ....  0.003300
 Level Shifting         CNVShift        .... on
   Level shift para.    LevelShift      ....    0.2500
   Turn off err/grad.   ShiftErr        ....    0.0010
 Zerner damping         CNVZerner       .... off
 Static damping         CNVDamp         .... on
   Fraction old density DampFac         ....    0.7000
   Max. Damping (<1)    DampMax         ....    0.9800
   Min. Damping (>=0)   DampMin         ....    0.0000
   Turn off err/grad.   DampErr         ....    0.1000
 Fernandez-Rico         CNVRico         .... off

SCF Procedure:
 Maximum # iterations   MaxIter         ....   125
 SCF integral mode      SCFMode         .... Direct
   Integral package                     .... SHARK and LIBINT hybrid scheme
 Reset frequency        DirectResetFreq ....    20
 Integral Threshold     Thresh          ....  2.500e-11 Eh
 Primitive CutOff       TCut            ....  2.500e-12 Eh

Convergence Tolerance:
 Convergence Check Mode ConvCheckMode   .... Total+1el-Energy
 Convergence forced     ConvForced      .... 0
 Energy Change          TolE            ....  1.000e-08 Eh
 1-El. energy change                    ....  1.000e-05 Eh
 Orbital Gradient       TolG            ....  1.000e-05
 Orbital Rotation angle TolX            ....  1.000e-05
 DIIS Error             TolErr          ....  5.000e-07


Diagonalization of the overlap matrix:
Smallest eigenvalue                        ... 1.762e-04
Time for diagonalization                   ...    0.076 sec
Threshold for overlap eigenvalues          ... 1.000e-08
Number of eigenvalues below threshold      ... 0
Time for construction of square roots      ...    0.104 sec
Total time needed                          ...    0.183 sec

Time for model grid setup =    0.159 sec

------------------------------
INITIAL GUESS: MODEL POTENTIAL
------------------------------
Loading Hartree-Fock densities                     ... done
Calculating cut-offs                               ... done
Initializing the effective Hamiltonian             ... done
Setting up the integral package (SHARK)            ... done
Starting the Coulomb interaction                   ... done (   0.0 sec)
Reading the grid                                   ... done
Mapping shells                                     ... done
Starting the XC term evaluation                    ... done (   0.0 sec)
  promolecular density results
     # of electrons  =     88.993805091
     EX              =    -76.778236981
     EC              =     -3.051936106
     EX+EC           =    -79.830173087
Transforming the Hamiltonian                       ... done (   0.1 sec)
Diagonalizing the Hamiltonian                      ... done (   0.1 sec)
Back transforming the eigenvectors                 ... done (   0.0 sec)
Now organizing SCF variables                       ... done
                      ------------------
                      INITIAL GUESS DONE (   0.5 sec)
                      ------------------
-------------------
DFT GRID GENERATION
-------------------

General Integration Accuracy     IntAcc      ... 4.388
Radial Grid Type                 RadialGrid  ... OptM3 with GC (2021)
Angular Grid (max. ang.)         AngularGrid ... 4 (Lebedev-302)
Angular grid pruning method      GridPruning ... 4 (adaptive)
Weight generation scheme         WeightScheme... Becke
Basis function cutoff            BFCut       ... 1.0000e-11
Integration weight cutoff        WCut        ... 1.0000e-14
Angular grids for H and He will be reduced by one unit
Partially contracted basis set               ... off
Rotationally invariant grid construction     ... off

Total number of grid points                  ...   105449
Total number of batches                      ...     1661
Average number of points per batch           ...       63
Average number of grid points per atom       ...     4585
Time for grid setup =    0.824 sec

--------------------
COSX GRID GENERATION
--------------------

GRIDX 1
-------
General Integration Accuracy     IntAcc      ... 3.816
Radial Grid Type                 RadialGrid  ... OptM3 with GC (2021)
Angular Grid (max. ang.)         AngularGrid ... 1 (Lebedev-50)
Angular grid pruning method      GridPruning ... 4 (adaptive)
Weight generation scheme         WeightScheme... Becke
Basis function cutoff            BFCut       ... 1.0000e-11
Integration weight cutoff        WCut        ... 1.0000e-14
Angular grids for H and He will be reduced by one unit
Partially contracted basis set               ... on
Rotationally invariant grid construction     ... off

Total number of grid points                  ...    13488
Total number of batches                      ...      222
Average number of points per batch           ...       60
Average number of grid points per atom       ...      586
UseSFitting                                  ... on

GRIDX 2
-------
General Integration Accuracy     IntAcc      ... 4.020
Radial Grid Type                 RadialGrid  ... OptM3 with GC (2021)
Angular Grid (max. ang.)         AngularGrid ... 2 (Lebedev-110)
Angular grid pruning method      GridPruning ... 4 (adaptive)
Weight generation scheme         WeightScheme... Becke
Basis function cutoff            BFCut       ... 1.0000e-11
Integration weight cutoff        WCut        ... 1.0000e-14
Angular grids for H and He will be reduced by one unit
Partially contracted basis set               ... on
Rotationally invariant grid construction     ... off

Total number of grid points                  ...    29133
Total number of batches                      ...      468
Average number of points per batch           ...       62
Average number of grid points per atom       ...     1267
UseSFitting                                  ... on

GRIDX 3
-------
General Integration Accuracy     IntAcc      ... 4.338
Radial Grid Type                 RadialGrid  ... OptM3 with GC (2021)
Angular Grid (max. ang.)         AngularGrid ... 3 (Lebedev-194)
Angular grid pruning method      GridPruning ... 4 (adaptive)
Weight generation scheme         WeightScheme... Becke
Basis function cutoff            BFCut       ... 1.0000e-11
Integration weight cutoff        WCut        ... 1.0000e-14
Angular grids for H and He will be reduced by one unit
Partially contracted basis set               ... on
Rotationally invariant grid construction     ... off

Total number of grid points                  ...    63895
Total number of batches                      ...     1010
Average number of points per batch           ...       63
Average number of grid points per atom       ...     2778
UseSFitting                                  ... on

Time for X-Grid setup             =    0.956 sec


--------------------
CPCM SOLVATION MODEL
--------------------
CPCM parameters:
  Epsilon                                         ...      78.4000
  Refrac                                          ...       1.3300
  Rsolv                                           ...       1.3000
  Surface type                                    ... GAUSSIAN VDW
  Epsilon function type                           ...         CPCM
Radii:
 Radius for C  used is    3.8550 Bohr (=   2.0400 Ang.)
 Radius for H  used is    2.4944 Bohr (=   1.3200 Ang.)
 Radius for N  used is    3.5149 Bohr (=   1.8600 Ang.)
 Radius for O  used is    3.4469 Bohr (=   1.8240 Ang.)
Calculating surface                               ...        done! (  0.0s)
GEPOL surface points                              ...         1404
GEPOL Volume                                      ...    1436.3459
GEPOL Surface-area                                ...     881.3268
Calculating surface distance matrix               ...        done! (  0.1s)
Performing Cholesky decomposition & store         ...        done! (  0.4s)
Overall time for CPCM initialization              ...                 0.5s
--------------
SCF ITERATIONS
--------------
ITER       Energy         Delta-E        Max-DP      RMS-DP      [F,P]     Damp
               ***  Starting incremental Fock matrix formation  ***
  0   -628.0870678131   0.000000000000 0.07607424  0.00127436  0.3046038 0.7000
  1   -628.3591826043  -0.272114791211 0.07203110  0.00097842  0.1241656 0.7000
                               ***Turning on DIIS***
  2   -628.4550452797  -0.095862675408 0.09010547  0.00148493  0.0434071 0.0000
  3   -628.6144387851  -0.159393505384 0.06520789  0.00071953  0.0702466 0.0000
  4   -628.6470191426  -0.032580357477 0.02145572  0.00025436  0.0167689 0.0000
  5   -628.6491892245  -0.002170081947 0.00856168  0.00010205  0.0043594 0.0000
                      *** Initiating the SOSCF procedure ***
                           *** Shutting down DIIS ***
                      *** Re-Reading the Fockian *** 
                      *** Removing any level shift *** 
ITER      Energy       Delta-E        Grad      Rot      Max-DP    RMS-DP
  6   -628.64929482  -0.0001055943  0.000323  0.000323  0.003013  0.000038
               *** Restarting incremental Fock matrix formation ***
  7   -628.64930242  -0.0000075979  0.000181  0.000599  0.002594  0.000031
  8   -628.64930148   0.0000009397  0.000430  0.000526  0.000410  0.000006
  9   -628.64930471  -0.0000032290  0.000074  0.000167  0.000274  0.000004
 10   -628.64930457   0.0000001391  0.000099  0.000094  0.000083  0.000001
 11   -628.64930479  -0.0000002257  0.000007  0.000025  0.000054  0.000001
 12   -628.64930480  -0.0000000035  0.000009  0.000015  0.000029  0.000000
                  ***Gradient check signals convergence***
              ***Rediagonalizing the Fockian in SOSCF/NRSCF***

               *****************************************************
               *                     SUCCESS                       *
               *           SCF CONVERGED AFTER  13 CYCLES          *
               *****************************************************

Old exchange energy                            =    -15.615183231 Eh
New exchange energy                            =    -15.615155825 Eh
Exchange energy change after final integration =      0.000027407 Eh
Total energy after final integration           =   -628.649277391 Eh
Final COS-X integration done in                =     0.841 sec

----------------
TOTAL SCF ENERGY
----------------

Total Energy       :         -628.64927739 Eh          -17106.41651 eV

Components:
Nuclear Repulsion  :          613.67352939 Eh           16698.90569 eV
Electronic Energy  :        -1242.32280679 Eh          -33805.32220 eV
One Electron Energy:        -2091.88241596 Eh          -56923.01445 eV
Two Electron Energy:          849.55960918 Eh           23117.69225 eV
Max COSX asymmetry :            0.00000226 Eh               0.00006 eV
CPCM Dielectric    :           -0.11907261 Eh              -3.24013 eV

Virial components:
Potential Energy   :        -1254.77890935 Eh          -34144.26998 eV
Kinetic Energy     :          626.12963196 Eh           17037.85347 eV
Virial Ratio       :            2.00402416


DFT components:
N(Alpha)           :       44.999972161459 electrons
N(Beta)            :       44.999972161459 electrons
N(Total)           :       89.999944322918 electrons
E(X)               :      -62.193214397647 Eh       
E(C)               :       -3.642776580678 Eh       
E(XC)              :      -65.835990978325 Eh       
DFET-embed. en.    :        0.000000000000 Eh       
CPCM Solvation Model Properties:
Surface-charge          :            0.96924723
Charge-correction       :           -0.00393871 Eh              -0.10718 eV
Free-energy (cav+disp)  :  This term is not implemented in the current solvation scheme

---------------
SCF CONVERGENCE
---------------

  Last Energy change         ...   -1.4687e-09  Tolerance :   1.0000e-08
  Last MAX-Density change    ...    1.2212e-15  Tolerance :   1.0000e-07
  Last RMS-Density change    ...    1.7298e-17  Tolerance :   5.0000e-09
  Last Orbital Gradient      ...    1.8951e-06  Tolerance :   1.0000e-05
  Last Orbital Rotation      ...    7.7840e-06  Tolerance :   1.0000e-05

             **** THE GBW FILE WAS UPDATED (/home/rudenko/mop_saddle_orca_4_serv/for_orca/ch32chno2_ch3coo_new/orca/orca_end/end.gbw) ****
             **** DENSITY /home/rudenko/mop_saddle_orca_4_serv/for_orca/ch32chno2_ch3coo_new/orca/orca_end/end.scfp WAS UPDATED ****
             **** ENERGY FILE WAS UPDATED (/home/rudenko/mop_saddle_orca_4_serv/for_orca/ch32chno2_ch3coo_new/orca/orca_end/end.en.tmp) ****
             **** THE GBW FILE WAS UPDATED (/home/rudenko/mop_saddle_orca_4_serv/for_orca/ch32chno2_ch3coo_new/orca/orca_end/end.gbw) ****
             **** DENSITY /home/rudenko/mop_saddle_orca_4_serv/for_orca/ch32chno2_ch3coo_new/orca/orca_end/end.scfp WAS UPDATED ****
----------------
ORBITAL ENERGIES
----------------

  NO   OCC          E(Eh)            E(eV) 
   0   2.0000     -19.145838      -520.9847 
   1   2.0000     -19.145559      -520.9771 
   2   2.0000     -19.107678      -519.9463 
   3   2.0000     -19.059852      -518.6449 
   4   2.0000     -19.059752      -518.6422 
   5   2.0000     -14.454071      -393.3153 
   6   2.0000     -10.300418      -280.2886 
   7   2.0000     -10.172896      -276.8186 
   8   2.0000     -10.167097      -276.6608 
   9   2.0000     -10.150895      -276.2199 
  10   2.0000     -10.150436      -276.2074 
  11   2.0000      -1.126045       -30.6412 
  12   2.0000      -1.089106       -29.6361 
  13   2.0000      -1.028318       -27.9819 
  14   2.0000      -0.999120       -27.1874 
  15   2.0000      -0.940157       -25.5830 
  16   2.0000      -0.809091       -22.0165 
  17   2.0000      -0.749100       -20.3840 
  18   2.0000      -0.687894       -18.7185 
  19   2.0000      -0.677794       -18.4437 
  20   2.0000      -0.602568       -16.3967 
  21   2.0000      -0.543078       -14.7779 
  22   2.0000      -0.503889       -13.7115 
  23   2.0000      -0.492050       -13.3894 
  24   2.0000      -0.471234       -12.8229 
  25   2.0000      -0.468398       -12.7457 
  26   2.0000      -0.466725       -12.7002 
  27   2.0000      -0.461196       -12.5498 
  28   2.0000      -0.452477       -12.3125 
  29   2.0000      -0.426296       -11.6001 
  30   2.0000      -0.400650       -10.9022 
  31   2.0000      -0.395384       -10.7590 
  32   2.0000      -0.384506       -10.4629 
  33   2.0000      -0.380275       -10.3478 
  34   2.0000      -0.375420       -10.2157 
  35   2.0000      -0.374562       -10.1924 
  36   2.0000      -0.371665       -10.1135 
  37   2.0000      -0.338345        -9.2068 
  38   2.0000      -0.332159        -9.0385 
  39   2.0000      -0.314720        -8.5640 
  40   2.0000      -0.278250        -7.5716 
  41   2.0000      -0.260869        -7.0986 
  42   2.0000      -0.244248        -6.6463 
  43   2.0000      -0.212969        -5.7952 
  44   2.0000      -0.172636        -4.6977 
  45   0.0000       0.005519         0.1502 
  46   0.0000       0.018667         0.5080 
  47   0.0000       0.034925         0.9504 
  48   0.0000       0.054793         1.4910 
  49   0.0000       0.073661         2.0044 
  50   0.0000       0.088512         2.4085 
  51   0.0000       0.104113         2.8331 
  52   0.0000       0.116494         3.1700 
  53   0.0000       0.121179         3.2975 
  54   0.0000       0.127766         3.4767 
  55   0.0000       0.131490         3.5780 
  56   0.0000       0.137977         3.7545 
  57   0.0000       0.147905         4.0247 
  58   0.0000       0.152701         4.1552 
  59   0.0000       0.161355         4.3907 
  60   0.0000       0.166959         4.5432 
  61   0.0000       0.176959         4.8153 
  62   0.0000       0.196817         5.3557 
  63   0.0000       0.202704         5.5158 
  64   0.0000       0.210179         5.7193 
  65   0.0000       0.217879         5.9288 
  66   0.0000       0.230102         6.2614 
  67   0.0000       0.235261         6.4018 
  68   0.0000       0.243265         6.6196 
  69   0.0000       0.246711         6.7133 
  70   0.0000       0.259972         7.0742 
  71   0.0000       0.275384         7.4936 
  72   0.0000       0.282554         7.6887 
  73   0.0000       0.290755         7.9118 
  74   0.0000       0.308212         8.3869 
  75   0.0000       0.320845         8.7306 
  76   0.0000       0.335227         9.1220 
  77   0.0000       0.356511         9.7012 
  78   0.0000       0.359383         9.7793 
  79   0.0000       0.378256        10.2929 
  80   0.0000       0.385115        10.4795 
  81   0.0000       0.391205        10.6452 
  82   0.0000       0.393716        10.7136 
  83   0.0000       0.397044        10.8041 
  84   0.0000       0.413896        11.2627 
  85   0.0000       0.416555        11.3350 
  86   0.0000       0.430383        11.7113 
  87   0.0000       0.438055        11.9201 
  88   0.0000       0.449812        12.2400 
  89   0.0000       0.454579        12.3697 
  90   0.0000       0.456728        12.4282 
  91   0.0000       0.465346        12.6627 
  92   0.0000       0.468797        12.7566 
  93   0.0000       0.473640        12.8884 
  94   0.0000       0.482438        13.1278 
  95   0.0000       0.493708        13.4345 
  96   0.0000       0.494799        13.4642 
  97   0.0000       0.502357        13.6698 
  98   0.0000       0.508084        13.8257 
  99   0.0000       0.522482        14.2175 
 100   0.0000       0.526001        14.3132 
 101   0.0000       0.535954        14.5840 
 102   0.0000       0.548369        14.9219 
 103   0.0000       0.554566        15.0905 
 104   0.0000       0.567906        15.4535 
 105   0.0000       0.568733        15.4760 
 106   0.0000       0.574350        15.6289 
 107   0.0000       0.591223        16.0880 
 108   0.0000       0.600359        16.3366 
 109   0.0000       0.607694        16.5362 
 110   0.0000       0.616437        16.7741 
 111   0.0000       0.638724        17.3806 
 112   0.0000       0.657717        17.8974 
 113   0.0000       0.667928        18.1752 
 114   0.0000       0.673359        18.3230 
 115   0.0000       0.680133        18.5074 
 116   0.0000       0.699691        19.0396 
 117   0.0000       0.728182        19.8148 
 118   0.0000       0.730540        19.8790 
 119   0.0000       0.750065        20.4103 
 120   0.0000       0.762021        20.7356 
 121   0.0000       0.786247        21.3949 
 122   0.0000       0.796366        21.6702 
 123   0.0000       0.838615        22.8199 
 124   0.0000       0.857658        23.3380 
 125   0.0000       0.868433        23.6313 
 126   0.0000       0.889294        24.1989 
 127   0.0000       0.893576        24.3154 
 128   0.0000       0.928264        25.2593 
 129   0.0000       0.930866        25.3302 
 130   0.0000       0.938940        25.5499 
 131   0.0000       0.949458        25.8361 
 132   0.0000       0.971925        26.4474 
 133   0.0000       1.002126        27.2692 
 134   0.0000       1.005838        27.3702 
 135   0.0000       1.017707        27.6932 
 136   0.0000       1.049768        28.5656 
 137   0.0000       1.056228        28.7414 
 138   0.0000       1.064004        28.9530 
 139   0.0000       1.075210        29.2580 
 140   0.0000       1.094967        29.7956 
 141   0.0000       1.110410        30.2158 
 142   0.0000       1.122507        30.5450 
 143   0.0000       1.166771        31.7494 
 144   0.0000       1.174713        31.9656 
 145   0.0000       1.223294        33.2875 
 146   0.0000       1.229655        33.4606 
 147   0.0000       1.268915        34.5289 
 148   0.0000       1.315438        35.7949 
 149   0.0000       1.341596        36.5067 
 150   0.0000       1.344315        36.5807 
 151   0.0000       1.359157        36.9845 
 152   0.0000       1.369093        37.2549 
 153   0.0000       1.404986        38.2316 
 154   0.0000       1.422775        38.7157 
 155   0.0000       1.436290        39.0834 
 156   0.0000       1.459752        39.7219 
 157   0.0000       1.478903        40.2430 
 158   0.0000       1.493444        40.6387 
 159   0.0000       1.507678        41.0260 
 160   0.0000       1.511394        41.1271 
 161   0.0000       1.526922        41.5497 
 162   0.0000       1.539053        41.8797 
 163   0.0000       1.540403        41.9165 
 164   0.0000       1.548873        42.1470 
 165   0.0000       1.554651        42.3042 
 166   0.0000       1.557754        42.3886 
 167   0.0000       1.564075        42.5606 
 168   0.0000       1.572949        42.8021 
 169   0.0000       1.590463        43.2787 
 170   0.0000       1.599127        43.5145 
 171   0.0000       1.602385        43.6031 
 172   0.0000       1.615332        43.9554 
 173   0.0000       1.622781        44.1581 
 174   0.0000       1.628068        44.3020 
 175   0.0000       1.642301        44.6893 
 176   0.0000       1.665642        45.3244 
 177   0.0000       1.690464        45.9999 
 178   0.0000       1.730993        47.1027 
 179   0.0000       1.747185        47.5433 
 180   0.0000       1.771114        48.1945 
 181   0.0000       1.788309        48.6624 
 182   0.0000       1.800027        48.9812 
 183   0.0000       1.812187        49.3121 
 184   0.0000       1.823738        49.6264 
 185   0.0000       1.847621        50.2763 
 186   0.0000       1.861061        50.6420 
 187   0.0000       1.898187        51.6523 
 188   0.0000       1.905940        51.8633 
 189   0.0000       1.912055        52.0297 
 190   0.0000       1.941615        52.8340 
 191   0.0000       1.954185        53.1761 
 192   0.0000       1.956354        53.2351 
 193   0.0000       1.978292        53.8321 
 194   0.0000       1.999470        54.4083 
 195   0.0000       2.007260        54.6203 
 196   0.0000       2.018623        54.9295 
 197   0.0000       2.029042        55.2130 
 198   0.0000       2.035916        55.4001 
 199   0.0000       2.081490        56.6402 
 200   0.0000       2.090276        56.8793 
 201   0.0000       2.094685        56.9993 
 202   0.0000       2.112478        57.4834 
 203   0.0000       2.119335        57.6701 
 204   0.0000       2.126015        57.8518 
 205   0.0000       2.139444        58.2172 
 206   0.0000       2.152036        58.5599 
 207   0.0000       2.172007        59.1033 
 208   0.0000       2.199870        59.8615 
 209   0.0000       2.208311        60.0912 
 210   0.0000       2.215383        60.2836 
 211   0.0000       2.232381        60.7462 
 212   0.0000       2.256940        61.4145 
 213   0.0000       2.272835        61.8470 
 214   0.0000       2.308692        62.8227 
[...]
    59. A(C   0,H   1,N   2)           33.94  0.000051   -0.10     33.84   
    60. A(H  13,H   1,H  18)          105.99  0.000023   -0.32    105.66   
    61. A(N   2,H   1,C  16)           55.89  0.000032   -0.14     55.75   
    62. A(C   0,N   2,O   4)          120.98 -0.000008   -0.00    120.98   
    63. A(O   3,N   2,O   4)          118.26  0.000028   -0.05    118.21   
    64. A(H   1,N   2,O   4)          101.06 -0.000068    0.02    101.08   
    65. A(H   1,N   2,O   3)          108.27  0.000070   -0.05    108.22   
    66. A(C   0,N   2,H   1)           60.20 -0.000016    0.03     60.23   
    67. A(C   0,N   2,O   3)          120.76 -0.000019    0.05    120.81   
    68. A(O   7,C   5,C   8)          124.29 -0.000156    0.01    124.30   
    69. A(O   6,C   5,C   8)          112.55  0.000051    0.03    112.58   
    70. A(O   6,C   5,O   7)          123.15  0.000104   -0.04    123.12   
    71. A(C   5,O   6,H  20)          110.74  0.000037   -0.06    110.69   
    72. A(C   5,C   8,H   9)          110.15 -0.000109   -0.00    110.14   
    73. A(H  10,C   8,H  11)          107.55 -0.000065    0.01    107.56   
    74. A(H   9,C   8,H  11)          110.42  0.000079    0.02    110.43   
    75. A(C   5,C   8,H  11)          110.43 -0.000038    0.01    110.44   
    76. A(H   9,C   8,H  10)          109.41 -0.000040    0.01    109.41   
    77. A(C   5,C   8,H  10)          108.84  0.000176   -0.04    108.80   
    78. A(C   0,C  12,H  14)          111.75 -0.000006    0.00    111.76   
    79. A(C   0,C  12,H  13)          112.37  0.000030   -0.07    112.30   
    80. A(H   1,C  12,H  15)          100.79  0.000081   -0.43    100.36   
    81. A(H   1,C  12,H  14)          150.86 -0.000016    0.40    151.26   
    82. A(H   1,C  12,H  13)           68.26  0.000014    0.11     68.37   
    83. A(C   0,C  12,H   1)           51.39  0.000003    0.03     51.42   
    84. A(H  14,C  12,H  15)          107.89 -0.000063    0.01    107.90   
    85. A(H  13,C  12,H  15)          108.30 -0.000007   -0.00    108.30   
    86. A(C   0,C  12,H  15)          109.95  0.000050   -0.03    109.92   
    87. A(H  13,C  12,H  14)          106.38 -0.000009    0.10    106.47   
    88. A(H   1,H  13,C  12)           87.26 -0.000019   -0.05     87.22   
    89. A(H  18,C  16,H  19)          108.35  0.000021    0.01    108.36   
    90. A(H   1,C  16,H  19)          100.92  0.000002   -0.70    100.22   
    91. A(H   1,C  16,H  18)           71.58 -0.000044    0.38     71.96   
    92. A(H  17,C  16,H  19)          108.22  0.000048   -0.08    108.13   
    93. A(H   1,C  16,H  17)          149.58 -0.000051    0.67    150.25   
    94. A(C   0,C  16,H   1)           47.48 -0.000028    0.03     47.51   
    95. A(C   0,C  16,H  19)          109.90 -0.000009    0.03    109.93   
    96. A(H  17,C  16,H  18)          106.28  0.000015    0.10    106.38   
    97. A(C   0,C  16,H  18)          111.92 -0.000065   -0.02    111.90   
    98. A(C   0,C  16,H  17)          112.01 -0.000005   -0.04    111.97   
    99. A(H   1,H  18,C  16)           85.14  0.000050   -0.31     84.83   
   100. A(H   1,H  20,O  21)           26.35  0.000033   -0.07     26.28   
   101. A(H   1,H  20,O   6)          151.10  0.000140   -0.10    151.00   
   102. A(H   1,O  21,H  22)          104.90  0.000005    0.02    104.92   
   103. A(H  20,O  21,H  22)          110.18 -0.000035   -0.06    110.11   
   104. A(H   1,O  21,H  20)          104.02 -0.000078    0.17    104.19   
   105. D(O  21,H   1,C   0,C  16)     96.65  0.000009    0.34     96.99   
   106. D(H  13,H   1,C   0,N   2)   -102.61  0.000021    0.17   -102.43   
   107. D(H  20,H   1,C   0,C  16)   -108.33 -0.000009   -0.11   -108.44   
   108. D(H  18,H   1,C   0,C  12)   -139.46 -0.000039   -0.34   -139.80   
   109. D(C  16,H   1,C   0,N   2)    118.01  0.000003    0.04    118.05   
   110. D(H  20,H   1,C   0,C  12)    127.78 -0.000046   -0.04    127.74   
   111. D(N   2,H   1,C   0,C  12)    118.10 -0.000040    0.03    118.13   
   112. D(N   2,H   1,C   0,C  16)   -118.01 -0.000003   -0.04   -118.05   
   113. D(H  13,H   1,C   0,C  16)    139.39  0.000018    0.13    139.52   
   114. D(H  18,H   1,C   0,C  16)    -15.57 -0.000002   -0.41    -15.98   
   115. D(C  16,H   1,C   0,C  12)   -123.89 -0.000037    0.07   -123.82   
   116. D(C  12,H   1,C   0,C  16)    123.89  0.000037   -0.07    123.82   
   117. D(H  18,H   1,C   0,N   2)    102.44  0.000001   -0.37    102.07   
   118. D(O  21,H   1,C   0,C  12)    -27.24 -0.000028    0.41    -26.83   
   119. D(H  20,H   1,C   0,N   2)      9.68 -0.000006   -0.07      9.61   
   120. D(O  21,H   1,C   0,N   2)   -145.34  0.000012    0.38   -144.96   
   121. D(C  12,H   1,C   0,N   2)   -118.10  0.000040   -0.03   -118.13   
   122. D(H  13,H   1,C   0,C  12)     15.50 -0.000019    0.20     15.70   
   123. D(H   1,N   2,C   0,C  12)    -92.35  0.000052   -0.13    -92.48   
   124. D(C   0,N   2,H   1,C  16)    -34.77  0.000031    0.04    -34.73   
   125. D(C   0,N   2,H   1,C  12)     36.30  0.000022   -0.05     36.25   
   126. D(O   4,N   2,H   1,H  13)    -58.91 -0.000008    0.03    -58.88   
   127. D(O   4,N   2,C   0,H   1)     85.06 -0.000096    0.05     85.11   
   128. D(O   3,N   2,C   0,C  16)      4.79 -0.000063    0.18      4.96   
   129. D(H   1,N   2,C   0,C  16)     99.35  0.000028    0.10     99.45   
   130. D(C   0,N   2,H   1,H  18)    -58.60  0.000032   -0.12    -58.71   
   131. D(O   4,N   2,C   0,C  16)   -175.59 -0.000067    0.14   -175.44   
   132. D(C   0,N   2,H   1,H  13)     60.60  0.000021    0.02     60.62   
   133. D(O   4,N   2,H   1,H  20)     67.73 -0.000033   -0.01     67.71   
   134. D(C   0,N   2,H   1,H  20)   -172.77 -0.000003   -0.03   -172.80   
   135. D(O   4,N   2,C   0,C  12)     -7.29 -0.000044   -0.08     -7.37   
   136. D(O   3,N   2,H   1,C  16)     80.80 -0.000027    0.13     80.93   
   137. D(O   3,N   2,C   0,C  12)    173.08 -0.000039   -0.05    173.03   
   138. D(O   3,N   2,H   1,H  20)    -57.20 -0.000061    0.06    -57.14   
   139. D(O   4,N   2,H   1,C   0)   -119.51 -0.000029    0.01   -119.49   
   140. D(O   3,N   2,H   1,H  18)     56.97 -0.000026   -0.03     56.94   
   141. D(O   4,N   2,H   1,C  12)    -83.20 -0.000007   -0.04    -83.24   
   142. D(O   4,N   2,H   1,C  16)   -154.28  0.000001    0.06   -154.22   
   143. D(O   3,N   2,H   1,H  13)    176.17 -0.000036    0.10    176.27   
   144. D(O   4,N   2,H   1,H  18)   -178.11  0.000002   -0.10   -178.21   
   145. D(O   3,N   2,H   1,C  12)    151.87 -0.000035    0.04    151.91   
   146. D(O   3,N   2,H   1,C   0)    115.57 -0.000057    0.09    115.65   
   147. D(O   3,N   2,C   0,H   1)    -94.56 -0.000091    0.08    -94.49   
   148. D(H  20,O   6,C   5,C   8)   -176.24  0.000055    0.23   -176.00   
   149. D(H  20,O   6,C   5,O   7)      2.94  0.000010    0.16      3.10   
   150. D(H  11,C   8,C   5,O   7)    132.24  0.000027    0.35    132.59   
   151. D(H  11,C   8,C   5,O   6)    -48.60 -0.000016    0.27    -48.33   
   152. D(H  10,C   8,C   5,O   7)   -109.92  0.000032    0.34   -109.58   
   153. D(H  10,C   8,C   5,O   6)     69.24 -0.000011    0.26     69.51   
   154. D(H   9,C   8,C   5,O   7)     10.02  0.000026    0.32     10.34   
   155. D(H   9,C   8,C   5,O   6)   -170.81 -0.000017    0.24   -170.57   
   156. D(H  15,C  12,C   0,H   1)     87.99  0.000069   -0.54     87.45   
   157. D(H  14,C  12,C   0,N   2)    -64.76 -0.000039   -0.42    -65.18   
   158. D(H  14,C  12,C   0,C  16)    103.03 -0.000019   -0.64    102.39   
   159. D(H   1,C  12,C   0,N   2)     87.46 -0.000058    0.13     87.60   
   160. D(H  15,C  12,C   0,N   2)    175.45  0.000011   -0.41    175.05   
   161. D(H  13,C  12,C   0,H   1)    -32.72  0.000023   -0.47    -33.19   
   162. D(H  15,C  12,C   0,C  16)    -16.75  0.000032   -0.63    -17.38   
   163. D(H  13,C  12,C   0,C  16)   -137.46 -0.000014   -0.56   -138.02   
   164. D(H  13,C  12,C   0,N   2)     54.74 -0.000035   -0.34     54.41   
   165. D(H  14,C  12,C   0,H   1)   -152.23  0.000018   -0.55   -152.78   
   166. D(C   0,C  12,H   1,O  21)    178.42 -0.000018    0.26    178.68   
   167. D(H   1,C  12,C   0,C  16)   -104.74 -0.000037   -0.09   -104.83   
   168. D(H  15,C  12,H   1,H  20)    162.22 -0.000047    0.09    162.31   
   169. D(H  15,C  12,H   1,H  18)    -75.24 -0.000040   -0.64    -75.88   
   170. D(H  15,C  12,H   1,N   2)   -142.62 -0.000048   -0.24   -142.86   
   171. D(H  15,C  12,H   1,C  16)    -75.52 -0.000038   -0.27    -75.80   
   172. D(H  14,C  12,H   1,H  20)    -28.07 -0.000027   -0.26    -28.33   
   173. D(H  14,C  12,H   1,H  18)     94.47 -0.000020   -1.00     93.48   
   174. D(H  15,C  12,H   1,H  13)    105.56 -0.000036    0.16    105.72   
   175. D(H  14,C  12,H   1,O  21)   -118.86  0.000001   -0.39   -119.25   
   176. D(H  14,C  12,H   1,C   0)     62.71  0.000019   -0.65     62.07   
   177. D(H  14,C  12,H   1,H  13)    -84.73 -0.000015   -0.19    -84.92   
   178. D(H  13,C  12,H   1,H  20)     56.66 -0.000012   -0.07     56.59   
   179. D(H  14,C  12,H   1,N   2)     27.10 -0.000028   -0.60     26.50   
   180. D(H  13,C  12,H   1,H  18)    179.20 -0.000004   -0.81    178.40   
   181. D(H  13,C  12,H   1,C  16)    178.92 -0.000003   -0.44    178.48   
   182. D(H  14,C  12,H   1,C  16)     94.19 -0.000018   -0.63     93.56   
   183. D(H  13,C  12,H   1,N   2)    111.82 -0.000012   -0.41    111.42   
   184. D(H  13,C  12,H   1,C   0)    147.44  0.000034   -0.46    146.99   
   185. D(H  15,C  12,H   1,O  21)     71.42 -0.000019   -0.03     71.39   
   186. D(H  15,C  12,H   1,C   0)   -107.00 -0.000002   -0.29   -107.29   
   187. D(H  13,C  12,H   1,O  21)    -34.13  0.000016   -0.19    -34.33   
   188. D(C   0,C  12,H   1,H  20)    -90.78 -0.000046    0.39    -90.40   
   189. D(C   0,C  12,H   1,C  16)     31.48 -0.000037    0.02     31.50   
   190. D(C   0,C  12,H   1,H  18)     31.76 -0.000039   -0.35     31.41   
   191. D(C   0,C  12,H   1,H  13)   -147.44 -0.000034    0.46   -146.99   
   192. D(C   0,C  12,H   1,N   2)    -35.62 -0.000047    0.05    -35.57   
   193. D(H   1,H  13,C  12,H  15)    -94.61 -0.000097    0.45    -94.16   
   194. D(H   1,H  13,C  12,H  14)    149.64 -0.000016    0.39    150.03   
   195. D(H   1,H  13,C  12,C   0)     27.05 -0.000020    0.36     27.41   
   196. D(C  12,H  13,H   1,H  20)   -142.12  0.000013    0.07   -142.06   
   197. D(C  12,H  13,H   1,H  18)     -0.82 -0.000005   -0.83     -1.65   
   198. D(C  12,H  13,H   1,C  16)     -0.92 -0.000003   -0.37     -1.30   
   199. D(C  12,H  13,H   1,N   2)    -57.13 -0.000031   -0.28    -57.41   
   200. D(C  12,H  13,H   1,C   0)    -21.47  0.000014   -0.28    -21.75   
   201. D(C  12,H  13,H   1,O  21)    156.89 -0.000004   -0.02    156.88   
   202. D(H  18,C  16,H   1,H  13)    179.74  0.000005    1.11    180.86   
   203. D(H  18,C  16,H   1,C  12)    179.29  0.000004    0.93    180.22   
   204. D(H  18,C  16,H   1,N   2)   -110.52  0.000043    0.87   -109.65   
   205. D(H  18,C  16,H   1,O  21)     36.76  0.000050    0.30     37.07   
   206. D(H  17,C  16,H   1,H  20)     46.91 -0.000066    1.22     48.13   
   207. D(H  17,C  16,H   1,H  18)     90.93 -0.000029    0.64     91.58   
   208. D(H  17,C  16,H   1,C  12)    -89.77 -0.000025    1.57    -88.20   
   209. D(H  17,C  16,H   1,N   2)    -19.58  0.000014    1.51    -18.07   
   210. D(H  17,C  16,H   1,C   0)    -56.12 -0.000024    1.58    -54.54   
   211. D(H  17,C  16,H   1,O  21)    127.70  0.000021    0.95    128.64   
   212. D(C   0,C  16,H   1,H  20)    103.03 -0.000042   -0.36    102.67   
   213. D(C   0,C  16,H   1,H  18)    147.05 -0.000005   -0.93    146.12   
   214. D(C   0,C  16,H   1,H  13)    -33.20  0.000001    0.18    -33.02   
   215. D(C   0,C  16,H   1,C  12)    -33.65 -0.000001   -0.00    -33.65   
   216. D(C   0,C  16,H   1,N   2)     36.54  0.000038   -0.06     36.48   
   217. D(C   0,C  16,H   1,O  21)   -176.18  0.000045   -0.63   -176.81   
   218. D(H   1,C  16,C   0,C  12)    101.44  0.000001    0.10    101.54   
   219. D(H   1,C  16,C   0,N   2)    -90.77  0.000016   -0.12    -90.89   
   220. D(H  19,C  16,C   0,H   1)    -86.64 -0.000000    1.01    -85.62   
   221. D(H  19,C  16,C   0,C  12)     14.80  0.000001    1.12     15.92   
   222. D(H  17,C  16,H   1,H  13)    -89.32 -0.000024    1.76    -87.56   
   223. D(H  19,C  16,C   0,N   2)   -177.40  0.000016    0.89   -176.51   
   224. D(H  18,C  16,C   0,H   1)     33.79 -0.000023    1.04     34.83   
   225. D(H  18,C  16,C   0,C  12)    135.23 -0.000022    1.14    136.37   
   226. D(H  18,C  16,H   1,C   0)   -147.05  0.000005    0.93   -146.12   
   227. D(H  18,C  16,C   0,N   2)    -56.98 -0.000006    0.92    -56.06   
   228. D(H  17,C  16,C   0,H   1)    153.04 -0.000051    1.13    154.17   
   229. D(H  17,C  16,C   0,C  12)   -105.53 -0.000050    1.23   -104.29   
   230. D(H  18,C  16,H   1,H  20)    -44.02 -0.000037    0.57    -43.45   
   231. D(H  17,C  16,C   0,N   2)     62.27 -0.000035    1.01     63.28   
   232. D(H  19,C  16,H   1,H  20)   -149.90 -0.000054    0.32   -149.58   
   233. D(H  19,C  16,H   1,H  18)   -105.88 -0.000017   -0.25   -106.13   
   234. D(H  19,C  16,H   1,H  13)     73.86 -0.000012    0.86     74.72   
   235. D(H  19,C  16,H   1,C  12)     73.41 -0.000013    0.68     74.09   
   236. D(H  19,C  16,H   1,N   2)    143.61  0.000026    0.62    144.22   
   237. D(H  19,C  16,H   1,C   0)    107.07 -0.000012    0.68    107.74   
   238. D(H  19,C  16,H   1,O  21)    -69.12  0.000033    0.05    -69.07   
   239. D(H   1,H  18,C  16,H  17)   -148.17  0.000057   -0.69   -148.86   
   240. D(H   1,H  18,C  16,C   0)    -25.60  0.000021   -0.69    -26.29   
   241. D(C  16,H  18,H   1,H  20)    146.25 -0.000033    0.39    146.64   
   242. D(C  16,H  18,H   1,H  13)     -0.26  0.000005    1.15      0.88   
   243. D(C  16,H  18,H   1,C  12)     -0.61  0.000003    0.80      0.19   
   244. D(C  16,H  18,H   1,N   2)     57.81  0.000052    0.68     58.49   
   245. D(C  16,H  18,H   1,C   0)     21.29  0.000000    0.59     21.88   
   246. D(H   1,H  18,C  16,H  19)     95.73 -0.000017   -0.66     95.08   
   247. D(C  16,H  18,H   1,O  21)   -156.32  0.000028    0.19   -156.13   
   248. D(H   1,H  20,O   6,C   5)     88.18 -0.000099    0.64     88.82   
   249. D(O  21,H  20,H   1,H  18)    118.69  0.000036    0.32    119.01   
   250. D(O  21,H  20,H   1,H  13)   -103.07  0.000020   -0.70   -103.77   
   251. D(O  21,H  20,H   1,C  12)   -128.83  0.000036   -0.57   -129.40   
   252. D(O  21,H  20,H   1,N   2)   -173.42  0.000016   -0.23   -173.65   
   253. D(O  21,H  20,H   1,C   0)   -178.87  0.000013   -0.17   -179.04   
   254. D(O   6,H  20,H   1,H  18)    -70.53  0.000023   -0.14    -70.67   
   255. D(O   6,H  20,H   1,C  16)    -52.81  0.000031   -0.40    -53.21   
   256. D(O   6,H  20,H   1,H  13)     67.71  0.000007   -1.16     66.55   
   257. D(O   6,H  20,H   1,C  12)     41.95  0.000022   -1.03     40.92   
   258. D(O  21,H  20,H   1,C  16)    136.41  0.000045    0.06    136.47   
   259. D(O   6,H  20,H   1,N   2)     -2.64  0.000002   -0.69     -3.33   
   260. D(O   6,H  20,H   1,C   0)     -8.08 -0.000001   -0.64     -8.72   
   261. D(O   6,H  20,H   1,O  21)    170.78 -0.000014   -0.46    170.32   
   262. D(H  22,O  21,H  20,H   1)    111.97 -0.000048    0.08    112.05   
   263. D(H  22,O  21,O   6,C   5)   -169.27 -0.000098    0.24   -169.03   
   264. D(H  20,O  21,N   2,O   4)     69.14 -0.000016   -0.12     69.02   
   265. D(H  20,O  21,N   2,O   3)    -52.12 -0.000037   -0.05    -52.17   
   266. D(H  20,O  21,N   2,C   0)   -170.01  0.000006   -0.15   -170.16   
   267. D(H  22,O  21,N   2,O   3)   -160.64  0.000029    0.03   -160.61   
   268. D(H  22,O  21,N   2,C   0)     81.47  0.000072   -0.07     81.40   
   269. D(H  20,O  21,H   1,H  18)    -93.46 -0.000017    0.43    -93.03   
   270. D(H  20,O  21,H   1,C  16)   -110.81 -0.000040    0.31   -110.50   
   271. D(H  20,O  21,H   1,H  13)    113.91 -0.000011   -0.49    113.43   
   272. D(H  20,O  21,H   1,C  12)    129.81 -0.000024   -0.36    129.45   
   273. D(H  20,O  21,H   1,C   0)    155.77 -0.000010   -0.56    155.21   
   274. D(H  22,O  21,N   2,O   4)    -39.38  0.000050   -0.04    -39.43   
   275. D(H  22,O  21,H   1,H  20)   -115.74  0.000070   -0.01   -115.75   
   276. D(H  22,O  21,H   1,H  18)    150.80  0.000053    0.42    151.22   
   277. D(H  22,O  21,H   1,C  16)    133.45  0.000030    0.30    133.75   
   278. D(H   1,O  21,O   6,C   5)     79.65 -0.000076    0.21     79.86   
   279. D(H  22,O  21,H   1,H  13)     -1.83  0.000059   -0.50     -2.32   
   280. D(H  22,O  21,H   1,C  12)     14.07  0.000045   -0.37     13.70   
   281. D(H  22,O  21,H   1,C   0)     40.03  0.000059   -0.57     39.46   
    ----------------------------------------------------------------------------




    ----------------------------------------------------------------------------
                                  WARNING !!!
       The optimization did not converge but reached the maximum number of
       optimization cycles.
       Please check your results very carefully.
    ----------------------------------------------------------------------------



                            ***************************************
                            *     ORCA property calculations      *
                            ***************************************

                                    ---------------------
                                    Active property flags
                                    ---------------------
   (+) Dipole Moment


------------------------------------------------------------------------------
                       ORCA ELECTRIC PROPERTIES CALCULATION
------------------------------------------------------------------------------

Dipole Moment Calculation                       ... on
Quadrupole Moment Calculation                   ... off
Polarizability Calculation                      ... off
GBWName                                         ... /home/rudenko/mop_saddle_orca_4_serv/for_orca/ch32chno2_ch3coo_new/orca/orca_end/end.gbw
Electron density                                ... /home/rudenko/mop_saddle_orca_4_serv/for_orca/ch32chno2_ch3coo_new/orca/orca_end/end.scfp
The origin for moment calculation is the CENTER OF MASS  = ( 6.576631, -3.401536  0.826836)

-------------
DIPOLE MOMENT
-------------
                                X             Y             Z
Electronic contribution:      4.36411      -3.02704       2.41477
Nuclear contribution   :     -2.84452       4.91986      -3.64828
                        -----------------------------------------
Total Dipole Moment    :      1.51959       1.89283      -1.23351
                        -----------------------------------------
Magnitude (a.u.)       :      2.72277
Magnitude (Debye)      :      6.92074



--------------------
Rotational spectrum 
--------------------
 
Rotational constants in cm-1:     0.051486     0.016830     0.016304 
Rotational constants in MHz :  1543.502640   504.535905   488.794252 

 Dipole components along the rotational axes: 
x,y,z [a.u.] :     0.550316     2.647442    -0.318909 
x,y,z [Debye]:     1.398793     6.729264    -0.810602 

 

Timings for individual modules:

Sum of individual times         ...     2411.157 sec (=  40.186 min)
GTO integral calculation        ...      307.644 sec (=   5.127 min)  12.8 %
SCF iterations                  ...     1539.944 sec (=  25.666 min)  63.9 %
SCF Gradient evaluation         ...      554.461 sec (=   9.241 min)  23.0 %
Geometry relaxation             ...        9.108 sec (=   0.152 min)   0.4 %
                             ****ORCA TERMINATED NORMALLY****
TOTAL RUN TIME: 0 days 0 hours 44 minutes 37 seconds 151 msec
