 *******************************************************************************
 **                                                                           **
 **                              MOPAC v22.0.6                                **
 **                                                                           **
 *******************************************************************************
 **          Digital Object Identifier (DOI): 10.5281/zenodo.6511958          **
 **    Visit the DOI location for information on how to cite this program.    **
 *******************************************************************************

                              PM7 CALCULATION RESULTS

 *******************************************************************************
 *  CALCULATION DONE:                                Mon Mar 25 21:52:08 2024  *
 *  PM7        - The PM7 Hamiltonian to be used
 *  SINGLET    - SPIN STATE DEFINED AS A SINGLET
 *
 *
 *
 *                 CHARGE ON SYSTEM = 0
 *
 *
 *
 *  EPS=78.0   - USE ANDREAS KLAMT'S COSMO IMPLICIT SOLVATION MODEL
 *  T=         - A TIME OF 14.0 DAYS REQUESTED
 *  DUMP=N     - RESTART FILE WRITTEN EVERY 30.0 MINUTES REQUESTED
 *  RELSCF     - DEFAULT SCF CRITERION MULTIPLIED BY 1.0000
 *              (DEFAULT SCF CRITERION = 0.00010)
 *  ITRY=      - DO A MAXIMUM OF 15000 ITERATIONS FOR SCF
 *  AUX        - OUTPUT AUXILIARY INFORMATION
 *  BONDS      - FINAL BOND-ORDER MATRIX TO BE PRINTED
 *******************************************************************************
PM7 BONDS AUX DUMP=30M ITRY=15000 T=14D CHARGE=0 SINGLET eps=78.0 RELSCF=1
 Title: ASE calculation

   ATOM   CHEMICAL          X               Y               Z
  NUMBER   SYMBOL      (ANGSTROMS)     (ANGSTROMS)     (ANGSTROMS)

     1       C          0.43973000  *  -0.77615000  *   0.55698000  *
     2       H          0.99706000  *  -1.42846000  *  -0.14632000  *
     3       H          0.92619000  *   0.22470000  *   0.53418000  *
     4       H          0.56809000  *  -1.18193000  *   1.58223000  *
     5       N         -0.96451000  *  -0.66295000  *   0.18794000  *
     6       O         -1.80017000  *  -0.48653000  *   1.06343000  *
     7       O         -1.27867000  *  -0.73834000  *  -0.99168000  *
     8       H          3.77261000  *  -1.64753000  *   1.37466000  *
     9       O          2.95342000  *  -1.18193000  *   1.58223000  *
    10       H          3.17675000  *  -0.25400000  *   1.43927000  *



          CARTESIAN COORDINATES 

    NO.       ATOM           X           Y           Z

     1         C          0.4397     -0.7762      0.5570
     2         H          0.9971     -1.4285     -0.1463
     3         H          0.9262      0.2247      0.5342
     4         H          0.5681     -1.1819      1.5822
     5         N         -0.9645     -0.6630      0.1879
     6         O         -1.8002     -0.4865      1.0634
     7         O         -1.2787     -0.7383     -0.9917
     8         H          3.7726     -1.6475      1.3747
     9         O          2.9534     -1.1819      1.5822
    10         H          3.1768     -0.2540      1.4393

 General Reference for PM7:
 "Optimization of Parameters for Semiempirical Methods VI: More Modifications to the 
 NDDO Approximations and Re-optimization of Parameters", J. J. P. Stewart, J. Mol. Mod., 1:32, 19 (2013)
 https://link.springer.com/article/10.1007/s00894-012-1667-x

           Empirical Formula: C H5 N O3  =    10 atoms



      MOLECULAR POINT GROUP   :   C1  


 SINGLET STATE CALCULATION


      RHF CALCULATION, NO. OF DOUBLY OCCUPIED LEVELS = 16


          Geometry optimization using EF
  SCF CRITERION =    0.1000E-03

          DIAGONAL MATRIX USED AS START HESSIAN

 CYCLE:     1 TIME:   0.016 TIME LEFT:  2.00W  GRAD.:     1.083 HEAT: -91.88740
 CYCLE:     2 TIME:   0.016 TIME LEFT:  2.00W  GRAD.:     2.442 HEAT: -91.88962
 CYCLE:     3 TIME:   0.031 TIME LEFT:  2.00W  GRAD.:     3.867 HEAT: -91.89069
 CYCLE:     4 TIME:   0.023 TIME LEFT:  2.00W  GRAD.:     8.004 HEAT: -91.89722
 CYCLE:     5 TIME:   0.023 TIME LEFT:  2.00W  GRAD.:     5.003 HEAT: -91.92037
 CYCLE:     6 TIME:   0.023 TIME LEFT:  2.00W  GRAD.:     4.152 HEAT: -91.92214
 CYCLE:     7 TIME:   0.023 TIME LEFT:  2.00W  GRAD.:     3.932 HEAT: -91.92276

     TRUST RADIUS NOW LESS THAN  0.00010 OPTIMIZATION TERMINATING
      THE GEOMETRY MAY NOT BE COMPLETELY OPTIMIZED
      (TO CONTINUE, ADD 'LET DDMIN=0.0' TO THE KEYWORD LINE)

 -------------------------------------------------------------------------------
 PM7 BONDS AUX DUMP=30M ITRY=15000 T=14D CHARGE=0 SINGLET eps=78.0 RELSCF=1
 Title: ASE calculation



     GEOMETRY OPTIMISED USING EIGENVECTOR FOLLOWING (EF).     
     SCF FIELD WAS ACHIEVED                                   


                              PM7 CALCULATION
                                                       MOPAC v22.0.6 Linux
                                                       Mon Mar 25 21:52:08 2024




          FINAL HEAT OF FORMATION =        -91.92276 KCAL/MOL =    -384.60485 KJ/MOL
          VAN DER WAALS AREA      =        116.66 SQUARE ANGSTROMS



          DIELECTRIC ENERGY       =         -0.74229 EV
          COSMO AREA              =        116.66 SQUARE ANGSTROMS
          COSMO VOLUME            =         94.62 CUBIC ANGSTROMS

          GRADIENT NORM           =          3.93204          =       1.24342 PER ATOM
          IONIZATION POTENTIAL    =         11.709593 EV
          HOMO LUMO ENERGIES (EV) =        -11.710 -0.380
          NO. OF FILLED LEVELS    =         16
          MOLECULAR WEIGHT        =         79.0554         POINT GROUP:  C1  

          MOLECULAR DIMENSIONS (Angstroms)

            Atom       Atom       Distance
            H     8    O     6     5.69545
            O     7    H    10     2.59161
            H     4    H     3     1.78436


          SCF CALCULATIONS        =         23

          WALL-CLOCK TIME         =      0.227 SECONDS
          COMPUTATION TIME        =      9.523 SECONDS



       FINAL  POINT  AND  DERIVATIVES

   PARAMETER     ATOM    TYPE            VALUE        GRADIENT
      1          1  C    CARTESIAN X     0.438946     -0.108092  KCAL/ANGSTROM
      2          1  C    CARTESIAN Y    -0.776398      0.054248  KCAL/ANGSTROM
      3          1  C    CARTESIAN Z     0.556222      2.344406  KCAL/ANGSTROM
      4          2  H    CARTESIAN X     1.001031      0.495522  KCAL/ANGSTROM
      5          2  H    CARTESIAN Y    -1.429253     -0.449292  KCAL/ANGSTROM
      6          2  H    CARTESIAN Z    -0.145137     -0.379485  KCAL/ANGSTROM
      7          3  H    CARTESIAN X     0.926679      0.009995  KCAL/ANGSTROM
      8          3  H    CARTESIAN Y     0.223342     -0.243071  KCAL/ANGSTROM
      9          3  H    CARTESIAN Z     0.534747      0.043179  KCAL/ANGSTROM
     10          4  H    CARTESIAN X     0.562776     -0.058872  KCAL/ANGSTROM
     11          4  H    CARTESIAN Y    -1.181548      0.643198  KCAL/ANGSTROM
     12          4  H    CARTESIAN Z     1.578691     -1.699448  KCAL/ANGSTROM
     13          5  N    CARTESIAN X    -0.965427      0.069867  KCAL/ANGSTROM
     14          5  N    CARTESIAN Y    -0.662564      0.129954  KCAL/ANGSTROM
     15          5  N    CARTESIAN Z     0.185667     -0.649460  KCAL/ANGSTROM
     16          6  O    CARTESIAN X    -1.797889     -0.394412  KCAL/ANGSTROM
     17          6  O    CARTESIAN Y    -0.488010      0.182042  KCAL/ANGSTROM
     18          6  O    CARTESIAN Z     1.065592      1.374690  KCAL/ANGSTROM
     19          7  O    CARTESIAN X    -1.281845      0.005953  KCAL/ANGSTROM
     20          7  O    CARTESIAN Y    -0.736813     -0.054782  KCAL/ANGSTROM
     21          7  O    CARTESIAN Z    -0.993449     -1.229100  KCAL/ANGSTROM
     22          8  H    CARTESIAN X     3.768871     -0.435788  KCAL/ANGSTROM
     23          8  H    CARTESIAN Y    -1.652354     -0.144615  KCAL/ANGSTROM
     24          8  H    CARTESIAN Z     1.371664      0.230932  KCAL/ANGSTROM
     25          9  O    CARTESIAN X     2.957255      0.680449  KCAL/ANGSTROM
     26          9  O    CARTESIAN Y    -1.180605     -0.761933  KCAL/ANGSTROM
     27          9  O    CARTESIAN Z     1.588338     -0.303443  KCAL/ANGSTROM
     28         10  H    CARTESIAN X     3.175751     -0.264624  KCAL/ANGSTROM
     29         10  H    CARTESIAN Y    -0.253459      0.644250  KCAL/ANGSTROM
     30         10  H    CARTESIAN Z     1.429243      0.267728  KCAL/ANGSTROM




   ATOM   CHEMICAL          X               Y               Z
  NUMBER   SYMBOL      (ANGSTROMS)     (ANGSTROMS)     (ANGSTROMS)

     1       C          0.43894600  *  -0.77639832  *   0.55622185  *
     2       H          1.00103145  *  -1.42925313  *  -0.14513711  *
     3       H          0.92667888  *   0.22334185  *   0.53474678  *
     4       H          0.56277581  *  -1.18154808  *   1.57869132  *
     5       N         -0.96542738  *  -0.66256387  *   0.18566748  *
     6       O         -1.79788890  *  -0.48800953  *   1.06559165  *
     7       O         -1.28184476  *  -0.73681258  *  -0.99344884  *
     8       H          3.76887115  *  -1.65235434  *   1.37166354  *
     9       O          2.95725465  *  -1.18060492  *   1.58833817  *
    10       H          3.17575147  *  -0.25345875  *   1.42924300  *

                             CARTESIAN COORDINATES

   1    C        0.438945995    -0.776398317     0.556221847
   2    H        1.001031453    -1.429253130    -0.145137110
   3    H        0.926678883     0.223341850     0.534746778
   4    H        0.562775809    -1.181548078     1.578691318
   5    N       -0.965427381    -0.662563867     0.185667479
   6    O       -1.797888902    -0.488009528     1.065591648
   7    O       -1.281844761    -0.736812581    -0.993448841
   8    H        3.768871151    -1.652354344     1.371663539
   9    O        2.957254653    -1.180604920     1.588338168
  10    H        3.175751473    -0.253458752     1.429243005


           Empirical Formula: C H5 N O3  =    10 atoms



      MOLECULAR POINT GROUP   :   C1  


                  EIGENVALUES  
 -37.38269 -30.71712 -29.21975 -27.76208 -23.01676 -18.48167 -18.29879 -17.92609
 -17.48462 -14.49329 -14.16975 -13.87183 -12.31176 -12.00824 -11.89478 -11.70959
  -0.38003   0.60679   4.00436   4.09445   4.41983   4.81833   5.15358   5.84178
   6.63067


              NET ATOMIC CHARGES AND DIPOLE CONTRIBUTIONS

  ATOM NO.   TYPE          CHARGE      No. of ELECS.   s-Pop       p-Pop       
    1          C          -0.394504        4.3945     1.08530     3.30920
    2          H           0.216418        0.7836     0.78358
    3          H           0.222867        0.7771     0.77713
    4          H           0.216067        0.7839     0.78393
    5          N           0.701411        4.2986     1.44881     2.84977
    6          O          -0.482268        6.4823     1.94011     4.54216
    7          O          -0.479629        6.4796     1.93998     4.53965
    8          H           0.369885        0.6301     0.63011
    9          O          -0.742748        6.7427     1.81544     4.92731
   10          H           0.372502        0.6275     0.62750
 DIPOLE           X         Y         Z       TOTAL
 POINT-CHG.     7.478     0.417     0.779     7.530
 HYBRID        -0.164     0.173    -0.216     0.321
 SUM            7.314     0.589     0.564     7.359


          ATOMIC ORBITAL ELECTRON POPULATIONS

     Atom    s        px        py        pz   
    1  C   1.08530   0.86602   1.22813   1.21505
    2  H   0.78358
    3  H   0.77713
    4  H   0.78393
    5  N   1.44881   1.01561   0.88695   0.94721
    6  O   1.94011   1.53915   1.56881   1.43419
    7  O   1.93998   1.88339   1.58212   1.07414
    8  H   0.63011
    9  O   1.81544   1.54855   1.42699   1.95177
   10  H   0.62750

          BONDING CONTRIBUTION OF EACH M.O.

  1.3491  0.9632  1.1366  1.3211  0.9823  1.0560  1.5441  1.5973  1.6409  1.0400
  1.5603  1.6093  0.0170  0.8420  0.2799  0.5783 -2.3463 -2.1012 -1.9587 -1.9207
 -1.7380 -1.9080 -1.9524 -1.8728 -1.7192





            (VALENCIES)   BOND ORDERS

     1  C     (3.829)     4  H 0.936     2  H 0.936     3  H 0.920     5  N 0.895     7  O 0.070     6  O 0.069

     2  H     (0.953)     1  C 0.936

     3  H     (0.950)     1  C 0.920

     4  H     (0.953)     1  C 0.936

     5  N     (3.773)     7  O 1.433     6  O 1.431     1  C 0.895

     6  O     (1.804)     5  N 1.431     7  O 0.284     1  C 0.069

     7  O     (1.807)     5  N 1.433     6  O 0.284     1  C 0.070

     8  H     (0.863)     9  O 0.861

     9  O     (1.723)     8  H 0.861    10  H 0.859

    10  H     (0.861)     9  O 0.859


 **********************
 *                    *
 * JOB ENDED NORMALLY *
 *                    *
 **********************



 TOTAL JOB TIME:             0.23 SECONDS

 == MOPAC DONE ==
