 *******************************************************************************
 **                                                                           **
 **                              MOPAC v22.1.0                                **
 **                                                                           **
 *******************************************************************************
 **          Digital Object Identifier (DOI): 10.5281/zenodo.6511958          **
 **    Visit the DOI location for information on how to cite this program.    **
 *******************************************************************************

                              PM7 CALCULATION RESULTS

 *******************************************************************************
 *  CALCULATION DONE:                                Sat Mar 23 15:19:19 2024  *
 *  PM7        - The PM7 Hamiltonian to be used
 *  SINGLET    - SPIN STATE DEFINED AS A SINGLET
 *
 *
 *
 *                 CHARGE ON SYSTEM = 0
 *
 *
 *
 *  EPS=78.4   - USE ANDREAS KLAMT'S COSMO IMPLICIT SOLVATION MODEL
 *  THREADS    - USE A MAXIMUM OF 40 THREADS
 *  T=         - A TIME OF 14.0 DAYS REQUESTED
 *  DUMP=N     - RESTART FILE WRITTEN EVERY 30.0 MINUTES REQUESTED
 *  ITRY=      - DO A MAXIMUM OF 15000 ITERATIONS FOR SCF
 *  AUX        - OUTPUT AUXILIARY INFORMATION
 *  PL         - MONITOR CONVERGENCE IN DENSITY MATRIX
 *******************************************************************************
PM7 CHARGE=0 SINGLET AUX DUMP=30M ITRY=15000 eps=78.4 T=14D PL THREADS=40

 Mopac file generated by Gabedit
   ATOM   CHEMICAL          X               Y               Z
  NUMBER   SYMBOL      (ANGSTROMS)     (ANGSTROMS)     (ANGSTROMS)

     1       C          0.88999000  *   3.30411000  *   1.94578000  *
     2       C          1.39994000  *   2.00944000  *   1.86329000  *
     3       C          0.53999000  *   0.91335000  *   1.77300000  *
     4       C         -0.84286000  *   1.10832000  *   1.74768000  *
     5       C         -1.31775000  *   2.40851000  *   1.82680000  *
     6       C         -0.48748000  *   3.51682000  *   1.92910000  *
     7       H          1.57279000  *   4.15432000  *   2.02219000  *
     8       H          2.48454000  *   1.85375000  *   1.87134000  *
     9       H         -1.52340000  *   0.25623000  *   1.66154000  *
    10      Cl         -3.01710000  *   2.65463000  *   1.79370000  *
    11       H         -0.88865000  *   4.53064000  *   1.99333000  *
    12       C          1.12983000  *  -0.47017000  *   1.72076000  *
    13       C          0.51444000  *  -1.40769000  *   2.75154000  *
    14       H          1.01076000  *  -2.38953000  *   2.77006000  *
    15       H         -0.55687000  *  -1.59031000  *   2.57977000  *
    16       H          0.60381000  *  -0.98316000  *   3.76427000  *
    17       N          0.89672000  *  -1.03757000  *   0.34992000  *
    18       O          1.86801000  *  -1.29485000  *  -0.34134000  *
    19       O         -0.24673000  *  -1.22087000  *  -0.03411000  *
    20       N          5.91324000  *  -0.51584400  *   2.34537300  *
    21       C          6.61801300  *  -1.82050200  *   2.29891300  *
    22       C          7.58399700  *  -1.90277800  *   3.49173700  *
    23       O          8.48874500  *  -0.81069600  *   3.48294400  *
    24       C          7.83047000  *   0.44539400  *   3.52923400  *
    25       C          6.89640300  *   0.59541500  *   2.31840900  *
    26       H          6.34485400  *   1.55948900  *   2.37014000  *
    27       H          7.49003500  *   0.61967800  *   1.37967100  *
    28       H          8.66386100  *   1.16987600  *   3.50568200  *
    29       H          7.28314600  *   0.53404600  *   4.48499500  *
    30       H          8.24910800  *  -2.78245500  *   3.42730900  *
    31       H          7.04700200  *  -1.91392800  *   4.45686200  *
    32       H          7.17034300  *  -1.97484000  *   1.34747600  *
    33       H          2.25933000  *  -0.41999000  *   1.87897000  *
    34       H          5.27259900  *  -0.43597400  *   1.54838800  *
    35       H          5.85756500  *  -2.63015900  *   2.36367100  *
    36       H          3.23759000  *  -1.05033500  *   2.47521300  *
    37       H          4.14944500  *  -0.04561700  *   2.28951500  *
    38       O          3.43260700  *  -0.49639200  *   2.19102800  *



          CARTESIAN COORDINATES 

    NO.       ATOM           X           Y           Z

     1         C          0.8900      3.3041      1.9458
     2         C          1.3999      2.0094      1.8633
     3         C          0.5400      0.9133      1.7730
     4         C         -0.8429      1.1083      1.7477
     5         C         -1.3177      2.4085      1.8268
     6         C         -0.4875      3.5168      1.9291
     7         H          1.5728      4.1543      2.0222
     8         H          2.4845      1.8538      1.8713
     9         H         -1.5234      0.2562      1.6615
    10        Cl         -3.0171      2.6546      1.7937
    11         H         -0.8887      4.5306      1.9933
    12         C          1.1298     -0.4702      1.7208
    13         C          0.5144     -1.4077      2.7515
    14         H          1.0108     -2.3895      2.7701
    15         H         -0.5569     -1.5903      2.5798
    16         H          0.6038     -0.9832      3.7643
    17         N          0.8967     -1.0376      0.3499
    18         O          1.8680     -1.2949     -0.3413
    19         O         -0.2467     -1.2209     -0.0341
    20         N          5.9132     -0.5158      2.3454
    21         C          6.6180     -1.8205      2.2989
    22         C          7.5840     -1.9028      3.4917
    23         O          8.4887     -0.8107      3.4829
    24         C          7.8305      0.4454      3.5292
    25         C          6.8964      0.5954      2.3184
    26         H          6.3449      1.5595      2.3701
    27         H          7.4900      0.6197      1.3797
    28         H          8.6639      1.1699      3.5057
    29         H          7.2831      0.5340      4.4850
    30         H          8.2491     -2.7825      3.4273
    31         H          7.0470     -1.9139      4.4569
    32         H          7.1703     -1.9748      1.3475
    33         H          2.2593     -0.4200      1.8790
    34         H          5.2726     -0.4360      1.5484
    35         H          5.8576     -2.6302      2.3637
    36         H          3.2376     -1.0503      2.4752
    37         H          4.1494     -0.0456      2.2895
    38         O          3.4326     -0.4964      2.1910

 General Reference for PM7:
 "Optimization of Parameters for Semiempirical Methods VI: More Modifications to the 
 NDDO Approximations and Re-optimization of Parameters", J. J. P. Stewart, J. Mol. Mod., 1:32, 19 (2013)
 https://link.springer.com/article/10.1007/s00894-012-1667-x

           Empirical Formula: C12 H19 N2 O4 Cl  =    38 atoms



      MOLECULAR POINT GROUP   :   C1  


 SINGLET STATE CALCULATION


      RHF CALCULATION, NO. OF DOUBLY OCCUPIED LEVELS = 54


          Geometry optimization using L-BFGS
 ITERATION   1 PLS= 0.100E+01 0.000E+00 ENERGY    17266.413972 DELTAE    0.0000000
 ITERATION   2 PLS= 0.123E+01 0.000E+00 ENERGY      191.535773 DELTAE    0.0000000
 ITERATION   3 PLS= 0.989E-01 0.000E+00 ENERGY       81.102128 DELTAE -110.4336450
 ITERATION   4 PLS= 0.656E-01 0.000E+00 ENERGY     -144.214862 DELTAE -225.3169899
 ITERATION   5 PLS= 0.214E-01 0.000E+00 ENERGY      -10.499201 DELTAE  133.7156608
 ITERATION   6 PLS= 0.353E-01 0.000E+00 ENERGY      -16.093238 DELTAE   -5.5940370
 ITERATION   7 PLS= 0.257E-01 0.000E+00 ENERGY      -22.493524 DELTAE   -6.4002861
 ITERATION   8 PLS= 0.627E-02 0.000E+00 ENERGY      -18.454745 DELTAE    4.0387790
 ITERATION   9 PLS= 0.250E-02 0.000E+00 ENERGY      -18.479574 DELTAE   -0.0248284
 ITERATION  10 PLS= 0.105E-02 0.000E+00 ENERGY      -18.495172 DELTAE   -0.0155978
 ITERATION  11 PLS= 0.420E-03 0.000E+00 ENERGY      -18.487246 DELTAE    0.0079258
 ITERATION  12 PLS= 0.322E-03 0.000E+00 ENERGY      -18.487374 DELTAE   -0.0001277
 ITERATION  13 PLS= 0.243E-03 0.000E+00 ENERGY      -18.487893 DELTAE   -0.0005196
 ITERATION  14 PLS= 0.426E-04 0.000E+00 ENERGY      -18.487510 DELTAE    0.0003829
 ITERATION   1 PLS= 0.215E-04 0.000E+00 ENERGY      -32.998341 DELTAE -132.9983414
 ITERATION   2 PLS= 0.188E-01 0.000E+00 ENERGY      -34.517037 DELTAE   -1.5186957
 ITERATION   3 PLS= 0.109E-01 0.000E+00 ENERGY      -34.856895 DELTAE   -0.3398581
 ITERATION   4 PLS= 0.676E-02 0.000E+00 ENERGY      -35.142045 DELTAE   -0.2851495
 ITERATION   5 PLS= 0.157E-02 0.000E+00 ENERGY      -35.001865 DELTAE    0.1401798
 ITERATION   6 PLS= 0.107E-02 0.000E+00 ENERGY      -35.003410 DELTAE   -0.0015455
 ITERATION   7 PLS= 0.710E-03 0.000E+00 ENERGY      -35.007670 DELTAE   -0.0042596
 ITERATION   8 PLS= 0.122E-03 0.000E+00 ENERGY      -35.004701 DELTAE    0.0029690
 ITERATION   9 PLS= 0.915E-04 0.000E+00 ENERGY      -35.004716 DELTAE   -0.0000146
 CYCLE:     1 TIME:   0.227 TIME LEFT:  2.00W  GRAD.:   686.114 HEAT: -35.00477
 ITERATION   1 PLS= 0.715E-04 0.000E+00 ENERGY      -39.358431 DELTAE -139.3584313
 ITERATION   2 PLS= 0.399E-02 0.000E+00 ENERGY      -39.394184 DELTAE   -0.0357526
 ITERATION   3 PLS= 0.140E-02 0.000E+00 ENERGY      -39.397937 DELTAE   -0.0037527
 ITERATION   4 PLS= 0.549E-03 0.000E+00 ENERGY      -39.399209 DELTAE   -0.0012728
 CYCLE:     2 TIME:   0.090 TIME LEFT:  2.00W  GRAD.:   596.719 HEAT: -39.39872
 ITERATION   1 PLS= 0.103E-03 0.000E+00 ENERGY      -58.019275 DELTAE -158.0192748
 ITERATION   2 PLS= 0.262E-01 0.000E+00 ENERGY      -59.376404 DELTAE   -1.3571296
 ITERATION   3 PLS= 0.884E-02 0.000E+00 ENERGY      -59.520193 DELTAE   -0.1437885
 ITERATION   4 PLS= 0.346E-02 0.000E+00 ENERGY      -59.571797 DELTAE   -0.0516041
 ITERATION   5 PLS= 0.745E-03 0.000E+00 ENERGY      -59.552191 DELTAE    0.0196056
 CYCLE:     3 TIME:   0.070 TIME LEFT:  2.00W  GRAD.:   289.427 HEAT: -59.55244
 ITERATION   1 PLS= 0.271E-03 0.000E+00 ENERGY      -37.821924 DELTAE -137.8219244
 ITERATION   2 PLS= 0.257E-01 0.000E+00 ENERGY      -39.222541 DELTAE   -1.4006163
 ITERATION   3 PLS= 0.917E-02 0.000E+00 ENERGY      -39.368172 DELTAE   -0.1456311
 ITERATION   4 PLS= 0.355E-02 0.000E+00 ENERGY      -39.416530 DELTAE   -0.0483581
 ITERATION   5 PLS= 0.640E-03 0.000E+00 ENERGY      -39.398717 DELTAE    0.0178134
 CYCLE:     4 TIME:   0.074 TIME LEFT:  2.00W  GRAD.:   596.879 HEAT: -39.39893
 ITERATION   1 PLS= 0.252E-03 0.000E+00 ENERGY      -58.029184 DELTAE -158.0291841
 ITERATION   2 PLS= 0.262E-01 0.000E+00 ENERGY      -59.383081 DELTAE   -1.3538971
 ITERATION   3 PLS= 0.878E-02 0.000E+00 ENERGY      -59.525116 DELTAE   -0.1420349
 ITERATION   4 PLS= 0.343E-02 0.000E+00 ENERGY      -59.575017 DELTAE   -0.0499005
 ITERATION   5 PLS= 0.739E-03 0.000E+00 ENERGY      -59.556260 DELTAE    0.0187566
 CYCLE:     5 TIME:   0.086 TIME LEFT:  2.00W  GRAD.:   289.387 HEAT: -59.55651
 ITERATION   1 PLS= 0.270E-03 0.000E+00 ENERGY      -71.164699 DELTAE -171.1646990
 ITERATION   2 PLS= 0.263E-01 0.000E+00 ENERGY      -72.232934 DELTAE   -1.0682353
 ITERATION   3 PLS= 0.876E-02 0.000E+00 ENERGY      -72.357967 DELTAE   -0.1250322
 ITERATION   4 PLS= 0.345E-02 0.000E+00 ENERGY      -72.410182 DELTAE   -0.0522154
 ITERATION   5 PLS= 0.795E-03 0.000E+00 ENERGY      -72.390573 DELTAE    0.0196091
 CYCLE:     6 TIME:   0.125 TIME LEFT:  2.00W  GRAD.:   179.895 HEAT: -72.39091
 ITERATION   1 PLS= 0.314E-03 0.000E+00 ENERGY      -83.503085 DELTAE -183.5030853
 ITERATION   2 PLS= 0.523E-01 0.000E+00 ENERGY      -86.699187 DELTAE   -3.1961019
 ITERATION   3 PLS= 0.175E-01 0.000E+00 ENERGY      -87.174101 DELTAE   -0.4749137
 ITERATION   4 PLS= 0.718E-02 0.000E+00 ENERGY      -87.443766 DELTAE   -0.2696652
 ITERATION   5 PLS= 0.202E-02 0.000E+00 ENERGY      -87.334340 DELTAE    0.1094260
 ITERATION   6 PLS= 0.872E-03 0.000E+00 ENERGY      -87.336148 DELTAE   -0.0018077
 CYCLE:     7 TIME:   0.086 TIME LEFT:  2.00W  GRAD.:    84.629 HEAT: -87.33826
 ITERATION   1 PLS= 0.446E-03 0.000E+00 ENERGY      -90.358257 DELTAE -190.3582571
 ITERATION   2 PLS= 0.498E-01 0.000E+00 ENERGY      -93.900249 DELTAE   -3.5419916
 ITERATION   3 PLS= 0.174E-01 0.000E+00 ENERGY      -94.535535 DELTAE   -0.6352864
 ITERATION   4 PLS= 0.905E-02 0.000E+00 ENERGY      -95.026176 DELTAE   -0.4906408
 ITERATION   5 PLS= 0.260E-02 0.000E+00 ENERGY      -94.783443 DELTAE    0.2427330
 ITERATION   6 PLS= 0.107E-02 0.000E+00 ENERGY      -94.785207 DELTAE   -0.0017636
 CYCLE:     8 TIME:   0.086 TIME LEFT:  2.00W  GRAD.:    51.636 HEAT: -94.78709
 ITERATION   1 PLS= 0.543E-03 0.000E+00 ENERGY      -96.401242 DELTAE -196.4012417
 ITERATION   2 PLS= 0.206E-01 0.000E+00 ENERGY      -98.167561 DELTAE   -1.7663198
 ITERATION   3 PLS= 0.121E-01 0.000E+00 ENERGY      -98.471780 DELTAE   -0.3042184
 ITERATION   4 PLS= 0.689E-02 0.000E+00 ENERGY      -98.682897 DELTAE   -0.2111176
 ITERATION   5 PLS= 0.112E-02 0.000E+00 ENERGY      -98.573663 DELTAE    0.1092349
 ITERATION   6 PLS= 0.506E-03 0.000E+00 ENERGY      -98.574183 DELTAE   -0.0005200
 CYCLE:     9 TIME:   0.078 TIME LEFT:  2.00W  GRAD.:    72.118 HEAT: -98.57472
 ITERATION   1 PLS= 0.262E-03 0.000E+00 ENERGY      -94.792322 DELTAE -194.7923219
 ITERATION   2 PLS= 0.436E-01 0.000E+00 ENERGY     -100.585133 DELTAE   -5.7928114
 ITERATION   3 PLS= 0.254E-01 0.000E+00 ENERGY     -101.615970 DELTAE   -1.0308369
 ITERATION   4 PLS= 0.144E-01 0.000E+00 ENERGY     -102.345086 DELTAE   -0.7291155
 ITERATION   5 PLS= 0.172E-02 0.000E+00 ENERGY     -101.960348 DELTAE    0.3847380
 ITERATION   6 PLS= 0.816E-03 0.000E+00 ENERGY     -101.961693 DELTAE   -0.0013459
 CYCLE:    10 TIME:   0.078 TIME LEFT:  2.00W  GRAD.:   105.863 HEAT: -101.9628
 ITERATION   1 PLS= 0.430E-03 0.000E+00 ENERGY     -103.615126 DELTAE -203.6151264
 ITERATION   2 PLS= 0.238E-01 0.000E+00 ENERGY     -105.932569 DELTAE   -2.3174426
 ITERATION   3 PLS= 0.109E-01 0.000E+00 ENERGY     -106.257702 DELTAE   -0.3251332
 ITERATION   4 PLS= 0.512E-02 0.000E+00 ENERGY     -106.443412 DELTAE   -0.1857093
 ITERATION   5 PLS= 0.859E-03 0.000E+00 ENERGY     -106.354164 DELTAE    0.0892472
 CYCLE:    11 TIME:   0.074 TIME LEFT:  2.00W  GRAD.:    61.653 HEAT: -106.3546
 ITERATION   1 PLS= 0.523E-03 0.000E+00 ENERGY     -106.991003 DELTAE -206.9910028
 ITERATION   2 PLS= 0.229E-01 0.000E+00 ENERGY     -108.786899 DELTAE   -1.7958966
 ITERATION   3 PLS= 0.109E-01 0.000E+00 ENERGY     -109.062447 DELTAE   -0.2755472
 ITERATION   4 PLS= 0.524E-02 0.000E+00 ENERGY     -109.199056 DELTAE   -0.1366093
 ITERATION   5 PLS= 0.586E-03 0.000E+00 ENERGY     -109.139612 DELTAE    0.0594440
 CYCLE:    12 TIME:   0.070 TIME LEFT:  2.00W  GRAD.:    39.611 HEAT: -109.1399
 ITERATION   1 PLS= 0.333E-03 0.000E+00 ENERGY     -109.154060 DELTAE -209.1540604
 ITERATION   2 PLS= 0.147E-01 0.000E+00 ENERGY     -110.006888 DELTAE   -0.8528280
 ITERATION   3 PLS= 0.663E-02 0.000E+00 ENERGY     -110.145750 DELTAE   -0.1388619
 ITERATION   4 PLS= 0.310E-02 0.000E+00 ENERGY     -110.226868 DELTAE   -0.0811176
 ITERATION   5 PLS= 0.327E-03 0.000E+00 ENERGY     -110.186456 DELTAE    0.0404119
 CYCLE:    13 TIME:   0.074 TIME LEFT:  2.00W  GRAD.:    48.395 HEAT: -110.1866
 ITERATION   1 PLS= 0.143E-03 0.000E+00 ENERGY     -111.056922 DELTAE -211.0569217
 ITERATION   2 PLS= 0.572E-02 0.000E+00 ENERGY     -111.295014 DELTAE   -0.2380928
 ITERATION   3 PLS= 0.260E-02 0.000E+00 ENERGY     -111.333335 DELTAE   -0.0383210
 ITERATION   4 PLS= 0.121E-02 0.000E+00 ENERGY     -111.355779 DELTAE   -0.0224437
 ITERATION   5 PLS= 0.170E-03 0.000E+00 ENERGY     -111.344325 DELTAE    0.0114542
 CYCLE:    14 TIME:   0.070 TIME LEFT:  2.00W  GRAD.:    38.369 HEAT: -111.3444
 ITERATION   1 PLS= 0.104E-03 0.000E+00 ENERGY     -109.723893 DELTAE -209.7238926
 ITERATION   2 PLS= 0.149E-01 0.000E+00 ENERGY     -112.669748 DELTAE   -2.9458559
 ITERATION   3 PLS= 0.740E-02 0.000E+00 ENERGY     -113.178374 DELTAE   -0.5086254
 ITERATION   4 PLS= 0.371E-02 0.000E+00 ENERGY     -113.503106 DELTAE   -0.3247317
 ITERATION   5 PLS= 0.743E-03 0.000E+00 ENERGY     -113.328414 DELTAE    0.1746912
 ITERATION   6 PLS= 0.465E-03 0.000E+00 ENERGY     -113.329126 DELTAE   -0.0007116
 CYCLE:    15 TIME:   0.082 TIME LEFT:  2.00W  GRAD.:    41.689 HEAT: -113.3299
 ITERATION   1 PLS= 0.283E-03 0.000E+00 ENERGY     -112.864110 DELTAE -212.8641105
 ITERATION   2 PLS= 0.106E-01 0.000E+00 ENERGY     -114.267200 DELTAE   -1.4030899
 ITERATION   3 PLS= 0.515E-02 0.000E+00 ENERGY     -114.524390 DELTAE   -0.2571893
 ITERATION   4 PLS= 0.256E-02 0.000E+00 ENERGY     -114.675605 DELTAE   -0.1512148
 ITERATION   5 PLS= 0.360E-03 0.000E+00 ENERGY     -114.597877 DELTAE    0.0777278
 CYCLE:    16 TIME:   0.066 TIME LEFT:  2.00W  GRAD.:    36.211 HEAT: -114.5981
 ITERATION   1 PLS= 0.227E-03 0.000E+00 ENERGY     -112.193395 DELTAE -212.1933949
 ITERATION   2 PLS= 0.140E-01 0.000E+00 ENERGY     -114.586596 DELTAE   -2.3932013
 ITERATION   3 PLS= 0.634E-02 0.000E+00 ENERGY     -115.006153 DELTAE   -0.4195566
 ITERATION   4 PLS= 0.337E-02 0.000E+00 ENERGY     -115.245289 DELTAE   -0.2391359
 ITERATION   5 PLS= 0.583E-03 0.000E+00 ENERGY     -115.125132 DELTAE    0.1201566
 ITERATION   6 PLS= 0.357E-03 0.000E+00 ENERGY     -115.125571 DELTAE   -0.0004393
 CYCLE:    17 TIME:   0.078 TIME LEFT:  2.00W  GRAD.:    54.334 HEAT: -115.1261
 ITERATION   1 PLS= 0.220E-03 0.000E+00 ENERGY     -115.484042 DELTAE -215.4840422
 ITERATION   2 PLS= 0.334E-02 0.000E+00 ENERGY     -115.735855 DELTAE   -0.2518125
 ITERATION   3 PLS= 0.151E-02 0.000E+00 ENERGY     -115.770743 DELTAE   -0.0348879
 ITERATION   4 PLS= 0.891E-03 0.000E+00 ENERGY     -115.789075 DELTAE   -0.0183321
 ITERATION   5 PLS= 0.205E-03 0.000E+00 ENERGY     -115.778792 DELTAE    0.0102829
 CYCLE:    18 TIME:   0.078 TIME LEFT:  2.00W  GRAD.:    19.748 HEAT: -115.7789
 ITERATION   1 PLS= 0.821E-04 0.000E+00 ENERGY     -115.942451 DELTAE -215.9424513
 ITERATION   2 PLS= 0.240E-02 0.000E+00 ENERGY     -116.004892 DELTAE   -0.0624410
 ITERATION   3 PLS= 0.106E-02 0.000E+00 ENERGY     -116.013980 DELTAE   -0.0090877
 ITERATION   4 PLS= 0.478E-03 0.000E+00 ENERGY     -116.018807 DELTAE   -0.0048272
 CYCLE:    19 TIME:   0.070 TIME LEFT:  2.00W  GRAD.:    17.205 HEAT: -116.0163
 ITERATION   1 PLS= 0.868E-04 0.000E+00 ENERGY     -115.932258 DELTAE -215.9322582
 ITERATION   2 PLS= 0.114E-01 0.000E+00 ENERGY     -116.381047 DELTAE   -0.4487891
 ITERATION   3 PLS= 0.613E-02 0.000E+00 ENERGY     -116.471503 DELTAE   -0.0904556
 ITERATION   4 PLS= 0.331E-02 0.000E+00 ENERGY     -116.532308 DELTAE   -0.0608047
 ITERATION   5 PLS= 0.425E-03 0.000E+00 ENERGY     -116.500342 DELTAE    0.0319659
 CYCLE:    20 TIME:   0.070 TIME LEFT:  2.00W  GRAD.:    20.391 HEAT: -116.5004
 ITERATION   1 PLS= 0.188E-03 0.000E+00 ENERGY     -116.161208 DELTAE -216.1612082
 ITERATION   2 PLS= 0.124E-01 0.000E+00 ENERGY     -116.856749 DELTAE   -0.6955410
 ITERATION   3 PLS= 0.624E-02 0.000E+00 ENERGY     -117.008546 DELTAE   -0.1517968
 ITERATION   4 PLS= 0.320E-02 0.000E+00 ENERGY     -117.120801 DELTAE   -0.1122553
 ITERATION   5 PLS= 0.140E-03 0.000E+00 ENERGY     -117.059297 DELTAE    0.0615043
 CYCLE:    21 TIME:   0.070 TIME LEFT:  2.00W  GRAD.:    20.985 HEAT: -117.0594
 ITERATION   1 PLS= 0.927E-04 0.000E+00 ENERGY     -114.084936 DELTAE -214.0849363
 ITERATION   2 PLS= 0.313E-01 0.000E+00 ENERGY     -116.978056 DELTAE   -2.8931200
 ITERATION   3 PLS= 0.161E-01 0.000E+00 ENERGY     -117.649396 DELTAE   -0.6713396
 ITERATION   4 PLS= 0.881E-02 0.000E+00 ENERGY     -118.173466 DELTAE   -0.5240704
 ITERATION   5 PLS= 0.503E-03 0.000E+00 ENERGY     -117.883208 DELTAE    0.2902585
 ITERATION   6 PLS= 0.249E-03 0.000E+00 ENERGY     -117.883611 DELTAE   -0.0004037
 CYCLE:    22 TIME:   0.109 TIME LEFT:  2.00W  GRAD.:    38.164 HEAT: -117.8840
 ITERATION   1 PLS= 0.141E-03 0.000E+00 ENERGY     -116.855498 DELTAE -216.8554980
 ITERATION   2 PLS= 0.247E-01 0.000E+00 ENERGY     -118.133547 DELTAE   -1.2780490
 ITERATION   3 PLS= 0.136E-01 0.000E+00 ENERGY     -118.431595 DELTAE   -0.2980484
 ITERATION   4 PLS= 0.732E-02 0.000E+00 ENERGY     -118.657534 DELTAE   -0.2259390
 ITERATION   5 PLS= 0.306E-03 0.000E+00 ENERGY     -118.536087 DELTAE    0.1214477
 ITERATION   6 PLS= 0.169E-03 0.000E+00 ENERGY     -118.536241 DELTAE   -0.0001539
 CYCLE:    23 TIME:   0.145 TIME LEFT:  2.00W  GRAD.:    28.857 HEAT: -118.5365
 ITERATION   1 PLS= 0.123E-03 0.000E+00 ENERGY     -117.888399 DELTAE -217.8883988
 ITERATION   2 PLS= 0.259E-01 0.000E+00 ENERGY     -118.901559 DELTAE   -1.0131599
 ITERATION   3 PLS= 0.133E-01 0.000E+00 ENERGY     -119.132820 DELTAE   -0.2312608
 ITERATION   4 PLS= 0.683E-02 0.000E+00 ENERGY     -119.295491 DELTAE   -0.1626716
 ITERATION   5 PLS= 0.238E-03 0.000E+00 ENERGY     -119.211979 DELTAE    0.0835126
 CYCLE:    24 TIME:   0.082 TIME LEFT:  2.00W  GRAD.:    25.545 HEAT: -119.2121
 ITERATION   1 PLS= 0.104E-03 0.000E+00 ENERGY     -112.184539 DELTAE -212.1845391
 ITERATION   2 PLS= 0.572E-01 0.000E+00 ENERGY     -117.946702 DELTAE   -5.7621627
 ITERATION   3 PLS= 0.319E-01 0.000E+00 ENERGY     -119.249591 DELTAE   -1.3028892
 ITERATION   4 PLS= 0.173E-01 0.000E+00 ENERGY     -120.222689 DELTAE   -0.9730978
 ITERATION   5 PLS= 0.127E-02 0.000E+00 ENERGY     -119.708703 DELTAE    0.5139856
 ITERATION   6 PLS= 0.512E-03 0.000E+00 ENERGY     -119.709492 DELTAE   -0.0007892
 CYCLE:    25 TIME:   0.086 TIME LEFT:  2.00W  GRAD.:    47.265 HEAT: -119.7102
 ITERATION   1 PLS= 0.255E-03 0.000E+00 ENERGY     -120.008607 DELTAE -220.0086074
 ITERATION   2 PLS= 0.125E-01 0.000E+00 ENERGY     -120.635142 DELTAE   -0.6265341
 ITERATION   3 PLS= 0.640E-02 0.000E+00 ENERGY     -120.742380 DELTAE   -0.1072382
 ITERATION   4 PLS= 0.327E-02 0.000E+00 ENERGY     -120.803358 DELTAE   -0.0609783
 ITERATION   5 PLS= 0.468E-03 0.000E+00 ENERGY     -120.775816 DELTAE    0.0275416
 CYCLE:    26 TIME:   0.078 TIME LEFT:  2.00W  GRAD.:    35.514 HEAT: -120.7760
 ITERATION   1 PLS= 0.196E-03 0.000E+00 ENERGY     -117.625272 DELTAE -217.6252719
 ITERATION   2 PLS= 0.368E-01 0.000E+00 ENERGY     -120.729490 DELTAE   -3.1042185
 ITERATION   3 PLS= 0.190E-01 0.000E+00 ENERGY     -121.468006 DELTAE   -0.7385152
 ITERATION   4 PLS= 0.997E-02 0.000E+00 ENERGY     -121.991000 DELTAE   -0.5229942
 ITERATION   5 PLS= 0.687E-03 0.000E+00 ENERGY     -121.726720 DELTAE    0.2642800
 ITERATION   6 PLS= 0.331E-03 0.000E+00 ENERGY     -121.726996 DELTAE   -0.0002757
 CYCLE:    27 TIME:   0.098 TIME LEFT:  2.00W  GRAD.:    29.016 HEAT: -121.7273
 ITERATION   1 PLS= 0.205E-03 0.000E+00 ENERGY     -118.550528 DELTAE -218.5505281
 ITERATION   2 PLS= 0.175E-01 0.000E+00 ENERGY     -121.660865 DELTAE   -3.1103370
 ITERATION   3 PLS= 0.636E-02 0.000E+00 ENERGY     -122.351889 DELTAE   -0.6910238
 ITERATION   4 PLS= 0.275E-02 0.000E+00 ENERGY     -122.796676 DELTAE   -0.4447874
 ITERATION   5 PLS= 0.760E-03 0.000E+00 ENERGY     -122.589024 DELTAE    0.2076520
 ITERATION   6 PLS= 0.471E-03 0.000E+00 ENERGY     -122.589565 DELTAE   -0.0005408
 CYCLE:    28 TIME:   0.086 TIME LEFT:  2.00W  GRAD.:    52.361 HEAT: -122.5903
 ITERATION   1 PLS= 0.291E-03 0.000E+00 ENERGY     -119.267941 DELTAE -219.2679408
 ITERATION   2 PLS= 0.154E-01 0.000E+00 ENERGY     -122.094051 DELTAE   -2.8261098
 ITERATION   3 PLS= 0.887E-02 0.000E+00 ENERGY     -122.719121 DELTAE   -0.6250703
 ITERATION   4 PLS= 0.496E-02 0.000E+00 ENERGY     -123.183823 DELTAE   -0.4647018
 ITERATION   5 PLS= 0.105E-02 0.000E+00 ENERGY     -122.940130 DELTAE    0.2436926
 ITERATION   6 PLS= 0.456E-03 0.000E+00 ENERGY     -122.940455 DELTAE   -0.0003251
 CYCLE:    29 TIME:   0.074 TIME LEFT:  2.00W  GRAD.:    39.773 HEAT: -122.9407
 ITERATION   1 PLS= 0.211E-03 0.000E+00 ENERGY     -120.204323 DELTAE -220.2043234
 ITERATION   2 PLS= 0.235E-01 0.000E+00 ENERGY     -122.519876 DELTAE   -2.3155524
 ITERATION   3 PLS= 0.141E-01 0.000E+00 ENERGY     -122.959162 DELTAE   -0.4392866
 ITERATION   4 PLS= 0.807E-02 0.000E+00 ENERGY     -123.277715 DELTAE   -0.3185525
 ITERATION   5 PLS= 0.152E-02 0.000E+00 ENERGY     -123.110979 DELTAE    0.1667358
 ITERATION   6 PLS= 0.675E-03 0.000E+00 ENERGY     -123.111633 DELTAE   -0.0006537
 CYCLE:    30 TIME:   0.105 TIME LEFT:  2.00W  GRAD.:    53.301 HEAT: -123.1122
 ITERATION   1 PLS= 0.311E-03 0.000E+00 ENERGY     -122.817952 DELTAE -222.8179523
 ITERATION   2 PLS= 0.141E-01 0.000E+00 ENERGY     -123.562493 DELTAE   -0.7445411
 ITERATION   3 PLS= 0.474E-02 0.000E+00 ENERGY     -123.656493 DELTAE   -0.0939993
 ITERATION   4 PLS= 0.250E-02 0.000E+00 ENERGY     -123.710682 DELTAE   -0.0541896
 ITERATION   5 PLS= 0.421E-03 0.000E+00 ENERGY     -123.685503 DELTAE    0.0251797
 CYCLE:    31 TIME:   0.078 TIME LEFT:  2.00W  GRAD.:    21.998 HEAT: -123.6857
 ITERATION   1 PLS= 0.238E-03 0.000E+00 ENERGY     -123.314367 DELTAE -223.3143665
 ITERATION   2 PLS= 0.332E-02 0.000E+00 ENERGY     -123.781486 DELTAE   -0.4671194
 ITERATION   3 PLS= 0.125E-02 0.000E+00 ENERGY     -123.893624 DELTAE   -0.1121381
 ITERATION   4 PLS= 0.729E-03 0.000E+00 ENERGY     -123.979898 DELTAE   -0.0862742
 ITERATION   5 PLS= 0.269E-03 0.000E+00 ENERGY     -123.932979 DELTAE    0.0469191
 CYCLE:    32 TIME:   0.082 TIME LEFT:  2.00W  GRAD.:    12.513 HEAT: -123.9330
 ITERATION   1 PLS= 0.117E-03 0.000E+00 ENERGY     -123.448175 DELTAE -223.4481749
 ITERATION   2 PLS= 0.436E-02 0.000E+00 ENERGY     -123.964301 DELTAE   -0.5161259
 ITERATION   3 PLS= 0.268E-02 0.000E+00 ENERGY     -124.092196 DELTAE   -0.1278948
 ITERATION   4 PLS= 0.155E-02 0.000E+00 ENERGY     -124.190079 DELTAE   -0.0978833
 ITERATION   5 PLS= 0.123E-03 0.000E+00 ENERGY     -124.137120 DELTAE    0.0529594
 CYCLE:    33 TIME:   0.082 TIME LEFT:  2.00W  GRAD.:    11.033 HEAT: -124.1371
 ITERATION   1 PLS= 0.686E-04 0.000E+00 ENERGY     -123.385599 DELTAE -223.3855987
 ITERATION   2 PLS= 0.111E-01 0.000E+00 ENERGY     -124.002198 DELTAE   -0.6165989
 ITERATION   3 PLS= 0.598E-02 0.000E+00 ENERGY     -124.140343 DELTAE   -0.1381458
 ITERATION   4 PLS= 0.318E-02 0.000E+00 ENERGY     -124.239991 DELTAE   -0.0996472
 ITERATION   5 PLS= 0.202E-03 0.000E+00 ENERGY     -124.186748 DELTAE    0.0532423
 CYCLE:    34 TIME:   0.070 TIME LEFT:  2.00W  GRAD.:    25.939 HEAT: -124.1868
 ITERATION   1 PLS= 0.103E-03 0.000E+00 ENERGY     -124.182314 DELTAE -224.1823137
 ITERATION   2 PLS= 0.393E-02 0.000E+00 ENERGY     -124.303731 DELTAE   -0.1214169
 ITERATION   3 PLS= 0.208E-02 0.000E+00 ENERGY     -124.326617 DELTAE   -0.0228864
 ITERATION   4 PLS= 0.109E-02 0.000E+00 ENERGY     -124.341475 DELTAE   -0.0148577
 CYCLE:    35 TIME:   0.066 TIME LEFT:  2.00W  GRAD.:     8.017 HEAT: -124.3339
 ITERATION   1 PLS= 0.702E-04 0.000E+00 ENERGY     -124.357731 DELTAE -224.3577306
 ITERATION   2 PLS= 0.970E-03 0.000E+00 ENERGY     -124.370346 DELTAE   -0.0126156
 ITERATION   3 PLS= 0.459E-03 0.000E+00 ENERGY     -124.372783 DELTAE   -0.0024371
 ITERATION   4 PLS= 0.241E-03 0.000E+00 ENERGY     -124.374456 DELTAE   -0.0016728
 CYCLE:    36 TIME:   0.078 TIME LEFT:  2.00W  GRAD.:     6.413 HEAT: -124.3736
 ITERATION   1 PLS= 0.687E-04 0.000E+00 ENERGY     -124.323688 DELTAE -224.3236882
 ITERATION   2 PLS= 0.166E-02 0.000E+00 ENERGY     -124.370689 DELTAE   -0.0470005
 ITERATION   3 PLS= 0.872E-03 0.000E+00 ENERGY     -124.380084 DELTAE   -0.0093950
 ITERATION   4 PLS= 0.454E-03 0.000E+00 ENERGY     -124.386102 DELTAE   -0.0060186
 CYCLE:    37 TIME:   0.070 TIME LEFT:  2.00W  GRAD.:     8.040 HEAT: -124.3831
 ITERATION   1 PLS= 0.554E-04 0.000E+00 ENERGY     -124.378139 DELTAE -224.3781389
 ITERATION   2 PLS= 0.901E-03 0.000E+00 ENERGY     -124.407895 DELTAE   -0.0297558
 ITERATION   3 PLS= 0.453E-03 0.000E+00 ENERGY     -124.413060 DELTAE   -0.0051655
 ITERATION   4 PLS= 0.273E-03 0.000E+00 ENERGY     -124.416387 DELTAE   -0.0033266
 CYCLE:    38 TIME:   0.094 TIME LEFT:  2.00W  GRAD.:     7.939 HEAT: -124.4145
 ITERATION   1 PLS= 0.697E-04 0.000E+00 ENERGY     -124.418286 DELTAE -224.4182855
 ITERATION   2 PLS= 0.945E-03 0.000E+00 ENERGY     -124.459782 DELTAE   -0.0414970
 ITERATION   3 PLS= 0.468E-03 0.000E+00 ENERGY     -124.467036 DELTAE   -0.0072532
 ITERATION   4 PLS= 0.233E-03 0.000E+00 ENERGY     -124.471008 DELTAE   -0.0039727
 CYCLE:    39 TIME:   0.062 TIME LEFT:  2.00W  GRAD.:     7.368 HEAT: -124.4690
 ITERATION   1 PLS= 0.358E-04 0.000E+00 ENERGY     -124.484807 DELTAE -224.4848069
 ITERATION   2 PLS= 0.114E-02 0.000E+00 ENERGY     -124.515058 DELTAE   -0.0302514
 ITERATION   3 PLS= 0.553E-03 0.000E+00 ENERGY     -124.520757 DELTAE   -0.0056982
 ITERATION   4 PLS= 0.332E-03 0.000E+00 ENERGY     -124.524455 DELTAE   -0.0036987
 CYCLE:    40 TIME:   0.070 TIME LEFT:  2.00W  GRAD.:     5.258 HEAT: -124.5225
 ITERATION   1 PLS= 0.944E-04 0.000E+00 ENERGY     -124.483164 DELTAE -224.4831644
 ITERATION   2 PLS= 0.152E-02 0.000E+00 ENERGY     -124.515539 DELTAE   -0.0323743
 ITERATION   3 PLS= 0.780E-03 0.000E+00 ENERGY     -124.521788 DELTAE   -0.0062497
 ITERATION   4 PLS= 0.410E-03 0.000E+00 ENERGY     -124.525795 DELTAE   -0.0040070
 CYCLE:    41 TIME:   0.094 TIME LEFT:  2.00W  GRAD.:     5.887 HEAT: -124.5237
 ITERATION   1 PLS= 0.507E-04 0.000E+00 ENERGY     -124.491507 DELTAE -224.4915066
 ITERATION   2 PLS= 0.159E-02 0.000E+00 ENERGY     -124.560250 DELTAE   -0.0687434
 ITERATION   3 PLS= 0.817E-03 0.000E+00 ENERGY     -124.572934 DELTAE   -0.0126835
 ITERATION   4 PLS= 0.425E-03 0.000E+00 ENERGY     -124.580260 DELTAE   -0.0073263
 CYCLE:    42 TIME:   0.121 TIME LEFT:  2.00W  GRAD.:     8.046 HEAT: -124.5764
 ITERATION   1 PLS= 0.506E-04 0.000E+00 ENERGY     -124.517723 DELTAE -224.5177232
 ITERATION   2 PLS= 0.906E-03 0.000E+00 ENERGY     -124.583302 DELTAE   -0.0655786
 ITERATION   3 PLS= 0.489E-03 0.000E+00 ENERGY     -124.595191 DELTAE   -0.0118888
 ITERATION   4 PLS= 0.260E-03 0.000E+00 ENERGY     -124.601860 DELTAE   -0.0066698
 CYCLE:    43 TIME:   0.066 TIME LEFT:  2.00W  GRAD.:     6.322 HEAT: -124.5983
 ITERATION   1 PLS= 0.361E-04 0.000E+00 ENERGY     -124.472220 DELTAE -224.4722202
 ITERATION   2 PLS= 0.114E-02 0.000E+00 ENERGY     -124.635867 DELTAE   -0.1636472
 ITERATION   3 PLS= 0.488E-03 0.000E+00 ENERGY     -124.665695 DELTAE   -0.0298281
 ITERATION   4 PLS= 0.243E-03 0.000E+00 ENERGY     -124.681472 DELTAE   -0.0157765
 CYCLE:    44 TIME:   0.074 TIME LEFT:  2.00W  GRAD.:     6.869 HEAT: -124.6733
 ITERATION   1 PLS= 0.406E-04 0.000E+00 ENERGY     -124.486026 DELTAE -224.4860265
 ITERATION   2 PLS= 0.219E-02 0.000E+00 ENERGY     -124.678910 DELTAE   -0.1928831
 ITERATION   3 PLS= 0.819E-03 0.000E+00 ENERGY     -124.713154 DELTAE   -0.0342443
 ITERATION   4 PLS= 0.420E-03 0.000E+00 ENERGY     -124.731129 DELTAE   -0.0179756
 CYCLE:    45 TIME:   0.090 TIME LEFT:  2.00W  GRAD.:    11.040 HEAT: -124.7217
 ITERATION   1 PLS= 0.704E-04 0.000E+00 ENERGY     -124.507743 DELTAE -224.5077431
 ITERATION   2 PLS= 0.197E-02 0.000E+00 ENERGY     -124.770251 DELTAE   -0.2625075
 ITERATION   3 PLS= 0.626E-03 0.000E+00 ENERGY     -124.816971 DELTAE   -0.0467207
 ITERATION   4 PLS= 0.305E-03 0.000E+00 ENERGY     -124.840670 DELTAE   -0.0236990
 ITERATION   5 PLS= 0.644E-04 0.000E+00 ENERGY     -124.828560 DELTAE    0.0121107
 CYCLE:    46 TIME:   0.078 TIME LEFT:  2.00W  GRAD.:     7.565 HEAT: -124.8286
 ITERATION   1 PLS= 0.530E-04 0.000E+00 ENERGY     -124.839524 DELTAE -224.8395243
 ITERATION   2 PLS= 0.130E-02 0.000E+00 ENERGY     -124.888536 DELTAE   -0.0490115
 ITERATION   3 PLS= 0.671E-03 0.000E+00 ENERGY     -124.897856 DELTAE   -0.0093202
 ITERATION   4 PLS= 0.353E-03 0.000E+00 ENERGY     -124.903351 DELTAE   -0.0054946
 CYCLE:    47 TIME:   0.074 TIME LEFT:  2.00W  GRAD.:     6.194 HEAT: -124.9004
 ITERATION   1 PLS= 0.349E-04 0.000E+00 ENERGY     -124.744050 DELTAE -224.7440503
 ITERATION   2 PLS= 0.323E-02 0.000E+00 ENERGY     -124.899121 DELTAE   -0.1550709
 ITERATION   3 PLS= 0.175E-02 0.000E+00 ENERGY     -124.930561 DELTAE   -0.0314399
 ITERATION   4 PLS= 0.922E-03 0.000E+00 ENERGY     -124.949910 DELTAE   -0.0193485
 ITERATION   5 PLS= 0.540E-04 0.000E+00 ENERGY     -124.939732 DELTAE    0.0101777
 CYCLE:    48 TIME:   0.090 TIME LEFT:  2.00W  GRAD.:     8.625 HEAT: -124.9398
 ITERATION   1 PLS= 0.258E-04 0.000E+00 ENERGY     -124.804197 DELTAE -224.8041966
 ITERATION   2 PLS= 0.114E-02 0.000E+00 ENERGY     -124.936158 DELTAE   -0.1319618
 ITERATION   3 PLS= 0.599E-03 0.000E+00 ENERGY     -124.959667 DELTAE   -0.0235085
 ITERATION   4 PLS= 0.312E-03 0.000E+00 ENERGY     -124.972761 DELTAE   -0.0130942
 CYCLE:    49 TIME:   0.070 TIME LEFT:  2.00W  GRAD.:    10.991 HEAT: -124.9655
 ITERATION   1 PLS= 0.831E-04 0.000E+00 ENERGY     -124.902209 DELTAE -224.9022085
 ITERATION   2 PLS= 0.710E-03 0.000E+00 ENERGY     -124.978550 DELTAE   -0.0763415
 ITERATION   3 PLS= 0.338E-03 0.000E+00 ENERGY     -124.992419 DELTAE   -0.0138693
 ITERATION   4 PLS= 0.174E-03 0.000E+00 ENERGY     -124.999782 DELTAE   -0.0073624
 CYCLE:    50 TIME:   0.086 TIME LEFT:  2.00W  GRAD.:     7.033 HEAT: -124.9959
 ITERATION   1 PLS= 0.243E-04 0.000E+00 ENERGY     -124.733137 DELTAE -224.7331369
 ITERATION   2 PLS= 0.986E-03 0.000E+00 ENERGY     -124.935471 DELTAE   -0.2023343
 ITERATION   3 PLS= 0.558E-03 0.000E+00 ENERGY     -124.972932 DELTAE   -0.0374612
 ITERATION   4 PLS= 0.317E-03 0.000E+00 ENERGY     -124.993517 DELTAE   -0.0205848
 ITERATION   5 PLS= 0.489E-04 0.000E+00 ENERGY     -124.982466 DELTAE    0.0110513
 CYCLE:    51 TIME:   0.102 TIME LEFT:  2.00W  GRAD.:     5.734 HEAT: -124.9825
 ITERATION   1 PLS= 0.294E-04 0.000E+00 ENERGY     -124.688656 DELTAE -224.6886560
 ITERATION   2 PLS= 0.962E-03 0.000E+00 ENERGY     -124.912499 DELTAE   -0.2238430
 ITERATION   3 PLS= 0.494E-03 0.000E+00 ENERGY     -124.953449 DELTAE   -0.0409503
 ITERATION   4 PLS= 0.282E-03 0.000E+00 ENERGY     -124.974576 DELTAE   -0.0211262
 ITERATION   5 PLS= 0.391E-04 0.000E+00 ENERGY     -124.963389 DELTAE    0.0111863
 CYCLE:    52 TIME:   0.070 TIME LEFT:  2.00W  GRAD.:     6.927 HEAT: -124.9634
 ITERATION   1 PLS= 0.230E-04 0.000E+00 ENERGY     -124.188652 DELTAE -224.1886516
 ITERATION   2 PLS= 0.156E-02 0.000E+00 ENERGY     -124.815525 DELTAE   -0.6268736
 ITERATION   3 PLS= 0.774E-03 0.000E+00 ENERGY     -124.930165 DELTAE   -0.1146396
 ITERATION   4 PLS= 0.440E-03 0.000E+00 ENERGY     -124.990799 DELTAE   -0.0606338
 ITERATION   5 PLS= 0.623E-04 0.000E+00 ENERGY     -124.957860 DELTAE    0.0329387
 CYCLE:    53 TIME:   0.078 TIME LEFT:  2.00W  GRAD.:     9.803 HEAT: -124.9580
 ITERATION   1 PLS= 0.411E-04 0.000E+00 ENERGY     -124.045271 DELTAE -224.0452708
 ITERATION   2 PLS= 0.234E-02 0.000E+00 ENERGY     -124.865082 DELTAE   -0.8198113
 ITERATION   3 PLS= 0.106E-02 0.000E+00 ENERGY     -125.014173 DELTAE   -0.1490904
 ITERATION   4 PLS= 0.500E-03 0.000E+00 ENERGY     -125.089003 DELTAE   -0.0748304
 ITERATION   5 PLS= 0.101E-03 0.000E+00 ENERGY     -125.049938 DELTAE    0.0390649
 CYCLE:    54 TIME:   0.082 TIME LEFT:  2.00W  GRAD.:     9.655 HEAT: -125.0500
 ITERATION   1 PLS= 0.574E-04 0.000E+00 ENERGY     -124.986295 DELTAE -224.9862953
 ITERATION   2 PLS= 0.177E-02 0.000E+00 ENERGY     -125.151175 DELTAE   -0.1648796
 ITERATION   3 PLS= 0.644E-03 0.000E+00 ENERGY     -125.181176 DELTAE   -0.0300013
 ITERATION   4 PLS= 0.249E-03 0.000E+00 ENERGY     -125.194763 DELTAE   -0.0135870
 CYCLE:    55 TIME:   0.066 TIME LEFT:  2.00W  GRAD.:     7.263 HEAT: -125.1885
 ITERATION   1 PLS= 0.734E-04 0.000E+00 ENERGY     -125.010954 DELTAE -225.0109535
 ITERATION   2 PLS= 0.325E-02 0.000E+00 ENERGY     -125.293546 DELTAE   -0.2825927
 ITERATION   3 PLS= 0.130E-02 0.000E+00 ENERGY     -125.345405 DELTAE   -0.0518591
 ITERATION   4 PLS= 0.705E-03 0.000E+00 ENERGY     -125.375881 DELTAE   -0.0304760
 ITERATION   5 PLS= 0.143E-03 0.000E+00 ENERGY     -125.360886 DELTAE    0.0149957
 CYCLE:    56 TIME:   0.090 TIME LEFT:  2.00W  GRAD.:    15.372 HEAT: -125.3610
 ITERATION   1 PLS= 0.693E-04 0.000E+00 ENERGY     -124.414437 DELTAE -224.4144373
 ITERATION   2 PLS= 0.423E-02 0.000E+00 ENERGY     -125.234491 DELTAE   -0.8200535
 ITERATION   3 PLS= 0.180E-02 0.000E+00 ENERGY     -125.380403 DELTAE   -0.1459123
 ITERATION   4 PLS= 0.104E-02 0.000E+00 ENERGY     -125.452647 DELTAE   -0.0722439
 ITERATION   5 PLS= 0.202E-03 0.000E+00 ENERGY     -125.414741 DELTAE    0.0379058
 CYCLE:    57 TIME:   0.090 TIME LEFT:  2.00W  GRAD.:    11.958 HEAT: -125.4149
 ITERATION   1 PLS= 0.819E-04 0.000E+00 ENERGY     -124.926282 DELTAE -224.9262817
 ITERATION   2 PLS= 0.196E-02 0.000E+00 ENERGY     -125.380972 DELTAE   -0.4546902
 ITERATION   3 PLS= 0.106E-02 0.000E+00 ENERGY     -125.462849 DELTAE   -0.0818771
 ITERATION   4 PLS= 0.555E-03 0.000E+00 ENERGY     -125.502612 DELTAE   -0.0397628
 ITERATION   5 PLS= 0.104E-03 0.000E+00 ENERGY     -125.482245 DELTAE    0.0203665
 CYCLE:    58 TIME:   0.074 TIME LEFT:  2.00W  GRAD.:    12.080 HEAT: -125.4823
 ITERATION   1 PLS= 0.404E-04 0.000E+00 ENERGY     -125.307843 DELTAE -225.3078430
 ITERATION   2 PLS= 0.171E-02 0.000E+00 ENERGY     -125.567509 DELTAE   -0.2596662
 ITERATION   3 PLS= 0.945E-03 0.000E+00 ENERGY     -125.614423 DELTAE   -0.0469141
 ITERATION   4 PLS= 0.544E-03 0.000E+00 ENERGY     -125.641509 DELTAE   -0.0270857
 ITERATION   5 PLS= 0.111E-03 0.000E+00 ENERGY     -125.626536 DELTAE    0.0149730
 CYCLE:    59 TIME:   0.117 TIME LEFT:  2.00W  GRAD.:    13.411 HEAT: -125.6266
 ITERATION   1 PLS= 0.713E-04 0.000E+00 ENERGY     -123.796236 DELTAE -223.7962363
 ITERATION   2 PLS= 0.330E-02 0.000E+00 ENERGY     -125.469211 DELTAE   -1.6729746
 ITERATION   3 PLS= 0.184E-02 0.000E+00 ENERGY     -125.769626 DELTAE   -0.3004153
 ITERATION   4 PLS= 0.109E-02 0.000E+00 ENERGY     -125.930150 DELTAE   -0.1605235
 ITERATION   5 PLS= 0.186E-03 0.000E+00 ENERGY     -125.840891 DELTAE    0.0892586
 CYCLE:    60 TIME:   0.086 TIME LEFT:  2.00W  GRAD.:    18.861 HEAT: -125.8413
 ITERATION   1 PLS= 0.123E-03 0.000E+00 ENERGY     -123.195282 DELTAE -223.1952815
 ITERATION   2 PLS= 0.633E-02 0.000E+00 ENERGY     -125.273358 DELTAE   -2.0780769
 ITERATION   3 PLS= 0.295E-02 0.000E+00 ENERGY     -125.632289 DELTAE   -0.3589304
 ITERATION   4 PLS= 0.144E-02 0.000E+00 ENERGY     -125.833075 DELTAE   -0.2007862
 ITERATION   5 PLS= 0.247E-03 0.000E+00 ENERGY     -125.724090 DELTAE    0.1089851
 ITERATION   6 PLS= 0.163E-03 0.000E+00 ENERGY     -125.724593 DELTAE   -0.0005029
 CYCLE:    61 TIME:   0.105 TIME LEFT:  2.00W  GRAD.:    44.882 HEAT: -125.7251
 ITERATION   1 PLS= 0.103E-03 0.000E+00 ENERGY     -125.596758 DELTAE -225.5967580
 ITERATION   2 PLS= 0.845E-02 0.000E+00 ENERGY     -126.060878 DELTAE   -0.4641196
 ITERATION   3 PLS= 0.261E-02 0.000E+00 ENERGY     -126.121085 DELTAE   -0.0602077
 ITERATION   4 PLS= 0.114E-02 0.000E+00 ENERGY     -126.146374 DELTAE   -0.0252885
 ITERATION   5 PLS= 0.265E-03 0.000E+00 ENERGY     -126.134779 DELTAE    0.0115947
 CYCLE:    62 TIME:   0.090 TIME LEFT:  2.00W  GRAD.:    13.841 HEAT: -126.1348
 ITERATION   1 PLS= 0.182E-03 0.000E+00 ENERGY     -125.752987 DELTAE -225.7529873
 ITERATION   2 PLS= 0.425E-02 0.000E+00 ENERGY     -126.097206 DELTAE   -0.3442183
 ITERATION   3 PLS= 0.124E-02 0.000E+00 ENERGY     -126.156992 DELTAE   -0.0597860
 ITERATION   4 PLS= 0.629E-03 0.000E+00 ENERGY     -126.183566 DELTAE   -0.0265740
 ITERATION   5 PLS= 0.192E-03 0.000E+00 ENERGY     -126.171719 DELTAE    0.0118468
 CYCLE:    63 TIME:   0.086 TIME LEFT:  2.00W  GRAD.:    13.043 HEAT: -126.1718
 ITERATION   1 PLS= 0.831E-04 0.000E+00 ENERGY     -126.225891 DELTAE -226.2258911
 ITERATION   2 PLS= 0.224E-02 0.000E+00 ENERGY     -126.287414 DELTAE   -0.0615227
 ITERATION   3 PLS= 0.923E-03 0.000E+00 ENERGY     -126.297457 DELTAE   -0.0100430
 ITERATION   4 PLS= 0.544E-03 0.000E+00 ENERGY     -126.302970 DELTAE   -0.0055136
 CYCLE:    64 TIME:   0.074 TIME LEFT:  2.00W  GRAD.:    11.326 HEAT: -126.3003
 ITERATION   1 PLS= 0.100E-03 0.000E+00 ENERGY     -125.785664 DELTAE -225.7856639
 ITERATION   2 PLS= 0.304E-02 0.000E+00 ENERGY     -126.305920 DELTAE   -0.5202558
 ITERATION   3 PLS= 0.187E-02 0.000E+00 ENERGY     -126.398217 DELTAE   -0.0922972
 ITERATION   4 PLS= 0.114E-02 0.000E+00 ENERGY     -126.454183 DELTAE   -0.0559662
 ITERATION   5 PLS= 0.163E-03 0.000E+00 ENERGY     -126.421053 DELTAE    0.0331303
 CYCLE:    65 TIME:   0.094 TIME LEFT:  2.00W  GRAD.:    10.353 HEAT: -126.4213
 ITERATION   1 PLS= 0.106E-03 0.000E+00 ENERGY     -122.833069 DELTAE -222.8330693
 ITERATION   2 PLS= 0.807E-02 0.000E+00 ENERGY     -125.917788 DELTAE   -3.0847183
 ITERATION   3 PLS= 0.414E-02 0.000E+00 ENERGY     -126.466740 DELTAE   -0.5489524
 ITERATION   4 PLS= 0.247E-02 0.000E+00 ENERGY     -126.773454 DELTAE   -0.3067135
 ITERATION   5 PLS= 0.395E-03 0.000E+00 ENERGY     -126.599152 DELTAE    0.1743011
 ITERATION   6 PLS= 0.259E-03 0.000E+00 ENERGY     -126.600056 DELTAE   -0.0009039
 CYCLE:    66 TIME:   0.105 TIME LEFT:  2.00W  GRAD.:    18.897 HEAT: -126.6007
 ITERATION   1 PLS= 0.164E-03 0.000E+00 ENERGY     -125.607321 DELTAE -225.6073207
 ITERATION   2 PLS= 0.575E-02 0.000E+00 ENERGY     -126.415566 DELTAE   -0.8082450
 ITERATION   3 PLS= 0.290E-02 0.000E+00 ENERGY     -126.553393 DELTAE   -0.1378268
 ITERATION   4 PLS= 0.152E-02 0.000E+00 ENERGY     -126.636696 DELTAE   -0.0833038
 ITERATION   5 PLS= 0.270E-03 0.000E+00 ENERGY     -126.592552 DELTAE    0.0441444
 CYCLE:    67 TIME:   0.082 TIME LEFT:  2.00W  GRAD.:    38.316 HEAT: -126.5928
 ITERATION   1 PLS= 0.160E-03 0.000E+00 ENERGY     -126.628280 DELTAE -226.6282801
 ITERATION   2 PLS= 0.253E-02 0.000E+00 ENERGY     -126.808148 DELTAE   -0.1798675
 ITERATION   3 PLS= 0.885E-03 0.000E+00 ENERGY     -126.835877 DELTAE   -0.0277289
 ITERATION   4 PLS= 0.500E-03 0.000E+00 ENERGY     -126.850456 DELTAE   -0.0145793
 CYCLE:    68 TIME:   0.078 TIME LEFT:  2.00W  GRAD.:    10.183 HEAT: -126.8428
 ITERATION   1 PLS= 0.121E-03 0.000E+00 ENERGY     -126.619156 DELTAE -226.6191558
 ITERATION   2 PLS= 0.280E-02 0.000E+00 ENERGY     -126.886603 DELTAE   -0.2674469
 ITERATION   3 PLS= 0.976E-03 0.000E+00 ENERGY     -126.933823 DELTAE   -0.0472205
 ITERATION   4 PLS= 0.534E-03 0.000E+00 ENERGY     -126.956718 DELTAE   -0.0228946
 ITERATION   5 PLS= 0.123E-03 0.000E+00 ENERGY     -126.945062 DELTAE    0.0116561
 CYCLE:    69 TIME:   0.078 TIME LEFT:  2.00W  GRAD.:    10.898 HEAT: -126.9451
 ITERATION   1 PLS= 0.796E-04 0.000E+00 ENERGY     -126.780751 DELTAE -226.7807511
 ITERATION   2 PLS= 0.188E-02 0.000E+00 ENERGY     -126.986576 DELTAE   -0.2058252
 ITERATION   3 PLS= 0.819E-03 0.000E+00 ENERGY     -127.024187 DELTAE   -0.0376109
 ITERATION   4 PLS= 0.443E-03 0.000E+00 ENERGY     -127.045002 DELTAE   -0.0208148
 ITERATION   5 PLS= 0.745E-04 0.000E+00 ENERGY     -127.033918 DELTAE    0.0110841
 CYCLE:    70 TIME:   0.074 TIME LEFT:  2.00W  GRAD.:    13.858 HEAT: -127.0340
 ITERATION   1 PLS= 0.470E-04 0.000E+00 ENERGY     -125.930941 DELTAE -225.9309407
 ITERATION   2 PLS= 0.562E-02 0.000E+00 ENERGY     -126.909898 DELTAE   -0.9789573
 ITERATION   3 PLS= 0.219E-02 0.000E+00 ENERGY     -127.087001 DELTAE   -0.1771033
 ITERATION   4 PLS= 0.920E-03 0.000E+00 ENERGY     -127.178928 DELTAE   -0.0919263
 ITERATION   5 PLS= 0.223E-03 0.000E+00 ENERGY     -127.129814 DELTAE    0.0491137
 CYCLE:    71 TIME:   0.098 TIME LEFT:  2.00W  GRAD.:    15.999 HEAT: -127.1300
 ITERATION   1 PLS= 0.141E-03 0.000E+00 ENERGY     -126.710836 DELTAE -226.7108361
 ITERATION   2 PLS= 0.465E-02 0.000E+00 ENERGY     -127.153312 DELTAE   -0.4424758
 ITERATION   3 PLS= 0.254E-02 0.000E+00 ENERGY     -127.233641 DELTAE   -0.0803296
 ITERATION   4 PLS= 0.138E-02 0.000E+00 ENERGY     -127.279090 DELTAE   -0.0454483
 ITERATION   5 PLS= 0.166E-03 0.000E+00 ENERGY     -127.254506 DELTAE    0.0245842
 CYCLE:    72 TIME:   0.086 TIME LEFT:  2.00W  GRAD.:    20.382 HEAT: -127.2546
 ITERATION   1 PLS= 0.100E-03 0.000E+00 ENERGY     -127.033237 DELTAE -227.0332367
 ITERATION   2 PLS= 0.421E-02 0.000E+00 ENERGY     -127.305930 DELTAE   -0.2726937
 ITERATION   3 PLS= 0.213E-02 0.000E+00 ENERGY     -127.355118 DELTAE   -0.0491879
 ITERATION   4 PLS= 0.109E-02 0.000E+00 ENERGY     -127.382965 DELTAE   -0.0278467
 ITERATION   5 PLS= 0.158E-03 0.000E+00 ENERGY     -127.368233 DELTAE    0.0147316
 CYCLE:    73 TIME:   0.109 TIME LEFT:  2.00W  GRAD.:     9.014 HEAT: -127.3683
 ITERATION   1 PLS= 0.974E-04 0.000E+00 ENERGY     -126.968915 DELTAE -226.9689152
 ITERATION   2 PLS= 0.526E-02 0.000E+00 ENERGY     -127.342134 DELTAE   -0.3732189
 ITERATION   3 PLS= 0.251E-02 0.000E+00 ENERGY     -127.412472 DELTAE   -0.0703381
 ITERATION   4 PLS= 0.123E-02 0.000E+00 ENERGY     -127.451442 DELTAE   -0.0389698
 ITERATION   5 PLS= 0.145E-03 0.000E+00 ENERGY     -127.430728 DELTAE    0.0207137
 CYCLE:    74 TIME:   0.094 TIME LEFT:  2.00W  GRAD.:     7.625 HEAT: -127.4308
 ITERATION   1 PLS= 0.929E-04 0.000E+00 ENERGY     -127.259711 DELTAE -227.2597110
 ITERATION   2 PLS= 0.350E-02 0.000E+00 ENERGY     -127.420250 DELTAE   -0.1605392
 ITERATION   3 PLS= 0.209E-02 0.000E+00 ENERGY     -127.448792 DELTAE   -0.0285420
 ITERATION   4 PLS= 0.121E-02 0.000E+00 ENERGY     -127.466914 DELTAE   -0.0181217
 CYCLE:    75 TIME:   0.094 TIME LEFT:  2.00W  GRAD.:    14.422 HEAT: -127.4569
 ITERATION   1 PLS= 0.184E-03 0.000E+00 ENERGY     -127.048328 DELTAE -227.0483277
 ITERATION   2 PLS= 0.451E-02 0.000E+00 ENERGY     -127.322645 DELTAE   -0.2743168
 ITERATION   3 PLS= 0.199E-02 0.000E+00 ENERGY     -127.372889 DELTAE   -0.0502448
 ITERATION   4 PLS= 0.925E-03 0.000E+00 ENERGY     -127.397917 DELTAE   -0.0250281
 ITERATION   5 PLS= 0.755E-04 0.000E+00 ENERGY     -127.385330 DELTAE    0.0125872
 CYCLE:    76 TIME:   0.125 TIME LEFT:  2.00W  GRAD.:     6.360 HEAT: -127.3854
 ITERATION   1 PLS= 0.500E-04 0.000E+00 ENERGY     -127.278353 DELTAE -227.2783526
 ITERATION   2 PLS= 0.204E-02 0.000E+00 ENERGY     -127.397215 DELTAE   -0.1188621
 ITERATION   3 PLS= 0.936E-03 0.000E+00 ENERGY     -127.417084 DELTAE   -0.0198691
 ITERATION   4 PLS= 0.545E-03 0.000E+00 ENERGY     -127.428230 DELTAE   -0.0111457
 CYCLE:    77 TIME:   0.098 TIME LEFT:  2.00W  GRAD.:    10.061 HEAT: -127.4220
 ITERATION   1 PLS= 0.113E-03 0.000E+00 ENERGY     -127.426044 DELTAE -227.4260436
 ITERATION   2 PLS= 0.130E-02 0.000E+00 ENERGY     -127.441437 DELTAE   -0.0153937
 ITERATION   3 PLS= 0.512E-03 0.000E+00 ENERGY     -127.443568 DELTAE   -0.0021304
 ITERATION   4 PLS= 0.322E-03 0.000E+00 ENERGY     -127.444846 DELTAE   -0.0012784
 CYCLE:    78 TIME:   0.102 TIME LEFT:  2.00W  GRAD.:     5.469 HEAT: -127.4442
 ITERATION   1 PLS= 0.679E-04 0.000E+00 ENERGY     -127.450952 DELTAE -227.4509521
 ITERATION   2 PLS= 0.870E-03 0.000E+00 ENERGY     -127.478719 DELTAE   -0.0277670
 ITERATION   3 PLS= 0.458E-03 0.000E+00 ENERGY     -127.483596 DELTAE   -0.0048768
 ITERATION   4 PLS= 0.284E-03 0.000E+00 ENERGY     -127.486571 DELTAE   -0.0029751
 CYCLE:    79 TIME:   0.105 TIME LEFT:  2.00W  GRAD.:     4.456 HEAT: -127.4849
 ITERATION   1 PLS= 0.653E-04 0.000E+00 ENERGY     -127.394299 DELTAE -227.3942988
 ITERATION   2 PLS= 0.175E-02 0.000E+00 ENERGY     -127.455649 DELTAE   -0.0613499
 ITERATION   3 PLS= 0.902E-03 0.000E+00 ENERGY     -127.466992 DELTAE   -0.0113430
 ITERATION   4 PLS= 0.508E-03 0.000E+00 ENERGY     -127.474548 DELTAE   -0.0075563
 CYCLE:    80 TIME:   0.117 TIME LEFT:  2.00W  GRAD.:     5.476 HEAT: -127.4703
 ITERATION   1 PLS= 0.863E-04 0.000E+00 ENERGY     -127.409278 DELTAE -227.4092783
 ITERATION   2 PLS= 0.169E-02 0.000E+00 ENERGY     -127.485451 DELTAE   -0.0761729
 ITERATION   3 PLS= 0.924E-03 0.000E+00 ENERGY     -127.498085 DELTAE   -0.0126342
 ITERATION   4 PLS= 0.549E-03 0.000E+00 ENERGY     -127.506084 DELTAE   -0.0079984
 CYCLE:    81 TIME:   0.078 TIME LEFT:  2.00W  GRAD.:    10.584 HEAT: -127.5016
 ITERATION   1 PLS= 0.926E-04 0.000E+00 ENERGY     -127.508214 DELTAE -227.5082143
 ITERATION   2 PLS= 0.700E-03 0.000E+00 ENERGY     -127.517300 DELTAE   -0.0090855
 ITERATION   3 PLS= 0.244E-03 0.000E+00 ENERGY     -127.518457 DELTAE   -0.0011570
 ITERATION   4 PLS= 0.110E-03 0.000E+00 ENERGY     -127.518931 DELTAE   -0.0004739
 CYCLE:    82 TIME:   0.109 TIME LEFT:  2.00W  GRAD.:     2.995 HEAT: -127.5187
 ITERATION   1 PLS= 0.245E-04 0.000E+00 ENERGY     -127.527364 DELTAE -227.5273640
 ITERATION   2 PLS= 0.326E-03 0.000E+00 ENERGY     -127.529067 DELTAE   -0.0017031
 ITERATION   3 PLS= 0.192E-03 0.000E+00 ENERGY     -127.529345 DELTAE   -0.0002782
 ITERATION   4 PLS= 0.117E-03 0.000E+00 ENERGY     -127.529534 DELTAE   -0.0001891
 CYCLE:    83 TIME:   0.113 TIME LEFT:  2.00W  GRAD.:     2.387 HEAT: -127.5294
 ITERATION   1 PLS= 0.236E-04 0.000E+00 ENERGY     -127.541606 DELTAE -227.5416055
 ITERATION   2 PLS= 0.485E-03 0.000E+00 ENERGY     -127.545245 DELTAE   -0.0036397
 ITERATION   3 PLS= 0.230E-03 0.000E+00 ENERGY     -127.545940 DELTAE   -0.0006948
 ITERATION   4 PLS= 0.123E-03 0.000E+00 ENERGY     -127.546372 DELTAE   -0.0004318
 CYCLE:    84 TIME:   0.117 TIME LEFT:  2.00W  GRAD.:     3.267 HEAT: -127.5461
 ITERATION   1 PLS= 0.281E-04 0.000E+00 ENERGY     -127.545536 DELTAE -227.5455356
 ITERATION   2 PLS= 0.991E-03 0.000E+00 ENERGY     -127.562976 DELTAE   -0.0174406
 ITERATION   3 PLS= 0.492E-03 0.000E+00 ENERGY     -127.566481 DELTAE   -0.0035046
 ITERATION   4 PLS= 0.244E-03 0.000E+00 ENERGY     -127.568579 DELTAE   -0.0020985
 CYCLE:    85 TIME:   0.094 TIME LEFT:  2.00W  GRAD.:     4.639 HEAT: -127.5675
 ITERATION   1 PLS= 0.202E-04 0.000E+00 ENERGY     -127.472819 DELTAE -227.4728188
 ITERATION   2 PLS= 0.201E-02 0.000E+00 ENERGY     -127.560264 DELTAE   -0.0874452
 ITERATION   3 PLS= 0.984E-03 0.000E+00 ENERGY     -127.577237 DELTAE   -0.0169732
 ITERATION   4 PLS= 0.479E-03 0.000E+00 ENERGY     -127.587154 DELTAE   -0.0099169
 CYCLE:    86 TIME:   0.102 TIME LEFT:  2.00W  GRAD.:    10.400 HEAT: -127.5822
 ITERATION   1 PLS= 0.497E-04 0.000E+00 ENERGY     -127.594525 DELTAE -227.5945246
 ITERATION   2 PLS= 0.105E-02 0.000E+00 ENERGY     -127.604270 DELTAE   -0.0097453
 ITERATION   3 PLS= 0.372E-03 0.000E+00 ENERGY     -127.605598 DELTAE   -0.0013282
 ITERATION   4 PLS= 0.188E-03 0.000E+00 ENERGY     -127.606316 DELTAE   -0.0007175
 CYCLE:    87 TIME:   0.074 TIME LEFT:  2.00W  GRAD.:     4.091 HEAT: -127.6060
 ITERATION   1 PLS= 0.410E-04 0.000E+00 ENERGY     -127.594285 DELTAE -227.5942846
 ITERATION   2 PLS= 0.126E-02 0.000E+00 ENERGY     -127.605365 DELTAE   -0.0110801
 ITERATION   3 PLS= 0.615E-03 0.000E+00 ENERGY     -127.607522 DELTAE   -0.0021578
 ITERATION   4 PLS= 0.303E-03 0.000E+00 ENERGY     -127.608919 DELTAE   -0.0013962
 CYCLE:    88 TIME:   0.070 TIME LEFT:  2.00W  GRAD.:     3.880 HEAT: -127.6082
 ITERATION   1 PLS= 0.424E-04 0.000E+00 ENERGY     -127.598133 DELTAE -227.5981329
 ITERATION   2 PLS= 0.240E-02 0.000E+00 ENERGY     -127.636068 DELTAE   -0.0379348
 ITERATION   3 PLS= 0.121E-02 0.000E+00 ENERGY     -127.644187 DELTAE   -0.0081191
 ITERATION   4 PLS= 0.609E-03 0.000E+00 ENERGY     -127.649672 DELTAE   -0.0054854
 CYCLE:    89 TIME:   0.086 TIME LEFT:  2.00W  GRAD.:     6.015 HEAT: -127.6468
 ITERATION   1 PLS= 0.612E-04 0.000E+00 ENERGY     -127.482740 DELTAE -227.4827401
 ITERATION   2 PLS= 0.490E-02 0.000E+00 ENERGY     -127.613038 DELTAE   -0.1302979
 ITERATION   3 PLS= 0.248E-02 0.000E+00 ENERGY     -127.642230 DELTAE   -0.0291924
 ITERATION   4 PLS= 0.126E-02 0.000E+00 ENERGY     -127.661604 DELTAE   -0.0193740
 CYCLE:    90 TIME:   0.121 TIME LEFT:  2.00W  GRAD.:     8.198 HEAT: -127.6516
 ITERATION   1 PLS= 0.845E-04 0.000E+00 ENERGY     -127.522511 DELTAE -227.5225108
 ITERATION   2 PLS= 0.481E-02 0.000E+00 ENERGY     -127.677570 DELTAE   -0.1550596
 ITERATION   3 PLS= 0.237E-02 0.000E+00 ENERGY     -127.712369 DELTAE   -0.0347985
 ITERATION   4 PLS= 0.118E-02 0.000E+00 ENERGY     -127.735310 DELTAE   -0.0229415
 ITERATION   5 PLS= 0.106E-03 0.000E+00 ENERGY     -127.723629 DELTAE    0.0116816
 CYCLE:    91 TIME:   0.156 TIME LEFT:  2.00W  GRAD.:     9.891 HEAT: -127.7236
 ITERATION   1 PLS= 0.664E-04 0.000E+00 ENERGY     -127.547751 DELTAE -227.5477513
 ITERATION   2 PLS= 0.492E-02 0.000E+00 ENERGY     -127.736108 DELTAE   -0.1883572
 ITERATION   3 PLS= 0.244E-02 0.000E+00 ENERGY     -127.779402 DELTAE   -0.0432938
 ITERATION   4 PLS= 0.122E-02 0.000E+00 ENERGY     -127.807280 DELTAE   -0.0278778
 ITERATION   5 PLS= 0.644E-04 0.000E+00 ENERGY     -127.793428 DELTAE    0.0138520
 CYCLE:    92 TIME:   0.145 TIME LEFT:  2.00W  GRAD.:     8.929 HEAT: -127.7934
 ITERATION   1 PLS= 0.410E-04 0.000E+00 ENERGY     -127.506644 DELTAE -227.5066436
 ITERATION   2 PLS= 0.469E-02 0.000E+00 ENERGY     -127.758903 DELTAE   -0.2522591
 ITERATION   3 PLS= 0.234E-02 0.000E+00 ENERGY     -127.816772 DELTAE   -0.0578695
 ITERATION   4 PLS= 0.118E-02 0.000E+00 ENERGY     -127.854251 DELTAE   -0.0374792
 ITERATION   5 PLS= 0.888E-04 0.000E+00 ENERGY     -127.835521 DELTAE    0.0187308
 CYCLE:    93 TIME:   0.113 TIME LEFT:  2.00W  GRAD.:     9.156 HEAT: -127.8355
 ITERATION   1 PLS= 0.565E-04 0.000E+00 ENERGY     -127.449297 DELTAE -227.4492969
 ITERATION   2 PLS= 0.438E-02 0.000E+00 ENERGY     -127.801840 DELTAE   -0.3525433
 ITERATION   3 PLS= 0.209E-02 0.000E+00 ENERGY     -127.882048 DELTAE   -0.0802074
 ITERATION   4 PLS= 0.103E-02 0.000E+00 ENERGY     -127.933362 DELTAE   -0.0513144
 ITERATION   5 PLS= 0.120E-03 0.000E+00 ENERGY     -127.907929 DELTAE    0.0254332
 CYCLE:    94 TIME:   0.086 TIME LEFT:  2.00W  GRAD.:    10.514 HEAT: -127.9080
 ITERATION   1 PLS= 0.750E-04 0.000E+00 ENERGY     -127.476650 DELTAE -227.4766498
 ITERATION   2 PLS= 0.342E-02 0.000E+00 ENERGY     -127.938488 DELTAE   -0.4618381
 ITERATION   3 PLS= 0.151E-02 0.000E+00 ENERGY     -128.043689 DELTAE   -0.1052008
 ITERATION   4 PLS= 0.659E-03 0.000E+00 ENERGY     -128.108015 DELTAE   -0.0643267
 ITERATION   5 PLS= 0.113E-03 0.000E+00 ENERGY     -128.077425 DELTAE    0.0305908
 CYCLE:    95 TIME:   0.145 TIME LEFT:  2.00W  GRAD.:     7.068 HEAT: -128.0775
 ITERATION   1 PLS= 0.714E-04 0.000E+00 ENERGY     -126.718043 DELTAE -226.7180432
 ITERATION   2 PLS= 0.574E-02 0.000E+00 ENERGY     -127.580494 DELTAE   -0.8624510
 ITERATION   3 PLS= 0.301E-02 0.000E+00 ENERGY     -127.757963 DELTAE   -0.1774689
 ITERATION   4 PLS= 0.180E-02 0.000E+00 ENERGY     -127.872557 DELTAE   -0.1145942
 ITERATION   5 PLS= 0.311E-03 0.000E+00 ENERGY     -127.812680 DELTAE    0.0598773
 CYCLE:    96 TIME:   0.109 TIME LEFT:  2.00W  GRAD.:    23.348 HEAT: -127.8128
 ITERATION   1 PLS= 0.138E-03 0.000E+00 ENERGY     -126.787987 DELTAE -226.7879870
 ITERATION   2 PLS= 0.578E-02 0.000E+00 ENERGY     -127.736516 DELTAE   -0.9485293
 ITERATION   3 PLS= 0.318E-02 0.000E+00 ENERGY     -127.939557 DELTAE   -0.2030412
 ITERATION   4 PLS= 0.178E-02 0.000E+00 ENERGY     -128.068337 DELTAE   -0.1287794
 ITERATION   5 PLS= 0.397E-03 0.000E+00 ENERGY     -128.004322 DELTAE    0.0640146
 CYCLE:    97 TIME:   0.094 TIME LEFT:  2.00W  GRAD.:    11.283 HEAT: -128.0044
 ITERATION   1 PLS= 0.149E-03 0.000E+00 ENERGY     -127.629476 DELTAE -227.6294765
 ITERATION   2 PLS= 0.236E-02 0.000E+00 ENERGY     -127.882901 DELTAE   -0.2534246
 ITERATION   3 PLS= 0.970E-03 0.000E+00 ENERGY     -127.928978 DELTAE   -0.0460767
 ITERATION   4 PLS= 0.469E-03 0.000E+00 ENERGY     -127.955566 DELTAE   -0.0265879
 ITERATION   5 PLS= 0.103E-03 0.000E+00 ENERGY     -127.942276 DELTAE    0.0132900
 CYCLE:    98 TIME:   0.094 TIME LEFT:  2.00W  GRAD.:    23.565 HEAT: -127.9423
 ITERATION   1 PLS= 0.631E-04 0.000E+00 ENERGY     -127.636847 DELTAE -227.6368471
 ITERATION   2 PLS= 0.277E-02 0.000E+00 ENERGY     -127.950772 DELTAE   -0.3139250
 ITERATION   3 PLS= 0.126E-02 0.000E+00 ENERGY     -128.017650 DELTAE   -0.0668774
 ITERATION   4 PLS= 0.567E-03 0.000E+00 ENERGY     -128.058407 DELTAE   -0.0407571
 ITERATION   5 PLS= 0.942E-04 0.000E+00 ENERGY     -128.038488 DELTAE    0.0199186
 CYCLE:    99 TIME:   0.105 TIME LEFT:  2.00W  GRAD.:     6.121 HEAT: -128.0385
 ITERATION   1 PLS= 0.572E-04 0.000E+00 ENERGY     -127.960197 DELTAE -227.9601973
 ITERATION   2 PLS= 0.109E-02 0.000E+00 ENERGY     -128.007617 DELTAE   -0.0474201
 ITERATION   3 PLS= 0.343E-03 0.000E+00 ENERGY     -128.015322 DELTAE   -0.0077045
 ITERATION   4 PLS= 0.185E-03 0.000E+00 ENERGY     -128.019728 DELTAE   -0.0044062
 CYCLE:   100 TIME:   0.105 TIME LEFT:  2.00W  GRAD.:    10.555 HEAT: -128.0175
 ITERATION   1 PLS= 0.346E-04 0.000E+00 ENERGY     -128.025146 DELTAE -228.0251459
 ITERATION   2 PLS= 0.684E-03 0.000E+00 ENERGY     -128.043389 DELTAE   -0.0182428
 ITERATION   3 PLS= 0.233E-03 0.000E+00 ENERGY     -128.046199 DELTAE   -0.0028102
 ITERATION   4 PLS= 0.131E-03 0.000E+00 ENERGY     -128.047697 DELTAE   -0.0014978
 CYCLE:   101 TIME:   0.102 TIME LEFT:  2.00W  GRAD.:     3.106 HEAT: -128.0470
 ITERATION   1 PLS= 0.176E-04 0.000E+00 ENERGY     -128.113316 DELTAE -228.1133161
 ITERATION   2 PLS= 0.961E-03 0.000E+00 ENERGY     -128.141065 DELTAE   -0.0277485
 ITERATION   3 PLS= 0.394E-03 0.000E+00 ENERGY     -128.147543 DELTAE   -0.0064783
 ITERATION   4 PLS= 0.182E-03 0.000E+00 ENERGY     -128.151293 DELTAE   -0.0037503
 CYCLE:   102 TIME:   0.078 TIME LEFT:  2.00W  GRAD.:     3.268 HEAT: -128.1496
 ITERATION   1 PLS= 0.199E-04 0.000E+00 ENERGY     -128.042568 DELTAE -228.0425681
 ITERATION   2 PLS= 0.163E-02 0.000E+00 ENERGY     -128.084943 DELTAE   -0.0423751
 ITERATION   3 PLS= 0.779E-03 0.000E+00 ENERGY     -128.092981 DELTAE   -0.0080378
 ITERATION   4 PLS= 0.380E-03 0.000E+00 ENERGY     -128.097597 DELTAE   -0.0046159
 CYCLE:   103 TIME:   0.074 TIME LEFT:  2.00W  GRAD.:     6.993 HEAT: -128.0954
 ITERATION   1 PLS= 0.605E-04 0.000E+00 ENERGY     -127.596290 DELTAE -227.5962901
 ITERATION   2 PLS= 0.429E-02 0.000E+00 ENERGY     -127.994087 DELTAE   -0.3977972
 ITERATION   3 PLS= 0.228E-02 0.000E+00 ENERGY     -128.088518 DELTAE   -0.0944306
 ITERATION   4 PLS= 0.114E-02 0.000E+00 ENERGY     -128.146258 DELTAE   -0.0577404
 ITERATION   5 PLS= 0.887E-04 0.000E+00 ENERGY     -128.119501 DELTAE    0.0267574
 CYCLE:   104 TIME:   0.070 TIME LEFT:  2.00W  GRAD.:     7.333 HEAT: -128.1195
 ITERATION   1 PLS= 0.403E-04 0.000E+00 ENERGY     -127.971006 DELTAE -227.9710061
 ITERATION   2 PLS= 0.169E-02 0.000E+00 ENERGY     -128.099555 DELTAE   -0.1285490
 ITERATION   3 PLS= 0.768E-03 0.000E+00 ENERGY     -128.126099 DELTAE   -0.0265439
 ITERATION   4 PLS= 0.446E-03 0.000E+00 ENERGY     -128.144984 DELTAE   -0.0188852
 CYCLE:   105 TIME:   0.109 TIME LEFT:  2.00W  GRAD.:     8.607 HEAT: -128.1350
 ITERATION   1 PLS= 0.117E-03 0.000E+00 ENERGY     -128.173215 DELTAE -228.1732150
 ITERATION   2 PLS= 0.730E-03 0.000E+00 ENERGY     -128.188603 DELTAE   -0.0153881
 ITERATION   3 PLS= 0.419E-03 0.000E+00 ENERGY     -128.191179 DELTAE   -0.0025761
 ITERATION   4 PLS= 0.228E-03 0.000E+00 ENERGY     -128.193011 DELTAE   -0.0018315
 CYCLE:   106 TIME:   0.086 TIME LEFT:  2.00W  GRAD.:     4.526 HEAT: -128.1921
 ITERATION   1 PLS= 0.365E-04 0.000E+00 ENERGY     -128.160706 DELTAE -228.1607060
 ITERATION   2 PLS= 0.678E-03 0.000E+00 ENERGY     -128.173209 DELTAE   -0.0125033
 ITERATION   3 PLS= 0.317E-03 0.000E+00 ENERGY     -128.176109 DELTAE   -0.0029002
 ITERATION   4 PLS= 0.147E-03 0.000E+00 ENERGY     -128.177901 DELTAE   -0.0017916
 CYCLE:   107 TIME:   0.066 TIME LEFT:  2.00W  GRAD.:     3.555 HEAT: -128.1771
 ITERATION   1 PLS= 0.209E-04 0.000E+00 ENERGY     -128.129715 DELTAE -228.1297146
 ITERATION   2 PLS= 0.137E-02 0.000E+00 ENERGY     -128.174095 DELTAE   -0.0443805
 ITERATION   3 PLS= 0.667E-03 0.000E+00 ENERGY     -128.184628 DELTAE   -0.0105325
 ITERATION   4 PLS= 0.318E-03 0.000E+00 ENERGY     -128.191022 DELTAE   -0.0063945
 CYCLE:   108 TIME:   0.102 TIME LEFT:  2.00W  GRAD.:     3.788 HEAT: -128.1881
 ITERATION   1 PLS= 0.246E-04 0.000E+00 ENERGY     -128.144491 DELTAE -228.1444908
 ITERATION   2 PLS= 0.132E-02 0.000E+00 ENERGY     -128.177337 DELTAE   -0.0328460
 ITERATION   3 PLS= 0.457E-03 0.000E+00 ENERGY     -128.184130 DELTAE   -0.0067929
 ITERATION   4 PLS= 0.254E-03 0.000E+00 ENERGY     -128.188487 DELTAE   -0.0043571
 CYCLE:   109 TIME:   0.078 TIME LEFT:  2.00W  GRAD.:     6.170 HEAT: -128.1863
 ITERATION   1 PLS= 0.592E-04 0.000E+00 ENERGY     -128.170799 DELTAE -228.1707989
 ITERATION   2 PLS= 0.928E-03 0.000E+00 ENERGY     -128.197828 DELTAE   -0.0270287
 ITERATION   3 PLS= 0.459E-03 0.000E+00 ENERGY     -128.203803 DELTAE   -0.0059754
 ITERATION   4 PLS= 0.222E-03 0.000E+00 ENERGY     -128.207311 DELTAE   -0.0035076
 CYCLE:   110 TIME:   0.078 TIME LEFT:  2.00W  GRAD.:     3.483 HEAT: -128.2057
 ITERATION   1 PLS= 0.284E-04 0.000E+00 ENERGY     -128.186741 DELTAE -228.1867415
 ITERATION   2 PLS= 0.421E-03 0.000E+00 ENERGY     -128.193774 DELTAE   -0.0070329
 ITERATION   3 PLS= 0.175E-03 0.000E+00 ENERGY     -128.195326 DELTAE   -0.0015515
 ITERATION   4 PLS= 0.843E-04 0.000E+00 ENERGY     -128.196380 DELTAE   -0.0010538
 CYCLE:   111 TIME:   0.066 TIME LEFT:  2.00W  GRAD.:     2.757 HEAT: -128.1958
 ITERATION   1 PLS= 0.183E-04 0.000E+00 ENERGY     -128.024805 DELTAE -228.0248047
 ITERATION   2 PLS= 0.245E-02 0.000E+00 ENERGY     -128.135320 DELTAE   -0.1105155
 ITERATION   3 PLS= 0.125E-02 0.000E+00 ENERGY     -128.162134 DELTAE   -0.0268137
 ITERATION   4 PLS= 0.618E-03 0.000E+00 ENERGY     -128.180005 DELTAE   -0.0178714
 ITERATION   5 PLS= 0.758E-04 0.000E+00 ENERGY     -128.171127 DELTAE    0.0088785
 CYCLE:   112 TIME:   0.094 TIME LEFT:  2.00W  GRAD.:     4.406 HEAT: -128.1711
 ITERATION   1 PLS= 0.370E-04 0.000E+00 ENERGY     -128.142632 DELTAE -228.1426321
 ITERATION   2 PLS= 0.185E-02 0.000E+00 ENERGY     -128.208262 DELTAE   -0.0656294
 ITERATION   3 PLS= 0.101E-02 0.000E+00 ENERGY     -128.223827 DELTAE   -0.0155659
 ITERATION   4 PLS= 0.537E-03 0.000E+00 ENERGY     -128.234822 DELTAE   -0.0109946
 CYCLE:   113 TIME:   0.125 TIME LEFT:  2.00W  GRAD.:     5.565 HEAT: -128.2291
 ITERATION   1 PLS= 0.375E-04 0.000E+00 ENERGY     -128.204232 DELTAE -228.2042321
 ITERATION   2 PLS= 0.131E-02 0.000E+00 ENERGY     -128.228273 DELTAE   -0.0240408
 ITERATION   3 PLS= 0.662E-03 0.000E+00 ENERGY     -128.233996 DELTAE   -0.0057231
 ITERATION   4 PLS= 0.351E-03 0.000E+00 ENERGY     -128.237851 DELTAE   -0.0038549
 CYCLE:   114 TIME:   0.117 TIME LEFT:  2.00W  GRAD.:     3.163 HEAT: -128.2359
 ITERATION   1 PLS= 0.167E-04 0.000E+00 ENERGY     -128.245670 DELTAE -228.2456702
 ITERATION   2 PLS= 0.119E-02 0.000E+00 ENERGY     -128.265253 DELTAE   -0.0195825
 ITERATION   3 PLS= 0.693E-03 0.000E+00 ENERGY     -128.269684 DELTAE   -0.0044315
 ITERATION   4 PLS= 0.392E-03 0.000E+00 ENERGY     -128.272673 DELTAE   -0.0029891
 CYCLE:   115 TIME:   0.074 TIME LEFT:  2.00W  GRAD.:     2.736 HEAT: -128.2712
 ITERATION   1 PLS= 0.408E-04 0.000E+00 ENERGY     -128.240480 DELTAE -228.2404798
 ITERATION   2 PLS= 0.640E-03 0.000E+00 ENERGY     -128.244047 DELTAE   -0.0035671
 ITERATION   3 PLS= 0.323E-03 0.000E+00 ENERGY     -128.244747 DELTAE   -0.0006998
 ITERATION   4 PLS= 0.163E-03 0.000E+00 ENERGY     -128.245159 DELTAE   -0.0004122
 CYCLE:   116 TIME:   0.078 TIME LEFT:  2.00W  GRAD.:     3.080 HEAT: -128.2450
 ITERATION   1 PLS= 0.240E-04 0.000E+00 ENERGY     -128.096129 DELTAE -228.0961294
 ITERATION   2 PLS= 0.264E-02 0.000E+00 ENERGY     -128.202003 DELTAE   -0.1058734
 ITERATION   3 PLS= 0.131E-02 0.000E+00 ENERGY     -128.226599 DELTAE   -0.0245964
 ITERATION   4 PLS= 0.668E-03 0.000E+00 ENERGY     -128.244374 DELTAE   -0.0177752
 ITERATION   5 PLS= 0.635E-04 0.000E+00 ENERGY     -128.234958 DELTAE    0.0094163
 CYCLE:   117 TIME:   0.098 TIME LEFT:  2.00W  GRAD.:     3.819 HEAT: -128.2350
 ITERATION   1 PLS= 0.424E-04 0.000E+00 ENERGY     -128.215967 DELTAE -228.2159665
 ITERATION   2 PLS= 0.138E-02 0.000E+00 ENERGY     -128.239517 DELTAE   -0.0235505
 ITERATION   3 PLS= 0.675E-03 0.000E+00 ENERGY     -128.243842 DELTAE   -0.0043247
 ITERATION   4 PLS= 0.333E-03 0.000E+00 ENERGY     -128.247101 DELTAE   -0.0032597
 CYCLE:   118 TIME:   0.086 TIME LEFT:  2.00W  GRAD.:     7.166 HEAT: -128.2457
 ITERATION   1 PLS= 0.585E-04 0.000E+00 ENERGY     -128.260071 DELTAE -228.2600707
 ITERATION   2 PLS= 0.431E-03 0.000E+00 ENERGY     -128.264688 DELTAE   -0.0046171
 ITERATION   3 PLS= 0.202E-03 0.000E+00 ENERGY     -128.265424 DELTAE   -0.0007365
 ITERATION   4 PLS= 0.116E-03 0.000E+00 ENERGY     -128.265879 DELTAE   -0.0004548
 CYCLE:   119 TIME:   0.082 TIME LEFT:  2.00W  GRAD.:     2.516 HEAT: -128.2657
 ITERATION   1 PLS= 0.361E-04 0.000E+00 ENERGY     -128.245155 DELTAE -228.2451551
 ITERATION   2 PLS= 0.311E-03 0.000E+00 ENERGY     -128.247682 DELTAE   -0.0025265
 ITERATION   3 PLS= 0.153E-03 0.000E+00 ENERGY     -128.248166 DELTAE   -0.0004845
 ITERATION   4 PLS= 0.750E-04 0.000E+00 ENERGY     -128.248511 DELTAE   -0.0003444
 CYCLE:   120 TIME:   0.121 TIME LEFT:  2.00W  GRAD.:     2.064 HEAT: -128.2483
 ITERATION   1 PLS= 0.198E-04 0.000E+00 ENERGY     -128.237426 DELTAE -228.2374260
 ITERATION   2 PLS= 0.717E-03 0.000E+00 ENERGY     -128.252574 DELTAE   -0.0151479
 ITERATION   3 PLS= 0.378E-03 0.000E+00 ENERGY     -128.255594 DELTAE   -0.0030201
 ITERATION   4 PLS= 0.223E-03 0.000E+00 ENERGY     -128.257889 DELTAE   -0.0022956
 ITERATION   5 PLS= 0.322E-04 0.000E+00 ENERGY     -128.256610 DELTAE    0.0012796
 CYCLE:   121 TIME:   0.129 TIME LEFT:  2.00W  GRAD.:     3.226 HEAT: -128.2566
 ITERATION   1 PLS= 0.211E-04 0.000E+00 ENERGY     -128.229157 DELTAE -228.2291567
 ITERATION   2 PLS= 0.794E-03 0.000E+00 ENERGY     -128.254012 DELTAE   -0.0248557
 ITERATION   3 PLS= 0.443E-03 0.000E+00 ENERGY     -128.258728 DELTAE   -0.0047161
 ITERATION   4 PLS= 0.257E-03 0.000E+00 ENERGY     -128.262177 DELTAE   -0.0034485
 CYCLE:   122 TIME:   0.105 TIME LEFT:  2.00W  GRAD.:     4.674 HEAT: -128.2602
 ITERATION   1 PLS= 0.449E-04 0.000E+00 ENERGY     -128.190010 DELTAE -228.1900102
 ITERATION   2 PLS= 0.113E-02 0.000E+00 ENERGY     -128.242792 DELTAE   -0.0527814
 ITERATION   3 PLS= 0.669E-03 0.000E+00 ENERGY     -128.252193 DELTAE   -0.0094009
 ITERATION   4 PLS= 0.408E-03 0.000E+00 ENERGY     -128.258936 DELTAE   -0.0067430
 CYCLE:   123 TIME:   0.105 TIME LEFT:  2.00W  GRAD.:     4.610 HEAT: -128.2551
 ITERATION   1 PLS= 0.685E-04 0.000E+00 ENERGY     -128.174112 DELTAE -228.1741124
 ITERATION   2 PLS= 0.144E-02 0.000E+00 ENERGY     -128.236911 DELTAE   -0.0627984
 ITERATION   3 PLS= 0.821E-03 0.000E+00 ENERGY     -128.247759 DELTAE   -0.0108478
 ITERATION   4 PLS= 0.498E-03 0.000E+00 ENERGY     -128.255285 DELTAE   -0.0075261
 CYCLE:   124 TIME:   0.098 TIME LEFT:  2.00W  GRAD.:     5.923 HEAT: -128.2510
 ITERATION   1 PLS= 0.703E-04 0.000E+00 ENERGY     -128.249504 DELTAE -228.2495044
 ITERATION   2 PLS= 0.498E-03 0.000E+00 ENERGY     -128.258990 DELTAE   -0.0094852
 ITERATION   3 PLS= 0.266E-03 0.000E+00 ENERGY     -128.260796 DELTAE   -0.0018068
 ITERATION   4 PLS= 0.160E-03 0.000E+00 ENERGY     -128.262326 DELTAE   -0.0015299
 CYCLE:   125 TIME:   0.090 TIME LEFT:  2.00W  GRAD.:     3.402 HEAT: -128.2615
 ITERATION   1 PLS= 0.282E-04 0.000E+00 ENERGY     -128.269634 DELTAE -228.2696338
 ITERATION   2 PLS= 0.109E-02 0.000E+00 ENERGY     -128.283619 DELTAE   -0.0139850
 ITERATION   3 PLS= 0.584E-03 0.000E+00 ENERGY     -128.286627 DELTAE   -0.0030086
 ITERATION   4 PLS= 0.312E-03 0.000E+00 ENERGY     -128.288675 DELTAE   -0.0020479
 CYCLE:   126 TIME:   0.137 TIME LEFT:  2.00W  GRAD.:     3.810 HEAT: -128.2876
 ITERATION   1 PLS= 0.199E-04 0.000E+00 ENERGY     -128.276380 DELTAE -228.2763799
 ITERATION   2 PLS= 0.159E-02 0.000E+00 ENERGY     -128.305996 DELTAE   -0.0296163
 ITERATION   3 PLS= 0.764E-03 0.000E+00 ENERGY     -128.310759 DELTAE   -0.0047631
 ITERATION   4 PLS= 0.451E-03 0.000E+00 ENERGY     -128.313877 DELTAE   -0.0031175
 CYCLE:   127 TIME:   0.074 TIME LEFT:  2.00W  GRAD.:     7.017 HEAT: -128.3122
 ITERATION   1 PLS= 0.788E-04 0.000E+00 ENERGY     -128.209103 DELTAE -228.2091034
 ITERATION   2 PLS= 0.226E-02 0.000E+00 ENERGY     -128.282378 DELTAE   -0.0732742
 ITERATION   3 PLS= 0.110E-02 0.000E+00 ENERGY     -128.296198 DELTAE   -0.0138207
 ITERATION   4 PLS= 0.554E-03 0.000E+00 ENERGY     -128.305577 DELTAE   -0.0093790
 CYCLE:   128 TIME:   0.090 TIME LEFT:  2.00W  GRAD.:     4.810 HEAT: -128.3004
 ITERATION   1 PLS= 0.842E-04 0.000E+00 ENERGY     -128.148887 DELTAE -228.1488866
 ITERATION   2 PLS= 0.261E-02 0.000E+00 ENERGY     -128.247849 DELTAE   -0.0989625
 ITERATION   3 PLS= 0.127E-02 0.000E+00 ENERGY     -128.266780 DELTAE   -0.0189310
 ITERATION   4 PLS= 0.641E-03 0.000E+00 ENERGY     -128.279873 DELTAE   -0.0130926
 CYCLE:   129 TIME:   0.078 TIME LEFT:  2.00W  GRAD.:     3.574 HEAT: -128.2725
 ITERATION   1 PLS= 0.105E-03 0.000E+00 ENERGY     -128.312691 DELTAE -228.3126909
 ITERATION   2 PLS= 0.314E-02 0.000E+00 ENERGY     -128.445211 DELTAE   -0.1325197
 ITERATION   3 PLS= 0.153E-02 0.000E+00 ENERGY     -128.470264 DELTAE   -0.0250538
 ITERATION   4 PLS= 0.745E-03 0.000E+00 ENERGY     -128.487049 DELTAE   -0.0167849
 ITERATION   5 PLS= 0.134E-03 0.000E+00 ENERGY     -128.477732 DELTAE    0.0093175
 CYCLE:   130 TIME:   0.145 TIME LEFT:  2.00W  GRAD.:     5.291 HEAT: -128.4778
 ITERATION   1 PLS= 0.849E-04 0.000E+00 ENERGY     -128.310425 DELTAE -228.3104246
 ITERATION   2 PLS= 0.401E-02 0.000E+00 ENERGY     -128.490780 DELTAE   -0.1803550
 ITERATION   3 PLS= 0.196E-02 0.000E+00 ENERGY     -128.524528 DELTAE   -0.0337488
 ITERATION   4 PLS= 0.954E-03 0.000E+00 ENERGY     -128.546659 DELTAE   -0.0221306
 ITERATION   5 PLS= 0.151E-03 0.000E+00 ENERGY     -128.534470 DELTAE    0.0121889
 CYCLE:   131 TIME:   0.105 TIME LEFT:  2.00W  GRAD.:     5.964 HEAT: -128.5345
 ITERATION   1 PLS= 0.977E-04 0.000E+00 ENERGY     -128.539768 DELTAE -228.5397677
 ITERATION   2 PLS= 0.170E-02 0.000E+00 ENERGY     -128.568299 DELTAE   -0.0285312
 ITERATION   3 PLS= 0.842E-03 0.000E+00 ENERGY     -128.573778 DELTAE   -0.0054790
 ITERATION   4 PLS= 0.416E-03 0.000E+00 ENERGY     -128.577196 DELTAE   -0.0034186
 CYCLE:   132 TIME:   0.145 TIME LEFT:  2.00W  GRAD.:     4.928 HEAT: -128.5754
 ITERATION   1 PLS= 0.514E-04 0.000E+00 ENERGY     -128.457871 DELTAE -228.4578709
 ITERATION   2 PLS= 0.267E-02 0.000E+00 ENERGY     -128.538750 DELTAE   -0.0808789
 ITERATION   3 PLS= 0.136E-02 0.000E+00 ENERGY     -128.555138 DELTAE   -0.0163883
 ITERATION   4 PLS= 0.712E-03 0.000E+00 ENERGY     -128.566924 DELTAE   -0.0117855
 CYCLE:   133 TIME:   0.082 TIME LEFT:  2.00W  GRAD.:     5.375 HEAT: -128.5605
 ITERATION   1 PLS= 0.509E-04 0.000E+00 ENERGY     -128.466198 DELTAE -228.4661977
 ITERATION   2 PLS= 0.206E-02 0.000E+00 ENERGY     -128.543674 DELTAE   -0.0774758
 ITERATION   3 PLS= 0.100E-02 0.000E+00 ENERGY     -128.557267 DELTAE   -0.0135939
 ITERATION   4 PLS= 0.564E-03 0.000E+00 ENERGY     -128.565652 DELTAE   -0.0083843
 CYCLE:   134 TIME:   0.141 TIME LEFT:  2.00W  GRAD.:     4.547 HEAT: -128.5611
 ITERATION   1 PLS= 0.927E-04 0.000E+00 ENERGY     -128.310556 DELTAE -228.3105559
 ITERATION   2 PLS= 0.354E-02 0.000E+00 ENERGY     -128.512698 DELTAE   -0.2021426
 ITERATION   3 PLS= 0.172E-02 0.000E+00 ENERGY     -128.549090 DELTAE   -0.0363914
 ITERATION   4 PLS= 0.962E-03 0.000E+00 ENERGY     -128.572247 DELTAE   -0.0231573
 ITERATION   5 PLS= 0.146E-03 0.000E+00 ENERGY     -128.559454 DELTAE    0.0127934
 CYCLE:   135 TIME:   0.086 TIME LEFT:  2.00W  GRAD.:     4.488 HEAT: -128.5595
 ITERATION   1 PLS= 0.972E-04 0.000E+00 ENERGY     -128.336307 DELTAE -228.3363070
 ITERATION   2 PLS= 0.316E-02 0.000E+00 ENERGY     -128.463662 DELTAE   -0.1273551
 ITERATION   3 PLS= 0.163E-02 0.000E+00 ENERGY     -128.490283 DELTAE   -0.0266209
 ITERATION   4 PLS= 0.851E-03 0.000E+00 ENERGY     -128.506882 DELTAE   -0.0165990
 CYCLE:   136 TIME:   0.086 TIME LEFT:  2.00W  GRAD.:     7.902 HEAT: -128.4987
 ITERATION   1 PLS= 0.842E-04 0.000E+00 ENERGY     -128.463084 DELTAE -228.4630837
 ITERATION   2 PLS= 0.150E-02 0.000E+00 ENERGY     -128.500574 DELTAE   -0.0374905
 ITERATION   3 PLS= 0.747E-03 0.000E+00 ENERGY     -128.508361 DELTAE   -0.0077866
 ITERATION   4 PLS= 0.373E-03 0.000E+00 ENERGY     -128.513534 DELTAE   -0.0051727
 CYCLE:   137 TIME:   0.059 TIME LEFT:  2.00W  GRAD.:     6.901 HEAT: -128.5111
 ITERATION   1 PLS= 0.479E-04 0.000E+00 ENERGY     -128.488242 DELTAE -228.4882418
 ITERATION   2 PLS= 0.129E-02 0.000E+00 ENERGY     -128.512727 DELTAE   -0.0244852
 ITERATION   3 PLS= 0.669E-03 0.000E+00 ENERGY     -128.517263 DELTAE   -0.0045358
 ITERATION   4 PLS= 0.349E-03 0.000E+00 ENERGY     -128.520005 DELTAE   -0.0027419
 CYCLE:   138 TIME:   0.070 TIME LEFT:  2.00W  GRAD.:     4.867 HEAT: -128.5186
 ITERATION   1 PLS= 0.360E-04 0.000E+00 ENERGY     -128.511930 DELTAE -228.5119301
 ITERATION   2 PLS= 0.931E-03 0.000E+00 ENERGY     -128.524733 DELTAE   -0.0128027
 ITERATION   3 PLS= 0.485E-03 0.000E+00 ENERGY     -128.527530 DELTAE   -0.0027971
 ITERATION   4 PLS= 0.249E-03 0.000E+00 ENERGY     -128.529397 DELTAE   -0.0018675
 CYCLE:   139 TIME:   0.074 TIME LEFT:  2.00W  GRAD.:     4.611 HEAT: -128.5284
 ITERATION   1 PLS= 0.184E-04 0.000E+00 ENERGY     -128.335556 DELTAE -228.3355560
 ITERATION   2 PLS= 0.302E-02 0.000E+00 ENERGY     -128.472654 DELTAE   -0.1370976
 ITERATION   3 PLS= 0.156E-02 0.000E+00 ENERGY     -128.501751 DELTAE   -0.0290977
 ITERATION   4 PLS= 0.811E-03 0.000E+00 ENERGY     -128.520911 DELTAE   -0.0191601
 ITERATION   5 PLS= 0.682E-04 0.000E+00 ENERGY     -128.510948 DELTAE    0.0099634
 CYCLE:   140 TIME:   0.070 TIME LEFT:  2.00W  GRAD.:     5.220 HEAT: -128.5110
 ITERATION   1 PLS= 0.419E-04 0.000E+00 ENERGY     -128.188918 DELTAE -228.1889181
 ITERATION   2 PLS= 0.365E-02 0.000E+00 ENERGY     -128.429809 DELTAE   -0.2408906
 ITERATION   3 PLS= 0.192E-02 0.000E+00 ENERGY     -128.473088 DELTAE   -0.0432797
 ITERATION   4 PLS= 0.108E-02 0.000E+00 ENERGY     -128.502836 DELTAE   -0.0297472
 ITERATION   5 PLS= 0.168E-03 0.000E+00 ENERGY     -128.486070 DELTAE    0.0167658
 CYCLE:   141 TIME:   0.098 TIME LEFT:  2.00W  GRAD.:    10.992 HEAT: -128.4861
 ITERATION   1 PLS= 0.106E-03 0.000E+00 ENERGY     -128.502961 DELTAE -228.5029612
 ITERATION   2 PLS= 0.115E-02 0.000E+00 ENERGY     -128.510583 DELTAE   -0.0076215
 ITERATION   3 PLS= 0.419E-03 0.000E+00 ENERGY     -128.511409 DELTAE   -0.0008261
 ITERATION   4 PLS= 0.198E-03 0.000E+00 ENERGY     -128.511844 DELTAE   -0.0004349
 CYCLE:   142 TIME:   0.082 TIME LEFT:  2.00W  GRAD.:     4.296 HEAT: -128.5116
 ITERATION   1 PLS= 0.392E-04 0.000E+00 ENERGY     -128.615197 DELTAE -228.6151973
 ITERATION   2 PLS= 0.132E-02 0.000E+00 ENERGY     -128.622935 DELTAE   -0.0077375
 ITERATION   3 PLS= 0.593E-03 0.000E+00 ENERGY     -128.624273 DELTAE   -0.0013386
 ITERATION   4 PLS= 0.274E-03 0.000E+00 ENERGY     -128.625029 DELTAE   -0.0007559
 CYCLE:   143 TIME:   0.082 TIME LEFT:  2.00W  GRAD.:     2.955 HEAT: -128.6247
 ITERATION   1 PLS= 0.351E-04 0.000E+00 ENERGY     -128.596996 DELTAE -228.5969961
 ITERATION   2 PLS= 0.846E-03 0.000E+00 ENERGY     -128.621043 DELTAE   -0.0240465
 ITERATION   3 PLS= 0.476E-03 0.000E+00 ENERGY     -128.625531 DELTAE   -0.0044885
 ITERATION   4 PLS= 0.282E-03 0.000E+00 ENERGY     -128.628780 DELTAE   -0.0032491
 CYCLE:   144 TIME:   0.105 TIME LEFT:  2.00W  GRAD.:     3.600 HEAT: -128.6269
 ITERATION   1 PLS= 0.369E-04 0.000E+00 ENERGY     -128.416007 DELTAE -228.4160070
 ITERATION   2 PLS= 0.252E-02 0.000E+00 ENERGY     -128.631948 DELTAE   -0.2159407
 ITERATION   3 PLS= 0.147E-02 0.000E+00 ENERGY     -128.671858 DELTAE   -0.0399098
 ITERATION   4 PLS= 0.878E-03 0.000E+00 ENERGY     -128.700548 DELTAE   -0.0286904
 ITERATION   5 PLS= 0.997E-04 0.000E+00 ENERGY     -128.683647 DELTAE    0.0169006
 CYCLE:   145 TIME:   0.086 TIME LEFT:  2.00W  GRAD.:     4.717 HEAT: -128.6837
 ITERATION   1 PLS= 0.659E-04 0.000E+00 ENERGY     -128.492441 DELTAE -228.4924406
 ITERATION   2 PLS= 0.373E-02 0.000E+00 ENERGY     -128.619591 DELTAE   -0.1271504
 ITERATION   3 PLS= 0.124E-02 0.000E+00 ENERGY     -128.639647 DELTAE   -0.0200561
 ITERATION   4 PLS= 0.571E-03 0.000E+00 ENERGY     -128.650435 DELTAE   -0.0107883
 CYCLE:   146 TIME:   0.074 TIME LEFT:  2.00W  GRAD.:    21.059 HEAT: -128.6454
 ITERATION   1 PLS= 0.878E-04 0.000E+00 ENERGY     -128.543938 DELTAE -228.5439384
 ITERATION   2 PLS= 0.320E-02 0.000E+00 ENERGY     -128.601478 DELTAE   -0.0575393
 ITERATION   3 PLS= 0.110E-02 0.000E+00 ENERGY     -128.608985 DELTAE   -0.0075072
 ITERATION   4 PLS= 0.496E-03 0.000E+00 ENERGY     -128.612449 DELTAE   -0.0034644
 CYCLE:   147 TIME:   0.121 TIME LEFT:  2.00W  GRAD.:     3.606 HEAT: -128.6110
 ITERATION   1 PLS= 0.627E-04 0.000E+00 ENERGY     -128.614581 DELTAE -228.6145814
 ITERATION   2 PLS= 0.321E-03 0.000E+00 ENERGY     -128.615541 DELTAE   -0.0009593
 ITERATION   3 PLS= 0.136E-03 0.000E+00 ENERGY     -128.615704 DELTAE   -0.0001629
 ITERATION   4 PLS= 0.687E-04 0.000E+00 ENERGY     -128.615806 DELTAE   -0.0001021
 CYCLE:   148 TIME:   0.102 TIME LEFT:  2.00W  GRAD.:     2.732 HEAT: -128.6158
 ITERATION   1 PLS= 0.832E-05 0.000E+00 ENERGY     -128.614802 DELTAE -228.6148020
 ITERATION   2 PLS= 0.117E-02 0.000E+00 ENERGY     -128.626885 DELTAE   -0.0120829
 ITERATION   3 PLS= 0.555E-03 0.000E+00 ENERGY     -128.629050 DELTAE   -0.0021647
 ITERATION   4 PLS= 0.265E-03 0.000E+00 ENERGY     -128.630283 DELTAE   -0.0012339
 CYCLE:   149 TIME:   0.074 TIME LEFT:  2.00W  GRAD.:     3.313 HEAT: -128.6297
 ITERATION   1 PLS= 0.264E-04 0.000E+00 ENERGY     -128.599052 DELTAE -228.5990519
 ITERATION   2 PLS= 0.958E-03 0.000E+00 ENERGY     -128.633837 DELTAE   -0.0347852
 ITERATION   3 PLS= 0.447E-03 0.000E+00 ENERGY     -128.640937 DELTAE   -0.0071000
 ITERATION   4 PLS= 0.229E-03 0.000E+00 ENERGY     -128.645989 DELTAE   -0.0050517
 CYCLE:   150 TIME:   0.078 TIME LEFT:  2.00W  GRAD.:     4.883 HEAT: -128.6433
 ITERATION   1 PLS= 0.458E-04 0.000E+00 ENERGY     -128.422729 DELTAE -228.4227294
 ITERATION   2 PLS= 0.194E-02 0.000E+00 ENERGY     -128.661581 DELTAE   -0.2388520
 ITERATION   3 PLS= 0.109E-02 0.000E+00 ENERGY     -128.709846 DELTAE   -0.0482643
 ITERATION   4 PLS= 0.657E-03 0.000E+00 ENERGY     -128.745113 DELTAE   -0.0352675
 ITERATION   5 PLS= 0.997E-04 0.000E+00 ENERGY     -128.724712 DELTAE    0.0204008
 CYCLE:   151 TIME:   0.113 TIME LEFT:  2.00W  GRAD.:     5.996 HEAT: -128.7248
 ITERATION   1 PLS= 0.691E-04 0.000E+00 ENERGY     -128.468222 DELTAE -228.4682223
 ITERATION   2 PLS= 0.145E-02 0.000E+00 ENERGY     -128.729484 DELTAE   -0.2612620
 ITERATION   3 PLS= 0.101E-02 0.000E+00 ENERGY     -128.781543 DELTAE   -0.0520589
 ITERATION   4 PLS= 0.657E-03 0.000E+00 ENERGY     -128.819331 DELTAE   -0.0377883
 ITERATION   5 PLS= 0.136E-03 0.000E+00 ENERGY     -128.797517 DELTAE    0.0218144
 CYCLE:   152 TIME:   0.082 TIME LEFT:  2.00W  GRAD.:    11.707 HEAT: -128.7976
 ITERATION   1 PLS= 0.864E-04 0.000E+00 ENERGY     -128.829883 DELTAE -228.8298829
 ITERATION   2 PLS= 0.624E-03 0.000E+00 ENERGY     -128.843326 DELTAE   -0.0134429
 ITERATION   3 PLS= 0.267E-03 0.000E+00 ENERGY     -128.845553 DELTAE   -0.0022273
 ITERATION   4 PLS= 0.130E-03 0.000E+00 ENERGY     -128.847006 DELTAE   -0.0014528
 CYCLE:   153 TIME:   0.117 TIME LEFT:  2.00W  GRAD.:     4.582 HEAT: -128.8464
 ITERATION   1 PLS= 0.299E-04 0.000E+00 ENERGY     -128.832646 DELTAE -228.8326464
 ITERATION   2 PLS= 0.100E-02 0.000E+00 ENERGY     -128.863111 DELTAE   -0.0304650
 ITERATION   3 PLS= 0.568E-03 0.000E+00 ENERGY     -128.868522 DELTAE   -0.0054102
 ITERATION   4 PLS= 0.330E-03 0.000E+00 ENERGY     -128.872087 DELTAE   -0.0035651
 CYCLE:   154 TIME:   0.090 TIME LEFT:  2.00W  GRAD.:     3.537 HEAT: -128.8701
 ITERATION   1 PLS= 0.386E-04 0.000E+00 ENERGY     -128.821507 DELTAE -228.8215067
 ITERATION   2 PLS= 0.145E-02 0.000E+00 ENERGY     -128.872634 DELTAE   -0.0511274
 ITERATION   3 PLS= 0.695E-03 0.000E+00 ENERGY     -128.883112 DELTAE   -0.0104777
[...]
 ITERATION   2 PLS= 0.107E-02 0.000E+00 ENERGY     -133.263126 DELTAE   -0.0747796
 ITERATION   3 PLS= 0.629E-03 0.000E+00 ENERGY     -133.276871 DELTAE   -0.0137452
 ITERATION   4 PLS= 0.363E-03 0.000E+00 ENERGY     -133.286231 DELTAE   -0.0093596
 ITERATION   5 PLS= 0.254E-04 0.000E+00 ENERGY     -133.280790 DELTAE    0.0054407
 ITERATION   6 PLS= 0.178E-04 0.000E+00 ENERGY     -133.280818 DELTAE   -0.0000280
 CYCLE:   417 TIME:   0.078 TIME LEFT:  2.00W  GRAD.:     1.571 HEAT: -133.2808
 ITERATION   1 PLS= 0.130E-04 0.000E+00 ENERGY     -133.276068 DELTAE -233.2760683
 ITERATION   2 PLS= 0.823E-03 0.000E+00 ENERGY     -133.282680 DELTAE   -0.0066122
 ITERATION   3 PLS= 0.441E-03 0.000E+00 ENERGY     -133.284067 DELTAE   -0.0013866
 ITERATION   4 PLS= 0.234E-03 0.000E+00 ENERGY     -133.284988 DELTAE   -0.0009213
 ITERATION   5 PLS= 0.111E-04 0.000E+00 ENERGY     -133.284515 DELTAE    0.0004733
 CYCLE:   418 TIME:   0.102 TIME LEFT:  2.00W  GRAD.:     2.299 HEAT: -133.2845
 ITERATION   1 PLS= 0.611E-05 0.000E+00 ENERGY     -133.272962 DELTAE -233.2729622
 ITERATION   2 PLS= 0.820E-03 0.000E+00 ENERGY     -133.283006 DELTAE   -0.0100441
 ITERATION   3 PLS= 0.422E-03 0.000E+00 ENERGY     -133.285026 DELTAE   -0.0020201
 ITERATION   4 PLS= 0.218E-03 0.000E+00 ENERGY     -133.286332 DELTAE   -0.0013060
 CYCLE:   419 TIME:   0.078 TIME LEFT:  2.00W  GRAD.:     1.371 HEAT: -133.2857
 ITERATION   1 PLS= 0.122E-04 0.000E+00 ENERGY     -133.289140 DELTAE -233.2891404
 ITERATION   2 PLS= 0.319E-03 0.000E+00 ENERGY     -133.290045 DELTAE   -0.0009045
 ITERATION   3 PLS= 0.162E-03 0.000E+00 ENERGY     -133.290250 DELTAE   -0.0002050
 ITERATION   4 PLS= 0.821E-04 0.000E+00 ENERGY     -133.290397 DELTAE   -0.0001472
 CYCLE:   420 TIME:   0.074 TIME LEFT:  2.00W  GRAD.:     1.181 HEAT: -133.2903
 ITERATION   1 PLS= 0.709E-05 0.000E+00 ENERGY     -133.274246 DELTAE -233.2742457
 ITERATION   2 PLS= 0.836E-03 0.000E+00 ENERGY     -133.294048 DELTAE   -0.0198022
 ITERATION   3 PLS= 0.476E-03 0.000E+00 ENERGY     -133.297819 DELTAE   -0.0037709
 ITERATION   4 PLS= 0.269E-03 0.000E+00 ENERGY     -133.300370 DELTAE   -0.0025513
 ITERATION   5 PLS= 0.180E-04 0.000E+00 ENERGY     -133.298932 DELTAE    0.0014380
 CYCLE:   421 TIME:   0.152 TIME LEFT:  2.00W  GRAD.:     1.668 HEAT: -133.2989
 ITERATION   1 PLS= 0.948E-05 0.000E+00 ENERGY     -133.279402 DELTAE -233.2794024
 ITERATION   2 PLS= 0.681E-03 0.000E+00 ENERGY     -133.292103 DELTAE   -0.0127001
 ITERATION   3 PLS= 0.387E-03 0.000E+00 ENERGY     -133.294376 DELTAE   -0.0022738
 ITERATION   4 PLS= 0.218E-03 0.000E+00 ENERGY     -133.295853 DELTAE   -0.0014771
 ITERATION   5 PLS= 0.109E-04 0.000E+00 ENERGY     -133.294990 DELTAE    0.0008630
 CYCLE:   422 TIME:   0.137 TIME LEFT:  2.00W  GRAD.:     2.106 HEAT: -133.2950
 ITERATION   1 PLS= 0.547E-05 0.000E+00 ENERGY     -133.200503 DELTAE -233.2005027
 ITERATION   2 PLS= 0.141E-02 0.000E+00 ENERGY     -133.260020 DELTAE   -0.0595176
 ITERATION   3 PLS= 0.792E-03 0.000E+00 ENERGY     -133.270674 DELTAE   -0.0106541
 ITERATION   4 PLS= 0.442E-03 0.000E+00 ENERGY     -133.277561 DELTAE   -0.0068864
 ITERATION   5 PLS= 0.224E-04 0.000E+00 ENERGY     -133.273537 DELTAE    0.0040232
 CYCLE:   423 TIME:   0.125 TIME LEFT:  2.00W  GRAD.:     1.630 HEAT: -133.2736
 ITERATION   1 PLS= 0.112E-04 0.000E+00 ENERGY     -133.166591 DELTAE -233.1665907
 ITERATION   2 PLS= 0.183E-02 0.000E+00 ENERGY     -133.276488 DELTAE   -0.1098970
 ITERATION   3 PLS= 0.103E-02 0.000E+00 ENERGY     -133.296219 DELTAE   -0.0197317
 ITERATION   4 PLS= 0.572E-03 0.000E+00 ENERGY     -133.309250 DELTAE   -0.0130309
 ITERATION   5 PLS= 0.295E-04 0.000E+00 ENERGY     -133.301627 DELTAE    0.0076237
 ITERATION   6 PLS= 0.147E-04 0.000E+00 ENERGY     -133.301668 DELTAE   -0.0000417
 CYCLE:   424 TIME:   0.133 TIME LEFT:  2.00W  GRAD.:     1.951 HEAT: -133.3017
 ITERATION   1 PLS= 0.775E-05 0.000E+00 ENERGY     -133.309433 DELTAE -233.3094325
 ITERATION   2 PLS= 0.434E-03 0.000E+00 ENERGY     -133.313122 DELTAE   -0.0036899
 ITERATION   3 PLS= 0.245E-03 0.000E+00 ENERGY     -133.313867 DELTAE   -0.0007444
 ITERATION   4 PLS= 0.137E-03 0.000E+00 ENERGY     -133.314451 DELTAE   -0.0005838
 CYCLE:   425 TIME:   0.066 TIME LEFT:  2.00W  GRAD.:     2.574 HEAT: -133.3142
 ITERATION   1 PLS= 0.108E-04 0.000E+00 ENERGY     -133.315467 DELTAE -233.3154670
 ITERATION   2 PLS= 0.301E-03 0.000E+00 ENERGY     -133.317503 DELTAE   -0.0020363
 ITERATION   3 PLS= 0.172E-03 0.000E+00 ENERGY     -133.317875 DELTAE   -0.0003716
 ITERATION   4 PLS= 0.992E-04 0.000E+00 ENERGY     -133.318115 DELTAE   -0.0002403
 CYCLE:   426 TIME:   0.070 TIME LEFT:  2.00W  GRAD.:     1.483 HEAT: -133.3180
 ITERATION   1 PLS= 0.847E-05 0.000E+00 ENERGY     -133.285821 DELTAE -233.2858211
 ITERATION   2 PLS= 0.108E-02 0.000E+00 ENERGY     -133.311744 DELTAE   -0.0259232
 ITERATION   3 PLS= 0.602E-03 0.000E+00 ENERGY     -133.316433 DELTAE   -0.0046888
 ITERATION   4 PLS= 0.337E-03 0.000E+00 ENERGY     -133.319530 DELTAE   -0.0030967
 ITERATION   5 PLS= 0.151E-04 0.000E+00 ENERGY     -133.317731 DELTAE    0.0017991
 CYCLE:   427 TIME:   0.082 TIME LEFT:  2.00W  GRAD.:     1.416 HEAT: -133.3177
 ITERATION   1 PLS= 0.842E-05 0.000E+00 ENERGY     -133.204273 DELTAE -233.2042730
 ITERATION   2 PLS= 0.187E-02 0.000E+00 ENERGY     -133.289717 DELTAE   -0.0854436
 ITERATION   3 PLS= 0.105E-02 0.000E+00 ENERGY     -133.305165 DELTAE   -0.0154489
 ITERATION   4 PLS= 0.590E-03 0.000E+00 ENERGY     -133.315453 DELTAE   -0.0102874
 ITERATION   5 PLS= 0.278E-04 0.000E+00 ENERGY     -133.309422 DELTAE    0.0060307
 ITERATION   6 PLS= 0.156E-04 0.000E+00 ENERGY     -133.309452 DELTAE   -0.0000299
 CYCLE:   428 TIME:   0.125 TIME LEFT:  2.00W  GRAD.:     1.852 HEAT: -133.3095
 ITERATION   1 PLS= 0.823E-05 0.000E+00 ENERGY     -133.306981 DELTAE -233.3069806
 ITERATION   2 PLS= 0.688E-03 0.000E+00 ENERGY     -133.314994 DELTAE   -0.0080133
 ITERATION   3 PLS= 0.327E-03 0.000E+00 ENERGY     -133.316516 DELTAE   -0.0015219
 ITERATION   4 PLS= 0.168E-03 0.000E+00 ENERGY     -133.317559 DELTAE   -0.0010429
 CYCLE:   429 TIME:   0.086 TIME LEFT:  2.00W  GRAD.:     3.170 HEAT: -133.3170
 ITERATION   1 PLS= 0.257E-04 0.000E+00 ENERGY     -133.316848 DELTAE -233.3168484
 ITERATION   2 PLS= 0.355E-03 0.000E+00 ENERGY     -133.318429 DELTAE   -0.0015801
 ITERATION   3 PLS= 0.156E-03 0.000E+00 ENERGY     -133.318711 DELTAE   -0.0002820
 ITERATION   4 PLS= 0.776E-04 0.000E+00 ENERGY     -133.318885 DELTAE   -0.0001746
 CYCLE:   430 TIME:   0.090 TIME LEFT:  2.00W  GRAD.:     1.316 HEAT: -133.3188
 ITERATION   1 PLS= 0.811E-05 0.000E+00 ENERGY     -133.314329 DELTAE -233.3143286
 ITERATION   2 PLS= 0.438E-03 0.000E+00 ENERGY     -133.317988 DELTAE   -0.0036592
 ITERATION   3 PLS= 0.249E-03 0.000E+00 ENERGY     -133.318656 DELTAE   -0.0006678
 ITERATION   4 PLS= 0.140E-03 0.000E+00 ENERGY     -133.319092 DELTAE   -0.0004369
 ITERATION   5 PLS= 0.768E-05 0.000E+00 ENERGY     -133.318850 DELTAE    0.0002420
 CYCLE:   431 TIME:   0.102 TIME LEFT:  2.00W  GRAD.:     0.987 HEAT: -133.3189
 ITERATION   1 PLS= 0.405E-05 0.000E+00 ENERGY     -133.318852 DELTAE -233.3188520
 ITERATION   2 PLS= 0.244E-05 0.000E+00 ENERGY     -133.318853 DELTAE   -0.0000005
 ITERATION   3 PLS= 0.148E-05 0.000E+00 ENERGY     -133.318853 DELTAE   -0.0000002
 ITERATION   4 PLS= 0.901E-06 0.000E+00 ENERGY     -133.318853 DELTAE   -0.0000001

 -------------------------------------------------------------------------------
 PM7 CHARGE=0 SINGLET AUX DUMP=30M ITRY=15000 eps=78.4 T=14D PL THREADS=40

 Mopac file generated by Gabedit


     HERBERTS TEST WAS SATISFIED IN BFGS                      
     SCF FIELD WAS ACHIEVED                                   


                              PM7 CALCULATION
                                                       MOPAC v22.1.0 Linux
                                                       Sat Mar 23 15:19:57 2024




          FINAL HEAT OF FORMATION =       -133.31885 KCAL/MOL =    -557.80608 KJ/MOL
          VAN DER WAALS AREA      =        298.13 SQUARE ANGSTROMS



          DIELECTRIC ENERGY       =         -0.75836 EV
          COSMO AREA              =        298.13 SQUARE ANGSTROMS
          COSMO VOLUME            =        349.09 CUBIC ANGSTROMS

          GRADIENT NORM           =          0.98674          =       0.16007 PER ATOM
          IONIZATION POTENTIAL    =          9.626803 EV
          HOMO LUMO ENERGIES (EV) =         -9.627 -0.778
          NO. OF FILLED LEVELS    =         54
          MOLECULAR WEIGHT        =        290.7461         POINT GROUP:  C1  

          MOLECULAR DIMENSIONS (Angstroms)

            Atom       Atom       Distance
            H    30   Cl    10    11.04944
            H    28    H    14     7.25492
            O    19    O    38     4.46492


          SCF CALCULATIONS        =        433

          WALL-CLOCK TIME         =     38.250 SECONDS
          COMPUTATION TIME        =         37 MINUTES AND 21.419 SECONDS




   ATOM   CHEMICAL          X               Y               Z
  NUMBER   SYMBOL      (ANGSTROMS)     (ANGSTROMS)     (ANGSTROMS)

     1       C          1.85476374  *   2.79668348  *   2.95150771  *
     2       C          2.08132201  *   1.43756576  *   2.73888532  *
     3       C          1.20617969  *   0.68912666  *   1.94950874  *
     4       C          0.09035231  *   1.29860219  *   1.37131993  *
     5       C         -0.10776375  *   2.65111454  *   1.60368428  *
     6       C          0.74758858  *   3.42151005  *   2.37994358  *
     7       H          2.54804668  *   3.37468246  *   3.56824021  *
     8       H          2.94937161  *   0.96009087  *   3.20466089  *
     9       H         -0.60164321  *   0.71971624  *   0.75241674  *
    10      Cl         -1.47818614  *   3.40380960  *   0.89493851  *
    11       H          0.56855881  *   4.48657206  *   2.54452954  *
    12       C          1.46908669  *  -0.78052416  *   1.75871885  *
    13       C          0.30024106  *  -1.63733908  *   2.23003183  *
    14       H          0.51394382  *  -2.71428897  *   2.15051933  *
    15       H         -0.62691766  *  -1.44248367  *   1.67183761  *
    16       H          0.07824417  *  -1.43838602  *   3.29184714  *
    17       N          1.71421566  *  -1.06007054  *   0.30072614  *
    18       O          2.74747805  *  -1.63897103  *  -0.00394354  *
    19       O          0.89774917  *  -0.70037488  *  -0.52650796  *
    20       N          5.03085000  *  -0.74593247  *   1.92489014  *
    21       C          6.15514314  *  -1.69799598  *   2.10439020  *
    22       C          7.04839083  *  -1.17234967  *   3.24000941  *
    23       O          7.51538827  *   0.13145529  *   2.93397290  *
    24       C          6.46280251  *   1.06249038  *   2.74188676  *
    25       C          5.55180983  *   0.60339518  *   1.59246928  *
    26       H          4.69313877  *   1.29956149  *   1.47457503  *
    27       H          6.11025320  *   0.61793895  *   0.63114864  *
    28       H          6.99494315  *   2.00032006  *   2.50116800  *
    29       H          5.90547977  *   1.18306702  *   3.68806044  *
    30       H          7.98009301  *  -1.75688652  *   3.34407821  *
    31       H          6.51355459  *  -1.15041786  *   4.20712319  *
    32       H          6.75072604  *  -1.83289203  *   1.17603946  *
    33       H          2.40404396  *  -1.09072370  *   2.31930722  *
    34       H          4.39206952  *  -1.07203978  *   1.19705075  *
    35       H          5.73881973  *  -2.69486680  *   2.36848821  *
    36       H          3.50265612  *  -1.64241154  *   4.62009063  *
    37       H          4.29512208  *  -0.69432391  *   3.70835496  *
    38       O          3.81825511  *  -0.73947316  *   4.56608770  *

                             CARTESIAN COORDINATES

   1    C        1.854763743     2.796683478     2.951507706
   2    C        2.081322006     1.437565764     2.738885321
   3    C        1.206179694     0.689126658     1.949508738
   4    C        0.090352314     1.298602192     1.371319934
   5    C       -0.107763747     2.651114536     1.603684284
   6    C        0.747588579     3.421510051     2.379943577
   7    H        2.548046682     3.374682457     3.568240206
   8    H        2.949371606     0.960090871     3.204660887
   9    H       -0.601643214     0.719716245     0.752416744
  10   Cl       -1.478186139     3.403809601     0.894938511
  11    H        0.568558810     4.486572059     2.544529540
  12    C        1.469086691    -0.780524164     1.758718849
  13    C        0.300241061    -1.637339079     2.230031834
  14    H        0.513943822    -2.714288973     2.150519333
  15    H       -0.626917657    -1.442483672     1.671837607
  16    H        0.078244168    -1.438386016     3.291847139
  17    N        1.714215658    -1.060070542     0.300726139
  18    O        2.747478051    -1.638971029    -0.003943538
  19    O        0.897749174    -0.700374880    -0.526507956
  20    N        5.030849999    -0.745932473     1.924890142
  21    C        6.155143141    -1.697995979     2.104390199
  22    C        7.048390829    -1.172349667     3.240009411
  23    O        7.515388275     0.131455287     2.933972901
  24    C        6.462802510     1.062490384     2.741886760
  25    C        5.551809828     0.603395177     1.592469276
  26    H        4.693138771     1.299561493     1.474575030
  27    H        6.110253200     0.617938947     0.631148641
  28    H        6.994943155     2.000320061     2.501167997
  29    H        5.905479773     1.183067021     3.688060440
  30    H        7.980093015    -1.756886515     3.344078211
  31    H        6.513554585    -1.150417858     4.207123195
  32    H        6.750726044    -1.832892034     1.176039457
  33    H        2.404043955    -1.090723700     2.319307216
  34    H        4.392069518    -1.072039781     1.197050749
  35    H        5.738819726    -2.694866796     2.368488213
  36    H        3.502656120    -1.642411539     4.620090629
  37    H        4.295122077    -0.694323914     3.708354957
  38    O        3.818255109    -0.739473163     4.566087698


           Empirical Formula: C12 H19 N2 O4 Cl  =    38 atoms



      MOLECULAR POINT GROUP   :   C1  


                  EIGENVALUES  
 -37.50002 -35.70209 -31.61478 -30.97844 -29.71257 -29.40101 -28.83509 -27.49900
 -26.65152 -26.15633 -25.07671 -24.96794 -24.78509 -22.56411 -22.26887 -21.28537
 -20.57411 -20.19950 -18.61248 -18.52237 -18.02953 -17.62958 -17.51419 -17.29480
 -16.40678 -16.36493 -15.72876 -15.63824 -15.54352 -15.18105 -15.13296 -14.75519
 -14.59005 -14.54520 -14.17494 -14.09464 -13.85276 -13.37141 -13.18013 -12.76235
 -12.60468 -12.44038 -12.27797 -12.19452 -12.12100 -12.02080 -11.93308 -11.61396
 -11.55701 -11.47997 -10.54659 -10.43902 -10.11629  -9.62680  -0.77811  -0.51278
  -0.45670   0.37943   0.63859   1.83221   2.03351   2.71005   2.81092   3.10825
   3.56607   3.78815   3.79570   3.97775   4.00209   4.07506   4.17890   4.30863
   4.37740   4.45932   4.54150   4.69075   4.85079   5.10098   5.31528   5.33417
   5.35618   5.37086   5.49804   5.54154   5.68414   5.75321   5.83303   5.85624
   5.87474   5.97342   6.02294   6.08145   6.44871   6.50559   6.89216  69.38863
  69.40310  69.43418  69.67521  69.69046


              NET ATOMIC CHARGES AND DIPOLE CONTRIBUTIONS

  ATOM NO.   TYPE          CHARGE      No. of ELECS.   s-Pop       p-Pop       d-Pop       
    1          C          -0.122756        4.1228     1.08814     3.03462
    2          C          -0.144208        4.1442     1.09254     3.05167
    3          C          -0.043797        4.0438     1.06678     2.97702
    4          C          -0.153052        4.1531     1.08810     3.06495
    5          C           0.010667        3.9893     1.09459     2.89474
    6          C          -0.157018        4.1570     1.08912     3.06789
    7          H           0.179773        0.8202     0.82023
    8          H           0.183300        0.8167     0.81670
    9          H           0.196247        0.8038     0.80375
   10         Cl          -0.112483        7.1125     1.98045     5.12561     0.00642
   11          H           0.186892        0.8131     0.81311
   12          C          -0.046217        4.0462     1.09555     2.95067
   13          C          -0.466005        4.4660     1.05850     3.40751
   14          H           0.181873        0.8181     0.81813
   15          H           0.180063        0.8199     0.81994
   16          H           0.187996        0.8120     0.81200
   17          N           0.621752        4.3782     1.47902     2.89923
   18          O          -0.462387        6.4624     1.93994     4.52245
   19          O          -0.419164        6.4192     1.93890     4.48027
   20          N          -0.563105        5.5631     1.66377     3.89934
   21          C          -0.160396        4.1604     1.07441     3.08599
   22          C          -0.038703        4.0387     1.09327     2.94544
   23          O          -0.461218        6.4612     1.87559     4.58563
   24          C          -0.034390        4.0344     1.09278     2.94161
   25          C          -0.162686        4.1627     1.07434     3.08834
   26          H           0.155763        0.8442     0.84424
   27          H           0.146489        0.8535     0.85351
   28          H           0.148837        0.8512     0.85116
   29          H           0.134697        0.8653     0.86530
   30          H           0.148445        0.8516     0.85156
   31          H           0.134785        0.8652     0.86521
   32          H           0.143819        0.8562     0.85618
   33          H           0.201225        0.7988     0.79877
   34          H           0.275008        0.7250     0.72499
   35          H           0.158772        0.8412     0.84123
   36          H           0.364339        0.6357     0.63566
   37          H           0.388547        0.6115     0.61145
   38          O          -0.781701        6.7817     1.81741     4.96429
 DIPOLE           X         Y         Z       TOTAL
 POINT-CHG.     0.102    -1.732     4.032     4.390
 HYBRID         0.260    -0.489    -1.601     1.694
 SUM            0.362    -2.222     2.432     3.313


          ATOMIC ORBITAL ELECTRON POPULATIONS

     Atom    s        px        py        pz      x^2-y^2     xz        z^2       yz        xy
    1  C   1.08814   1.01820   1.00623   1.01019
    2  C   1.09254   1.04957   1.00591   0.99619
    3  C   1.06678   0.99885   0.95078   1.02739
    4  C   1.08810   1.03313   1.00129   1.03054
    5  C   1.09459   0.91682   0.96895   1.00898
    6  C   1.08912   0.98873   1.09251   0.98665
    7  H   0.82023
    8  H   0.81670
    9  H   0.80375
   10 Cl   1.98045   1.45755   1.83208   1.83598   0.00137   0.00188   0.00072   0.00053   0.00193
   11  H   0.81311
   12  C   1.09555   1.11635   1.00585   0.82847
   13  C   1.05850   1.07495   1.13741   1.19514
   14  H   0.81813
   15  H   0.81994
   16  H   0.81200
   17  N   1.47902   0.94587   0.92119   1.03216
   18  O   1.93994   1.18992   1.44888   1.88364
   19  O   1.93890   1.41196   1.54323   1.52508
   20  N   1.66377   1.23733   1.10667   1.55534
   21  C   1.07441   0.97544   1.01667   1.09388
   22  C   1.09327   1.07610   0.82666   1.04267
   23  O   1.87559   1.37394   1.28137   1.93032
   24  C   1.09278   0.93604   0.94417   1.06140
   25  C   1.07434   1.09408   0.92146   1.07280
   26  H   0.84424
   27  H   0.85351
   28  H   0.85116
   29  H   0.86530
   30  H   0.85156
   31  H   0.86521
   32  H   0.85618
   33  H   0.79877
   34  H   0.72499
   35  H   0.84123
   36  H   0.63566
   37  H   0.61145
   38  O   1.81741   1.83992   1.50977   1.61461

 **********************
 *                    *
 * JOB ENDED NORMALLY *
 *                    *
 **********************



 TOTAL JOB TIME:            38.26 SECONDS

 == MOPAC DONE ==
