 *******************************************************************************
 **                                                                           **
 **                              MOPAC v22.0.6                                **
 **                                                                           **
 *******************************************************************************
 **          Digital Object Identifier (DOI): 10.5281/zenodo.6511958          **
 **    Visit the DOI location for information on how to cite this program.    **
 *******************************************************************************

                              PM7 CALCULATION RESULTS

 *******************************************************************************
 *  CALCULATION DONE:                                Sat Mar 23 14:37:51 2024  *
 *  PM7        - The PM7 Hamiltonian to be used
 *  SINGLET    - SPIN STATE DEFINED AS A SINGLET
 *
 *
 *
 *                 CHARGE ON SYSTEM = -1
 *
 *
 *
 *  EPS=78.4   - USE ANDREAS KLAMT'S COSMO IMPLICIT SOLVATION MODEL
 *  T=         - A TIME OF 14.0 DAYS REQUESTED
 *  DUMP=N     - RESTART FILE WRITTEN EVERY 30.0 MINUTES REQUESTED
 *  RELSCF     - DEFAULT SCF CRITERION MULTIPLIED BY 1.0000
 *              (DEFAULT SCF CRITERION = 0.00010)
 *  ITRY=      - DO A MAXIMUM OF 15000 ITERATIONS FOR SCF
 *  AUX        - OUTPUT AUXILIARY INFORMATION
 *  BONDS      - FINAL BOND-ORDER MATRIX TO BE PRINTED
 *******************************************************************************
PM7 BONDS AUX DUMP=30M ITRY=15000 T=14D CHARGE=-1 SINGLET eps=78.4 RELSCF=1
 Title: ASE calculation

   ATOM   CHEMICAL          X               Y               Z
  NUMBER   SYMBOL      (ANGSTROMS)     (ANGSTROMS)     (ANGSTROMS)

     1       C          0.73968387     -0.77747040      0.02337296   
     2       H          3.05113412     -1.03389881  *   0.08288623  *
     3       N          0.71222687  *  -1.40896805  *   1.18582917  *
     4       O          0.68076914  *  -2.67730689  *   1.26613150  *
     5       O          0.74939610  *  -0.78020925  *   2.29006342  *
     6       C          6.69388198  *  -3.20528274  *   0.48206658  *
     7       O          5.98219959  *  -2.35738976  *   1.24075957  *
     8       O          6.29282890  *  -3.54485776  *  -0.61250194  *
     9       C          7.94292186  *  -3.63241752  *   1.14906539  *
    10       H          8.69516518  *  -3.98600540  *   0.42366447  *
    11       H          7.76399535  *  -4.46486157  *   1.85433072  *
    12       H          8.41142441  *  -2.82275893  *   1.73579890  *
    13       C          0.73006864  *   0.70992619  *  -0.03023646  *
    14       H          1.17309630  *   1.17012289  *   0.86559837  *
    15       H         -0.29488051  *   1.10145618  *  -0.11557584  *
    16       H          1.28875498  *   1.08824637  *  -0.89818485  *
    17       C          0.66911820  *  -1.53455951  *  -1.25643792  *
    18       H         -0.35277537  *  -1.53549076  *  -1.66485386  *
    19       H          0.97060745  *  -2.58696557  *  -1.14551512  *
    20       H          1.31812003  *  -1.08982694  *  -2.02493483  *
    21       H          5.16153844  *  -1.95195607  *   0.79182240  *
    22       O          4.03592362     -0.99613278      0.01180942   
    23       H          4.22299643  *  -0.10835776  *   0.35091995  *



          CARTESIAN COORDINATES 

    NO.       ATOM           X           Y           Z

     1         C          0.7397     -0.7775      0.0234
     2         H          3.0511     -1.0339      0.0829
     3         N          0.7122     -1.4090      1.1858
     4         O          0.6808     -2.6773      1.2661
     5         O          0.7494     -0.7802      2.2901
     6         C          6.6939     -3.2053      0.4821
     7         O          5.9822     -2.3574      1.2408
     8         O          6.2928     -3.5449     -0.6125
     9         C          7.9429     -3.6324      1.1491
    10         H          8.6952     -3.9860      0.4237
    11         H          7.7640     -4.4649      1.8543
    12         H          8.4114     -2.8228      1.7358
    13         C          0.7301      0.7099     -0.0302
    14         H          1.1731      1.1701      0.8656
    15         H         -0.2949      1.1015     -0.1156
    16         H          1.2888      1.0882     -0.8982
    17         C          0.6691     -1.5346     -1.2564
    18         H         -0.3528     -1.5355     -1.6649
    19         H          0.9706     -2.5870     -1.1455
    20         H          1.3181     -1.0898     -2.0249
    21         H          5.1615     -1.9520      0.7918
    22         O          4.0359     -0.9961      0.0118
    23         H          4.2230     -0.1084      0.3509

 General Reference for PM7:
 "Optimization of Parameters for Semiempirical Methods VI: More Modifications to the 
 NDDO Approximations and Re-optimization of Parameters", J. J. P. Stewart, J. Mol. Mod., 1:32, 19 (2013)
 https://link.springer.com/article/10.1007/s00894-012-1667-x

           Empirical Formula: C5 H12 N O5  =    23 atoms



      MOLECULAR POINT GROUP   :   C1  


 SINGLET STATE CALCULATION


      RHF CALCULATION, NO. OF DOUBLY OCCUPIED LEVELS = 34


          Geometry optimization using EF
  SCF CRITERION =    0.1000E-03

          DIAGONAL MATRIX USED AS START HESSIAN

 CYCLE:     1 TIME:   0.051 TIME LEFT:  2.00W  GRAD.:     7.029 HEAT: -313.8693
 CYCLE:     2 TIME:   0.047 TIME LEFT:  2.00W  GRAD.:    12.590 HEAT: -313.8886
 CYCLE:     3 TIME:   0.016 TIME LEFT:  2.00W  GRAD.:     5.176 HEAT: -313.9426
 CYCLE:     4 TIME:   0.020 TIME LEFT:  2.00W  GRAD.:    10.587 HEAT: -313.9710
 CYCLE:     5 TIME:   0.051 TIME LEFT:  2.00W  GRAD.:     6.313 HEAT: -313.9931
 CYCLE:     6 TIME:   0.051 TIME LEFT:  2.00W  GRAD.:     7.939 HEAT: -313.9956
 CYCLE:     7 TIME:   0.023 TIME LEFT:  2.00W  GRAD.:     2.574 HEAT: -314.0123
 CYCLE:     8 TIME:   0.020 TIME LEFT:  2.00W  GRAD.:     3.052 HEAT: -314.0319
 CYCLE:     9 TIME:   0.020 TIME LEFT:  2.00W  GRAD.:     3.822 HEAT: -314.0623
 CYCLE:    10 TIME:   0.102 TIME LEFT:  2.00W  GRAD.:     1.892 HEAT: -314.0637
 CYCLE:    11 TIME:   0.086 TIME LEFT:  2.00W  GRAD.:     1.528 HEAT: -314.0596
 CYCLE:    12 TIME:   0.121 TIME LEFT:  2.00W  GRAD.:     1.321 HEAT: -314.0676
 CYCLE:    13 TIME:   0.141 TIME LEFT:  2.00W  GRAD.:     1.296 HEAT: -314.0680

     TRUST RADIUS NOW LESS THAN  0.00010 OPTIMIZATION TERMINATING
      THE GEOMETRY MAY NOT BE COMPLETELY OPTIMIZED
      (TO CONTINUE, ADD 'LET DDMIN=0.0' TO THE KEYWORD LINE)

 -------------------------------------------------------------------------------
 PM7 BONDS AUX DUMP=30M ITRY=15000 T=14D CHARGE=-1 SINGLET eps=78.4 RELSCF=1
 Title: ASE calculation



     GEOMETRY OPTIMISED USING EIGENVECTOR FOLLOWING (EF).     
     SCF FIELD WAS ACHIEVED                                   


                              PM7 CALCULATION
                                                       MOPAC v22.0.6 Linux
                                                       Sat Mar 23 14:37:52 2024




          FINAL HEAT OF FORMATION =       -314.06800 KCAL/MOL =   -1314.06052 KJ/MOL
          VAN DER WAALS AREA      =        220.86 SQUARE ANGSTROMS



          DIELECTRIC ENERGY       =         -3.72648 EV
          COSMO AREA              =        220.86 SQUARE ANGSTROMS
          COSMO VOLUME            =        211.22 CUBIC ANGSTROMS

          GRADIENT NORM           =          1.29591          =       0.27022 PER ATOM
          IONIZATION POTENTIAL    =          8.347669 EV
          HOMO LUMO ENERGIES (EV) =         -8.348  0.820
          NO. OF FILLED LEVELS    =         34
          MOLECULAR WEIGHT        =        166.1535         POINT GROUP:  C1  

          MOLECULAR DIMENSIONS (Angstroms)

            Atom       Atom       Distance
            H    15    H    10    10.34206
            H    18    H    12     4.35942
            H    16    O     4     3.96589


          SCF CALCULATIONS        =         48

          WALL-CLOCK TIME         =      0.945 SECONDS
          COMPUTATION TIME        =     21.240 SECONDS




   ATOM   CHEMICAL          X               Y               Z
  NUMBER   SYMBOL      (ANGSTROMS)     (ANGSTROMS)     (ANGSTROMS)

     1       C          0.73968387     -0.77747040      0.02337296   
     2       H          3.05113412     -1.07397920  *   0.13723745  *
     3       N          0.71629901  *  -1.40867554  *   1.18470582  *
     4       O          0.68228820  *  -2.67777893  *   1.26558412  *
     5       O          0.75258847  *  -0.78025849  *   2.29021131  *
     6       C          6.69404622  *  -3.20487497  *   0.48301227  *
     7       O          5.98075406  *  -2.35884136  *   1.24215150  *
     8       O          6.29533667  *  -3.54007622  *  -0.61375805  *
     9       C          7.94153075  *  -3.63470954  *   1.15104242  *
    10       H          8.69389179  *  -3.98804556  *   0.42553925  *
    11       H          7.76146786  *  -4.46766857  *   1.85541335  *
    12       H          8.41021476  *  -2.82608708  *   1.73901531  *
    13       C          0.73208357  *   0.70995306  *  -0.03037127  *
    14       H          1.17497198  *   1.16919270  *   0.86587467  *
    15       H         -0.29248938  *   1.10205848  *  -0.11676382  *
    16       H          1.29277429  *   1.08712516  *  -0.89744043  *
    17       C          0.66982933  *  -1.53445157  *  -1.25643158  *
    18       H         -0.35181557  *  -1.53421256  *  -1.66545169  *
    19       H          0.97072993  *  -2.58689906  *  -1.14487197  *
    20       H          1.32085514  *  -1.09028390  *  -2.02341621  *
    21       H          5.16357553  *  -1.94964358  *   0.79036849  *
    22       O          4.03592362     -0.99613278      0.01180942   
    23       H          4.23846335  *  -0.10552437  *   0.33955840  *

                             CARTESIAN COORDINATES

   1    C        0.739683870    -0.777470400     0.023372960
   2    H        3.051134120    -1.073979203     0.137237453
   3    N        0.716299009    -1.408675537     1.184705824
   4    O        0.682288196    -2.677778928     1.265584121
   5    O        0.752588467    -0.780258491     2.290211308
   6    C        6.694046216    -3.204874969     0.483012274
   7    O        5.980754056    -2.358841361     1.242151501
   8    O        6.295336669    -3.540076217    -0.613758054
   9    C        7.941530755    -3.634709539     1.151042416
  10    H        8.693891788    -3.988045560     0.425539252
  11    H        7.761467863    -4.467668573     1.855413351
  12    H        8.410214764    -2.826087077     1.739015310
  13    C        0.732083570     0.709953062    -0.030371266
  14    H        1.174971983     1.169192697     0.865874671
  15    H       -0.292489375     1.102058478    -0.116763819
  16    H        1.292774294     1.087125160    -0.897440431
  17    C        0.669829327    -1.534451574    -1.256431583
  18    H       -0.351815575    -1.534212565    -1.665451692
  19    H        0.970729933    -2.586899064    -1.144871966
  20    H        1.320855145    -1.090283900    -2.023416214
  21    H        5.163575533    -1.949643580     0.790368486
  22    O        4.035923620    -0.996132780     0.011809420
  23    H        4.238463350    -0.105524374     0.339558397


           Empirical Formula: C5 H12 N O5  =    23 atoms



      MOLECULAR POINT GROUP   :   C1  


                  EIGENVALUES  
 -35.51393 -31.48911 -29.84920 -29.24379 -27.64885 -27.52951 -26.65952 -24.17506
 -23.95011 -20.87705 -19.00492 -17.95974 -17.58068 -16.82474 -16.33752 -16.19685
 -16.19303 -16.12096 -14.89201 -14.00695 -13.92057 -13.61275 -13.59941 -13.52195
 -13.17831 -13.11898 -12.50685 -12.37520 -12.22540 -11.61113 -10.74619 -10.55768
 -10.35914  -8.34767   0.82024   1.44683   1.98871   2.33238   3.42012   3.84413
   4.08103   4.53914   4.75435   5.20265   5.32335   5.87353   5.88593   5.90556
   5.92544   5.95107   6.05998   6.15472   6.49145   6.50442   7.03794   7.22021


              NET ATOMIC CHARGES AND DIPOLE CONTRIBUTIONS

  ATOM NO.   TYPE          CHARGE      No. of ELECS.   s-Pop       p-Pop       
    1          C          -0.215105        4.2151     1.03897     3.17613
    2          H           0.380697        0.6193     0.61930
    3          N           0.641714        4.3583     1.42304     2.93524
    4          O          -0.754121        6.7541     1.94693     4.80719
    5          O          -0.758148        6.7581     1.94689     4.81126
    6          C           0.751795        3.2482     1.10290     2.14531
    7          O          -0.609510        6.6095     1.83775     4.77176
    8          O          -0.650838        6.6508     1.87549     4.77535
    9          C          -0.543448        4.5434     1.06132     3.48213
   10          H           0.196655        0.8033     0.80334
   11          H           0.210296        0.7897     0.78970
   12          H           0.202391        0.7976     0.79761
   13          C          -0.415867        4.4159     1.04404     3.37183
   14          H           0.158521        0.8415     0.84148
   15          H           0.147612        0.8524     0.85239
   16          H           0.154575        0.8454     0.84542
   17          C          -0.414928        4.4149     1.04420     3.37073
   18          H           0.149071        0.8509     0.85093
   19          H           0.160899        0.8391     0.83910
   20          H           0.154487        0.8455     0.84551
   21          H           0.407033        0.5930     0.59297
   22          O          -0.734859        6.7349     1.81963     4.91523
   23          H           0.381079        0.6189     0.61892
 DIPOLE           X         Y         Z       TOTAL
 POINT-CHG.    11.759     2.858    -4.478    12.903
 HYBRID        -0.723     0.165     0.365     0.826
 SUM           11.036     3.023    -4.113    12.159


          ATOMIC ORBITAL ELECTRON POPULATIONS

     Atom    s        px        py        pz   
    1  C   1.03897   1.35249   0.95549   0.86815
    2  H   0.61930
    3  N   1.42304   1.02423   0.93339   0.97762
    4  O   1.94693   1.81379   1.04460   1.94880
    5  O   1.94689   1.81429   1.71152   1.28544
    6  C   1.10290   0.76845   0.65057   0.72629
    7  O   1.83775   1.55176   1.63747   1.58253
    8  O   1.87549   1.75659   1.66210   1.35667
    9  C   1.06132   1.08142   1.20970   1.19100
   10  H   0.80334
   11  H   0.78970
   12  H   0.79761
   13  C   1.04404   1.17779   1.01059   1.18345
   14  H   0.84148
   15  H   0.85239
   16  H   0.84542
   17  C   1.04420   1.17805   1.14181   1.05086
   18  H   0.85093
   19  H   0.83910
   20  H   0.84551
   21  H   0.59297
   22  O   1.81963   1.46723   1.54167   1.90632
   23  H   0.61892

          BONDING CONTRIBUTION OF EACH M.O.

  1.4210  1.3296  0.9897  1.0828  1.7573  1.0256  1.7963  1.1456  1.9009  1.5498
  1.1575  1.4157  1.3281  1.1939  1.1922  1.5170  1.8232  1.3951  0.8893  1.5257
  1.5553  1.3920  1.9040  1.3040  1.9079  1.8373  0.2195  0.5589  1.9539  0.5923
  0.3729  0.4405  0.2523  1.1411 -1.7961 -2.5286 -2.0758 -2.1415 -1.9419 -1.8154
 -1.9622 -1.8574 -1.9866 -1.9179 -1.9146 -1.9686 -1.9460 -1.7939 -1.9565 -1.9809
 -1.9536 -1.7146 -1.8688 -1.9308 -1.9074 -1.9095





            (VALENCIES)   BOND ORDERS

     1  C     (3.825)     3  N 1.489    13  C 1.004    17  C 1.004     4  O 0.157     5  O 0.156

     2  H     (0.855)    22  O 0.839

     3  N     (3.808)     1  C 1.489     4  O 1.136     5  O 1.135

     4  O     (1.447)     3  N 1.136     1  C 0.157     5  O 0.130    13  C 0.014

     5  O     (1.445)     3  N 1.135     1  C 0.156     4  O 0.130    17  C 0.014

     6  C     (3.700)     8  O 1.648     7  O 1.036     9  C 0.989    11  H 0.011

     7  O     (1.994)     6  C 1.036    21  H 0.755     8  O 0.144     9  C 0.025    22  O 0.020

     8  O     (1.860)     6  C 1.648     7  O 0.144     9  C 0.046

     9  C     (3.886)     6  C 0.989    10  H 0.943    12  H 0.940    11  H 0.928     8  O 0.046     7  O 0.025
                         21  H 0.013

    10  H     (0.961)     9  C 0.943

    11  H     (0.956)     9  C 0.928     6  C 0.011

    12  H     (0.959)     9  C 0.940

    13  C     (3.926)     1  C 1.004    16  H 0.964    14  H 0.964    15  H 0.964     4  O 0.014

    14  H     (0.975)    13  C 0.964

    15  H     (0.978)    13  C 0.964

    16  H     (0.976)    13  C 0.964

    17  C     (3.925)     1  C 1.004    20  H 0.964    18  H 0.963    19  H 0.963     5  O 0.014

    18  H     (0.978)    17  C 0.963

    19  H     (0.974)    17  C 0.963

    20  H     (0.976)    17  C 0.964

    21  H     (0.834)     7  O 0.755    22  O 0.055     9  C 0.013

    22  O     (1.773)    23  H 0.851     2  H 0.839    21  H 0.055     7  O 0.020

    23  H     (0.855)    22  O 0.851


 **********************
 *                    *
 * JOB ENDED NORMALLY *
 *                    *
 **********************



 TOTAL JOB TIME:             0.95 SECONDS

 == MOPAC DONE ==
