 *******************************************************************************
 **                                                                           **
 **                              MOPAC v22.1.0                                **
 **                                                                           **
 *******************************************************************************
 **          Digital Object Identifier (DOI): 10.5281/zenodo.6511958          **
 **    Visit the DOI location for information on how to cite this program.    **
 *******************************************************************************

                              PM7 CALCULATION RESULTS

 *******************************************************************************
 *  CALCULATION DONE:                                Sun Mar 24 21:56:06 2024  *
 *  PM7        - The PM7 Hamiltonian to be used
 *  DOUBLET    - SPIN STATE DEFINED AS A DOUBLET
 *
 *
 *
 *                 CHARGE ON SYSTEM = 0
 *
 *
 *
 *  THREADS    - USE A MAXIMUM OF 40 THREADS
 *  T=         - A TIME OF 14.0 DAYS REQUESTED
 *  DUMP=N     - RESTART FILE WRITTEN EVERY 30.0 MINUTES REQUESTED
 *  ITRY=      - DO A MAXIMUM OF 15000 ITERATIONS FOR SCF
 *  AUX        - OUTPUT AUXILIARY INFORMATION
 *  PL         - MONITOR CONVERGENCE IN DENSITY MATRIX
 *******************************************************************************
PM7 CHARGE=0 DOUBLET AUX DUMP=30M ITRY=15000 T=14D PL THREADS=40

 Mopac file generated by Gabedit
   ATOM   CHEMICAL          X               Y               Z
  NUMBER   SYMBOL      (ANGSTROMS)     (ANGSTROMS)     (ANGSTROMS)

     1       C         -2.38898200  *   1.11749000  *  -0.14135100  *
     2       H         -1.28197500  *   1.04785500  *  -0.25189300  *
     3       H         -2.84474100  *   0.20564500  *  -0.66109600  *
     4       H         -2.79719200  *   2.07894800  *  -0.63652000  *
     5       H         -2.64227200  *   1.13539200  *   0.96953600  *
     6       O          1.19072900  *   1.26713000  *   0.15100800  *
     7       H          0.62177500  *   1.58249200  *   1.41742600  *



          CARTESIAN COORDINATES 

    NO.       ATOM           X           Y           Z

     1         C         -2.3890      1.1175     -0.1414
     2         H         -1.2820      1.0479     -0.2519
     3         H         -2.8447      0.2056     -0.6611
     4         H         -2.7972      2.0789     -0.6365
     5         H         -2.6423      1.1354      0.9695
     6         O          1.1907      1.2671      0.1510
     7         H          0.6218      1.5825      1.4174

 General Reference for PM7:
 "Optimization of Parameters for Semiempirical Methods VI: More Modifications to the 
 NDDO Approximations and Re-optimization of Parameters", J. J. P. Stewart, J. Mol. Mod., 1:32, 19 (2013)
 https://link.springer.com/article/10.1007/s00894-012-1667-x

           Empirical Formula: C H5 O  =     7 atoms



      MOLECULAR POINT GROUP   :   C1  


 DOUBLET STATE CALCULATION


          UHF CALCULATION, NO. OF ALPHA ELECTRONS =    8
                           NO. OF BETA  ELECTRONS =    7

          Geometry optimization using EF
 ITERATION   1 PLS= 0.100E+01 0.000E+00 ENERGY     2066.159970 DELTAE 1966.1599700
 ITERATION   2 PLS= 0.422E+00 0.339E+00 ENERGY      290.399773 DELTAE-1775.7601969
 ITERATION   3 PLS= 0.655E-01 0.682E-01 ENERGY      262.070639 DELTAE  -28.3291346
 ITERATION   4 PLS= 0.592E-01 0.603E-01 ENERGY      101.465197 DELTAE -160.6054411
 ITERATION   5 PLS= 0.992E-01 0.722E+00 ENERGY      110.473093 DELTAE    9.0078951
 ITERATION   6 PLS= 0.866E-01 0.516E+00 ENERGY      105.422478 DELTAE   -5.0506148
 ITERATION   7 PLS= 0.655E-01 0.278E+00 ENERGY       57.884369 DELTAE  -47.5381089
 ITERATION   8 PLS= 0.872E-01 0.165E+00 ENERGY       59.657509 DELTAE    1.7731400
 ITERATION   9 PLS= 0.386E-01 0.171E+00 ENERGY       70.029912 DELTAE   10.3724032
 ITERATION  10 PLS= 0.133E-01 0.875E-01 ENERGY       53.596384 DELTAE  -16.4335284
 ITERATION  11 PLS= 0.526E-02 0.264E-01 ENERGY       53.009825 DELTAE   -0.5865590
 ITERATION  12 PLS= 0.441E-02 0.944E-01 ENERGY       52.614057 DELTAE   -0.3957677
 ITERATION  13 PLS= 0.881E-02 0.924E-01 ENERGY       54.128719 DELTAE    1.5146620
 ITERATION  14 PLS= 0.739E-02 0.107E+00 ENERGY       62.727810 DELTAE    8.5990906
 ITERATION  15 PLS= 0.730E-02 0.463E-01 ENERGY       44.914060 DELTAE  -17.8137499
 ITERATION  16 PLS= 0.565E-02 0.839E-02 ENERGY       44.313699 DELTAE   -0.6003610
 ITERATION  17 PLS= 0.399E-02 0.243E-01 ENERGY       44.137001 DELTAE   -0.1766978
 ITERATION  18 PLS= 0.220E-02 0.149E-01 ENERGY       43.921671 DELTAE   -0.2153299
 ITERATION  19 PLS= 0.312E-02 0.988E-02 ENERGY       43.315253 DELTAE   -0.6064175
 ITERATION  20 PLS= 0.150E-02 0.182E-02 ENERGY       43.685802 DELTAE    0.3705486
 ITERATION  21 PLS= 0.135E-02 0.178E-02 ENERGY       43.681196 DELTAE   -0.0046065
 ITERATION  22 PLS= 0.117E-02 0.143E-02 ENERGY       43.631856 DELTAE   -0.0493400
 ITERATION  23 PLS= 0.503E-03 0.789E-03 ENERGY       43.672734 DELTAE    0.0408788
 ITERATION  24 PLS= 0.160E-03 0.329E-03 ENERGY       43.672575 DELTAE   -0.0001590
 ITERATION  25 PLS= 0.864E-04 0.188E-03 ENERGY       43.672407 DELTAE   -0.0001687

          DIAGONAL MATRIX USED AS START HESSIAN

 CYCLE:     1 TIME:   0.016 TIME LEFT:  2.00W  GRAD.:   227.319 HEAT:  43.67248
 ITERATION   1 PLS= 0.554E-04 0.557E-04 ENERGY       11.492798 DELTAE  -88.5072016
 ITERATION   2 PLS= 0.283E-01 0.749E-02 ENERGY        9.042880 DELTAE   -2.4499182
 ITERATION   3 PLS= 0.138E-01 0.949E-02 ENERGY        8.721416 DELTAE   -0.3214638
 ITERATION   4 PLS= 0.835E-02 0.800E-02 ENERGY        7.970782 DELTAE   -0.7506347
 ITERATION   5 PLS= 0.326E-02 0.400E-02 ENERGY        8.506129 DELTAE    0.5353475
 ITERATION   6 PLS= 0.116E-02 0.142E-02 ENERGY        8.502408 DELTAE   -0.0037216
 CYCLE:     2 TIME:   0.000 TIME LEFT:  2.00W  GRAD.:   168.838 HEAT:  8.501198
 ITERATION   1 PLS= 0.430E-03 0.544E-03 ENERGY       55.431674 DELTAE  -44.5683259
 ITERATION   2 PLS= 0.399E-01 0.551E-01 ENERGY       21.673999 DELTAE  -33.7576747
 ITERATION   3 PLS= 0.140E-01 0.204E-01 ENERGY       19.192935 DELTAE   -2.4810646
 ITERATION   4 PLS= 0.677E-02 0.720E-02 ENERGY       18.357320 DELTAE   -0.8356149
 ITERATION   5 PLS= 0.188E-02 0.218E-02 ENERGY       18.715579 DELTAE    0.3582593
 ITERATION   6 PLS= 0.731E-03 0.151E-02 ENERGY       18.712367 DELTAE   -0.0032117
 ITERATION   7 PLS= 0.328E-03 0.113E-02 ENERGY       18.701915 DELTAE   -0.0104525
 ITERATION   1 PLS= 0.528E-04 0.296E-03 ENERGY        5.724472 DELTAE  -94.2755276
 ITERATION   2 PLS= 0.342E-01 0.460E-01 ENERGY       -5.697441 DELTAE  -11.4219131
 ITERATION   3 PLS= 0.127E-01 0.109E-01 ENERGY       -6.819387 DELTAE   -1.1219466
 ITERATION   4 PLS= 0.678E-02 0.640E-02 ENERGY       -7.298239 DELTAE   -0.4788515
 ITERATION   5 PLS= 0.807E-03 0.152E-02 ENERGY       -7.054493 DELTAE    0.2437454
 ITERATION   6 PLS= 0.225E-03 0.114E-02 ENERGY       -7.056704 DELTAE   -0.0022110
 CYCLE:     3 TIME:   0.008 TIME LEFT:  2.00W  GRAD.:    23.978 HEAT: -7.061446
 ITERATION   1 PLS= 0.159E-03 0.744E-03 ENERGY       -6.187812 DELTAE -106.1878117
 ITERATION   2 PLS= 0.440E-02 0.456E-02 ENERGY       -6.497428 DELTAE   -0.3096159
 ITERATION   3 PLS= 0.121E-02 0.114E-02 ENERGY       -6.525972 DELTAE   -0.0285444
 ITERATION   4 PLS= 0.449E-03 0.603E-03 ENERGY       -6.535824 DELTAE   -0.0098518
 ITERATION   1 PLS= 0.201E-03 0.215E-03 ENERGY       -7.239750 DELTAE -107.2397503
 ITERATION   2 PLS= 0.211E-02 0.219E-02 ENERGY       -7.324989 DELTAE   -0.0852388
 ITERATION   3 PLS= 0.568E-03 0.528E-03 ENERGY       -7.332939 DELTAE   -0.0079498
 ITERATION   4 PLS= 0.218E-03 0.273E-03 ENERGY       -7.335651 DELTAE   -0.0027124
 CYCLE:     4 TIME:   0.008 TIME LEFT:  2.00W  GRAD.:    12.654 HEAT: -7.334344
 ITERATION   1 PLS= 0.991E-04 0.997E-04 ENERGY       -7.118506 DELTAE -107.1185060
 ITERATION   2 PLS= 0.999E-03 0.105E-02 ENERGY       -7.225749 DELTAE   -0.1072429
 ITERATION   3 PLS= 0.361E-03 0.354E-03 ENERGY       -7.236190 DELTAE   -0.0104406
 ITERATION   4 PLS= 0.143E-03 0.151E-03 ENERGY       -7.238654 DELTAE   -0.0024640
 ITERATION   1 PLS= 0.638E-04 0.618E-04 ENERGY       -7.355833 DELTAE -107.3558334
 ITERATION   2 PLS= 0.630E-03 0.674E-03 ENERGY       -7.384177 DELTAE   -0.0283435
 ITERATION   3 PLS= 0.242E-03 0.236E-03 ENERGY       -7.387039 DELTAE   -0.0028618
 ITERATION   4 PLS= 0.948E-04 0.815E-04 ENERGY       -7.387776 DELTAE   -0.0007375
 CYCLE:     5 TIME:   0.000 TIME LEFT:  2.00W  GRAD.:     6.599 HEAT: -7.387488
 ITERATION   1 PLS= 0.278E-04 0.304E-04 ENERGY       -7.403705 DELTAE -107.4037053
 ITERATION   2 PLS= 0.459E-03 0.485E-03 ENERGY       -7.411813 DELTAE   -0.0081077
 ITERATION   3 PLS= 0.180E-03 0.172E-03 ENERGY       -7.412719 DELTAE   -0.0009059
 ITERATION   4 PLS= 0.740E-04 0.642E-04 ENERGY       -7.413009 DELTAE   -0.0002902
 CYCLE:     6 TIME:   0.008 TIME LEFT:  2.00W  GRAD.:     3.260 HEAT: -7.412877
 ITERATION   1 PLS= 0.231E-04 0.205E-04 ENERGY       -7.421692 DELTAE -107.4216918
 ITERATION   2 PLS= 0.164E-03 0.170E-03 ENERGY       -7.422599 DELTAE   -0.0009076
 ITERATION   3 PLS= 0.440E-04 0.623E-04 ENERGY       -7.422720 DELTAE   -0.0001204
 ITERATION   4 PLS= 0.215E-04 0.438E-04 ENERGY       -7.422779 DELTAE   -0.0000589
 CYCLE:     7 TIME:   0.000 TIME LEFT:  2.00W  GRAD.:     1.601 HEAT: -7.422746
 ITERATION   1 PLS= 0.636E-05 0.138E-04 ENERGY       -7.426601 DELTAE -107.4266015
 ITERATION   2 PLS= 0.118E-03 0.178E-03 ENERGY       -7.428007 DELTAE   -0.0014052
 ITERATION   3 PLS= 0.729E-04 0.122E-03 ENERGY       -7.428233 DELTAE   -0.0002261
 ITERATION   4 PLS= 0.413E-04 0.830E-04 ENERGY       -7.428391 DELTAE   -0.0001584
 CYCLE:     8 TIME:   0.008 TIME LEFT:  2.00W  GRAD.:     0.864 HEAT: -7.428292

     GRADIENT =  0.86398 IS LESS THAN CUTOFF =  1.00000


 ITERATION   1 PLS= 0.622E-05 0.142E-04 ENERGY       -7.428292 DELTAE -107.4282922
 ITERATION   2 PLS= 0.225E-05 0.987E-05 ENERGY       -7.428293 DELTAE   -0.0000012
 ITERATION   3 PLS= 0.100E-05 0.703E-05 ENERGY       -7.428294 DELTAE   -0.0000002
 ITERATION   4 PLS= 0.466E-06 0.542E-05 ENERGY       -7.428294 DELTAE   -0.0000001

 -------------------------------------------------------------------------------
 PM7 CHARGE=0 DOUBLET AUX DUMP=30M ITRY=15000 T=14D PL THREADS=40

 Mopac file generated by Gabedit


     GEOMETRY OPTIMISED USING EIGENVECTOR FOLLOWING (EF).     
     SCF FIELD WAS ACHIEVED                                   


                              PM7 CALCULATION
                                                       MOPAC v22.1.0 Linux
                                                       Sun Mar 24 21:56:06 2024




          FINAL HEAT OF FORMATION =         -7.42829 KCAL/MOL =     -31.07998 KJ/MOL


          COSMO AREA              =         87.54 SQUARE ANGSTROMS
          COSMO VOLUME            =         62.94 CUBIC ANGSTROMS

          GRADIENT NORM           =          0.86398          =       0.32655 PER ATOM
          IONIZATION POTENTIAL    =         11.200015 EV
          ALPHA SOMO LUMO (EV)    =        -12.257  4.500
          BETA  SOMO LUMO (EV)    =        -11.200 -1.663
          NO. OF ALPHA ELECTRONS  =          8
          NO. OF BETA  ELECTRONS  =          7
          MOLECULAR WEIGHT        =         33.0499         POINT GROUP:  C1  

          MOLECULAR DIMENSIONS (Angstroms)

            Atom       Atom       Distance
            O     6    H     3     4.19660
            H     4    H     5     1.75806
            O     6    H     4     1.40198


          SCF CALCULATIONS        =         12

          WALL-CLOCK TIME         =      0.062 SECONDS
          COMPUTATION TIME        =      2.351 SECONDS




   ATOM   CHEMICAL          X               Y               Z
  NUMBER   SYMBOL      (ANGSTROMS)     (ANGSTROMS)     (ANGSTROMS)

     1       C         -2.37933938  *   1.11884152  *  -0.14025553  *
     2       H         -1.30389846  *   1.07105547  *  -0.28008564  *
     3       H         -2.83534580  *   0.25497741  *  -0.61324699  *
     4       H         -2.76330006  *   2.02365395  *  -0.60107515  *
     5       H         -2.62002028  *   1.12043287  *   0.91653495  *
     6       O          1.14376243  *   1.28460428  *   0.23413132  *
     7       H          0.73199755  *   1.50592539  *   1.08036272  *

                             CARTESIAN COORDINATES

   1    C       -2.379339378     1.118841523    -0.140255529
   2    H       -1.303898456     1.071055472    -0.280085637
   3    H       -2.835345800     0.254977406    -0.613246994
   4    H       -2.763300055     2.023653946    -0.601075154
   5    H       -2.620020281     1.120432874     0.916534955
   6    O        1.143762432     1.284604280     0.234131320
   7    H        0.731997550     1.505925392     1.080362721


           Empirical Formula: C H5 O  =     7 atoms



      MOLECULAR POINT GROUP   :   C1  


          ALPHA EIGENVALUES  
 -30.77501 -25.11926 -16.38119 -14.28891 -13.84463 -13.79406 -13.68481 -12.25742
   4.49997   5.81229   5.83154   5.84017   7.32752


           BETA EIGENVALUES 
 -26.32116 -25.09797 -15.22987 -13.86391 -13.80028 -13.77837 -11.20002  -1.66264
   5.02783   5.81386   5.83496   5.84424   7.32927


              NET ATOMIC CHARGES AND DIPOLE CONTRIBUTIONS

  ATOM NO.   TYPE          CHARGE      No. of ELECS.   s-Pop       p-Pop       
    1          C          -0.603460        4.6035     1.04489     3.55857
    2          H           0.150324        0.8497     0.84968
    3          H           0.153460        0.8465     0.84654
    4          H           0.152632        0.8474     0.84737
    5          H           0.148069        0.8519     0.85193
    6          O          -0.253492        6.2535     1.93136     4.32214
    7          H           0.252467        0.7475     0.74753
 DIPOLE           X         Y         Z       TOTAL
 POINT-CHG.    -0.529     0.261     0.988     1.151
 HYBRID        -0.096     0.048     0.193     0.221
 SUM           -0.625     0.309     1.181     1.372


          ATOMIC ORBITAL ELECTRON POPULATIONS

     Atom    s        px        py        pz   
    1  C   1.04489   1.18534   1.18969   1.18354
    2  H   0.84968
    3  H   0.84654
    4  H   0.84737
    5  H   0.85193
    6  O   1.93136   1.06923   1.91595   1.33695
    7  H   0.74753


                    (SZ)    =    0.500000
                    (S**2)  =    0.753296


          ATOMIC ORBITAL SPIN POPULATIONS

    Atom   Total    s     px     py     pz   
         Atomic
    1  C  0.0021  0.000  0.002  0.000  0.000
    2  H -0.0007 -0.001
    3  H -0.0000 -0.000
    4  H -0.0000 -0.000
    5  H -0.0001 -0.000
    6  O  1.0446  0.016  0.813  0.050  0.166
    7  H -0.0458 -0.046

 **********************
 *                    *
 * JOB ENDED NORMALLY *
 *                    *
 **********************



 TOTAL JOB TIME:             0.07 SECONDS

 == MOPAC DONE ==
