 *******************************************************************************
 **                                                                           **
 **                              MOPAC v22.1.0                                **
 **                                                                           **
 *******************************************************************************
 **          Digital Object Identifier (DOI): 10.5281/zenodo.6511958          **
 **    Visit the DOI location for information on how to cite this program.    **
 *******************************************************************************

                              PM7 CALCULATION RESULTS

 *******************************************************************************
 *  CALCULATION DONE:                                Sun Mar 24 12:32:08 2024  *
 *  PM7        - The PM7 Hamiltonian to be used
 *  SINGLET    - SPIN STATE DEFINED AS A SINGLET
 *
 *
 *
 *                 CHARGE ON SYSTEM = -1
 *
 *
 *
 *  EPS=78.4   - USE ANDREAS KLAMT'S COSMO IMPLICIT SOLVATION MODEL
 *  THREADS    - USE A MAXIMUM OF 40 THREADS
 *  T=         - A TIME OF 14.0 DAYS REQUESTED
 *  DUMP=N     - RESTART FILE WRITTEN EVERY 30.0 MINUTES REQUESTED
 *  ITRY=      - DO A MAXIMUM OF 15000 ITERATIONS FOR SCF
 *  AUX        - OUTPUT AUXILIARY INFORMATION
 *  PL         - MONITOR CONVERGENCE IN DENSITY MATRIX
 *******************************************************************************
PM7 CHARGE=-1 SINGLET AUX DUMP=30M ITRY=15000 eps=78.4 T=14D PL THREADS=40

 Mopac file generated by Gabedit
   ATOM   CHEMICAL          X               Y               Z
  NUMBER   SYMBOL      (ANGSTROMS)     (ANGSTROMS)     (ANGSTROMS)

     1       C          0.36076000  *  -0.93769000  *   0.64315000  *
     2       H          0.68268000  *  -1.48063000  *  -0.27218000  *
     3       H          0.90596000  *   0.03442000  *   0.68503000  *
     4       H          0.69560000  *  -1.53497000  *   1.51588000  *
     5       N         -1.07643000  *  -0.70051000  *   0.64912000  *
     6       O         -1.71312000  *  -0.77736000  *   1.68284000  *
     7       O         -1.62015000  *  -0.38379000  *  -0.40985000  *
     8       C          5.43907900  *  -1.62797500  *  -0.50667800  *
     9       O          5.26547200  *  -1.66506300  *  -1.74163200  *
    10       O          5.28038200  *  -2.59536400  *   0.25081100  *
    11       C          5.86999900  *  -0.27512500  *   0.04946300  *
    12      Cl          6.56140900  *  -0.45986200  *   1.67396500  *
    13       H          5.00059300  *   0.40422000  *   0.13872800  *
    14       H          6.64274900  *   0.20587400  *  -0.57321000  *
    15       H          2.83071800  *  -0.40361500  *   1.23674200  *
    16       O          3.09085800  *  -0.73528700  *   0.37196300  *
    17       H          3.30792400  *  -1.66327100  *   0.52046900  *



          CARTESIAN COORDINATES 

    NO.       ATOM           X           Y           Z

     1         C          0.3608     -0.9377      0.6432
     2         H          0.6827     -1.4806     -0.2722
     3         H          0.9060      0.0344      0.6850
     4         H          0.6956     -1.5350      1.5159
     5         N         -1.0764     -0.7005      0.6491
     6         O         -1.7131     -0.7774      1.6828
     7         O         -1.6202     -0.3838     -0.4099
     8         C          5.4391     -1.6280     -0.5067
     9         O          5.2655     -1.6651     -1.7416
    10         O          5.2804     -2.5954      0.2508
    11         C          5.8700     -0.2751      0.0495
    12        Cl          6.5614     -0.4599      1.6740
    13         H          5.0006      0.4042      0.1387
    14         H          6.6427      0.2059     -0.5732
    15         H          2.8307     -0.4036      1.2367
    16         O          3.0909     -0.7353      0.3720
    17         H          3.3079     -1.6633      0.5205

 General Reference for PM7:
 "Optimization of Parameters for Semiempirical Methods VI: More Modifications to the 
 NDDO Approximations and Re-optimization of Parameters", J. J. P. Stewart, J. Mol. Mod., 1:32, 19 (2013)
 https://link.springer.com/article/10.1007/s00894-012-1667-x

           Empirical Formula: C3 H7 N O5 Cl  =    17 atoms



      MOLECULAR POINT GROUP   :   C1  


 SINGLET STATE CALCULATION


      RHF CALCULATION, NO. OF DOUBLY OCCUPIED LEVELS = 31


          Geometry optimization using EF
 ITERATION   1 PLS= 0.100E+01 0.000E+00 ENERGY     7454.515772 DELTAE 7354.5157720
 ITERATION   2 PLS= 0.119E+01 0.000E+00 ENERGY      -31.067734 DELTAE-7485.5835062
 ITERATION   3 PLS= 0.109E+00 0.000E+00 ENERGY     -135.334290 DELTAE -104.2665557
 ITERATION   4 PLS= 0.684E-01 0.000E+00 ENERGY     -333.987903 DELTAE -198.6536131
 ITERATION   5 PLS= 0.267E-01 0.000E+00 ENERGY     -216.521957 DELTAE  117.4659461
 ITERATION   6 PLS= 0.111E-01 0.000E+00 ENERGY     -218.658097 DELTAE   -2.1361402
 ITERATION   7 PLS= 0.218E-01 0.000E+00 ENERGY     -231.098566 DELTAE  -12.4404686
 ITERATION   8 PLS= 0.194E-01 0.000E+00 ENERGY     -221.647470 DELTAE    9.4510958
 ITERATION   9 PLS= 0.841E-02 0.000E+00 ENERGY     -221.826198 DELTAE   -0.1787283
 ITERATION  10 PLS= 0.348E-02 0.000E+00 ENERGY     -221.916478 DELTAE   -0.0902796
 ITERATION  11 PLS= 0.849E-03 0.000E+00 ENERGY     -221.874243 DELTAE    0.0422351
 ITERATION  12 PLS= 0.280E-03 0.000E+00 ENERGY     -221.874442 DELTAE   -0.0001992
 ITERATION  13 PLS= 0.126E-03 0.000E+00 ENERGY     -221.874552 DELTAE   -0.0001097
 ITERATION   1 PLS= 0.336E-04 0.000E+00 ENERGY     -298.450885 DELTAE -398.4508848
 ITERATION   2 PLS= 0.373E-01 0.000E+00 ENERGY     -301.562508 DELTAE   -3.1116232
 ITERATION   3 PLS= 0.149E-01 0.000E+00 ENERGY     -302.197894 DELTAE   -0.6353862
 ITERATION   4 PLS= 0.779E-02 0.000E+00 ENERGY     -302.767913 DELTAE   -0.5700192
 ITERATION   5 PLS= 0.110E-02 0.000E+00 ENERGY     -302.476361 DELTAE    0.2915527
 ITERATION   6 PLS= 0.653E-03 0.000E+00 ENERGY     -302.477765 DELTAE   -0.0014041
 ITERATION   7 PLS= 0.403E-03 0.000E+00 ENERGY     -302.479484 DELTAE   -0.0017188
 ITERATION   8 PLS= 0.771E-04 0.000E+00 ENERGY     -302.478474 DELTAE    0.0010094

          DIAGONAL MATRIX USED AS START HESSIAN

 CYCLE:     1 TIME:   0.066 TIME LEFT:  2.00W  GRAD.:    25.970 HEAT: -302.4785
 ITERATION   1 PLS= 0.327E-04 0.000E+00 ENERGY     -268.983696 DELTAE -368.9836957
 ITERATION   2 PLS= 0.769E-01 0.000E+00 ENERGY     -285.164025 DELTAE  -16.1803296
 ITERATION   3 PLS= 0.273E-01 0.000E+00 ENERGY     -286.396576 DELTAE   -1.2325506
 ITERATION   4 PLS= 0.129E-01 0.000E+00 ENERGY     -286.885794 DELTAE   -0.4892182
 ITERATION   5 PLS= 0.259E-02 0.000E+00 ENERGY     -286.681399 DELTAE    0.2043956
 ITERATION   6 PLS= 0.160E-02 0.000E+00 ENERGY     -286.685169 DELTAE   -0.0037709
 ITERATION   1 PLS= 0.100E-02 0.000E+00 ENERGY     -294.662616 DELTAE -394.6626156
 ITERATION   2 PLS= 0.375E-01 0.000E+00 ENERGY     -298.833933 DELTAE   -4.1713175
 ITERATION   3 PLS= 0.148E-01 0.000E+00 ENERGY     -299.163395 DELTAE   -0.3294616
 ITERATION   4 PLS= 0.707E-02 0.000E+00 ENERGY     -299.303293 DELTAE   -0.1398982
 ITERATION   5 PLS= 0.108E-02 0.000E+00 ENERGY     -299.241343 DELTAE    0.0619498
 ITERATION   1 PLS= 0.661E-03 0.000E+00 ENERGY     -300.951992 DELTAE -400.9519923
 ITERATION   2 PLS= 0.195E-01 0.000E+00 ENERGY     -301.977797 DELTAE   -1.0258043
 ITERATION   3 PLS= 0.756E-02 0.000E+00 ENERGY     -302.059488 DELTAE   -0.0816911
 ITERATION   4 PLS= 0.360E-02 0.000E+00 ENERGY     -302.095991 DELTAE   -0.0365031
 ITERATION   5 PLS= 0.517E-03 0.000E+00 ENERGY     -302.079862 DELTAE    0.0161287
 ITERATION   1 PLS= 0.320E-03 0.000E+00 ENERGY     -302.268219 DELTAE -402.2682193
 ITERATION   2 PLS= 0.959E-02 0.000E+00 ENERGY     -302.517804 DELTAE   -0.2495848
 ITERATION   3 PLS= 0.361E-02 0.000E+00 ENERGY     -302.537834 DELTAE   -0.0200301
 ITERATION   4 PLS= 0.171E-02 0.000E+00 ENERGY     -302.546727 DELTAE   -0.0088931
 CYCLE:     2 TIME:   0.105 TIME LEFT:  2.00W  GRAD.:    21.224 HEAT: -302.5428
 ITERATION   1 PLS= 0.242E-03 0.000E+00 ENERGY     -302.539028 DELTAE -402.5390280
 ITERATION   2 PLS= 0.504E-02 0.000E+00 ENERGY     -302.627296 DELTAE   -0.0882678
 ITERATION   3 PLS= 0.217E-02 0.000E+00 ENERGY     -302.640639 DELTAE   -0.0133431
 ITERATION   4 PLS= 0.108E-02 0.000E+00 ENERGY     -302.648853 DELTAE   -0.0082146
 CYCLE:     3 TIME:   0.027 TIME LEFT:  2.00W  GRAD.:    10.911 HEAT: -302.6447
 ITERATION   1 PLS= 0.892E-04 0.000E+00 ENERGY     -302.539892 DELTAE -402.5398920
 ITERATION   2 PLS= 0.437E-02 0.000E+00 ENERGY     -302.680382 DELTAE   -0.1404903
 ITERATION   3 PLS= 0.177E-02 0.000E+00 ENERGY     -302.699717 DELTAE   -0.0193347
 ITERATION   4 PLS= 0.905E-03 0.000E+00 ENERGY     -302.709177 DELTAE   -0.0094601
 CYCLE:     4 TIME:   0.023 TIME LEFT:  2.00W  GRAD.:    27.864 HEAT: -302.7049
 ITERATION   1 PLS= 0.105E-03 0.000E+00 ENERGY     -302.560454 DELTAE -402.5604539
 ITERATION   2 PLS= 0.567E-02 0.000E+00 ENERGY     -302.725165 DELTAE   -0.1647108
 ITERATION   3 PLS= 0.219E-02 0.000E+00 ENERGY     -302.745074 DELTAE   -0.0199098
 ITERATION   4 PLS= 0.118E-02 0.000E+00 ENERGY     -302.754270 DELTAE   -0.0091951
 CYCLE:     5 TIME:   0.023 TIME LEFT:  2.00W  GRAD.:    25.614 HEAT: -302.7502
 ITERATION   1 PLS= 0.118E-03 0.000E+00 ENERGY     -302.578490 DELTAE -402.5784903
 ITERATION   2 PLS= 0.720E-02 0.000E+00 ENERGY     -302.815417 DELTAE   -0.2369262
 ITERATION   3 PLS= 0.226E-02 0.000E+00 ENERGY     -302.842683 DELTAE   -0.0272665
 ITERATION   4 PLS= 0.881E-03 0.000E+00 ENERGY     -302.853301 DELTAE   -0.0106179
 CYCLE:     6 TIME:   0.027 TIME LEFT:  2.00W  GRAD.:    29.968 HEAT: -302.8488
 ITERATION   1 PLS= 0.147E-03 0.000E+00 ENERGY     -302.834065 DELTAE -402.8340649
 ITERATION   2 PLS= 0.405E-02 0.000E+00 ENERGY     -302.953276 DELTAE   -0.1192108
 ITERATION   3 PLS= 0.133E-02 0.000E+00 ENERGY     -302.971107 DELTAE   -0.0178318
 ITERATION   4 PLS= 0.810E-03 0.000E+00 ENERGY     -302.980848 DELTAE   -0.0097409
 CYCLE:     7 TIME:   0.023 TIME LEFT:  2.00W  GRAD.:    12.555 HEAT: -302.9762
 ITERATION   1 PLS= 0.143E-03 0.000E+00 ENERGY     -302.847370 DELTAE -402.8473699
 ITERATION   2 PLS= 0.283E-02 0.000E+00 ENERGY     -303.037988 DELTAE   -0.1906184
 ITERATION   3 PLS= 0.170E-02 0.000E+00 ENERGY     -303.066427 DELTAE   -0.0284385
 ITERATION   4 PLS= 0.935E-03 0.000E+00 ENERGY     -303.081208 DELTAE   -0.0147810
 CYCLE:     8 TIME:   0.027 TIME LEFT:  2.00W  GRAD.:    21.028 HEAT: -303.0740
 ITERATION   1 PLS= 0.121E-03 0.000E+00 ENERGY     -303.079353 DELTAE -403.0793526
 ITERATION   2 PLS= 0.216E-02 0.000E+00 ENERGY     -303.197233 DELTAE   -0.1178800
 ITERATION   3 PLS= 0.110E-02 0.000E+00 ENERGY     -303.220557 DELTAE   -0.0233248
 ITERATION   4 PLS= 0.602E-03 0.000E+00 ENERGY     -303.234395 DELTAE   -0.0138380
 CYCLE:     9 TIME:   0.023 TIME LEFT:  2.00W  GRAD.:    15.232 HEAT: -303.2280
 ITERATION   1 PLS= 0.897E-04 0.000E+00 ENERGY     -302.212226 DELTAE -402.2122264
 ITERATION   2 PLS= 0.743E-02 0.000E+00 ENERGY     -302.830135 DELTAE   -0.6179085
 ITERATION   3 PLS= 0.397E-02 0.000E+00 ENERGY     -302.937459 DELTAE   -0.1073243
 ITERATION   4 PLS= 0.211E-02 0.000E+00 ENERGY     -303.005081 DELTAE   -0.0676217
 ITERATION   5 PLS= 0.199E-03 0.000E+00 ENERGY     -302.970941 DELTAE    0.0341394
 ITERATION   1 PLS= 0.110E-03 0.000E+00 ENERGY     -303.031487 DELTAE -403.0314868
 ITERATION   2 PLS= 0.307E-02 0.000E+00 ENERGY     -303.153179 DELTAE   -0.1216925
 ITERATION   3 PLS= 0.161E-02 0.000E+00 ENERGY     -303.177940 DELTAE   -0.0247612
 ITERATION   4 PLS= 0.849E-03 0.000E+00 ENERGY     -303.194675 DELTAE   -0.0167348
 ITERATION   1 PLS= 0.796E-04 0.000E+00 ENERGY     -303.218626 DELTAE -403.2186260
 ITERATION   2 PLS= 0.219E-02 0.000E+00 ENERGY     -303.261614 DELTAE   -0.0429877
 ITERATION   3 PLS= 0.115E-02 0.000E+00 ENERGY     -303.269247 DELTAE   -0.0076338
 ITERATION   4 PLS= 0.609E-03 0.000E+00 ENERGY     -303.274239 DELTAE   -0.0049920
 CYCLE:    10 TIME:   0.070 TIME LEFT:  2.00W  GRAD.:    13.204 HEAT: -303.2717
 ITERATION   1 PLS= 0.565E-04 0.000E+00 ENERGY     -303.239133 DELTAE -403.2391332
 ITERATION   2 PLS= 0.168E-02 0.000E+00 ENERGY     -303.280111 DELTAE   -0.0409773
 ITERATION   3 PLS= 0.714E-03 0.000E+00 ENERGY     -303.286812 DELTAE   -0.0067015
 ITERATION   4 PLS= 0.329E-03 0.000E+00 ENERGY     -303.290473 DELTAE   -0.0036613
 CYCLE:    11 TIME:   0.027 TIME LEFT:  2.00W  GRAD.:    11.859 HEAT: -303.2888
 ITERATION   1 PLS= 0.283E-04 0.000E+00 ENERGY     -303.436389 DELTAE -403.4363889
 ITERATION   2 PLS= 0.131E-02 0.000E+00 ENERGY     -303.482830 DELTAE   -0.0464410
 ITERATION   3 PLS= 0.792E-03 0.000E+00 ENERGY     -303.490935 DELTAE   -0.0081047
 ITERATION   4 PLS= 0.441E-03 0.000E+00 ENERGY     -303.495853 DELTAE   -0.0049188
 CYCLE:    12 TIME:   0.023 TIME LEFT:  2.00W  GRAD.:     8.064 HEAT: -303.4934
 ITERATION   1 PLS= 0.381E-04 0.000E+00 ENERGY     -303.396329 DELTAE -403.3963292
 ITERATION   2 PLS= 0.771E-03 0.000E+00 ENERGY     -303.450429 DELTAE   -0.0540995
 ITERATION   3 PLS= 0.368E-03 0.000E+00 ENERGY     -303.463187 DELTAE   -0.0127580
 ITERATION   4 PLS= 0.210E-03 0.000E+00 ENERGY     -303.472809 DELTAE   -0.0096225
 ITERATION   1 PLS= 0.254E-04 0.000E+00 ENERGY     -303.416133 DELTAE -403.4161333
 ITERATION   2 PLS= 0.367E-03 0.000E+00 ENERGY     -303.429200 DELTAE   -0.0130665
 ITERATION   3 PLS= 0.186E-03 0.000E+00 ENERGY     -303.432355 DELTAE   -0.0031548
 ITERATION   4 PLS= 0.968E-04 0.000E+00 ENERGY     -303.434751 DELTAE   -0.0023964
 ITERATION   1 PLS= 0.120E-04 0.000E+00 ENERGY     -303.469421 DELTAE -403.4694213
 ITERATION   2 PLS= 0.612E-03 0.000E+00 ENERGY     -303.473120 DELTAE   -0.0036991
 ITERATION   3 PLS= 0.239E-03 0.000E+00 ENERGY     -303.473996 DELTAE   -0.0008752
 ITERATION   4 PLS= 0.102E-03 0.000E+00 ENERGY     -303.474535 DELTAE   -0.0005396
 ITERATION   1 PLS= 0.187E-04 0.000E+00 ENERGY     -303.515312 DELTAE -403.5153118
 ITERATION   2 PLS= 0.115E-03 0.000E+00 ENERGY     -303.516394 DELTAE   -0.0010820
 ITERATION   3 PLS= 0.632E-04 0.000E+00 ENERGY     -303.516638 DELTAE   -0.0002437
 ITERATION   4 PLS= 0.352E-04 0.000E+00 ENERGY     -303.516817 DELTAE   -0.0001792
 CYCLE:    13 TIME:   0.098 TIME LEFT:  2.00W  GRAD.:     5.997 HEAT: -303.5167
 ITERATION   1 PLS= 0.649E-05 0.000E+00 ENERGY     -303.480613 DELTAE -403.4806131
 ITERATION   2 PLS= 0.397E-03 0.000E+00 ENERGY     -303.485398 DELTAE   -0.0047849
 ITERATION   3 PLS= 0.167E-03 0.000E+00 ENERGY     -303.486374 DELTAE   -0.0009756
 ITERATION   4 PLS= 0.890E-04 0.000E+00 ENERGY     -303.486993 DELTAE   -0.0006198
 ITERATION   1 PLS= 0.108E-04 0.000E+00 ENERGY     -303.474501 DELTAE -403.4745012
 ITERATION   2 PLS= 0.120E-03 0.000E+00 ENERGY     -303.475576 DELTAE   -0.0010745
 ITERATION   3 PLS= 0.574E-04 0.000E+00 ENERGY     -303.475812 DELTAE   -0.0002358
 ITERATION   4 PLS= 0.290E-04 0.000E+00 ENERGY     -303.475966 DELTAE   -0.0001540
 ITERATION   1 PLS= 0.399E-05 0.000E+00 ENERGY     -303.468286 DELTAE -403.4682864
 ITERATION   2 PLS= 0.983E-04 0.000E+00 ENERGY     -303.468598 DELTAE   -0.0003115
 ITERATION   3 PLS= 0.411E-04 0.000E+00 ENERGY     -303.468661 DELTAE   -0.0000631
 ITERATION   4 PLS= 0.218E-04 0.000E+00 ENERGY     -303.468701 DELTAE   -0.0000405
 ITERATION   1 PLS= 0.302E-05 0.000E+00 ENERGY     -303.465752 DELTAE -403.4657515
 ITERATION   2 PLS= 0.748E-04 0.000E+00 ENERGY     -303.465845 DELTAE   -0.0000936
 ITERATION   3 PLS= 0.259E-04 0.000E+00 ENERGY     -303.465862 DELTAE   -0.0000169
 ITERATION   4 PLS= 0.139E-04 0.000E+00 ENERGY     -303.465872 DELTAE   -0.0000101
 ITERATION   1 PLS= 0.187E-05 0.000E+00 ENERGY     -303.519188 DELTAE -403.5191879
 ITERATION   2 PLS= 0.713E-04 0.000E+00 ENERGY     -303.519223 DELTAE   -0.0000350
 ITERATION   3 PLS= 0.372E-04 0.000E+00 ENERGY     -303.519230 DELTAE   -0.0000067
 ITERATION   4 PLS= 0.199E-04 0.000E+00 ENERGY     -303.519234 DELTAE   -0.0000045
 CYCLE:    14 TIME:   0.109 TIME LEFT:  2.00W  GRAD.:     5.807 HEAT: -303.5192
 ITERATION   1 PLS= 0.210E-05 0.000E+00 ENERGY     -303.466728 DELTAE -403.4667285
 ITERATION   2 PLS= 0.939E-04 0.000E+00 ENERGY     -303.466842 DELTAE   -0.0001139
 ITERATION   3 PLS= 0.465E-04 0.000E+00 ENERGY     -303.466862 DELTAE   -0.0000200
 ITERATION   4 PLS= 0.251E-04 0.000E+00 ENERGY     -303.466875 DELTAE   -0.0000122
 ITERATION   1 PLS= 0.280E-05 0.000E+00 ENERGY     -303.465971 DELTAE -403.4659707
 ITERATION   2 PLS= 0.420E-04 0.000E+00 ENERGY     -303.465999 DELTAE   -0.0000288
 ITERATION   3 PLS= 0.144E-04 0.000E+00 ENERGY     -303.466004 DELTAE   -0.0000048
 ITERATION   4 PLS= 0.773E-05 0.000E+00 ENERGY     -303.466007 DELTAE   -0.0000027

     TRUST RADIUS NOW LESS THAN  0.00010 OPTIMIZATION TERMINATING
      THE GEOMETRY MAY NOT BE COMPLETELY OPTIMIZED
      (TO CONTINUE, ADD 'LET DDMIN=0.0' TO THE KEYWORD LINE)
 ITERATION   1 PLS= 0.859E-06 0.000E+00 ENERGY     -303.519184 DELTAE -403.5191843
 ITERATION   2 PLS= 0.689E-04 0.000E+00 ENERGY     -303.519222 DELTAE   -0.0000381
 ITERATION   3 PLS= 0.364E-04 0.000E+00 ENERGY     -303.519230 DELTAE   -0.0000071
 ITERATION   4 PLS= 0.196E-04 0.000E+00 ENERGY     -303.519234 DELTAE   -0.0000047

 -------------------------------------------------------------------------------
 PM7 CHARGE=-1 SINGLET AUX DUMP=30M ITRY=15000 eps=78.4 T=14D PL THREADS=40

 Mopac file generated by Gabedit


     GEOMETRY OPTIMISED USING EIGENVECTOR FOLLOWING (EF).     
     SCF FIELD WAS ACHIEVED                                   


                              PM7 CALCULATION
                                                       MOPAC v22.1.0 Linux
                                                       Sun Mar 24 12:32:09 2024




          FINAL HEAT OF FORMATION =       -303.51923 KCAL/MOL =   -1269.92447 KJ/MOL
          VAN DER WAALS AREA      =        201.96 SQUARE ANGSTROMS



          DIELECTRIC ENERGY       =         -3.64897 EV
          COSMO AREA              =        201.96 SQUARE ANGSTROMS
          COSMO VOLUME            =        189.25 CUBIC ANGSTROMS

          GRADIENT NORM           =          5.80660          =       1.40831 PER ATOM
          IONIZATION POTENTIAL    =         10.290146 EV
          HOMO LUMO ENERGIES (EV) =        -10.290 -0.312
          NO. OF FILLED LEVELS    =         31
          MOLECULAR WEIGHT        =        172.5450         POINT GROUP:  C1  

          MOLECULAR DIMENSIONS (Angstroms)

            Atom       Atom       Distance
            H    14    O     6     8.70920
            O     7   Cl    12     4.25398
            O    10    H    13     2.89304


          SCF CALCULATIONS        =         30

          WALL-CLOCK TIME         =      0.762 SECONDS
          COMPUTATION TIME        =     12.062 SECONDS



       FINAL  POINT  AND  DERIVATIVES

   PARAMETER     ATOM    TYPE            VALUE        GRADIENT
      1          1  C    CARTESIAN X     0.355287      0.669274  KCAL/ANGSTROM
      2          1  C    CARTESIAN Y    -0.931635      0.281082  KCAL/ANGSTROM
      3          1  C    CARTESIAN Z     0.642219      0.711094  KCAL/ANGSTROM
      4          2  H    CARTESIAN X     0.680691     -0.067508  KCAL/ANGSTROM
      5          2  H    CARTESIAN Y    -1.461649     -0.283812  KCAL/ANGSTROM
      6          2  H    CARTESIAN Z    -0.279788     -0.335332  KCAL/ANGSTROM
      7          3  H    CARTESIAN X     0.890714     -0.008790  KCAL/ANGSTROM
      8          3  H    CARTESIAN Y     0.045563     -0.364254  KCAL/ANGSTROM
      9          3  H    CARTESIAN Z     0.668486     -0.168756  KCAL/ANGSTROM
     10          4  H    CARTESIAN X     0.665804     -0.618933  KCAL/ANGSTROM
     11          4  H    CARTESIAN Y    -1.527840     -0.309536  KCAL/ANGSTROM
     12          4  H    CARTESIAN Z     1.524272      0.165095  KCAL/ANGSTROM
     13          5  N    CARTESIAN X    -1.080801      0.481798  KCAL/ANGSTROM
     14          5  N    CARTESIAN Y    -0.691460     -0.248331  KCAL/ANGSTROM
     15          5  N    CARTESIAN Z     0.639773      0.882310  KCAL/ANGSTROM
     16          6  O    CARTESIAN X    -1.701952      1.723618  KCAL/ANGSTROM
     17          6  O    CARTESIAN Y    -0.780188      0.236058  KCAL/ANGSTROM
     18          6  O    CARTESIAN Z     1.688288     -0.793732  KCAL/ANGSTROM
     19          7  O    CARTESIAN X    -1.628804      1.533948  KCAL/ANGSTROM
     20          7  O    CARTESIAN Y    -0.387324      0.226360  KCAL/ANGSTROM
     21          7  O    CARTESIAN Z    -0.410559      0.189150  KCAL/ANGSTROM
     22          8  C    CARTESIAN X     5.452506     -1.198626  KCAL/ANGSTROM
     23          8  C    CARTESIAN Y    -1.623074     -1.300208  KCAL/ANGSTROM
     24          8  C    CARTESIAN Z    -0.520505      0.227402  KCAL/ANGSTROM
     25          9  O    CARTESIAN X     5.307012     -1.771351  KCAL/ANGSTROM
     26          9  O    CARTESIAN Y    -1.679345      0.286004  KCAL/ANGSTROM
     27          9  O    CARTESIAN Z    -1.755957      0.711974  KCAL/ANGSTROM
     28         10  O    CARTESIAN X     5.293517      0.206215  KCAL/ANGSTROM
     29         10  O    CARTESIAN Y    -2.585264      0.928896  KCAL/ANGSTROM
     30         10  O    CARTESIAN Z     0.248121      0.067449  KCAL/ANGSTROM
     31         11  C    CARTESIAN X     5.874346     -0.200935  KCAL/ANGSTROM
     32         11  C    CARTESIAN Y    -0.269237      0.408607  KCAL/ANGSTROM
     33         11  C    CARTESIAN Z     0.041376      1.187105  KCAL/ANGSTROM
     34         12 Cl    CARTESIAN X     6.556155      0.325056  KCAL/ANGSTROM
     35         12 Cl    CARTESIAN Y    -0.469098      0.090168  KCAL/ANGSTROM
     36         12 Cl    CARTESIAN Z     1.670359     -0.070265  KCAL/ANGSTROM
     37         13  H    CARTESIAN X     5.007207      0.128769  KCAL/ANGSTROM
     38         13  H    CARTESIAN Y     0.410958      0.126116  KCAL/ANGSTROM
     39         13  H    CARTESIAN Z     0.129511      0.411276  KCAL/ANGSTROM
     40         14  H    CARTESIAN X     6.648116     -0.088039  KCAL/ANGSTROM
     41         14  H    CARTESIAN Y     0.210480     -0.233802  KCAL/ANGSTROM
     42         14  H    CARTESIAN Z    -0.580003     -0.223114  KCAL/ANGSTROM
     43         15  H    CARTESIAN X     2.888206     -2.532763  KCAL/ANGSTROM
     44         15  H    CARTESIAN Y    -0.388516     -0.581873  KCAL/ANGSTROM
     45         15  H    CARTESIAN Z     1.284729     -0.975196  KCAL/ANGSTROM
     46         16  O    CARTESIAN X     3.027327      2.054130  KCAL/ANGSTROM
     47         16  O    CARTESIAN Y    -0.750813      0.692319  KCAL/ANGSTROM
     48         16  O    CARTESIAN Z     0.403453     -1.032691  KCAL/ANGSTROM
     49         17  H    CARTESIAN X     3.315746     -0.635878  KCAL/ANGSTROM
     50         17  H    CARTESIAN Y    -1.660206      0.046200  KCAL/ANGSTROM
     51         17  H    CARTESIAN Z     0.562792     -0.953752  KCAL/ANGSTROM




   ATOM   CHEMICAL          X               Y               Z
  NUMBER   SYMBOL      (ANGSTROMS)     (ANGSTROMS)     (ANGSTROMS)

     1       C          0.35528724  *  -0.93163463  *   0.64221945  *
     2       H          0.68069119  *  -1.46164908  *  -0.27978812  *
     3       H          0.89071384  *   0.04556334  *   0.66848592  *
     4       H          0.66580448  *  -1.52784025  *   1.52427162  *
     5       N         -1.08080098  *  -0.69146031  *   0.63977327  *
     6       O         -1.70195181  *  -0.78018819  *   1.68828813  *
     7       O         -1.62880420  *  -0.38732398  *  -0.41055921  *
     8       C          5.45250582  *  -1.62307421  *  -0.52050484  *
     9       O          5.30701209  *  -1.67934539  *  -1.75595672  *
    10       O          5.29351717  *  -2.58526424  *   0.24812061  *
    11       C          5.87434564  *  -0.26923662  *   0.04137551  *
    12      Cl          6.55615501  *  -0.46909767  *   1.67035880  *
    13       H          5.00720735  *   0.41095816  *   0.12951131  *
    14       H          6.64811641  *   0.21048005  *  -0.58000331  *
    15       H          2.88820566  *  -0.38851607  *   1.28472928  *
    16       O          3.02732659  *  -0.75081288  *   0.40345348  *
    17       H          3.31574561  *  -1.66020612  *   0.56279182  *

                             CARTESIAN COORDINATES

   1    C        0.355287243    -0.931634627     0.642219454
   2    H        0.680691194    -1.461649082    -0.279788116
   3    H        0.890713844     0.045563342     0.668485922
   4    H        0.665804483    -1.527840253     1.524271624
   5    N       -1.080800976    -0.691460306     0.639773266
   6    O       -1.701951808    -0.780188186     1.688288135
   7    O       -1.628804198    -0.387323984    -0.410559208
   8    C        5.452505822    -1.623074205    -0.520504841
   9    O        5.307012093    -1.679345386    -1.755956720
  10    O        5.293517174    -2.585264236     0.248120606
  11    C        5.874345640    -0.269236618     0.041375514
  12   Cl        6.556155008    -0.469097667     1.670358801
  13    H        5.007207346     0.410958156     0.129511310
  14    H        6.648116414     0.210480049    -0.580003311
  15    H        2.888205660    -0.388516072     1.284729283
  16    O        3.027326592    -0.750812882     0.403453483
  17    H        3.315745607    -1.660206120     0.562791817


           Empirical Formula: C3 H7 N O5 Cl  =    17 atoms



      MOLECULAR POINT GROUP   :   C1  


                  EIGENVALUES  
 -37.34872 -30.68533 -30.14829 -29.13899 -28.28521 -27.68988 -27.00948 -23.49417
 -22.95115 -18.83278 -18.41134 -18.25524 -17.93685 -17.48394 -15.91007 -15.62804
 -15.04586 -14.42326 -14.14109 -13.87215 -13.68072 -13.46963 -12.17235 -11.95426
 -11.84504 -11.61625 -11.51799 -11.11585 -11.06097 -10.90840 -10.29015  -0.31183
   0.68916   0.76958   1.95465   3.31090   4.06749   4.14330   4.42021   4.87580
   5.15586   5.17271   5.23819   5.72866   5.80349   5.99037   6.74519  70.18693
  70.22149  70.72721  70.91817  71.06429


              NET ATOMIC CHARGES AND DIPOLE CONTRIBUTIONS

  ATOM NO.   TYPE          CHARGE      No. of ELECS.   s-Pop       p-Pop       d-Pop       
    1          C          -0.386722        4.3867     1.08890     3.29782
    2          H           0.222910        0.7771     0.77709
    3          H           0.226180        0.7738     0.77382
    4          H           0.212005        0.7880     0.78800
    5          N           0.698086        4.3019     1.44978     2.85213
    6          O          -0.484793        6.4848     1.93974     4.54505
    7          O          -0.487334        6.4873     1.93995     4.54738
    8          C           0.775010        3.2250     1.06606     2.15893
    9          O          -0.843868        6.8439     1.88332     4.96055
   10          O          -0.821667        6.8217     1.88107     4.94059
   11          C          -0.287761        4.2878     1.13089     3.15687
   12         Cl          -0.198559        7.1986     1.98216     5.20908     0.00732
   13          H           0.196760        0.8032     0.80324
   14          H           0.183812        0.8162     0.81619
   15          H           0.369317        0.6307     0.63068
   16          O          -0.750581        6.7506     1.81561     4.93497
   17          H           0.377205        0.6228     0.62280
 DIPOLE           X         Y         Z       TOTAL
 POINT-CHG.    -4.688     5.882     6.088     9.677
 HYBRID        -0.561    -0.111     0.187     0.602
 SUM           -5.248     5.771     6.275    10.012


          ATOMIC ORBITAL ELECTRON POPULATIONS

     Atom    s        px        py        pz      x^2-y^2     xz        z^2       yz        xy
    1  C   1.08890   0.84187   1.21920   1.23675
    2  H   0.77709
    3  H   0.77382
    4  H   0.78800
    5  N   1.44978   1.02132   0.89153   0.93929
    6  O   1.93974   1.71761   1.59539   1.23206
    7  O   1.93995   1.76713   1.54938   1.23088
    8  C   1.06606   0.63153   0.78121   0.74619
    9  O   1.88332   1.71707   1.90634   1.33713
   10  O   1.88107   1.70227   1.55394   1.68439
   11  C   1.13089   1.14356   1.13654   0.87676
   12 Cl   1.98216   1.87791   1.98715   1.34401   0.00055   0.00197   0.00234   0.00165   0.00081
   13  H   0.80324
   14  H   0.81619
   15  H   0.63068
   16  O   1.81561   1.94312   1.49221   1.49965
   17  H   0.62280

 **********************
 *                    *
 * JOB ENDED NORMALLY *
 *                    *
 **********************



 TOTAL JOB TIME:             0.77 SECONDS

 == MOPAC DONE ==
