
                                 *****************
                                 * O   R   C   A *
                                 *****************

                                            #,                                       
                                            ###                                      
                                            ####                                     
                                            #####                                    
                                            ######                                   
                                           ########,                                 
                                     ,,################,,,,,                         
                               ,,#################################,,                 
                          ,,##########################################,,             
                       ,#########################################, ''#####,          
                    ,#############################################,,   '####,        
                  ,##################################################,,,,####,       
                ,###########''''           ''''###############################       
              ,#####''   ,,,,##########,,,,          '''####'''          '####       
            ,##' ,,,,###########################,,,                        '##       
           ' ,,###''''                  '''############,,,                           
         ,,##''                                '''############,,,,        ,,,,,,###''
      ,#''                                            '''#######################'''  
     '                                                          ''''####''''         
             ,#######,   #######,   ,#######,      ##                                
            ,#'     '#,  ##    ##  ,#'     '#,    #''#        ######   ,####,        
            ##       ##  ##   ,#'  ##            #'  '#       #        #'  '#        
            ##       ##  #######   ##           ,######,      #####,   #    #        
            '#,     ,#'  ##    ##  '#,     ,#' ,#      #,         ##   #,  ,#        
             '#######'   ##     ##  '#######'  #'      '#     #####' # '####'        



                  #######################################################
                  #                        -***-                        #
                  #          Department of theory and spectroscopy      #
                  #    Directorship and core code : Frank Neese         #
                  #        Max Planck Institute fuer Kohlenforschung    #
                  #                Kaiser Wilhelm Platz 1               #
                  #                 D-45470 Muelheim/Ruhr               #
                  #                      Germany                        #
                  #                                                     #
                  #                  All rights reserved                #
                  #                        -***-                        #
                  #######################################################


                         Program Version 5.0.4 -  RELEASE  -


 With contributions from (in alphabetic order):
   Daniel Aravena         : Magnetic Suceptibility
   Michael Atanasov       : Ab Initio Ligand Field Theory (pilot matlab implementation)
   Alexander A. Auer      : GIAO ZORA, VPT2 properties, NMR spectrum
   Ute Becker             : Parallelization
   Giovanni Bistoni       : ED, misc. LED, open-shell LED, HFLD
   Martin Brehm           : Molecular dynamics
   Dmytro Bykov           : SCF Hessian
   Vijay G. Chilkuri      : MRCI spin determinant printing, contributions to CSF-ICE
   Dipayan Datta          : RHF DLPNO-CCSD density
   Achintya Kumar Dutta   : EOM-CC, STEOM-CC
   Dmitry Ganyushin       : Spin-Orbit,Spin-Spin,Magnetic field MRCI
   Miquel Garcia          : C-PCM and meta-GGA Hessian, CC/C-PCM, Gaussian charge scheme
   Yang Guo               : DLPNO-NEVPT2, F12-NEVPT2, CIM, IAO-localization
   Andreas Hansen         : Spin unrestricted coupled pair/coupled cluster methods
   Benjamin Helmich-Paris : MC-RPA, TRAH-SCF, COSX integrals
   Lee Huntington         : MR-EOM, pCC
   Robert Izsak           : Overlap fitted RIJCOSX, COSX-SCS-MP3, EOM
   Marcus Kettner         : VPT2
   Christian Kollmar      : KDIIS, OOCD, Brueckner-CCSD(T), CCSD density, CASPT2, CASPT2-K
   Simone Kossmann        : Meta GGA functionals, TD-DFT gradient, OOMP2, MP2 Hessian
   Martin Krupicka        : Initial AUTO-CI
   Lucas Lang             : DCDCAS
   Marvin Lechner         : AUTO-CI (C++ implementation), FIC-MRCC
   Dagmar Lenk            : GEPOL surface, SMD
   Dimitrios Liakos       : Extrapolation schemes; Compound Job, initial MDCI parallelization
   Dimitrios Manganas     : Further ROCIS development; embedding schemes
   Dimitrios Pantazis     : SARC Basis sets
   Anastasios Papadopoulos: AUTO-CI, single reference methods and gradients
   Taras Petrenko         : DFT Hessian,TD-DFT gradient, ASA, ECA, R-Raman, ABS, FL, XAS/XES, NRVS
   Peter Pinski           : DLPNO-MP2, DLPNO-MP2 Gradient
   Christoph Reimann      : Effective Core Potentials
   Marius Retegan         : Local ZFS, SOC
   Christoph Riplinger    : Optimizer, TS searches, QM/MM, DLPNO-CCSD(T), (RO)-DLPNO pert. Triples
   Tobias Risthaus        : Range-separated hybrids, TD-DFT gradient, RPA, STAB
   Michael Roemelt        : Original ROCIS implementation
   Masaaki Saitow         : Open-shell DLPNO-CCSD energy and density
   Barbara Sandhoefer     : DKH picture change effects
   Avijit Sen             : IP-ROCIS
   Kantharuban Sivalingam : CASSCF convergence, NEVPT2, FIC-MRCI
   Bernardo de Souza      : ESD, SOC TD-DFT
   Georgi Stoychev        : AutoAux, RI-MP2 NMR, DLPNO-MP2 response
   Willem Van den Heuvel  : Paramagnetic NMR
   Boris Wezisla          : Elementary symmetry handling
   Frank Wennmohs         : Technical directorship


 We gratefully acknowledge several colleagues who have allowed us to
 interface, adapt or use parts of their codes:
   Stefan Grimme, W. Hujo, H. Kruse, P. Pracht,  : VdW corrections, initial TS optimization,
                  C. Bannwarth, S. Ehlert          DFT functionals, gCP, sTDA/sTD-DF
   Ed Valeev, F. Pavosevic, A. Kumar             : LibInt (2-el integral package), F12 methods
   Garnet Chan, S. Sharma, J. Yang, R. Olivares  : DMRG
   Ulf Ekstrom                                   : XCFun DFT Library
   Mihaly Kallay                                 : mrcc  (arbitrary order and MRCC methods)
   Jiri Pittner, Ondrej Demel                    : Mk-CCSD
   Frank Weinhold                                : gennbo (NPA and NBO analysis)
   Christopher J. Cramer and Donald G. Truhlar   : smd solvation model
   Lars Goerigk                                  : TD-DFT with DH, B97 family of functionals
   V. Asgeirsson, H. Jonsson                     : NEB implementation
   FAccTs GmbH                                   : IRC, NEB, NEB-TS, DLPNO-Multilevel, CI-OPT
                                                   MM, QMMM, 2- and 3-layer-ONIOM, Crystal-QMMM,
                                                   LR-CPCM, SF, NACMEs, symmetry and pop. for TD-DFT,
                                                   nearIR, NL-DFT gradient (VV10), updates on ESD,
                                                   ML-optimized integration grids
   S Lehtola, MJT Oliveira, MAL Marques          : LibXC Library
   Liviu Ungur et al                             : ANISO software


 Your calculation uses the libint2 library for the computation of 2-el integrals
 For citations please refer to: http://libint.valeyev.net

 Your ORCA version has been built with support for libXC version: 5.1.0
 For citations please refer to: https://tddft.org/programs/libxc/

 This ORCA versions uses:
   CBLAS   interface :  Fast vector & matrix operations
   LAPACKE interface :  Fast linear algebra routines
   SCALAPACK package :  Parallel linear algebra routines
   Shared memory     :  Shared parallel matrices
   BLAS/LAPACK       :  OpenBLAS 0.3.15  USE64BITINT DYNAMIC_ARCH NO_AFFINITY Prescott SINGLE_THREADED
        Core in use  :  Prescott
   Copyright (c) 2011-2014, The OpenBLAS Project


Your calculation utilizes the atom-pairwise dispersion correction
with the Becke-Johnson damping scheme (D3BJ)
Cite in your paper:
S.Grimme, S.Ehrlich, L.Goerigk, J Comput Chem, (2011), 32, 1456–1465 
S.Grimme, J.Antony, S.Ehrlich and H.Krieg, J.Chem.Phys., 132, (2010), 154104 
   

================================================================================

----- Orbital basis set information -----
Your calculation utilizes the basis: def2-TZVP
   F. Weigend and R. Ahlrichs, Phys. Chem. Chem. Phys. 7, 3297 (2005).

----- AuxJ basis set information -----
Your calculation utilizes the auxiliary basis: def2/J
   F. Weigend, Phys. Chem. Chem. Phys. 8, 1057 (2006).

================================================================================
                                        WARNINGS
                       Please study these warnings very carefully!
================================================================================

WARNING: Gradients needed for Numerical Frequencies
  ===> : Setting RunTyp to EnGrad

WARNING: your system is open-shell and RHF/RKS was chosen
  ===> : WILL SWITCH to UHF/UKS


INFO   : the flag for use of the SHARK integral package has been found!

================================================================================
                                       INPUT FILE
================================================================================
NAME = /home/rudenko/mop_saddle_orca_4_serv/for_orca/m-o2nc6h4chno2ch3_piperidine/orca/freq_D/f_D.inp
|  1> !  NUMFREQ B3LYP def2-TZVP CPCM D3 
|  2> %pal nprocs 102 end
|  3> %cpcm epsilon 78.4 end 
|  4> *xyz 0 2 
|  5> C   -2.99398323708616 -0.56496462490373 -1.65869931189959
|  6> C   -1.66616565508063 -0.31494623984437 -1.32923667821096
|  7> C   -0.61954403918926 -0.6640675291847 -2.18957101146748
|  8> C   -0.93864010808234 -1.28246556963217 -3.39736673931413
|  9> C   -2.27012181492559 -1.51369540490355 -3.71353775161227
| 10> C   -3.31502254681577 -1.16530347819515 -2.86574446495802
| 11> H   -3.78271144296702 -0.28014422694596 -0.97521927455343
| 12> H   -1.43439413371248 0.16691113509228 -0.38900516557386
| 13> H   -0.17055854188952 -1.57671680726906 -4.09438195571495
| 14> H   -4.33811671860792 -1.35765838356019 -3.14887069802207
| 15> N   -2.58803287824516 -2.15174165667691 -4.99476866924057
| 16> O   -3.76723219469514 -2.33947848662069 -5.27229013026558
| 17> O   -1.66504462897951 -2.46924495582699 -5.73539086497872
| 18> C   0.78575693028226 -0.41983948861536 -1.73534864550896
| 19> C   1.30304453967018 -1.40356549280746 -0.70021344168555
| 20> H   0.51931748160155 -1.58410475384999 0.03411604380982
| 21> H   2.17300596299344 -1.00879045496759 -0.17754142519182
| 22> H   1.5750067345808 -2.36265083489237 -1.14991339743371
| 23> N   1.72107838518304 -0.15277962350052 -2.78374689334088
| 24> O   2.91573732671736 -0.44629175039092 -2.6142936055992
| 25> O   1.34775913719121 0.46863473697264 -3.79439818754282
| 26> H   0.78063697006843 0.76255535211731 -1.12903617747394 M = 2
| 27> C   -0.2493925815467 0.32344731952243 3.93768065694397
| 28> C   1.08065825496333 0.30922275214896 4.60486067751943
| 29> C   1.96880845924108 1.46595288418963 4.12199564276637
| 30> C   1.9676305927266 1.56448136785632 2.60555512125453
| 31> N   0.57891213952643 1.72272625183395 2.08406414062575
| 32> C   -0.31649499915571 0.58915901408494 2.4792329071951
| 33> H   -1.11983241335466 -0.09380992938791 4.42501002747632
| 34> H   0.97043941057677 0.3391253953796 5.68991889320729
| 35> H   1.59462690718776 -0.63910001943488 4.37335410169395
| 36> H   2.99492652076077 1.32853433648502 4.46605482906433
| 37> H   1.60731107050585 2.40907006487937 4.54156566449972
| 38> H   2.54299167438994 2.418152696956 2.25142897653286
| 39> H   2.37054975057338 0.66009528723202 2.1466486811996
| 40> H   0.1873699977601 2.59413009202411 2.44191299771293
| 41> H   -1.32421572505505 0.83059228586933 2.14446798132921
| 42> H   0.0302417063138 -0.27270127451885 1.89460286466763
| 43> H   0.62010103992844 1.80457795388136 0.98630025442373
| 44> H   0.11040095603164 2.41928166968642 -0.88714052266869
| 45> O   0.81319171061443 1.88741038971768 -0.49305544966527
| 46> *
| 47> 
| 48>                          ****END OF INPUT****
================================================================================

                     *******************************
                     * Energy+Gradient Calculation *
                     *******************************

---------------------------------
CARTESIAN COORDINATES (ANGSTROEM)
---------------------------------
  C     -2.993983   -0.564965   -1.658699
  C     -1.666166   -0.314946   -1.329237
  C     -0.619544   -0.664068   -2.189571
  C     -0.938640   -1.282466   -3.397367
  C     -2.270122   -1.513695   -3.713538
  C     -3.315023   -1.165303   -2.865744
  H     -3.782711   -0.280144   -0.975219
  H     -1.434394    0.166911   -0.389005
  H     -0.170559   -1.576717   -4.094382
  H     -4.338117   -1.357658   -3.148871
  N     -2.588033   -2.151742   -4.994769
  O     -3.767232   -2.339478   -5.272290
  O     -1.665045   -2.469245   -5.735391
  C      0.785757   -0.419839   -1.735349
  C      1.303045   -1.403565   -0.700213
  H      0.519317   -1.584105    0.034116
  H      2.173006   -1.008790   -0.177541
  H      1.575007   -2.362651   -1.149913
  N      1.721078   -0.152780   -2.783747
  O      2.915737   -0.446292   -2.614294
  O      1.347759    0.468635   -3.794398
  H      0.780637    0.762555   -1.129036
  C     -0.249393    0.323447    3.937681
  C      1.080658    0.309223    4.604861
  C      1.968808    1.465953    4.121996
  C      1.967631    1.564481    2.605555
  N      0.578912    1.722726    2.084064
  C     -0.316495    0.589159    2.479233
  H     -1.119832   -0.093810    4.425010
  H      0.970439    0.339125    5.689919
  H      1.594627   -0.639100    4.373354
  H      2.994927    1.328534    4.466055
  H      1.607311    2.409070    4.541566
  H      2.542992    2.418153    2.251429
  H      2.370550    0.660095    2.146649
  H      0.187370    2.594130    2.441913
  H     -1.324216    0.830592    2.144468
  H      0.030242   -0.272701    1.894603
  H      0.620101    1.804578    0.986300
  H      0.110401    2.419282   -0.887141
  O      0.813192    1.887410   -0.493055

----------------------------
CARTESIAN COORDINATES (A.U.)
----------------------------
  NO LB      ZA    FRAG     MASS         X           Y           Z
   0 C     6.0000    0    12.011   -5.657808   -1.067628   -3.134487
   1 C     6.0000    0    12.011   -3.148597   -0.595162   -2.511893
   2 C     6.0000    0    12.011   -1.170769   -1.254906   -4.137690
   3 C     6.0000    0    12.011   -1.773773   -2.423509   -6.420093
   4 C     6.0000    0    12.011   -4.289909   -2.860470   -7.017569
   5 C     6.0000    0    12.011   -6.264485   -2.202104   -5.415472
   6 H     1.0000    0     1.008   -7.148289   -0.529396   -1.842897
   7 H     1.0000    0     1.008   -2.710612    0.315416   -0.735113
   8 H     1.0000    0     1.008   -0.322309   -2.979563   -7.737261
   9 H     1.0000    0     1.008   -8.197853   -2.565603   -5.950503
  10 N     7.0000    0    14.007   -4.890673   -4.066202   -9.438745
  11 O     8.0000    0    15.999   -7.119037   -4.420974   -9.963184
  12 O     8.0000    0    15.999   -3.146478   -4.666197  -10.838318
  13 C     6.0000    0    12.011    1.484865   -0.793382   -3.279334
  14 C     6.0000    0    12.011    2.462397   -2.652354   -1.323212
  15 H     1.0000    0     1.008    0.981368   -2.993524    0.064470
  16 H     1.0000    0     1.008    4.106386   -1.906338   -0.335505
  17 H     1.0000    0     1.008    2.976331   -4.464763   -2.173021
  18 N     7.0000    0    14.007    3.252367   -0.288712   -5.260519
  19 O     8.0000    0    15.999    5.509945   -0.843369   -4.940299
  20 O     8.0000    0    15.999    2.546896    0.885591   -7.170373
  21 H     1.0000    0     2.000    1.475190    1.441021   -2.133569
  22 C     6.0000    0    12.011   -0.471284    0.611227    7.441138
  23 C     6.0000    0    12.011    2.042148    0.584346    8.701926
  24 C     6.0000    0    12.011    3.720509    2.770249    7.789443
  25 C     6.0000    0    12.011    3.718283    2.956441    4.923786
  26 N     7.0000    0    14.007    1.093985    3.255481    3.938310
  27 C     6.0000    0    12.011   -0.598089    1.113349    4.685071
  28 H     1.0000    0     1.008   -2.116177   -0.177275    8.362057
  29 H     1.0000    0     1.008    1.833865    0.640854   10.752388
  30 H     1.0000    0     1.008    3.013408   -1.207724    8.264442
  31 H     1.0000    0     1.008    5.659591    2.510566    8.439621
  32 H     1.0000    0     1.008    3.037378    4.552483    8.582315
  33 H     1.0000    0     1.008    4.805558    4.569646    4.254584
  34 H     1.0000    0     1.008    4.479690    1.247399    4.056578
  35 H     1.0000    0     1.008    0.354078    4.902195    4.614547
  36 H     1.0000    0     1.008   -2.502405    1.569592    4.052457
  37 H     1.0000    0     1.008    0.057149   -0.515331    3.580281
  38 H     1.0000    0     1.008    1.171821    3.410158    1.863837
  39 H     1.0000    0     1.008    0.208628    4.571780   -1.676453
  40 O     8.0000    0    15.999    1.536710    3.566689   -0.931740

--------------------------------
INTERNAL COORDINATES (ANGSTROEM)
--------------------------------
 C      0   0   0     0.000000000000     0.00000000     0.00000000
 C      1   0   0     1.390738778832     0.00000000     0.00000000
 C      2   1   0     1.399098869452   121.58015689     0.00000000
 C      3   2   1     1.393918562118   118.18161976   359.66819924
 C      4   3   2     1.387903051872   119.40063077     0.85520512
 C      1   2   3     1.385796153366   120.35811992   359.57470166
 H      1   2   3     1.081831688987   119.93947057   180.25166890
 H      2   1   3     1.081637584986   119.37990200   179.57748687
 H      4   3   2     1.078129535385   121.20984020   180.31569889
 H      6   1   2     1.078833887965   121.70335835   180.80380824
 N      5   4   3     1.466193414209   118.65805088   179.33064213
 O     11   5   4     1.225876954088   118.23199841   180.75570295
 O     11   5   4     1.225249725596   118.53151852     0.66247286
 C      3   2   1     1.496942252839   118.35761580   182.80468019
 C     14   3   2     1.518818031347   114.88924963    75.29821967
 H     15  14   3     1.089064883097   108.77300761   317.52446229
 H     15  14   3     1.088974859856   111.37084549   198.43651316
 H     15  14   3     1.093635304415   111.86708688    76.87609931
 N     14   3   2     1.430134987199   114.96079279   209.70095718
 O     19  14   3     1.241802630029   119.01309171   207.80124767
 O     19  14   3     1.243760068018   119.51667551    33.91134150
 H     14   3   2     1.328795914457   106.26089373   319.09567159
 C     16  15  14     4.412197498155   130.56064269   265.66662645
 C     23  16  15     1.488074845521   103.69837648   311.93856312
 C     24  23  16     1.536227205044   111.63053289    81.04588727
 C     25  24  23     1.519638478305   111.22487042   312.20977787
 N     26  25  24     1.491822116890   110.88110588    56.75473766
 C     23  16  15     1.483972802252    38.35197184    71.46080375
 H     23  16  15     1.081322813941   111.84783872   180.06965620
 H     24  23  16     1.091051645506   110.81386913   204.68482177
 H     24  23  16     1.103211289475   109.30165582   321.41259042
 H     25  24  23     1.090953187404   110.47539810   191.17325218
 H     25  24  23     1.093704430690   109.73231900    72.97925196
 H     26  25  24     1.088669113549   112.02620603   176.42648424
 H     26  25  24     1.091262182663   111.44594864   298.25632638
 H     27  26  25     1.020149844874   108.98191194    62.32908048
 H     28  23  16     1.088971368642   112.56108491   119.93958601
 H     28  23  16     1.097643743032   111.62840790   358.78776411
 H     27  26  25     1.101581488812   108.74944280   179.21971190
 H     22  14   3     1.803461092913   151.64944461   332.60295194
 O     40  22  14     0.965455823923    43.79182859   178.53016208

---------------------------
INTERNAL COORDINATES (A.U.)
---------------------------
 C      0   0   0     0.000000000000     0.00000000     0.00000000
 C      1   0   0     2.628115415817     0.00000000     0.00000000
 C      2   1   0     2.643913697543   121.58015689     0.00000000
 C      3   2   1     2.634124335392   118.18161976   359.66819924
 C      4   3   2     2.622756668471   119.40063077     0.85520512
 C      1   2   3     2.618775207304   120.35811992   359.57470166
 H      1   2   3     2.044365615182   119.93947057   180.25166890
 H      2   1   3     2.043998811779   119.37990200   179.57748687
 H      4   3   2     2.037369558770   121.20984020   180.31569889
 H      6   1   2     2.038700592248   121.70335835   180.80380824
 N      5   4   3     2.770704012214   118.65805088   179.33064213
 O     11   5   4     2.316571717111   118.23199841   180.75570295
 O     11   5   4     2.315386427039   118.53151852     0.66247286
 C      3   2   1     2.828810896161   118.35761580   182.80468019
 C     14   3   2     2.870150126507   114.88924963    75.29821967
 H     15  14   3     2.058034371124   108.77300761   317.52446229
 H     15  14   3     2.057864251853   111.37084549   198.43651316
 H     15  14   3     2.066671215732   111.86708688    76.87609931
 N     14   3   2     2.702563460345   114.96079279   209.70095718
 O     19  14   3     2.346666883137   119.01309171   207.80124767
 O     19  14   3     2.350365904861   119.51667551    33.91134150
 H     14   3   2     2.511060366198   106.26089373   319.09567159
 C     16  15  14     8.337844920286   130.56064269   265.66662645
 C     23  16  15     2.812053924812   103.69837648   311.93856312
 C     24  23  16     2.903048697012   111.63053289    81.04588727
 C     25  24  23     2.871700546566   111.22487042   312.20977787
 N     26  25  24     2.819135241448   110.88110588    56.75473766
 C     23  16  15     2.804302186444    38.35197184    71.46080375
 H     23  16  15     2.043403980710   111.84783872   180.06965620
 H     24  23  16     2.061788807971   110.81386913   204.68482177
 H     24  23  16     2.084767204957   109.30165582   321.41259042
 H     25  24  23     2.061602749121   110.47539810   191.17325218
 H     25  24  23     2.066801845461   109.73231900    72.97925196
 H     26  25  24     2.057286475066   112.02620603   176.42648424
 H     26  25  24     2.062186665539   111.44594864   298.25632638
 H     27  26  25     1.927803822373   108.98191194    62.32908048
 H     28  23  16     2.057857654414   112.56108491   119.93958601
 H     28  23  16     2.074246066943   111.62840790   358.78776411
 H     27  26  25     2.081687328052   108.74944280   179.21971190
 H     22  14   3     3.408047558788   151.64944461   332.60295194
 O     40  22  14     1.824447101614    43.79182859   178.53016208

---------------------
BASIS SET INFORMATION
---------------------
There are 4 groups of distinct atoms

 Group   1 Type C   : 11s6p2d1f contracted to 5s3p2d1f pattern {62111/411/11/1}
 Group   2 Type H   : 5s1p contracted to 3s1p pattern {311/1}
 Group   3 Type N   : 11s6p2d1f contracted to 5s3p2d1f pattern {62111/411/11/1}
 Group   4 Type O   : 11s6p2d1f contracted to 5s3p2d1f pattern {62111/411/11/1}

Atom   0C    basis set group =>   1
Atom   1C    basis set group =>   1
Atom   2C    basis set group =>   1
Atom   3C    basis set group =>   1
Atom   4C    basis set group =>   1
Atom   5C    basis set group =>   1
Atom   6H    basis set group =>   2
Atom   7H    basis set group =>   2
Atom   8H    basis set group =>   2
Atom   9H    basis set group =>   2
Atom  10N    basis set group =>   3
Atom  11O    basis set group =>   4
Atom  12O    basis set group =>   4
Atom  13C    basis set group =>   1
Atom  14C    basis set group =>   1
Atom  15H    basis set group =>   2
Atom  16H    basis set group =>   2
Atom  17H    basis set group =>   2
Atom  18N    basis set group =>   3
Atom  19O    basis set group =>   4
Atom  20O    basis set group =>   4
Atom  21H    basis set group =>   2
Atom  22C    basis set group =>   1
Atom  23C    basis set group =>   1
Atom  24C    basis set group =>   1
Atom  25C    basis set group =>   1
Atom  26N    basis set group =>   3
Atom  27C    basis set group =>   1
Atom  28H    basis set group =>   2
Atom  29H    basis set group =>   2
Atom  30H    basis set group =>   2
Atom  31H    basis set group =>   2
Atom  32H    basis set group =>   2
Atom  33H    basis set group =>   2
Atom  34H    basis set group =>   2
Atom  35H    basis set group =>   2
Atom  36H    basis set group =>   2
Atom  37H    basis set group =>   2
Atom  38H    basis set group =>   2
Atom  39H    basis set group =>   2
Atom  40O    basis set group =>   4
---------------------------------
AUXILIARY/J BASIS SET INFORMATION
---------------------------------
There are 4 groups of distinct atoms

 Group   1 Type C   : 12s5p4d2f1g contracted to 6s4p3d1f1g pattern {711111/2111/211/2/1}
 Group   2 Type H   : 5s2p1d contracted to 3s1p1d pattern {311/2/1}
 Group   3 Type N   : 12s5p4d2f1g contracted to 6s4p3d1f1g pattern {711111/2111/211/2/1}
 Group   4 Type O   : 12s5p4d2f1g contracted to 6s4p3d1f1g pattern {711111/2111/211/2/1}

Atom   0C    basis set group =>   1
Atom   1C    basis set group =>   1
Atom   2C    basis set group =>   1
Atom   3C    basis set group =>   1
Atom   4C    basis set group =>   1
Atom   5C    basis set group =>   1
Atom   6H    basis set group =>   2
Atom   7H    basis set group =>   2
Atom   8H    basis set group =>   2
Atom   9H    basis set group =>   2
Atom  10N    basis set group =>   3
Atom  11O    basis set group =>   4
Atom  12O    basis set group =>   4
Atom  13C    basis set group =>   1
Atom  14C    basis set group =>   1
Atom  15H    basis set group =>   2
Atom  16H    basis set group =>   2
Atom  17H    basis set group =>   2
Atom  18N    basis set group =>   3
Atom  19O    basis set group =>   4
Atom  20O    basis set group =>   4
Atom  21H    basis set group =>   2
Atom  22C    basis set group =>   1
Atom  23C    basis set group =>   1
Atom  24C    basis set group =>   1
Atom  25C    basis set group =>   1
Atom  26N    basis set group =>   3
Atom  27C    basis set group =>   1
Atom  28H    basis set group =>   2
Atom  29H    basis set group =>   2
Atom  30H    basis set group =>   2
Atom  31H    basis set group =>   2
Atom  32H    basis set group =>   2
Atom  33H    basis set group =>   2
Atom  34H    basis set group =>   2
Atom  35H    basis set group =>   2
Atom  36H    basis set group =>   2
Atom  37H    basis set group =>   2
Atom  38H    basis set group =>   2
Atom  39H    basis set group =>   2
Atom  40O    basis set group =>   4


           ************************************************************
           *        Program running with 102 parallel MPI-processes   *
           *              working on a common directory               *
           ************************************************************
------------------------------------------------------------------------------
                           ORCA GTO INTEGRAL CALCULATION
                           -- RI-GTO INTEGRALS CHOSEN --
------------------------------------------------------------------------------
------------------------------------------------------------------------------
                   ___                                                        
                  /   \      - P O W E R E D   B Y -                         
                 /     \                                                     
                 |  |  |   _    _      __       _____    __    __             
                 |  |  |  | |  | |    /  \     |  _  \  |  |  /  |          
                  \  \/   | |  | |   /    \    | | | |  |  | /  /          
                 / \  \   | |__| |  /  /\  \   | |_| |  |  |/  /          
                |  |  |   |  __  | /  /__\  \  |    /   |      \           
                |  |  |   | |  | | |   __   |  |    \   |  |\   \          
                \     /   | |  | | |  |  |  |  | |\  \  |  | \   \       
                 \___/    |_|  |_| |__|  |__|  |_| \__\ |__|  \__/        
                                                                              
                      - O R C A' S   B I G   F R I E N D -                    
                                      &                                       
                       - I N T E G R A L  F E E D E R -                       
                                                                              
 v1 FN, 2020, v2 2021                                                         
------------------------------------------------------------------------------


Reading SHARK input file /home/rudenko/mop_saddle_orca_4_serv/for_orca/m-o2nc6h4chno2ch3_piperidine/orca/freq_D/f_D.SHARKINP.tmp ... ok
----------------------
SHARK INTEGRAL PACKAGE
----------------------

Number of atoms                             ...     41
Number of basis functions                   ...    771
Number of shells                            ...    311
Maximum angular momentum                    ...      3
Integral batch strategy                     ... SHARK/LIBINT Hybrid
RI-J (if used) integral strategy            ... SPLIT-RIJ (Revised 2003 algorithm where possible)
Printlevel                                  ...      1
Contraction scheme used                     ... SEGMENTED contraction
Coulomb Range Separation                    ... NOT USED
Exchange Range Separation                   ... NOT USED
Finite Nucleus Model                        ... NOT USED
Auxiliary Coulomb fitting basis             ... AVAILABLE
   # of basis functions in Aux-J            ...   1249
   # of shells in Aux-J                     ...    415
   Maximum angular momentum in Aux-J        ...      4
Auxiliary J/K fitting basis                 ... NOT available
Auxiliary Correlation fitting basis         ... NOT available
Auxiliary 'external' fitting basis          ... NOT available
Integral threshold                          ...     2.500000e-11
Primitive cut-off                           ...     2.500000e-12
Primitive pair pre-selection threshold      ...     2.500000e-12

Calculating pre-screening integrals         ... done (  0.1 sec) Dimension = 311
Organizing shell pair data                  ... done (  0.9 sec)
Shell pair information
Total number of shell pairs                 ...     48516
Shell pairs after pre-screening             ...     32035
Total number of primitive shell pairs       ...    146592
Primitive shell pairs kept                  ...     64405
          la=0 lb=0:   8994 shell pairs
          la=1 lb=0:   9530 shell pairs
          la=1 lb=1:   2555 shell pairs
          la=2 lb=0:   4330 shell pairs
          la=2 lb=1:   2321 shell pairs
          la=2 lb=2:    543 shell pairs
          la=3 lb=0:   2043 shell pairs
          la=3 lb=1:   1110 shell pairs
          la=3 lb=2:    490 shell pairs
          la=3 lb=3:    119 shell pairs

Calculating one electron integrals          ... done (  0.3 sec)
Calculating RI/J V-Matrix + Cholesky decomp.... done (  0.2 sec)
Calculating Nuclear repulsion               ... done (  0.0 sec) ENN=   1703.914761899126 Eh

SHARK setup successfully completed in   2.1 seconds

Maximum memory used throughout the entire GTOINT-calculation: 49.5 MB


           ************************************************************
           *        Program running with 102 parallel MPI-processes   *
           *              working on a common directory               *
           ************************************************************
-------------------------------------------------------------------------------
                                 ORCA SCF
-------------------------------------------------------------------------------

------------
SCF SETTINGS
------------
Hamiltonian:
 Density Functional     Method          .... DFT(GTOs)
 Exchange Functional    Exchange        .... B88
   X-Alpha parameter    XAlpha          ....  0.666667
   Becke's b parameter  XBeta           ....  0.004200
 Correlation Functional Correlation     .... LYP
 LDA part of GGA corr.  LDAOpt          .... VWN-5
 Gradients option       PostSCFGGA      .... off
 Hybrid DFT is turned on
   Fraction HF Exchange ScalHFX         ....  0.200000
   Scaling of DF-GGA-X  ScalDFX         ....  0.720000
   Scaling of DF-GGA-C  ScalDFC         ....  0.810000
   Scaling of DF-LDA-C  ScalLDAC        ....  1.000000
   Perturbative correction              ....  0.000000
   Density functional embedding theory  .... OFF
   NL short-range parameter             ....  4.800000
 RI-approximation to the Coulomb term is turned on
   Number of AuxJ basis functions       .... 1249
   RIJ-COSX (HFX calculated with COS-X)).... on


General Settings:
 Integral files         IntName         .... /home/rudenko/mop_saddle_orca_4_serv/for_orca/m-o2nc6h4chno2ch3_piperidine/orca/freq_D/f_D
 Hartree-Fock type      HFTyp           .... UHF
 Total Charge           Charge          ....    0
 Multiplicity           Mult            ....    2
 Number of Electrons    NEL             ....  159
 Basis Dimension        Dim             ....  771
 Nuclear Repulsion      ENuc            ....   1703.9147618991 Eh

Convergence Acceleration:
 DIIS                   CNVDIIS         .... on
   Start iteration      DIISMaxIt       ....    12
   Startup error        DIISStart       ....  0.200000
   # of expansion vecs  DIISMaxEq       ....     5
   Bias factor          DIISBfac        ....   1.050
   Max. coefficient     DIISMaxC        ....  10.000
 Trust-Rad. Augm. Hess. CNVTRAH         .... auto
   Auto Start mean grad. ratio tolernc. ....  1.125000
   Auto Start start iteration           ....    20
   Auto Start num. interpolation iter.  ....    10
   Max. Number of Micro iterations      ....    16
   Max. Number of Macro iterations      .... Maxiter - #DIIS iter
   Number of Davidson start vectors     ....     2
   Converg. threshold I  (grad. norm)   ....   1.000e-05
   Converg. threshold II (energy diff.) ....   1.000e-08
   Grad. Scal. Fac. for Micro threshold ....   0.100
   Minimum threshold for Micro iter.    ....   0.010
   NR start threshold (gradient norm)   ....   0.001
   Initial trust radius                 ....   0.400
   Minimum AH scaling param. (alpha)    ....   1.000
   Maximum AH scaling param. (alpha)    .... 1000.000
   Orbital update algorithm             .... Taylor
   White noise on init. David. guess    .... on
   Maximum white noise                  ....   0.010
   Quad. conv. algorithm                .... NR
 SOSCF                  CNVSOSCF        .... off
 Level Shifting         CNVShift        .... on
   Level shift para.    LevelShift      ....    0.2500
   Turn off err/grad.   ShiftErr        ....    0.0010
 Zerner damping         CNVZerner       .... off
 Static damping         CNVDamp         .... on
   Fraction old density DampFac         ....    0.7000
   Max. Damping (<1)    DampMax         ....    0.9800
   Min. Damping (>=0)   DampMin         ....    0.0000
   Turn off err/grad.   DampErr         ....    0.1000
 Fernandez-Rico         CNVRico         .... off

SCF Procedure:
 Maximum # iterations   MaxIter         ....   125
 SCF integral mode      SCFMode         .... Direct
   Integral package                     .... SHARK and LIBINT hybrid scheme
 Reset frequency        DirectResetFreq ....    20
 Integral Threshold     Thresh          ....  2.500e-11 Eh
 Primitive CutOff       TCut            ....  2.500e-12 Eh

Convergence Tolerance:
 Convergence Check Mode ConvCheckMode   .... Total+1el-Energy
 Convergence forced     ConvForced      .... 0
 Energy Change          TolE            ....  1.000e-08 Eh
 1-El. energy change                    ....  1.000e-05 Eh
 DIIS Error             TolErr          ....  5.000e-07


Diagonalization of the overlap matrix:
Smallest eigenvalue                        ... 6.458e-06
Time for diagonalization                   ...    0.429 sec
Threshold for overlap eigenvalues          ... 1.000e-08
Number of eigenvalues below threshold      ... 0
Time for construction of square roots      ...    0.594 sec
Total time needed                          ...    1.027 sec

Time for model grid setup =    0.301 sec

------------------------------
INITIAL GUESS: MODEL POTENTIAL
------------------------------
Loading Hartree-Fock densities                     ... done
Calculating cut-offs                               ... done
Initializing the effective Hamiltonian             ... done
Setting up the integral package (SHARK)            ... done
Starting the Coulomb interaction                   ... done (   0.1 sec)
Reading the grid                                   ... done
Mapping shells                                     ... done
Starting the XC term evaluation                    ... done (   0.1 sec)
  promolecular density results
     # of electrons  =    158.988439132
     EX              =   -133.509020269
     EC              =     -5.453853124
     EX+EC           =   -138.962873392
Transforming the Hamiltonian                       ... done (   0.6 sec)
Diagonalizing the Hamiltonian                      ... done (   0.3 sec)
Back transforming the eigenvectors                 ... done (   0.1 sec)
Now organizing SCF variables                       ... done
                      ------------------
                      INITIAL GUESS DONE (   1.8 sec)
                      ------------------
-------------------
DFT GRID GENERATION
-------------------

General Integration Accuracy     IntAcc      ... 4.388
Radial Grid Type                 RadialGrid  ... OptM3 with GC (2021)
Angular Grid (max. ang.)         AngularGrid ... 4 (Lebedev-302)
Angular grid pruning method      GridPruning ... 4 (adaptive)
Weight generation scheme         WeightScheme... Becke
Basis function cutoff            BFCut       ... 1.0000e-11
Integration weight cutoff        WCut        ... 1.0000e-14
Angular grids for H and He will be reduced by one unit
Partially contracted basis set               ... off
Rotationally invariant grid construction     ... off

Total number of grid points                  ...   189176
Total number of batches                      ...     2977
Average number of points per batch           ...       63
Average number of grid points per atom       ...     4614
Time for grid setup =    1.568 sec

--------------------
COSX GRID GENERATION
--------------------

GRIDX 1
-------
General Integration Accuracy     IntAcc      ... 3.816
Radial Grid Type                 RadialGrid  ... OptM3 with GC (2021)
Angular Grid (max. ang.)         AngularGrid ... 1 (Lebedev-50)
Angular grid pruning method      GridPruning ... 4 (adaptive)
Weight generation scheme         WeightScheme... Becke
Basis function cutoff            BFCut       ... 1.0000e-11
Integration weight cutoff        WCut        ... 1.0000e-14
Angular grids for H and He will be reduced by one unit
Partially contracted basis set               ... on
Rotationally invariant grid construction     ... off

Total number of grid points                  ...    24037
Total number of batches                      ...      397
Average number of points per batch           ...       60
Average number of grid points per atom       ...      586
UseSFitting                                  ... on

GRIDX 2
-------
General Integration Accuracy     IntAcc      ... 4.020
Radial Grid Type                 RadialGrid  ... OptM3 with GC (2021)
Angular Grid (max. ang.)         AngularGrid ... 2 (Lebedev-110)
Angular grid pruning method      GridPruning ... 4 (adaptive)
Weight generation scheme         WeightScheme... Becke
Basis function cutoff            BFCut       ... 1.0000e-11
Integration weight cutoff        WCut        ... 1.0000e-14
Angular grids for H and He will be reduced by one unit
Partially contracted basis set               ... on
Rotationally invariant grid construction     ... off

Total number of grid points                  ...    51705
Total number of batches                      ...      827
Average number of points per batch           ...       62
Average number of grid points per atom       ...     1261
UseSFitting                                  ... on

GRIDX 3
-------
General Integration Accuracy     IntAcc      ... 4.338
Radial Grid Type                 RadialGrid  ... OptM3 with GC (2021)
Angular Grid (max. ang.)         AngularGrid ... 3 (Lebedev-194)
Angular grid pruning method      GridPruning ... 4 (adaptive)
Weight generation scheme         WeightScheme... Becke
Basis function cutoff            BFCut       ... 1.0000e-11
Integration weight cutoff        WCut        ... 1.0000e-14
Angular grids for H and He will be reduced by one unit
Partially contracted basis set               ... on
Rotationally invariant grid construction     ... off

Total number of grid points                  ...   112886
Total number of batches                      ...     1784
Average number of points per batch           ...       63
Average number of grid points per atom       ...     2753
UseSFitting                                  ... on

Time for X-Grid setup             =    3.112 sec


--------------------
CPCM SOLVATION MODEL
--------------------
CPCM parameters:
  Epsilon                                         ...      78.4000
  Refrac                                          ...       1.3300
  Rsolv                                           ...       1.3000
  Surface type                                    ... GAUSSIAN VDW
  Epsilon function type                           ...         CPCM
Radii:
 Radius for C  used is    3.8550 Bohr (=   2.0400 Ang.)
 Radius for H  used is    2.4944 Bohr (=   1.3200 Ang.)
 Radius for N  used is    3.5149 Bohr (=   1.8600 Ang.)
 Radius for O  used is    3.4469 Bohr (=   1.8240 Ang.)
Calculating surface                               ...        done! (  0.0s)
GEPOL surface points                              ...         2238
GEPOL Volume                                      ...    2415.7529
GEPOL Surface-area                                ...    1294.4903
Calculating surface distance matrix               ...        done! (  0.2s)
Performing Cholesky decomposition & store         ...        done! (  0.9s)
Overall time for CPCM initialization              ...                 1.1s
--------------
SCF ITERATIONS
--------------
ITER       Energy         Delta-E        Max-DP      RMS-DP      [F,P]     Damp
               ***  Starting incremental Fock matrix formation  ***
  0  -1046.6957572537   0.000000000000 0.17557153  0.00077842  0.1883763 0.7000
  1  -1047.0319785707  -0.336221316929 0.15701997  0.00065092  0.0680051 0.7000
                               ***Turning on DIIS***
  2  -1047.1489773802  -0.116998809489 0.17289255  0.00084365  0.0180808 0.0000
  3  -1047.3590385479  -0.210061167754 0.15318485  0.00056884  0.0359852 0.0000
  4  -1047.3932025304  -0.034163982495 0.04268196  0.00016154  0.0107457 0.0000
  5  -1047.3965071864  -0.003304655963 0.01161250  0.00006078  0.0020658 0.0000
  6  -1047.3966898366  -0.000182650226 0.00348166  0.00002646  0.0006947 0.0000
               *** Restarting incremental Fock matrix formation ***
                                   *** Resetting DIIS ***
  7  -1047.3967041899  -0.000014353275 0.00257626  0.00001786  0.0006436 0.0000
  8  -1047.3966873390   0.000016850926 0.00088777  0.00000578  0.0012171 0.0000
  9  -1047.3967107477  -0.000023408701 0.00082001  0.00000552  0.0002836 0.0000
 10  -1047.3967134605  -0.000002712834 0.00022230  0.00000126  0.0000834 0.0000
 11  -1047.3967136156  -0.000000155100 0.00017958  0.00000080  0.0001041 0.0000
 12  -1047.3967136801  -0.000000064525 0.00008118  0.00000055  0.0000289 0.0000
 13  -1047.3967136772   0.000000002915 0.00012902  0.00000072  0.0000266 0.0000
 14  -1047.3967136666   0.000000010610 0.00014571  0.00000079  0.0000053 0.0000
 15  -1047.3967136619   0.000000004665 0.00031983  0.00000164  0.0000038 0.0000
 16  -1047.3967136531   0.000000008779 0.00004470  0.00000026  0.0000025 0.0000
 17  -1047.3967136811  -0.000000027905 0.00002883  0.00000022  0.0000013 0.0000
                            ***DIIS convergence achieved***

               *****************************************************
               *                     SUCCESS                       *
               *           SCF CONVERGED AFTER  18 CYCLES          *
               *****************************************************

Old exchange energy                            =    -27.064457271 Eh
New exchange energy                            =    -27.064423914 Eh
Exchange energy change after final integration =      0.000033357 Eh
Total energy after final integration           =  -1047.396680352 Eh
Final COS-X integration done in                =     5.363 sec

----------------
TOTAL SCF ENERGY
----------------

Total Energy       :        -1047.39668035 Eh          -28501.11264 eV

Components:
Nuclear Repulsion  :         1703.91476190 Eh           46365.87787 eV
Electronic Energy  :        -2751.31144225 Eh          -74866.99051 eV
One Electron Energy:        -4812.75715191 Eh         -130961.78007 eV
Two Electron Energy:         2061.44570966 Eh           56094.78956 eV
Max COSX asymmetry :            0.00000082 Eh               0.00002 eV
CPCM Dielectric    :           -0.06750201 Eh              -1.83682 eV

Virial components:
Potential Energy   :        -2090.42994944 Eh          -56883.49083 eV
Kinetic Energy     :         1043.03326909 Eh           28382.37818 eV
Virial Ratio       :            2.00418339


DFT components:
N(Alpha)           :       80.000160565465 electrons
N(Beta)            :       79.000158733411 electrons
N(Total)           :      159.000319298876 electrons
E(X)               :     -107.731176926996 Eh       
E(C)               :       -6.415295629840 Eh       
E(XC)              :     -114.146472556836 Eh       
DFET-embed. en.    :        0.000000000000 Eh       
CPCM Solvation Model Properties:
Surface-charge          :           -0.03118707
Charge-correction       :           -0.00001629 Eh              -0.00044 eV
Free-energy (cav+disp)  :  This term is not implemented in the current solvation scheme

---------------
SCF CONVERGENCE
---------------

  Last Energy change         ...   -2.7361e-08  Tolerance :   1.0000e-08
  Last MAX-Density change    ...    0.0000e+00  Tolerance :   1.0000e-07
  Last RMS-Density change    ...    0.0000e+00  Tolerance :   5.0000e-09
  Last DIIS Error            ...    9.5265e-07  Tolerance :   5.0000e-07

             **** THE GBW FILE WAS UPDATED (/home/rudenko/mop_saddle_orca_4_serv/for_orca/m-o2nc6h4chno2ch3_piperidine/orca/freq_D/f_D.gbw) ****
             **** DENSITY /home/rudenko/mop_saddle_orca_4_serv/for_orca/m-o2nc6h4chno2ch3_piperidine/orca/freq_D/f_D.scfp WAS UPDATED ****
             **** ENERGY FILE WAS UPDATED (/home/rudenko/mop_saddle_orca_4_serv/for_orca/m-o2nc6h4chno2ch3_piperidine/orca/freq_D/f_D.en.tmp) ****
----------------------
UHF SPIN CONTAMINATION
----------------------

Warning: in a DFT calculation there is little theoretical justification to 
         calculate <S**2> as in Hartree-Fock theory. We will do it anyways
         but you should keep in mind that the values have only limited relevance

Expectation value of <S**2>     :     0.754065
Ideal value S*(S+1) for S=0.5   :     0.750000
Deviation                       :     0.004065

             **** THE GBW FILE WAS UPDATED (/home/rudenko/mop_saddle_orca_4_serv/for_orca/m-o2nc6h4chno2ch3_piperidine/orca/freq_D/f_D.gbw) ****
             **** DENSITY /home/rudenko/mop_saddle_orca_4_serv/for_orca/m-o2nc6h4chno2ch3_piperidine/orca/freq_D/f_D.scfp WAS UPDATED ****
----------------
ORBITAL ENERGIES
----------------
                 SPIN UP ORBITALS
  NO   OCC          E(Eh)            E(eV) 
   0   1.0000     -19.167053      -521.5620 
   1   1.0000     -19.166754      -521.5539 
   2   1.0000     -19.133975      -520.6619 
   3   1.0000     -19.131564      -520.5963 
   4   1.0000     -19.079061      -519.1676 
   5   1.0000     -14.560009      -396.1980 
   6   1.0000     -14.521987      -395.1633 
   7   1.0000     -14.386955      -391.4889 
   8   1.0000     -10.235170      -278.5131 
   9   1.0000     -10.217396      -278.0295 
  10   1.0000     -10.212724      -277.9023 
  11   1.0000     -10.200782      -277.5774 
  12   1.0000     -10.195394      -277.4308 
  13   1.0000     -10.194013      -277.3932 
  14   1.0000     -10.193386      -277.3761 
  15   1.0000     -10.187935      -277.2278 
  16   1.0000     -10.186944      -277.2009 
  17   1.0000     -10.185009      -277.1482 
  18   1.0000     -10.173616      -276.8382 
  19   1.0000     -10.172836      -276.8170 
  20   1.0000     -10.161274      -276.5023 
  21   1.0000      -1.240026       -33.7428 
  22   1.0000      -1.198685       -32.6179 
  23   1.0000      -1.064306       -28.9612 
  24   1.0000      -1.021698       -27.8018 
  25   1.0000      -0.979179       -26.6448 
  26   1.0000      -0.936461       -25.4824 
  27   1.0000      -0.892004       -24.2727 
  28   1.0000      -0.835462       -22.7341 
  29   1.0000      -0.806930       -21.9577 
  30   1.0000      -0.799579       -21.7577 
  31   1.0000      -0.775089       -21.0912 
  32   1.0000      -0.757678       -20.6175 
  33   1.0000      -0.705614       -19.2007 
  34   1.0000      -0.692312       -18.8388 
  35   1.0000      -0.673291       -18.3212 
  36   1.0000      -0.638747       -17.3812 
  37   1.0000      -0.634248       -17.2588 
  38   1.0000      -0.601081       -16.3562 
  39   1.0000      -0.588277       -16.0078 
  40   1.0000      -0.576877       -15.6976 
  41   1.0000      -0.554518       -15.0892 
  42   1.0000      -0.546472       -14.8703 
  43   1.0000      -0.543300       -14.7840 
  44   1.0000      -0.533736       -14.5237 
  45   1.0000      -0.522315       -14.2129 
  46   1.0000      -0.510700       -13.8969 
  47   1.0000      -0.508864       -13.8469 
  48   1.0000      -0.501617       -13.6497 
  49   1.0000      -0.497307       -13.5324 
  50   1.0000      -0.472547       -12.8587 
  51   1.0000      -0.466480       -12.6936 
  52   1.0000      -0.459371       -12.5001 
  53   1.0000      -0.454093       -12.3565 
  54   1.0000      -0.443191       -12.0598 
  55   1.0000      -0.438637       -11.9359 
  56   1.0000      -0.429511       -11.6876 
  57   1.0000      -0.415321       -11.3015 
  58   1.0000      -0.410788       -11.1781 
  59   1.0000      -0.406085       -11.0501 
  60   1.0000      -0.396599       -10.7920 
  61   1.0000      -0.389891       -10.6095 
  62   1.0000      -0.387615       -10.5475 
  63   1.0000      -0.376601       -10.2478 
  64   1.0000      -0.365698        -9.9511 
  65   1.0000      -0.357884        -9.7385 
  66   1.0000      -0.350479        -9.5370 
  67   1.0000      -0.342286        -9.3141 
  68   1.0000      -0.334958        -9.1147 
  69   1.0000      -0.329530        -8.9670 
  70   1.0000      -0.327342        -8.9074 
  71   1.0000      -0.307945        -8.3796 
  72   1.0000      -0.303025        -8.2457 
  73   1.0000      -0.300180        -8.1683 
  74   1.0000      -0.283248        -7.7076 
  75   1.0000      -0.280110        -7.6222 
  76   1.0000      -0.276683        -7.5289 
  77   1.0000      -0.267464        -7.2781 
  78   1.0000      -0.219827        -5.9818 
  79   1.0000      -0.204475        -5.5641 
  80   0.0000      -0.100886        -2.7452 
  81   0.0000      -0.056028        -1.5246 
  82   0.0000      -0.020836        -0.5670 
  83   0.0000      -0.003904        -0.1062 
  84   0.0000       0.029118         0.7923 
  85   0.0000       0.047771         1.2999 
  86   0.0000       0.053671         1.4605 
  87   0.0000       0.061341         1.6692 
  88   0.0000       0.071822         1.9544 
  89   0.0000       0.078729         2.1423 
  90   0.0000       0.081113         2.2072 
  91   0.0000       0.085747         2.3333 
  92   0.0000       0.090143         2.4529 
  93   0.0000       0.098684         2.6853 
  94   0.0000       0.102609         2.7921 
  95   0.0000       0.107123         2.9150 
  96   0.0000       0.113856         3.0982 
  97   0.0000       0.117350         3.1933 
  98   0.0000       0.120178         3.2702 
  99   0.0000       0.124002         3.3743 
 100   0.0000       0.135593         3.6897 
 101   0.0000       0.136251         3.7076 
 102   0.0000       0.143432         3.9030 
 103   0.0000       0.147802         4.0219 
 104   0.0000       0.153075         4.1654 
 105   0.0000       0.163732         4.4554 
 106   0.0000       0.167798         4.5660 
 107   0.0000       0.174287         4.7426 
 108   0.0000       0.178768         4.8645 
 109   0.0000       0.187234         5.0949 
 110   0.0000       0.189925         5.1681 
 111   0.0000       0.197707         5.3799 
 112   0.0000       0.199508         5.4289 
 113   0.0000       0.204421         5.5626 
 114   0.0000       0.208382         5.6704 
 115   0.0000       0.213156         5.8003 
 116   0.0000       0.217261         5.9120 
 117   0.0000       0.219495         5.9728 
 118   0.0000       0.225865         6.1461 
 119   0.0000       0.229907         6.2561 
 120   0.0000       0.234389         6.3781 
 121   0.0000       0.237794         6.4707 
 122   0.0000       0.241567         6.5734 
 123   0.0000       0.250610         6.8194 
 124   0.0000       0.252004         6.8574 
 125   0.0000       0.254625         6.9287 
 126   0.0000       0.262965         7.1557 
 127   0.0000       0.265559         7.2262 
 128   0.0000       0.270391         7.3577 
 129   0.0000       0.276128         7.5138 
 130   0.0000       0.278546         7.5796 
 131   0.0000       0.283658         7.7187 
 132   0.0000       0.290184         7.8963 
 133   0.0000       0.296627         8.0716 
 134   0.0000       0.301510         8.2045 
 135   0.0000       0.308373         8.3912 
 136   0.0000       0.314295         8.5524 
 137   0.0000       0.320095         8.7102 
 138   0.0000       0.325376         8.8539 
 139   0.0000       0.327183         8.9031 
 140   0.0000       0.337983         9.1970 
 141   0.0000       0.341647         9.2967 
 142   0.0000       0.345176         9.3927 
 143   0.0000       0.350293         9.5320 
 144   0.0000       0.358392         9.7523 
 145   0.0000       0.359213         9.7747 
 146   0.0000       0.364665         9.9230 
 147   0.0000       0.374813        10.1992 
 148   0.0000       0.379720        10.3327 
 149   0.0000       0.381747        10.3879 
 150   0.0000       0.385794        10.4980 
 151   0.0000       0.391937        10.6651 
 152   0.0000       0.395168        10.7531 
 153   0.0000       0.398123        10.8335 
 154   0.0000       0.401944        10.9375 
 155   0.0000       0.409939        11.1550 
 156   0.0000       0.413591        11.2544 
 157   0.0000       0.417829        11.3697 
 158   0.0000       0.422036        11.4842 
 159   0.0000       0.424679        11.5561 
 160   0.0000       0.431801        11.7499 
 161   0.0000       0.437656        11.9092 
 162   0.0000       0.440529        11.9874 
 163   0.0000       0.444058        12.0834 
 164   0.0000       0.448146        12.1947 
 165   0.0000       0.451217        12.2782 
 166   0.0000       0.453085        12.3291 
 167   0.0000       0.455865        12.4047 
 168   0.0000       0.459065        12.4918 
 169   0.0000       0.462969        12.5980 
 170   0.0000       0.465997        12.6804 
 171   0.0000       0.470003        12.7894 
 172   0.0000       0.472905        12.8684 
 173   0.0000       0.480706        13.0807 
 174   0.0000       0.481595        13.1049 
 175   0.0000       0.490316        13.3422 
 176   0.0000       0.491720        13.3804 
 177   0.0000       0.495194        13.4749 
 178   0.0000       0.497986        13.5509 
 179   0.0000       0.500661        13.6237 
 180   0.0000       0.508077        13.8255 
 181   0.0000       0.509934        13.8760 
 182   0.0000       0.516219        14.0470 
 183   0.0000       0.518791        14.1170 
 184   0.0000       0.524724        14.2785 
 185   0.0000       0.531285        14.4570 
 186   0.0000       0.538038        14.6408 
 187   0.0000       0.543443        14.7878 
 188   0.0000       0.547848        14.9077 
 189   0.0000       0.555288        15.1102 
 190   0.0000       0.560812        15.2605 
 191   0.0000       0.562855        15.3161 
 192   0.0000       0.575447        15.6587 
 193   0.0000       0.582180        15.8419 
 194   0.0000       0.589125        16.0309 
 195   0.0000       0.592073        16.1111 
 196   0.0000       0.598802        16.2942 
 197   0.0000       0.601102        16.3568 
 198   0.0000       0.605227        16.4691 
 199   0.0000       0.620000        16.8711 
 200   0.0000       0.621323        16.9071 
 201   0.0000       0.632350        17.2071 
 202   0.0000       0.641256        17.4495 
 203   0.0000       0.645328        17.5603 
 204   0.0000       0.648883        17.6570 
 205   0.0000       0.654615        17.8130 
 206   0.0000       0.659565        17.9477 
 207   0.0000       0.666631        18.1399 
 208   0.0000       0.670772        18.2526 
 209   0.0000       0.676549        18.4098 
 210   0.0000       0.684182        18.6175 
 211   0.0000       0.691946        18.8288 
 212   0.0000       0.705166        19.1885 
 213   0.0000       0.707393        19.2491 
 214   0.0000       0.716064        19.4851 
 215   0.0000       0.722081        19.6488 
 216   0.0000       0.730895        19.8887 
 217   0.0000       0.742273        20.1983 
 218   0.0000       0.746721        20.3193 
 219   0.0000       0.753983        20.5169 
 220   0.0000       0.757410        20.6102 
 221   0.0000       0.766069        20.8458 
 222   0.0000       0.780265        21.2321 
 223   0.0000       0.791367        21.5342 
 224   0.0000       0.799819        21.7642 
 225   0.0000       0.810912        22.0661 
 226   0.0000       0.812288        22.1035 
 227   0.0000       0.815307        22.1856 
 228   0.0000       0.825271        22.4568 
 229   0.0000       0.830917        22.6104 
 230   0.0000       0.841063        22.8865 
 231   0.0000       0.846195        23.0261 
 232   0.0000       0.855635        23.2830 
 233   0.0000       0.861790        23.4505 
 234   0.0000       0.870550        23.6889 
 235   0.0000       0.874578        23.7985 
 236   0.0000       0.891580        24.2611 
 237   0.0000       0.893200        24.3052 
 238   0.0000       0.903608        24.5884 
 239   0.0000       0.907808        24.7027 
 240   0.0000       0.916783        24.9469 
 241   0.0000       0.919742        25.0275 
 242   0.0000       0.922779        25.1101 
 243   0.0000       0.932284        25.3687 
 244   0.0000       0.945469        25.7275 
 245   0.0000       0.959896        26.1201 
 246   0.0000       0.971350        26.4318 
 247   0.0000       0.983052        26.7502 
 248   0.0000       0.990195        26.9446 
 249   0.0000       1.007273        27.4093 
 250   0.0000       1.017136        27.6777 
 251   0.0000       1.018533        27.7157 
 252   0.0000       1.035990        28.1907 
 253   0.0000       1.043620        28.3983 
 254   0.0000       1.050490        28.5853 
 255   0.0000       1.054021        28.6814 
 256   0.0000       1.061968        28.8976 
 257   0.0000       1.068943        29.0874 
 258   0.0000       1.071554        29.1585 
 259   0.0000       1.086284        29.5593 
 260   0.0000       1.090534        29.6749 
 261   0.0000       1.099490        29.9186 
 262   0.0000       1.115688        30.3594 
 263   0.0000       1.121741        30.5241 
 264   0.0000       1.127524        30.6815 
 265   0.0000       1.132405        30.8143 
 266   0.0000       1.139918        31.0188 
 267   0.0000       1.140268        31.0283 
 268   0.0000       1.150903        31.3177 
 269   0.0000       1.167906        31.7803 
 270   0.0000       1.170357        31.8470 
 271   0.0000       1.180228        32.1156 
 272   0.0000       1.185402        32.2564 
 273   0.0000       1.210953        32.9517 
 274   0.0000       1.212737        33.0003 
 275   0.0000       1.222557        33.2675 
 276   0.0000       1.239760        33.7356 
 277   0.0000       1.242852        33.8197 
 278   0.0000       1.252882        34.0927 
 279   0.0000       1.262429        34.3524 
 280   0.0000       1.265378        34.4327 
 281   0.0000       1.276566        34.7371 
 282   0.0000       1.279750        34.8238 
 283   0.0000       1.285927        34.9919 
 284   0.0000       1.292393        35.1678 
 285   0.0000       1.298367        35.3304 
 286   0.0000       1.312797        35.7230 
 287   0.0000       1.327259        36.1166 
 288   0.0000       1.334656        36.3178 
 289   0.0000       1.339704        36.4552 
 290   0.0000       1.353397        36.8278 
 291   0.0000       1.373393        37.3719 
 292   0.0000       1.378822        37.5197 
 293   0.0000       1.392188        37.8834 
 294   0.0000       1.404436        38.2167 
 295   0.0000       1.409758        38.3615 
 296   0.0000       1.416033        38.5322 
 297   0.0000       1.432319        38.9754 
 298   0.0000       1.439460        39.1697 
 299   0.0000       1.445602        39.3368 
 300   0.0000       1.452446        39.5231 
 301   0.0000       1.457001        39.6470 
 302   0.0000       1.468693        39.9652 
 303   0.0000       1.473582        40.0982 
 304   0.0000       1.477462        40.2038 
 305   0.0000       1.485880        40.4328 
 306   0.0000       1.487525        40.4776 
 307   0.0000       1.497693        40.7543 
 308   0.0000       1.506985        41.0071 
 309   0.0000       1.508864        41.0583 
 310   0.0000       1.518004        41.3070 
 311   0.0000       1.522567        41.4312 
 312   0.0000       1.544746        42.0347 
 313   0.0000       1.558977        42.4219 
 314   0.0000       1.562437        42.5161 
 315   0.0000       1.568593        42.6836 
 316   0.0000       1.570197        42.7272 
 317   0.0000       1.579286        42.9746 
 318   0.0000       1.587890        43.2087 
 319   0.0000       1.590150        43.2702 
 320   0.0000       1.595825        43.4246 
 321   0.0000       1.607443        43.7407 
 322   0.0000       1.608675        43.7743 
 323   0.0000       1.619827        44.0777 
 324   0.0000       1.627102        44.2757 
 325   0.0000       1.640510        44.6406 
 326   0.0000       1.644224        44.7416 
 327   0.0000       1.647442        44.8292 
 328   0.0000       1.651454        44.9384 
 329   0.0000       1.662294        45.2333 
 330   0.0000       1.672456        45.5098 
 331   0.0000       1.676656        45.6241 
 332   0.0000       1.687462        45.9182 
 333   0.0000       1.691395        46.0252 
 334   0.0000       1.692619        46.0585 
 335   0.0000       1.703119        46.3442 
 336   0.0000       1.710863        46.5549 
 337   0.0000       1.714317        46.6489 
 338   0.0000       1.725014        46.9400 
 339   0.0000       1.737570        47.2817 
 340   0.0000       1.738253        47.3003 
 341   0.0000       1.747783        47.5596 
 342   0.0000       1.761244        47.9259 
 343   0.0000       1.762917        47.9714 
 344   0.0000       1.769775        48.1580 
 345   0.0000       1.782396        48.5015 
 346   0.0000       1.783406        48.5289 
 347   0.0000       1.794153        48.8214 
 348   0.0000       1.796504        48.8854 
 349   0.0000       1.803773        49.0832 
 350   0.0000       1.815296        49.3967 
 351   0.0000       1.828793        49.7640 
 352   0.0000       1.835630        49.9500 
 353   0.0000       1.850111        50.3441 
 354   0.0000       1.860380        50.6235 
 355   0.0000       1.864932        50.7474 
 356   0.0000       1.870063        50.8870 
 357   0.0000       1.873525        50.9812 
 358   0.0000       1.886455        51.3330 
 359   0.0000       1.906293        51.8729 
 360   0.0000       1.915049        52.1111 
 361   0.0000       1.926354        52.4188 
 362   0.0000       1.941689        52.8361 
 363   0.0000       1.948131        53.0114 
 364   0.0000       1.956006        53.2256 
 365   0.0000       1.961656        53.3794 
 366   0.0000       1.965265        53.4776 
 367   0.0000       1.971133        53.6373 
 368   0.0000       1.979828        53.8739 
 369   0.0000       1.986842        54.0647 
 370   0.0000       2.000845        54.4458 
 371   0.0000       2.006400        54.5969 
 372   0.0000       2.013394        54.7872 
 373   0.0000       2.026225        55.1364 
 374   0.0000       2.031535        55.2809 
 375   0.0000       2.040149        55.5153 
 376   0.0000       2.045781        55.6685 
 377   0.0000       2.050234        55.7897 
 378   0.0000       2.064535        56.1788 
 379   0.0000       2.077622        56.5350 
 380   0.0000       2.085476        56.7487 
 381   0.0000       2.087424        56.8017 
 382   0.0000       2.106064        57.3089 
 383   0.0000       2.115019        57.5526 
 384   0.0000       2.116097        57.5819 
 385   0.0000       2.125192        57.8294 
 386   0.0000       2.128677        57.9242 
 387   0.0000       2.140314        58.2409 
 388   0.0000       2.152419        58.5703 
 389   0.0000       2.153093        58.5887 
 390   0.0000       2.163602        58.8746 
 391   0.0000       2.170213        59.0545 
 392   0.0000       2.181750        59.3684 
 393   0.0000       2.190125        59.5963 
 394   0.0000       2.196163        59.7606 
 395   0.0000       2.203762        59.9674 
 396   0.0000       2.211214        60.1702 
 397   0.0000       2.229509        60.6680 
 398   0.0000       2.239804        60.9482 
 399   0.0000       2.248961        61.1973 
 400   0.0000       2.257724        61.4358 
 401   0.0000       2.263844        61.6023 
 402   0.0000       2.269990        61.7696 
 403   0.0000       2.279389        62.0253 
 404   0.0000       2.285675        62.1964 
 405   0.0000       2.311312        62.8940 
 406   0.0000       2.321369        63.1677 
 407   0.0000       2.325509        63.2803 
 408   0.0000       2.332631        63.4741 
 409   0.0000       2.340158        63.6789 
 410   0.0000       2.351856        63.9973 
 411   0.0000       2.379078        64.7380 
 412   0.0000       2.383817        64.8670 
 413   0.0000       2.398511        65.2668 
 414   0.0000       2.407879        65.5217 
 415   0.0000       2.417984        65.7967 
 416   0.0000       2.422149        65.9100 
 417   0.0000       2.437083        66.3164 
 418   0.0000       2.448231        66.6198 
 419   0.0000       2.468308        67.1661 
 420   0.0000       2.475503        67.3618 
 421   0.0000       2.480695        67.5031 
 422   0.0000       2.491238        67.7900 
 423   0.0000       2.494655        67.8830 
 424   0.0000       2.500537        68.0431 
 425   0.0000       2.505863        68.1880 
 426   0.0000       2.515461        68.4492 
 427   0.0000       2.524028        68.6823 
 428   0.0000       2.530382        68.8552 
 429   0.0000       2.534417        68.9650 
 430   0.0000       2.535234        68.9872 
 431   0.0000       2.546711        69.2995 
 432   0.0000       2.560841        69.6840 
 433   0.0000       2.567052        69.8530 
 434   0.0000       2.578835        70.1737 
 435   0.0000       2.581564        70.2479 
 436   0.0000       2.593586        70.5751 
 437   0.0000       2.597924        70.6931 
 438   0.0000       2.606487        70.9261 
 439   0.0000       2.609713        71.0139 
 440   0.0000       2.611645        71.0665 
 441   0.0000       2.622622        71.3652 
 442   0.0000       2.625104        71.4327 
 443   0.0000       2.627890        71.5085 
 444   0.0000       2.642014        71.8929 
 445   0.0000       2.646734        72.0213 
 446   0.0000       2.653530        72.2062 
 447   0.0000       2.655811        72.2683 
 448   0.0000       2.662137        72.4404 
 449   0.0000       2.667464        72.5854 
 450   0.0000       2.677278        72.8524 
 451   0.0000       2.684260        73.0424 
 452   0.0000       2.692314        73.2616 
 453   0.0000       2.705905        73.6314 
 454   0.0000       2.714465        73.8644 
 455   0.0000       2.720667        74.0331 
 456   0.0000       2.722076        74.0714 
 457   0.0000       2.731098        74.3169 
 458   0.0000       2.734519        74.4101 
 459   0.0000       2.744930        74.6934 
 460   0.0000       2.758104        75.0518 
 461   0.0000       2.762840        75.1807 
 462   0.0000       2.768886        75.3452 
 463   0.0000       2.776460        75.5513 
 464   0.0000       2.785560        75.7989 
 465   0.0000       2.790170        75.9244 
 466   0.0000       2.793616        76.0182 
 467   0.0000       2.798959        76.1635 
 468   0.0000       2.804283        76.3084 
 469   0.0000       2.808952        76.4355 
 470   0.0000       2.814744        76.5931 
 471   0.0000       2.821388        76.7739 
 472   0.0000       2.828207        76.9594 
 473   0.0000       2.833260        77.0969 
 474   0.0000       2.847802        77.4926 
 475   0.0000       2.856739        77.7358 
 476   0.0000       2.863666        77.9243 
 477   0.0000       2.868830        78.0648 
 478   0.0000       2.878897        78.3388 
 479   0.0000       2.897733        78.8513 
 480   0.0000       2.912872        79.2633 
 481   0.0000       2.926759        79.6412 
 482   0.0000       2.927711        79.6671 
 483   0.0000       2.936329        79.9016 
 484   0.0000       2.942788        80.0773 
 485   0.0000       2.957720        80.4837 
 486   0.0000       2.960561        80.5610 
 487   0.0000       2.972336        80.8814 
 488   0.0000       2.980514        81.1039 
 489   0.0000       2.987548        81.2953 
 490   0.0000       2.994897        81.4953 
 491   0.0000       3.002529        81.7030 
 492   0.0000       3.011321        81.9422 
 493   0.0000       3.022324        82.2416 
 494   0.0000       3.028715        82.4155 
 495   0.0000       3.033293        82.5401 
 496   0.0000       3.044122        82.8348 
 497   0.0000       3.049739        82.9876 
 498   0.0000       3.066525        83.4444 
 499   0.0000       3.075407        83.6861 
 500   0.0000       3.086951        84.0002 
 501   0.0000       3.094049        84.1933 
 502   0.0000       3.098157        84.3051 
 503   0.0000       3.102139        84.4135 
 504   0.0000       3.106272        84.5260 
 505   0.0000       3.115734        84.7834 
 506   0.0000       3.129643        85.1619 
 507   0.0000       3.143269        85.5327 
 508   0.0000       3.151033        85.7440 
 509   0.0000       3.154805        85.8466 
 510   0.0000       3.162545        86.0572 
 511   0.0000       3.169710        86.2522 
 512   0.0000       3.174554        86.3840 
 513   0.0000       3.180242        86.5388 
 514   0.0000       3.185580        86.6840 
 515   0.0000       3.200169        87.0810 
 516   0.0000       3.205163        87.2169 
 517   0.0000       3.215439        87.4965 
 518   0.0000       3.224898        87.7539 
 519   0.0000       3.229981        87.8923 
 520   0.0000       3.230220        87.8988 
 521   0.0000       3.237477        88.0962 
 522   0.0000       3.246690        88.3469 
 523   0.0000       3.248267        88.3899 
 524   0.0000       3.255554        88.5881 
 525   0.0000       3.263584        88.8066 
 526   0.0000       3.268595        88.9430 
 527   0.0000       3.286800        89.4384 
 528   0.0000       3.292413        89.5911 
 529   0.0000       3.298609        89.7597 
 530   0.0000       3.302411        89.8632 
 531   0.0000       3.308859        90.0386 
 532   0.0000       3.312608        90.1406 
 533   0.0000       3.319428        90.3262 
 534   0.0000       3.327821        90.5546 
 535   0.0000       3.334284        90.7305 
 536   0.0000       3.339979        90.8855 
 537   0.0000       3.353329        91.2487 
 538   0.0000       3.360849        91.4533 
 539   0.0000       3.371289        91.7374 
 540   0.0000       3.377921        91.9179 
 541   0.0000       3.379295        91.9553 
 542   0.0000       3.389522        92.2336 
 543   0.0000       3.405421        92.6662 
 544   0.0000       3.422726        93.1371 
 545   0.0000       3.424568        93.1872 
 546   0.0000       3.435597        93.4873 
 547   0.0000       3.442220        93.6676 
 548   0.0000       3.447958        93.8237 
 549   0.0000       3.456622        94.0595 
 550   0.0000       3.472139        94.4817 
 551   0.0000       3.479861        94.6918 
 552   0.0000       3.483884        94.8013 
 553   0.0000       3.492467        95.0349 
 554   0.0000       3.504736        95.3687 
 555   0.0000       3.511685        95.5578 
 556   0.0000       3.514081        95.6230 
 557   0.0000       3.531548        96.0983 
 558   0.0000       3.535040        96.1933 
 559   0.0000       3.548571        96.5615 
 560   0.0000       3.555859        96.7598 
 561   0.0000       3.572740        97.2192 
 562   0.0000       3.584688        97.5443 
 563   0.0000       3.592486        97.7565 
 564   0.0000       3.599898        97.9582 
 565   0.0000       3.630325        98.7862 
 566   0.0000       3.638380        99.0053 
 567   0.0000       3.652928        99.4012 
 568   0.0000       3.663255        99.6822 
 569   0.0000       3.671543        99.9078 
 570   0.0000       3.673897        99.9718 
 571   0.0000       3.695043       100.5472 
 572   0.0000       3.695942       100.5717 
 573   0.0000       3.736596       101.6779 
 574   0.0000       3.738582       101.7320 
 575   0.0000       3.746894       101.9582 
 576   0.0000       3.753877       102.1482 
 577   0.0000       3.759684       102.3062 
 578   0.0000       3.761462       102.3546 
 579   0.0000       3.784577       102.9836 
 580   0.0000       3.801229       103.4367 
 581   0.0000       3.831284       104.2545 
 582   0.0000       3.837562       104.4254 
 583   0.0000       3.858557       104.9967 
 584   0.0000       3.876258       105.4783 
 585   0.0000       3.879119       105.5562 
 586   0.0000       3.890560       105.8675 
 587   0.0000       3.907539       106.3295 
 588   0.0000       3.923776       106.7714 
 589   0.0000       3.926215       106.8377 
 590   0.0000       3.940400       107.2237 
 591   0.0000       3.961436       107.7962 
 592   0.0000       3.981189       108.3337 
 593   0.0000       3.984594       108.4263 
 594   0.0000       3.989360       108.5560 
 595   0.0000       3.991859       108.6240 
 596   0.0000       4.004469       108.9671 
 597   0.0000       4.020502       109.4034 
 598   0.0000       4.027094       109.5828 
 599   0.0000       4.040690       109.9528 
 600   0.0000       4.051808       110.2553 
 601   0.0000       4.060129       110.4817 
 602   0.0000       4.069391       110.7337 
 603   0.0000       4.077563       110.9561 
 604   0.0000       4.095444       111.4427 
 605   0.0000       4.111810       111.8880 
 606   0.0000       4.116260       112.0091 
 607   0.0000       4.125629       112.2641 
 608   0.0000       4.132004       112.4376 
 609   0.0000       4.140588       112.6711 
 610   0.0000       4.164150       113.3123 
 611   0.0000       4.170665       113.4896 
 612   0.0000       4.185242       113.8862 
 613   0.0000       4.193535       114.1119 
 614   0.0000       4.215794       114.7176 
 615   0.0000       4.224224       114.9470 
 616   0.0000       4.227223       115.0286 
 617   0.0000       4.242266       115.4379 
 618   0.0000       4.253615       115.7467 
 619   0.0000       4.261050       115.9491 
 620   0.0000       4.270958       116.2187 
 621   0.0000       4.286306       116.6363 
 622   0.0000       4.305364       117.1549 
 623   0.0000       4.325510       117.7031 
 624   0.0000       4.331356       117.8622 
 625   0.0000       4.358559       118.6024 
 626   0.0000       4.375263       119.0570 
 627   0.0000       4.401360       119.7671 
 628   0.0000       4.415287       120.1461 
 629   0.0000       4.435207       120.6881 
 630   0.0000       4.456174       121.2586 
 631   0.0000       4.473785       121.7379 
 632   0.0000       4.508648       122.6865 
 633   0.0000       4.526102       123.1615 
 634   0.0000       4.533895       123.3736 
 635   0.0000       4.555584       123.9638 
 636   0.0000       4.567763       124.2951 
 637   0.0000       4.574165       124.4694 
 638   0.0000       4.583546       124.7246 
 639   0.0000       4.601036       125.2006 
 640   0.0000       4.623222       125.8043 
 641   0.0000       4.639913       126.2584 
 642   0.0000       4.660055       126.8066 
 643   0.0000       4.666659       126.9863 
 644   0.0000       4.692205       127.6814 
 645   0.0000       4.696285       127.7924 
 646   0.0000       4.724117       128.5497 
 647   0.0000       4.730285       128.7176 
 648   0.0000       4.766986       129.7163 
 649   0.0000       4.775063       129.9361 
 650   0.0000       4.788634       130.3054 
 651   0.0000       4.791172       130.3744 
 652   0.0000       4.802127       130.6725 
 653   0.0000       4.816603       131.0664 
 654   0.0000       4.819718       131.1512 
 655   0.0000       4.835954       131.5930 
 656   0.0000       4.843519       131.7989 
 657   0.0000       4.866219       132.4165 
 658   0.0000       4.872439       132.5858 
 659   0.0000       4.896955       133.2529 
 660   0.0000       4.939142       134.4009 
 661   0.0000       4.944090       134.5355 
 662   0.0000       4.952873       134.7745 
 663   0.0000       4.975073       135.3786 
 664   0.0000       4.998353       136.0121 
 665   0.0000       5.020844       136.6241 
 666   0.0000       5.026055       136.7659 
 667   0.0000       5.041505       137.1863 
 668   0.0000       5.074310       138.0790 
 669   0.0000       5.084538       138.3573 
 670   0.0000       5.087056       138.4258 
 671   0.0000       5.101669       138.8235 
 672   0.0000       5.115833       139.2089 
 673   0.0000       5.129728       139.5870 
 674   0.0000       5.133549       139.6910 
 675   0.0000       5.142703       139.9401 
 676   0.0000       5.155610       140.2913 
 677   0.0000       5.160897       140.4351 
 678   0.0000       5.166508       140.5878 
 679   0.0000       5.176106       140.8490 
 680   0.0000       5.184388       141.0744 
 681   0.0000       5.194473       141.3488 
 682   0.0000       5.221875       142.0944 
 683   0.0000       5.232131       142.3735 
 684   0.0000       5.263749       143.2339 
 685   0.0000       5.273808       143.5076 
 686   0.0000       5.286367       143.8494 
 687   0.0000       5.294934       144.0825 
 688   0.0000       5.328780       145.0035 
 689   0.0000       5.356532       145.7586 
 690   0.0000       5.374373       146.2441 
 691   0.0000       5.394936       146.8037 
 692   0.0000       5.411263       147.2480 
 693   0.0000       5.420186       147.4908 
 694   0.0000       5.446625       148.2102 
 695   0.0000       5.461114       148.6045 
 696   0.0000       5.466549       148.7524 
 697   0.0000       5.482174       149.1775 
 698   0.0000       5.491759       149.4384 
 699   0.0000       5.497659       149.5989 
 700   0.0000       5.512769       150.0101 
 701   0.0000       5.515018       150.0713 
[...]
  9:     28.88   0.000228    1.15  0.002460  (-0.013632  0.038055  0.028748)
 10:     41.41   0.000241    1.22  0.001818  (-0.023086 -0.019641 -0.029985)
 11:     43.47   0.000644    3.25  0.004621  (-0.044694  0.023027 -0.045757)
 12:     61.45   0.000369    1.86  0.001874  (-0.017805 -0.034127  0.019797)
 13:     71.85   0.000140    0.71  0.000609  ( 0.015035 -0.018583 -0.006112)
 14:     83.76   0.000328    1.66  0.001220  ( 0.000186 -0.008759  0.033818)
 15:     86.95   0.003782   19.11  0.013573  (-0.014455 -0.097603 -0.061947)
 16:    100.92   0.000734    3.71  0.002271  ( 0.027775  0.014454  0.035921)
 17:    104.57   0.001725    8.72  0.005149  (-0.043638  0.027407 -0.049938)
 18:    155.97   0.000164    0.83  0.000328  ( 0.016906 -0.002524 -0.005989)
 19:    173.70   0.001397    7.06  0.002510  ( 0.021858  0.023970 -0.038185)
 20:    180.13   0.000608    3.07  0.001053  ( 0.022928  0.010997 -0.020154)
 21:    211.07   0.000315    1.59  0.000465  ( 0.006837 -0.001952  0.020360)
 22:    230.58   0.006314   31.91  0.008545  (-0.027083 -0.061956  0.063029)
 23:    239.73   0.002983   15.08  0.003884  (-0.029237  0.012172 -0.053672)
 24:    258.87   0.004201   21.23  0.005064  ( 0.036852  0.024813 -0.055591)
 25:    297.65   0.006994   35.34  0.007333  ( 0.003500 -0.072343  0.045681)
 26:    306.45   0.000734    3.71  0.000747  (-0.017364 -0.021095  0.000916)
 27:    339.43   0.007533   38.07  0.006926  (-0.044442 -0.070023 -0.006897)
 28:    351.67   0.005336   26.97  0.004735  (-0.054527 -0.028921  0.030426)
 29:    374.03   0.017647   89.18  0.014723  ( 0.089855  0.009753 -0.080958)
 30:    389.37   0.000837    4.23  0.000671  ( 0.009610 -0.024007  0.001347)
 31:    406.24   0.011066   55.92  0.008501  ( 0.015455  0.082798 -0.037503)
 32:    414.92   0.002373   11.99  0.001784  (-0.002991 -0.039082  0.015751)
 33:    435.32   0.000178    0.90  0.000128  (-0.002224 -0.010910  0.001995)
 34:    462.70   0.007803   39.43  0.005262  ( 0.000905  0.045839 -0.056218)
 35:    490.05   0.008591   43.41  0.005471  ( 0.004244  0.020792 -0.070853)
 36:    519.11   0.001349    6.82  0.000811  ( 0.008528 -0.026728  0.004862)
 37:    537.92   0.001305    6.60  0.000757  ( 0.024242 -0.012953 -0.001346)
 38:    589.55   0.007670   38.76  0.004060  ( 0.015324 -0.060162 -0.014336)
 39:    617.14   0.002397   12.11  0.001212  (-0.029040  0.007173  0.017807)
 40:    638.50   0.010311   52.11  0.005039  (-0.010329 -0.056690 -0.041460)
 41:    656.93   0.006950   35.12  0.003301  (-0.019084  0.009907  0.053282)
 42:    666.51   0.007480   37.80  0.003502  (-0.008269 -0.011289 -0.057500)
 43:    699.85   0.013517   68.31  0.006027  ( 0.004445 -0.057830  0.051607)
 44:    716.35   0.005711   28.86  0.002488  (-0.039009 -0.027415 -0.014656)
 45:    767.19   0.008474   42.82  0.003447  ( 0.007557 -0.053256  0.023526)
 46:    787.81   0.002348   11.87  0.000930  (-0.016035 -0.001261 -0.025910)
 47:    812.96   0.001100    5.56  0.000422  (-0.002087  0.003845  0.020078)
 48:    822.03   0.004873   24.63  0.001850  (-0.006310  0.019740  0.037689)
 49:    826.07   0.003028   15.30  0.001144  ( 0.007516  0.027677 -0.017927)
 50:    838.90   0.000339    1.72  0.000126  (-0.004110 -0.002867  0.010057)
 51:    877.36   0.000501    2.53  0.000178  (-0.011330 -0.002044 -0.006745)
 52:    890.03   0.002365   11.95  0.000829  ( 0.014266  0.014551 -0.020343)
 53:    897.34   0.007262   36.70  0.002525  (-0.019572 -0.032006 -0.033434)
 54:    900.89   0.001814    9.17  0.000629  ( 0.007165  0.020204 -0.012999)
 55:    926.39   0.001583    8.00  0.000533  (-0.014317  0.015623 -0.009183)
 56:    939.04   0.003362   16.99  0.001117  (-0.026172 -0.018089  0.010244)
 57:    956.69   0.000620    3.13  0.000202  ( 0.005070 -0.013258  0.000925)
 58:    981.28   0.002468   12.47  0.000785  ( 0.013843 -0.007030  0.023319)
 59:    995.42   0.001739    8.79  0.000545  (-0.004023  0.022094  0.006402)
 60:   1001.42   0.000294    1.49  0.000092  ( 0.003363  0.008562 -0.002652)
 61:   1023.86   0.000730    3.69  0.000222  ( 0.006742  0.007220  0.011174)
 62:   1033.69   0.001015    5.13  0.000306  (-0.009367 -0.014579 -0.002468)
 63:   1051.66   0.003153   15.93  0.000936  ( 0.028341 -0.008032  0.008242)
 64:   1061.03   0.000668    3.38  0.000196  (-0.002607  0.010243  0.009207)
 65:   1074.17   0.011560   58.42  0.003358  ( 0.049093  0.030705  0.002331)
 66:   1092.09   0.005468   27.63  0.001563  ( 0.023878 -0.022795 -0.021745)
 67:   1115.37   0.022145  111.91  0.006196  (-0.012065 -0.014028 -0.076508)
 68:   1117.25   0.002195   11.10  0.000613  (-0.016794 -0.007795 -0.016445)
 69:   1122.27   0.008027   40.57  0.002232  (-0.034485 -0.017269 -0.027289)
 70:   1126.47   0.000868    4.38  0.000240  (-0.011848 -0.005190  0.008546)
 71:   1149.23   0.003542   17.90  0.000962  (-0.024874 -0.015110 -0.010716)
 72:   1152.78   0.001290    6.52  0.000349  (-0.018161 -0.001210 -0.004245)
 73:   1187.42   0.001474    7.45  0.000387  (-0.011139 -0.013651  0.008773)
 74:   1193.55   0.000846    4.27  0.000221  (-0.008871 -0.011361 -0.003652)
 75:   1221.29   0.000241    1.22  0.000061  (-0.001916 -0.000409  0.007592)
 76:   1269.78   0.000343    1.74  0.000084  ( 0.002806  0.001442 -0.008627)
 77:   1295.02   0.004841   24.46  0.001167  (-0.009467 -0.023934  0.022453)
 78:   1320.97   0.008643   43.68  0.002042  ( 0.024187  0.024306  0.029428)
 79:   1330.47   0.000327    1.65  0.000077  ( 0.004704  0.001076 -0.007302)
 80:   1345.17   0.000575    2.91  0.000133  ( 0.006564  0.009477 -0.000696)
 81:   1351.79   0.002482   12.54  0.000573  (-0.013424 -0.012989  0.014971)
 82:   1354.14   0.121953  616.30  0.028104  (-0.106583 -0.086356 -0.096368)
 83:   1356.20   0.000280    1.42  0.000065  (-0.002061 -0.002810 -0.007239)
 84:   1361.06   0.118284  597.76  0.027120  (-0.081466  0.004830  0.143039)
 85:   1368.97   0.000213    1.07  0.000048  (-0.006476 -0.001175 -0.002268)
 86:   1394.78   0.000330    1.67  0.000074  (-0.002176  0.000495 -0.008298)
 87:   1409.31   0.001013    5.12  0.000224  ( 0.002683 -0.010544  0.010288)
 88:   1418.95   0.023860  120.58  0.005248  (-0.011989 -0.047990  0.052922)
 89:   1436.76   0.104947  530.36  0.022795  (-0.125915  0.051936 -0.065135)
 90:   1437.21   0.021733  109.83  0.004719  (-0.064206  0.002160 -0.024331)
 91:   1453.21   0.002471   12.49  0.000531  (-0.010375  0.015406 -0.013628)
 92:   1463.53   0.009387   47.44  0.002001  (-0.011799  0.028622 -0.032296)
 93:   1469.79   0.005143   25.99  0.001092  ( 0.013693  0.005397  0.029587)
 94:   1471.45   0.003190   16.12  0.000677  (-0.010308 -0.018222 -0.015435)
 95:   1483.47   0.001378    6.96  0.000290  (-0.001416 -0.010188 -0.013566)
 96:   1484.48   0.007548   38.15  0.001587  ( 0.035026 -0.010980 -0.015472)
 97:   1497.20   0.003851   19.46  0.000803  (-0.012511  0.001883  0.025351)
 98:   1509.04   0.021008  106.17  0.004344  ( 0.058180 -0.013491 -0.027883)
 99:   1542.30   0.106926  540.36  0.021635  ( 0.145368 -0.005318 -0.021794)
100:   1564.31   0.010750   54.33  0.002145  (-0.032858 -0.021502  0.024548)
101:   1611.70   0.001682    8.50  0.000326  (-0.010948  0.007886  0.011984)
102:   1648.16   0.000125    0.63  0.000024  ( 0.003894 -0.001609  0.002451)
103:   1689.38   0.012210   61.71  0.002256  ( 0.023511 -0.040670 -0.006979)
104:   2086.08   0.783032  3957.12  0.117136  ( 0.000095  0.032977 -0.340660)
105:   2922.38   0.008147   41.17  0.000870  ( 0.013900 -0.025947  0.001880)
106:   2992.85   0.004185   21.15  0.000436  ( 0.002780  0.013972  0.015278)
107:   3025.93   0.009144   46.21  0.000943  (-0.011107  0.025959 -0.012075)
108:   3034.86   0.006386   32.27  0.000657  (-0.006927 -0.023105 -0.008652)
109:   3065.82   0.003620   18.29  0.000368  (-0.008176  0.004842  0.016678)
110:   3073.24   0.007070   35.73  0.000718  ( 0.000121  0.000719  0.026785)
111:   3088.86   0.008199   41.43  0.000828  ( 0.027356 -0.008807 -0.001537)
112:   3096.59   0.006450   32.60  0.000650  (-0.001250 -0.014449 -0.020969)
113:   3107.91   0.002427   12.27  0.000244  ( 0.013305  0.000205  0.008163)
114:   3122.15   0.003567   18.02  0.000356  (-0.005063 -0.018176  0.000708)
115:   3124.17   0.005292   26.74  0.000529  ( 0.022465  0.004833 -0.000760)
116:   3188.40   0.001619    8.18  0.000158  ( 0.011435 -0.001317 -0.005096)
117:   3194.58   0.002466   12.46  0.000241  ( 0.013591  0.005164 -0.005433)
118:   3205.77   0.000972    4.91  0.000095  (-0.003767  0.004053  0.008002)
119:   3233.58   0.000812    4.11  0.000078  ( 0.005771  0.003180  0.005915)
120:   3237.49   0.001168    5.90  0.000113  ( 0.004277 -0.002466 -0.009394)
121:   3456.70   0.009949   50.28  0.000898  ( 0.011387 -0.025089 -0.011792)
122:   3786.98   0.007897   39.91  0.000651  ( 0.015632 -0.019970  0.002752)

* The epsilon (eps) is given for a Dirac delta lineshape.
** The dipole moment derivative (T) already includes vibrational overlap.

The first frequency considered to be a vibration is 7
The total number of vibrations considered is 116


--------------------------
THERMOCHEMISTRY AT 298.15K
--------------------------

Temperature         ... 298.15 K
Pressure            ... 1.00 atm
Total Mass          ... 299.31 AMU

Throughout the following assumptions are being made:
  (1) The electronic state is orbitally nondegenerate
      but the spin degeneracy is treated
  (2) There are no thermally accessible electronically excited states
  (3) Hindered rotations indicated by low frequency modes are not
      treated as such but are treated as vibrations and this may
      cause some error
  (4) All equations used are the standard statistical mechanics
      equations for an ideal gas
  (5) All vibrations are strictly harmonic

freq.      13.54  E(vib)   ...       0.57 
freq.      21.00  E(vib)   ...       0.56 
freq.      28.88  E(vib)   ...       0.55 
freq.      41.41  E(vib)   ...       0.54 
freq.      43.47  E(vib)   ...       0.53 
freq.      61.45  E(vib)   ...       0.51 
freq.      71.85  E(vib)   ...       0.50 
freq.      83.76  E(vib)   ...       0.48 
freq.      86.95  E(vib)   ...       0.48 
freq.     100.92  E(vib)   ...       0.46 
freq.     104.57  E(vib)   ...       0.46 
freq.     155.97  E(vib)   ...       0.40 
freq.     173.70  E(vib)   ...       0.38 
freq.     180.13  E(vib)   ...       0.37 
freq.     211.07  E(vib)   ...       0.34 
freq.     230.58  E(vib)   ...       0.32 
freq.     239.73  E(vib)   ...       0.31 
freq.     258.87  E(vib)   ...       0.30 
freq.     297.65  E(vib)   ...       0.27 
freq.     306.45  E(vib)   ...       0.26 
freq.     339.43  E(vib)   ...       0.23 
freq.     351.67  E(vib)   ...       0.23 
freq.     374.03  E(vib)   ...       0.21 
freq.     389.37  E(vib)   ...       0.20 
freq.     406.24  E(vib)   ...       0.19 
freq.     414.92  E(vib)   ...       0.19 
freq.     435.32  E(vib)   ...       0.17 
freq.     462.70  E(vib)   ...       0.16 
freq.     490.05  E(vib)   ...       0.15 
freq.     519.11  E(vib)   ...       0.13 
freq.     537.92  E(vib)   ...       0.12 
freq.     589.55  E(vib)   ...       0.10 
freq.     617.14  E(vib)   ...       0.09 
freq.     638.50  E(vib)   ...       0.09 
freq.     656.93  E(vib)   ...       0.08 
freq.     666.51  E(vib)   ...       0.08 
freq.     699.85  E(vib)   ...       0.07 
freq.     716.35  E(vib)   ...       0.07 
freq.     767.19  E(vib)   ...       0.06 
freq.     787.81  E(vib)   ...       0.05 
freq.     812.96  E(vib)   ...       0.05 
freq.     822.03  E(vib)   ...       0.05 
freq.     826.07  E(vib)   ...       0.04 
freq.     838.90  E(vib)   ...       0.04 
freq.     877.36  E(vib)   ...       0.04 
freq.     890.03  E(vib)   ...       0.04 
freq.     897.34  E(vib)   ...       0.03 
freq.     900.89  E(vib)   ...       0.03 
freq.     926.39  E(vib)   ...       0.03 
freq.     939.04  E(vib)   ...       0.03 
freq.     956.69  E(vib)   ...       0.03 
freq.     981.28  E(vib)   ...       0.02 
freq.     995.42  E(vib)   ...       0.02 
freq.    1001.42  E(vib)   ...       0.02 
freq.    1023.86  E(vib)   ...       0.02 
freq.    1033.69  E(vib)   ...       0.02 
freq.    1051.66  E(vib)   ...       0.02 
freq.    1061.03  E(vib)   ...       0.02 
freq.    1074.17  E(vib)   ...       0.02 
freq.    1092.09  E(vib)   ...       0.02 
freq.    1115.37  E(vib)   ...       0.01 
freq.    1117.25  E(vib)   ...       0.01 
freq.    1122.27  E(vib)   ...       0.01 
freq.    1126.47  E(vib)   ...       0.01 
freq.    1149.23  E(vib)   ...       0.01 
freq.    1152.78  E(vib)   ...       0.01 
freq.    1187.42  E(vib)   ...       0.01 
freq.    1193.55  E(vib)   ...       0.01 
freq.    1221.29  E(vib)   ...       0.01 
freq.    1269.78  E(vib)   ...       0.01 
freq.    1295.02  E(vib)   ...       0.01 
freq.    1320.97  E(vib)   ...       0.01 
freq.    1330.47  E(vib)   ...       0.01 
freq.    1345.17  E(vib)   ...       0.01 
freq.    1351.79  E(vib)   ...       0.01 
freq.    1354.14  E(vib)   ...       0.01 
freq.    1356.20  E(vib)   ...       0.01 
freq.    1361.06  E(vib)   ...       0.01 
freq.    1368.97  E(vib)   ...       0.01 
freq.    1394.78  E(vib)   ...       0.00 
freq.    1409.31  E(vib)   ...       0.00 
freq.    1418.95  E(vib)   ...       0.00 
freq.    1436.76  E(vib)   ...       0.00 
freq.    1437.21  E(vib)   ...       0.00 
freq.    1453.21  E(vib)   ...       0.00 
freq.    1463.53  E(vib)   ...       0.00 
freq.    1469.79  E(vib)   ...       0.00 
freq.    1471.45  E(vib)   ...       0.00 
freq.    1483.47  E(vib)   ...       0.00 
freq.    1484.48  E(vib)   ...       0.00 
freq.    1497.20  E(vib)   ...       0.00 
freq.    1509.04  E(vib)   ...       0.00 
freq.    1542.30  E(vib)   ...       0.00 
freq.    1564.31  E(vib)   ...       0.00 
freq.    1611.70  E(vib)   ...       0.00 
freq.    1648.16  E(vib)   ...       0.00 
freq.    1689.38  E(vib)   ...       0.00 
freq.    2086.08  E(vib)   ...       0.00 
freq.    2922.38  E(vib)   ...       0.00 
freq.    2992.85  E(vib)   ...       0.00 
freq.    3025.93  E(vib)   ...       0.00 
freq.    3034.86  E(vib)   ...       0.00 
freq.    3065.82  E(vib)   ...       0.00 
freq.    3073.24  E(vib)   ...       0.00 
freq.    3088.86  E(vib)   ...       0.00 
freq.    3096.59  E(vib)   ...       0.00 
freq.    3107.91  E(vib)   ...       0.00 
freq.    3122.15  E(vib)   ...       0.00 
freq.    3124.17  E(vib)   ...       0.00 
freq.    3188.40  E(vib)   ...       0.00 
freq.    3194.58  E(vib)   ...       0.00 
freq.    3205.77  E(vib)   ...       0.00 
freq.    3233.58  E(vib)   ...       0.00 
freq.    3237.49  E(vib)   ...       0.00 
freq.    3456.70  E(vib)   ...       0.00 
freq.    3786.98  E(vib)   ...       0.00 

------------
INNER ENERGY
------------

The inner energy is: U= E(el) + E(ZPE) + E(vib) + E(rot) + E(trans)
    E(el)   - is the total energy from the electronic structure calculation
              = E(kin-el) + E(nuc-el) + E(el-el) + E(nuc-nuc)
    E(ZPE)  - the the zero temperature vibrational energy from the frequency calculation
    E(vib)  - the the finite temperature correction to E(ZPE) due to population
              of excited vibrational states
    E(rot)  - is the rotational thermal energy
    E(trans)- is the translational thermal energy

Summary of contributions to the inner energy U:
Electronic energy                ...  -1047.47561424 Eh
Zero point energy                ...      0.32428215 Eh     203.49 kcal/mol
Thermal vibrational correction   ...      0.01925061 Eh      12.08 kcal/mol
Thermal rotational correction    ...      0.00141627 Eh       0.89 kcal/mol
Thermal translational correction ...      0.00141627 Eh       0.89 kcal/mol
-----------------------------------------------------------------------
Total thermal energy                  -1047.12924893 Eh


Summary of corrections to the electronic energy:
(perhaps to be used in another calculation)
Total thermal correction                  0.02208315 Eh      13.86 kcal/mol
Non-thermal (ZPE) correction              0.32428215 Eh     203.49 kcal/mol
-----------------------------------------------------------------------
Total correction                          0.34636530 Eh     217.35 kcal/mol


--------
ENTHALPY
--------

The enthalpy is H = U + kB*T
                kB is Boltzmann's constant
Total free energy                 ...  -1047.12924893 Eh 
Thermal Enthalpy correction       ...      0.00094421 Eh       0.59 kcal/mol
-----------------------------------------------------------------------
Total Enthalpy                    ...  -1047.12830472 Eh


Note: Only C1 symmetry has been detected, increase convergence thresholds 
      if your molecule has a higher symmetry. Symmetry factor of 1.0 is   
      used for the rotational entropy correction. 
 

Note: Rotational entropy computed according to Herzberg 
Infrared and Raman Spectra, Chapter V,1, Van Nostrand Reinhold, 1945 
Point Group:  C1, Symmetry Number:   1  
Rotational constants in cm-1:     0.017600     0.004368     0.003770 

Vibrational entropy computed according to the QRRHO of S. Grimme
Chem.Eur.J. 2012 18 9955


-------
ENTROPY
-------

The entropy contributions are T*S = T*(S(el)+S(vib)+S(rot)+S(trans))
     S(el)   - electronic entropy
     S(vib)  - vibrational entropy
     S(rot)  - rotational entropy
     S(trans)- translational entropy
The entropies will be listed as multiplied by the temperature to get
units of energy

Electronic entropy                ...      0.00065446 Eh      0.41 kcal/mol
Vibrational entropy               ...      0.03524180 Eh     22.11 kcal/mol
Rotational entropy                ...      0.01661764 Eh     10.43 kcal/mol
Translational entropy             ...      0.02042392 Eh     12.82 kcal/mol
-----------------------------------------------------------------------
Final entropy term                ...      0.07293782 Eh     45.77 kcal/mol

In case the symmetry of your molecule has not been determined correctly
or in case you have a reason to use a different symmetry number we print 
out the resulting rotational entropy values for sn=1,12 :
 --------------------------------------------------------
|  sn= 1 | S(rot)=       0.01661764 Eh     10.43 kcal/mol|
|  sn= 2 | S(rot)=       0.01596318 Eh     10.02 kcal/mol|
|  sn= 3 | S(rot)=       0.01558035 Eh      9.78 kcal/mol|
|  sn= 4 | S(rot)=       0.01530872 Eh      9.61 kcal/mol|
|  sn= 5 | S(rot)=       0.01509804 Eh      9.47 kcal/mol|
|  sn= 6 | S(rot)=       0.01492589 Eh      9.37 kcal/mol|
|  sn= 7 | S(rot)=       0.01478035 Eh      9.27 kcal/mol|
|  sn= 8 | S(rot)=       0.01465427 Eh      9.20 kcal/mol|
|  sn= 9 | S(rot)=       0.01454306 Eh      9.13 kcal/mol|
|  sn=10 | S(rot)=       0.01444358 Eh      9.06 kcal/mol|
|  sn=11 | S(rot)=       0.01435359 Eh      9.01 kcal/mol|
|  sn=12 | S(rot)=       0.01427143 Eh      8.96 kcal/mol|
 --------------------------------------------------------


-------------------
GIBBS FREE ENERGY
-------------------

The Gibbs free energy is G = H - T*S

Total enthalpy                    ...  -1047.12830472 Eh 
Total entropy correction          ...     -0.07293782 Eh    -45.77 kcal/mol
-----------------------------------------------------------------------
Final Gibbs free energy         ...  -1047.20124254 Eh

For completeness - the Gibbs free energy minus the electronic energy
G-E(el)                           ...      0.27437170 Eh    172.17 kcal/mol



Timings for individual modules:

Sum of individual times         ...     7996.473 sec (= 133.275 min)
GTO integral calculation        ...       12.297 sec (=   0.205 min)   0.2 %
SCF iterations                  ...      333.456 sec (=   5.558 min)   4.2 %
SCF Gradient evaluation         ...       47.787 sec (=   0.796 min)   0.6 %
Numerical frequency calculation ...     7602.933 sec (= 126.716 min)  95.1 %
                             ****ORCA TERMINATED NORMALLY****
TOTAL RUN TIME: 0 days 2 hours 10 minutes 7 seconds 370 msec
