
                                        *****************
                                        * O   R   C   A *
                                        *****************

                                            #,                                       
                                            ###                                      
                                            ####                                     
                                            #####                                    
                                            ######                                   
                                           ########,                                 
                                     ,,################,,,,,                         
                               ,,#################################,,                 
                          ,,##########################################,,             
                       ,#########################################, ''#####,          
                    ,#############################################,,   '####,        
                  ,##################################################,,,,####,       
                ,###########''''           ''''###############################       
              ,#####''   ,,,,##########,,,,          '''####'''          '####       
            ,##' ,,,,###########################,,,                        '##       
           ' ,,###''''                  '''############,,,                           
         ,,##''                                '''############,,,,        ,,,,,,###''
      ,#''                                            '''#######################'''  
     '                                                          ''''####''''         
             ,#######,   #######,   ,#######,      ##                                
            ,#'     '#,  ##    ##  ,#'     '#,    #''#        ######   ,####,        
            ##       ##  ##   ,#'  ##            #'  '#       #        #'  '#        
            ##       ##  #######   ##           ,######,      #####,   #    #        
            '#,     ,#'  ##    ##  '#,     ,#' ,#      #,         ##   #,  ,#        
             '#######'   ##     ##  '#######'  #'      '#     #####' # '####'        



                  #######################################################
                  #                        -***-                        #
                  #          Department of theory and spectroscopy      #
                  #    Directorship and core code : Frank Neese         #
                  #        Max Planck Institute fuer Kohlenforschung    #
                  #                Kaiser Wilhelm Platz 1               #
                  #                 D-45470 Muelheim/Ruhr               #
                  #                      Germany                        #
                  #                                                     #
                  #                  All rights reserved                #
                  #                        -***-                        #
                  #######################################################


                         Program Version 5.0.0 -  RELEASE  -
                                (SVN: $Rev: 19529$)
                ($Date: 2021-06-28 11:36:33 +0200 (Mo, 28 Jun 2021) $)


 With contributions from (in alphabetic order):
   Daniel Aravena         : Magnetic Suceptibility
   Michael Atanasov       : Ab Initio Ligand Field Theory (pilot matlab implementation)
   Alexander A. Auer      : GIAO ZORA, VPT2 properties, NMR spectrum
   Ute Becker             : Parallelization
   Giovanni Bistoni       : ED, misc. LED, open-shell LED, HFLD
   Martin Brehm           : Molecular dynamics
   Dmytro Bykov           : SCF Hessian
   Vijay G. Chilkuri      : MRCI spin determinant printing, contributions to CSF-ICE
   Dipayan Datta          : RHF DLPNO-CCSD density
   Achintya Kumar Dutta   : EOM-CC, STEOM-CC
   Dmitry Ganyushin       : Spin-Orbit,Spin-Spin,Magnetic field MRCI
   Miquel Garcia          : C-PCM Hessian, Gaussian charge scheme
   Yang Guo               : DLPNO-NEVPT2, F12-NEVPT2, CIM, IAO-localization
   Andreas Hansen         : Spin unrestricted coupled pair/coupled cluster methods
   Benjamin Helmich-Paris : MC-RPA, TRAH-SCF, COSX integrals
   Lee Huntington         : MR-EOM, pCC
   Robert Izsak           : Overlap fitted RIJCOSX, COSX-SCS-MP3, EOM
   Marcus Kettner         : VPT2
   Christian Kollmar      : KDIIS, OOCD, Brueckner-CCSD(T), CCSD density, CASPT2, CASPT2-K
   Simone Kossmann        : Meta GGA functionals, TD-DFT gradient, OOMP2, MP2 Hessian
   Martin Krupicka        : Initial AUTO-CI
   Lucas Lang             : DCDCAS
   Marvin Lechner         : AUTO-CI (C++ implementation), FIC-MRCC
   Dagmar Lenk            : GEPOL surface, SMD
   Dimitrios Liakos       : Extrapolation schemes; Compound Job, initial MDCI parallelization
   Dimitrios Manganas     : Further ROCIS development; embedding schemes
   Dimitrios Pantazis     : SARC Basis sets
   Anastasios Papadopoulos: AUTO-CI, single reference methods and gradients
   Taras Petrenko         : DFT Hessian,TD-DFT gradient, ASA, ECA, R-Raman, ABS, FL, XAS/XES, NRVS
   Peter Pinski           : DLPNO-MP2, DLPNO-MP2 Gradient
   Christoph Reimann      : Effective Core Potentials
   Marius Retegan         : Local ZFS, SOC
   Christoph Riplinger    : Optimizer, TS searches, QM/MM, DLPNO-CCSD(T), (RO)-DLPNO pert. Triples
   Tobias Risthaus        : Range-separated hybrids, TD-DFT gradient, RPA, STAB
   Michael Roemelt        : Original ROCIS implementation
   Masaaki Saitow         : Open-shell DLPNO-CCSD energy and density
   Barbara Sandhoefer     : DKH picture change effects
   Avijit Sen             : IP-ROCIS
   Kantharuban Sivalingam : CASSCF convergence, NEVPT2, FIC-MRCI
   Bernardo de Souza      : ESD, SOC TD-DFT
   Georgi Stoychev        : AutoAux, RI-MP2 NMR
   Willem Van den Heuvel  : Paramagnetic NMR
   Boris Wezisla          : Elementary symmetry handling
   Frank Wennmohs         : Technical directorship


 We gratefully acknowledge several colleagues who have allowed us to
 interface, adapt or use parts of their codes:
   Stefan Grimme, W. Hujo, H. Kruse, P. Pracht,  : VdW corrections, initial TS optimization,
                  C. Bannwarth, S. Ehlert          DFT functionals, gCP, sTDA/sTD-DF
   Ed Valeev, F. Pavosevic, A. Kumar             : LibInt (2-el integral package), F12 methods
   Garnet Chan, S. Sharma, J. Yang, R. Olivares  : DMRG
   Ulf Ekstrom                                   : XCFun DFT Library
   Mihaly Kallay                                 : mrcc  (arbitrary order and MRCC methods)
   Jiri Pittner, Ondrej Demel                    : Mk-CCSD
   Frank Weinhold                                : gennbo (NPA and NBO analysis)
   Christopher J. Cramer and Donald G. Truhlar   : smd solvation model
   Lars Goerigk                                  : TD-DFT with DH, B97 family of functionals
   V. Asgeirsson, H. Jonsson                     : NEB implementation
   FAccTs GmbH                                   : IRC, NEB, NEB-TS, DLPNO-Multilevel, CI-OPT
                                                   MM, QMMM, 2- and 3-layer-ONIOM, Crystal-QMMM,
                                                   LR-CPCM, SF, NACMEs, symmetry and pop. for TD-DFT,
                                                   nearIR, NL-DFT gradient (VV10), updates on ESD,
                                                   ML-optimized integration grids
   S Lehtola, MJT Oliveira, MAL Marques          : LibXC Library
   Liviu Ungur et al                             : ANISO software


 Your calculation uses the libint2 library for the computation of 2-el integrals
 For citations please refer to: http://libint.valeyev.net

 Your ORCA version has been built with support for libXC version: 5.1.0
 For citations please refer to: https://tddft.org/programs/libxc/

 This ORCA versions uses:
   CBLAS   interface :  Fast vector & matrix operations
   LAPACKE interface :  Fast linear algebra routines
   SCALAPACK package :  Parallel linear algebra routines
   Shared memory     :  Shared parallel matrices
   BLAS/LAPACK       :  OpenBLAS 0.3.15  USE64BITINT DYNAMIC_ARCH NO_AFFINITY Sandybridge SINGLE_THREADED
        Core in use  :  Sandybridge
   Copyright (c) 2011-2014, The OpenBLAS Project


Your calculation utilizes the atom-pairwise dispersion correction
with the Becke-Johnson damping scheme (D3BJ)
Cite in your paper:
S.Grimme, S.Ehrlich, L.Goerigk, J Comput Chem, (2011), 32, 1456–1465 
S.Grimme, J.Antony, S.Ehrlich and H.Krieg, J.Chem.Phys., 132, (2010), 154104 
   

================================================================================

----- Orbital basis set information -----
Your calculation utilizes the basis: def2-TZVP
   F. Weigend and R. Ahlrichs, Phys. Chem. Chem. Phys. 7, 3297 (2005).

----- AuxJ basis set information -----
Your calculation utilizes the auxiliary basis: def2/J
   F. Weigend, Phys. Chem. Chem. Phys. 8, 1057 (2006).

================================================================================
                                        WARNINGS
                       Please study these warnings very carefully!
================================================================================


WARNING: Geometry Optimization
  ===> : Switching off AutoStart
         For restart on a previous wavefunction, please use MOREAD

INFO   : the flag for use of the SHARK integral package has been found!

================================================================================
                                       INPUT FILE
================================================================================
NAME = /home/rudenko/mopac_kie/for_orca/CH3NO2_H2O_near/orca/orca_end/end.inp
|  1> !  opt B3LYP def2-TZVP CPCM D3 
|  2> %pal nprocs 18 end
|  3> %cpcm epsilon 78.4 end 
|  4> *xyz 0 1 
|  5> C   0.56394 -0.78932 0.40612
|  6> H   0.50232 -1.71486 -0.14036
|  7> H   0.65864 0.10677 -0.18496
|  8> H   2.40252 -0.72932 0.31126
|  9> N   0.24849 -0.73365 1.69824
| 10> O   0.19979 0.36 2.31543
| 11> O   0.00763 -1.77481 2.3584
| 12> H   3.09773 -2.16866 0.18438
| 13> O   3.25667 -1.26342 0.64883
| 14> H   3.99311 -0.84927 0.06192
| 15> *
| 16> 
| 17>                          ****END OF INPUT****
================================================================================

                       *****************************
                       * Geometry Optimization Run *
                       *****************************

Geometry optimization settings:
Update method            Update   .... BFGS
Choice of coordinates    CoordSys .... Z-matrix Internals
Initial Hessian          InHess   .... Almoef's Model

Convergence Tolerances:
Energy Change            TolE     ....  5.0000e-06 Eh
Max. Gradient            TolMAXG  ....  3.0000e-04 Eh/bohr
RMS Gradient             TolRMSG  ....  1.0000e-04 Eh/bohr
Max. Displacement        TolMAXD  ....  4.0000e-03 bohr
RMS Displacement         TolRMSD  ....  2.0000e-03 bohr
Strict Convergence                ....  False
------------------------------------------------------------------------------
                        ORCA OPTIMIZATION COORDINATE SETUP
------------------------------------------------------------------------------

The optimization will be done in new redundant internal coordinates
Making redundant internal coordinates   ...  (new redundants) done
Evaluating the initial hessian          ...  (Almloef) done
Evaluating the coordinates              ...  done
Calculating the B-matrix                .... done
Calculating the G-matrix                .... done
Diagonalizing the G-matrix              .... done
The first mode is                       ....   34
The number of degrees of freedom        ....   24

    -----------------------------------------------------------------
                    Redundant Internal Coordinates


    -----------------------------------------------------------------
         Definition                    Initial Value    Approx d2E/dq
    -----------------------------------------------------------------
      1. B(H   1,C   0)                  1.0766         0.378274   
      2. B(H   2,C   0)                  1.0776         0.376819   
      3. B(H   3,H   2)                  1.9966         0.002466   
      4. B(H   3,H   1)                  2.1877         0.001222   
      5. B(H   3,C   0)                  1.8420         0.022733   
      6. B(N   4,C   0)                  1.3312         0.694439   
      7. B(O   5,N   4)                  1.2567         0.817785   
      8. B(O   6,N   4)                  1.2561         0.819612   
      9. B(O   8,H   7)                  1.0298         0.402389   
     10. B(O   8,H   3)                  1.0624         0.356881   
     11. B(H   9,O   8)                  1.0288         0.403906   
     12. A(H   2,C   0,N   4)          121.2268         0.360314   
     13. A(H   1,C   0,N   4)          121.0024         0.360551   
     14. A(H   1,C   0,H   2)          116.1977         0.295209   
     15. A(H   1,C   0,H   3)           93.3820         0.198218   
     16. A(H   3,C   0,N   4)          106.5674         0.232700   
     17. A(H   2,C   0,H   3)           81.7759         0.198122   
     18. A(C   0,H   1,H   3)           57.1948         0.134065   
     19. A(C   0,H   2,H   3)           65.9350         0.141780   
     20. A(H   1,H   3,O   8)          122.5083         0.132957   
     21. A(C   0,H   3,O   8)          140.3284         0.195532   
     22. A(C   0,H   3,H   2)           32.2891         0.116955   
     23. A(H   1,H   3,H   2)           51.5885         0.100535   
     24. A(H   2,H   3,O   8)          172.5988         0.140527   
     25. A(C   0,H   3,H   1)           29.4233         0.112848   
     26. A(O   5,N   4,O   6)          117.1149         0.467492   
     27. A(C   0,N   4,O   6)          121.3919         0.456829   
     28. A(C   0,N   4,O   5)          121.4835         0.456644   
     29. A(H   3,O   8,H   7)          100.0511         0.290770   
     30. A(H   7,O   8,H   9)          101.9506         0.296503   
     31. A(H   3,O   8,H   9)          101.0618         0.290942   
     32. D(H   3,H   1,C   0,N   4)   -111.6390         0.136992   
     33. D(H   3,H   1,C   0,H   2)     82.4943         0.136992   
     34. D(H   3,H   2,C   0,N   4)    104.4358         0.135705   
     35. D(H   3,H   2,C   0,H   1)    -89.7317         0.135705   
     36. D(O   8,H   3,H   1,C   0)    136.7221         0.001515   
     37. D(O   8,H   3,C   0,N   4)     58.8684         0.001802   
     38. D(O   8,H   3,C   0,H   1)    -64.9044         0.001802   
     39. D(H   2,H   3,C   0,N   4)   -120.2321         0.001802   
     40. D(H   1,H   3,C   0,N   4)    123.7728         0.001802   
     41. D(H   1,H   3,C   0,H   2)   -115.9951         0.001802   
     42. D(H   2,H   3,H   1,C   0)    -37.7901         0.001515   
     43. D(O   8,H   3,C   0,H   2)    179.1005         0.001802   
     44. D(O   8,H   3,H   2,C   0)     -4.4621         0.001560   
     45. D(H   1,H   3,H   2,C   0)     34.2997         0.001560   
     46. D(H   2,H   3,C   0,H   1)    115.9951         0.001802   
     47. D(O   6,N   4,C   0,H   3)    -96.8037         0.043365   
     48. D(O   6,N   4,C   0,H   2)    172.8621         0.043365   
     49. D(O   6,N   4,C   0,H   1)      7.7078         0.043365   
     50. D(O   5,N   4,C   0,H   3)     82.0329         0.043365   
     51. D(O   5,N   4,C   0,H   2)     -8.3013         0.043365   
     52. D(O   5,N   4,C   0,H   1)   -173.4556         0.043365   
     53. D(H   9,O   8,H   3,H   1)    134.7090         0.161631   
     54. D(H   9,O   8,H   3,C   0)    166.5486         0.161631   
     55. D(H   7,O   8,H   3,H   2)     65.8672         0.161631   
     56. D(H   7,O   8,H   3,H   1)     30.2949         0.161631   
     57. D(H   9,O   8,H   3,H   2)    170.2813         0.161631   
     58. D(H   7,O   8,H   3,C   0)     62.1345         0.161631   
    -----------------------------------------------------------------

Number of atoms                         .... 10
Number of degrees of freedom            .... 58

         *************************************************************
         *                GEOMETRY OPTIMIZATION CYCLE   1            *
         *************************************************************
---------------------------------
CARTESIAN COORDINATES (ANGSTROEM)
---------------------------------
  C      0.563940   -0.789320    0.406120
  H      0.502320   -1.714860   -0.140360
  H      0.658640    0.106770   -0.184960
  H      2.402520   -0.729320    0.311260
  N      0.248490   -0.733650    1.698240
  O      0.199790    0.360000    2.315430
  O      0.007630   -1.774810    2.358400
  H      3.097730   -2.168660    0.184380
  O      3.256670   -1.263420    0.648830
  H      3.993110   -0.849270    0.061920

----------------------------
CARTESIAN COORDINATES (A.U.)
----------------------------
  NO LB      ZA    FRAG     MASS         X           Y           Z
   0 C     6.0000    0    12.011    1.065692   -1.491599    0.767456
   1 H     1.0000    0     1.008    0.949247   -3.240616   -0.265242
   2 H     1.0000    0     1.008    1.244649    0.201766   -0.349524
   3 H     1.0000    0     1.008    4.540105   -1.378215    0.588196
   4 N     7.0000    0    14.007    0.469578   -1.386398    3.209209
   5 O     8.0000    0    15.999    0.377548    0.680301    4.375529
   6 O     8.0000    0    15.999    0.014419   -3.353905    4.456730
   7 H     1.0000    0     1.008    5.853861   -4.098173    0.348428
   8 O     8.0000    0    15.999    6.154214   -2.387518    1.226111
   9 H     1.0000    0     1.008    7.545884   -1.604888    0.117012

--------------------------------
INTERNAL COORDINATES (ANGSTROEM)
--------------------------------
 C      0   0   0     0.000000000000     0.00000000     0.00000000
 H      1   0   0     1.076597281438     0.00000000     0.00000000
 H      1   2   0     1.077646020036   116.19769587     0.00000000
 H      1   2   3     1.842002941366    93.38195165   277.50568191
 N      1   2   3     1.331233242449   121.00237280   165.86666678
 O      5   1   2     1.256728096527   121.48354474   186.54440204
 O      5   1   2     1.256120579722   121.39185247     7.70776587
 H      4   1   2     1.603469711002   114.05392450   332.84415054
 O      8   4   1     1.029774336299    40.72445006   218.17253563
 H      9   8   4     1.028750428530   101.95062384   256.30870951

---------------------------
INTERNAL COORDINATES (A.U.)
---------------------------
 C      0   0   0     0.000000000000     0.00000000     0.00000000
 H      1   0   0     2.034474018442     0.00000000     0.00000000
 H      1   2   0     2.036455847179   116.19769587     0.00000000
 H      1   2   3     3.480881097059    93.38195165   277.50568191
 N      1   2   3     2.515666248600   121.00237280   165.86666678
 O      5   1   2     2.374871927240   121.48354474   186.54440204
 O      5   1   2     2.373723886856   121.39185247     7.70776587
 H      4   1   2     3.030118617831   114.05392450   332.84415054
 O      8   4   1     1.945991475346    40.72445006   218.17253563
 H      9   8   4     1.944056570075   101.95062384   256.30870951

---------------------
BASIS SET INFORMATION
---------------------
There are 4 groups of distinct atoms

 Group   1 Type C   : 11s6p2d1f contracted to 5s3p2d1f pattern {62111/411/11/1}
 Group   2 Type H   : 5s1p contracted to 3s1p pattern {311/1}
 Group   3 Type N   : 11s6p2d1f contracted to 5s3p2d1f pattern {62111/411/11/1}
 Group   4 Type O   : 11s6p2d1f contracted to 5s3p2d1f pattern {62111/411/11/1}

Atom   0C    basis set group =>   1
Atom   1H    basis set group =>   2
Atom   2H    basis set group =>   2
Atom   3H    basis set group =>   2
Atom   4N    basis set group =>   3
Atom   5O    basis set group =>   4
Atom   6O    basis set group =>   4
Atom   7H    basis set group =>   2
Atom   8O    basis set group =>   4
Atom   9H    basis set group =>   2
---------------------------------
AUXILIARY/J BASIS SET INFORMATION
---------------------------------
There are 4 groups of distinct atoms

 Group   1 Type C   : 12s5p4d2f1g contracted to 6s4p3d1f1g pattern {711111/2111/211/2/1}
 Group   2 Type H   : 5s2p1d contracted to 3s1p1d pattern {311/2/1}
 Group   3 Type N   : 12s5p4d2f1g contracted to 6s4p3d1f1g pattern {711111/2111/211/2/1}
 Group   4 Type O   : 12s5p4d2f1g contracted to 6s4p3d1f1g pattern {711111/2111/211/2/1}

Atom   0C    basis set group =>   1
Atom   1H    basis set group =>   2
Atom   2H    basis set group =>   2
Atom   3H    basis set group =>   2
Atom   4N    basis set group =>   3
Atom   5O    basis set group =>   4
Atom   6O    basis set group =>   4
Atom   7H    basis set group =>   2
Atom   8O    basis set group =>   4
Atom   9H    basis set group =>   2


           ************************************************************
           *        Program running with 18 parallel MPI-processes    *
           *              working on a common directory               *
           ************************************************************
------------------------------------------------------------------------------
                           ORCA GTO INTEGRAL CALCULATION
                           -- RI-GTO INTEGRALS CHOSEN --
------------------------------------------------------------------------------
------------------------------------------------------------------------------
                   ___                                                        
                  /   \      - P O W E R E D   B Y -                         
                 /     \                                                     
                 |  |  |   _    _      __       _____    __    __             
                 |  |  |  | |  | |    /  \     |  _  \  |  |  /  |          
                  \  \/   | |  | |   /    \    | | | |  |  | /  /          
                 / \  \   | |__| |  /  /\  \   | |_| |  |  |/  /          
                |  |  |   |  __  | /  /__\  \  |    /   |      \           
                |  |  |   | |  | | |   __   |  |    \   |  |\   \          
                \     /   | |  | | |  |  |  |  | |\  \  |  | \   \       
                 \___/    |_|  |_| |__|  |__|  |_| \__\ |__|  \__/        
                                                                              
                      - O R C A' S   B I G   F R I E N D -                    
                                      &                                       
                       - I N T E G R A L  F E E D E R -                       
                                                                              
 v1 FN, 2020, v2 2021                                                         
------------------------------------------------------------------------------


Reading SHARK input file /home/rudenko/mopac_kie/for_orca/CH3NO2_H2O_near/orca/orca_end/end.SHARKINP.tmp ... ok
----------------------
SHARK INTEGRAL PACKAGE
----------------------

Number of atoms                             ...     10
Number of basis functions                   ...    185
Number of shells                            ...     75
Maximum angular momentum                    ...      3
Integral batch strategy                     ... SHARK/LIBINT Hybrid
RI-J (if used) integral strategy            ... SPLIT-RIJ (Revised 2003 algorithm where possible)
Printlevel                                  ...      1
Contraction scheme used                     ... SEGMENTED contraction
Coulomb Range Separation                    ... NOT USED
Exchange Range Separation                   ... NOT USED
Finite Nucleus Model                        ... NOT USED
Auxiliary Coulomb fitting basis             ... AVAILABLE
   # of basis functions in Aux-J            ...    300
   # of shells in Aux-J                     ...    100
   Maximum angular momentum in Aux-J        ...      4
Auxiliary J/K fitting basis                 ... NOT available
Auxiliary Correlation fitting basis         ... NOT available
Auxiliary 'external' fitting basis          ... NOT available
Integral threshold                          ...     2.500000e-11
Primitive cut-off                           ...     2.500000e-12
Primitive pair pre-selection threshold      ...     2.500000e-12

Calculating pre-screening integrals         ... done (  0.1 sec) Dimension = 75
Organizing shell pair data                  ... done (  0.0 sec)
Shell pair information
Total number of shell pairs                 ...      2850
Shell pairs after pre-screening             ...      2635
Total number of primitive shell pairs       ...      8640
Primitive shell pairs kept                  ...      6173
          la=0 lb=0:    737 shell pairs
          la=1 lb=0:    755 shell pairs
          la=1 lb=1:    205 shell pairs
          la=2 lb=0:    363 shell pairs
          la=2 lb=1:    192 shell pairs
          la=2 lb=2:     52 shell pairs
          la=3 lb=0:    178 shell pairs
          la=3 lb=1:     93 shell pairs
          la=3 lb=2:     46 shell pairs
          la=3 lb=3:     14 shell pairs

Calculating one electron integrals          ... done (  0.0 sec)
Calculating RI/J V-Matrix + Cholesky decomp.... done (  0.0 sec)
Calculating Nuclear repulsion               ... done (  0.0 sec) ENN=    185.069094109390 Eh

SHARK setup successfully completed in   0.2 seconds

Maximum memory used throughout the entire GTOINT-calculation: 13.8 MB


           ************************************************************
           *        Program running with 18 parallel MPI-processes    *
           *              working on a common directory               *
           ************************************************************
-------------------------------------------------------------------------------
                                 ORCA SCF
-------------------------------------------------------------------------------

------------
SCF SETTINGS
------------
Hamiltonian:
 Density Functional     Method          .... DFT(GTOs)
 Exchange Functional    Exchange        .... B88
   X-Alpha parameter    XAlpha          ....  0.666667
   Becke's b parameter  XBeta           ....  0.004200
 Correlation Functional Correlation     .... LYP
 LDA part of GGA corr.  LDAOpt          .... VWN-5
 Gradients option       PostSCFGGA      .... off
 Hybrid DFT is turned on
   Fraction HF Exchange ScalHFX         ....  0.200000
   Scaling of DF-GGA-X  ScalDFX         ....  0.720000
   Scaling of DF-GGA-C  ScalDFC         ....  0.810000
   Scaling of DF-LDA-C  ScalLDAC        ....  1.000000
   Perturbative correction              ....  0.000000
   Density functional embedding theory  .... OFF
   NL short-range parameter             ....  4.800000
 RI-approximation to the Coulomb term is turned on
   Number of AuxJ basis functions       .... 300
   RIJ-COSX (HFX calculated with COS-X)).... on


General Settings:
 Integral files         IntName         .... /home/rudenko/mopac_kie/for_orca/CH3NO2_H2O_near/orca/orca_end/end
 Hartree-Fock type      HFTyp           .... RHF
 Total Charge           Charge          ....    0
 Multiplicity           Mult            ....    1
 Number of Electrons    NEL             ....   42
 Basis Dimension        Dim             ....  185
 Nuclear Repulsion      ENuc            ....    185.0690941094 Eh

Convergence Acceleration:
 DIIS                   CNVDIIS         .... on
   Start iteration      DIISMaxIt       ....    12
   Startup error        DIISStart       ....  0.200000
   # of expansion vecs  DIISMaxEq       ....     5
   Bias factor          DIISBfac        ....   1.050
   Max. coefficient     DIISMaxC        ....  10.000
 Trust-Rad. Augm. Hess. CNVTRAH         .... auto
   Auto Start mean grad. ratio tolernc. ....  1.125000
   Auto Start start iteration           ....    20
   Auto Start num. interpolation iter.  ....    10
   Max. Number of Micro iterations      ....    16
   Max. Number of Macro iterations      .... Maxiter - #DIIS iter
   Number of Davidson start vectors     ....     2
   Converg. threshold I  (grad. norm)   ....   1.000e-05
   Converg. threshold II (energy diff.) ....   1.000e-08
   Grad. Scal. Fac. for Micro threshold ....   0.100
   Minimum threshold for Micro iter.    ....   0.010
   NR start threshold (gradient norm)   ....   0.001
   Initial trust radius                 ....   0.400
   Minimum AH scaling param. (alpha)    ....   1.000
   Maximum AH scaling param. (alpha)    .... 1000.000
   Orbital update algorithm             .... Taylor
   White noise on init. David. guess    .... on
   Maximum white noise                  ....   0.010
   Quad. conv. algorithm                .... NR
 SOSCF                  CNVSOSCF        .... on
   Start iteration      SOSCFMaxIt      ....   150
   Startup grad/error   SOSCFStart      ....  0.003300
 Level Shifting         CNVShift        .... on
   Level shift para.    LevelShift      ....    0.2500
   Turn off err/grad.   ShiftErr        ....    0.0010
 Zerner damping         CNVZerner       .... off
 Static damping         CNVDamp         .... on
   Fraction old density DampFac         ....    0.7000
   Max. Damping (<1)    DampMax         ....    0.9800
   Min. Damping (>=0)   DampMin         ....    0.0000
   Turn off err/grad.   DampErr         ....    0.1000
 Fernandez-Rico         CNVRico         .... off

SCF Procedure:
 Maximum # iterations   MaxIter         ....   125
 SCF integral mode      SCFMode         .... Direct
   Integral package                     .... SHARK and LIBINT hybrid scheme
 Reset frequency        DirectResetFreq ....    20
 Integral Threshold     Thresh          ....  2.500e-11 Eh
 Primitive CutOff       TCut            ....  2.500e-12 Eh

Convergence Tolerance:
 Convergence Check Mode ConvCheckMode   .... Total+1el-Energy
 Convergence forced     ConvForced      .... 0
 Energy Change          TolE            ....  1.000e-08 Eh
 1-El. energy change                    ....  1.000e-05 Eh
 Orbital Gradient       TolG            ....  1.000e-05
 Orbital Rotation angle TolX            ....  1.000e-05
 DIIS Error             TolErr          ....  5.000e-07


Diagonalization of the overlap matrix:
Smallest eigenvalue                        ... 7.176e-04
Time for diagonalization                   ...    0.008 sec
Threshold for overlap eigenvalues          ... 1.000e-08
Number of eigenvalues below threshold      ... 0
Time for construction of square roots      ...    0.010 sec
Total time needed                          ...    0.019 sec

Time for model grid setup =    0.061 sec

------------------------------
INITIAL GUESS: MODEL POTENTIAL
------------------------------
Loading Hartree-Fock densities                     ... done
Calculating cut-offs                               ... done
Initializing the effective Hamiltonian             ... done
Setting up the integral package (SHARK)            ... done
Starting the Coulomb interaction                   ... done (   0.0 sec)
Reading the grid                                   ... done
Mapping shells                                     ... done
Starting the XC term evaluation                    ... done (   0.0 sec)
  promolecular density results
     # of electrons  =     41.998666925
     EX              =    -37.771108036
     EC              =     -1.463157849
     EX+EC           =    -39.234265884
Transforming the Hamiltonian                       ... done (   0.0 sec)
Diagonalizing the Hamiltonian                      ... done (   0.0 sec)
Back transforming the eigenvectors                 ... done (   0.0 sec)
Now organizing SCF variables                       ... done
                      ------------------
                      INITIAL GUESS DONE (   0.1 sec)
                      ------------------
-------------------
DFT GRID GENERATION
-------------------

General Integration Accuracy     IntAcc      ... 4.388
Radial Grid Type                 RadialGrid  ... OptM3 with GC (2021)
Angular Grid (max. ang.)         AngularGrid ... 4 (Lebedev-302)
Angular grid pruning method      GridPruning ... 4 (adaptive)
Weight generation scheme         WeightScheme... Becke
Basis function cutoff            BFCut       ... 1.0000e-11
Integration weight cutoff        WCut        ... 1.0000e-14
Angular grids for H and He will be reduced by one unit
Partially contracted basis set               ... off
Rotationally invariant grid construction     ... off

Total number of grid points                  ...    46751
Total number of batches                      ...      735
Average number of points per batch           ...       63
Average number of grid points per atom       ...     4675
Time for grid setup =    0.262 sec

--------------------
COSX GRID GENERATION
--------------------

GRIDX 1
-------
General Integration Accuracy     IntAcc      ... 3.816
Radial Grid Type                 RadialGrid  ... OptM3 with GC (2021)
Angular Grid (max. ang.)         AngularGrid ... 1 (Lebedev-50)
Angular grid pruning method      GridPruning ... 4 (adaptive)
Weight generation scheme         WeightScheme... Becke
Basis function cutoff            BFCut       ... 1.0000e-11
Integration weight cutoff        WCut        ... 1.0000e-14
Angular grids for H and He will be reduced by one unit
Partially contracted basis set               ... on
Rotationally invariant grid construction     ... off

Total number of grid points                  ...     5993
Total number of batches                      ...       98
Average number of points per batch           ...       61
Average number of grid points per atom       ...      599
UseSFitting                                  ... on

GRIDX 2
-------
General Integration Accuracy     IntAcc      ... 4.020
Radial Grid Type                 RadialGrid  ... OptM3 with GC (2021)
Angular Grid (max. ang.)         AngularGrid ... 2 (Lebedev-110)
Angular grid pruning method      GridPruning ... 4 (adaptive)
Weight generation scheme         WeightScheme... Becke
Basis function cutoff            BFCut       ... 1.0000e-11
Integration weight cutoff        WCut        ... 1.0000e-14
Angular grids for H and He will be reduced by one unit
Partially contracted basis set               ... on
Rotationally invariant grid construction     ... off

Total number of grid points                  ...    13159
Total number of batches                      ...      210
Average number of points per batch           ...       62
Average number of grid points per atom       ...     1316
UseSFitting                                  ... on

GRIDX 3
-------
General Integration Accuracy     IntAcc      ... 4.338
Radial Grid Type                 RadialGrid  ... OptM3 with GC (2021)
Angular Grid (max. ang.)         AngularGrid ... 3 (Lebedev-194)
Angular grid pruning method      GridPruning ... 4 (adaptive)
Weight generation scheme         WeightScheme... Becke
Basis function cutoff            BFCut       ... 1.0000e-11
Integration weight cutoff        WCut        ... 1.0000e-14
Angular grids for H and He will be reduced by one unit
Partially contracted basis set               ... on
Rotationally invariant grid construction     ... off

Total number of grid points                  ...    28981
Total number of batches                      ...      457
Average number of points per batch           ...       63
Average number of grid points per atom       ...     2898
UseSFitting                                  ... on

Time for X-Grid setup             =    0.207 sec


--------------------
CPCM SOLVATION MODEL
--------------------
CPCM parameters:
  Epsilon                                         ...      78.4000
  Refrac                                          ...       1.3300
  Rsolv                                           ...       1.3000
  Surface type                                    ... GAUSSIAN VDW
  Epsilon function type                           ...         CPCM
Radii:
 Radius for C  used is    3.8550 Bohr (=   2.0400 Ang.)
 Radius for H  used is    2.4944 Bohr (=   1.3200 Ang.)
 Radius for N  used is    3.5149 Bohr (=   1.8600 Ang.)
 Radius for O  used is    3.4469 Bohr (=   1.8240 Ang.)
Calculating surface                               ...        done! (  0.0s)
GEPOL surface points                              ...          655
GEPOL Volume                                      ...     663.0520
GEPOL Surface-area                                ...     445.7039
Calculating surface distance matrix               ...        done! (  0.0s)
Performing Cholesky decomposition & store         ...        done! (  0.0s)
Overall time for CPCM initialization              ...                 0.0s
--------------
SCF ITERATIONS
--------------
ITER       Energy         Delta-E        Max-DP      RMS-DP      [F,P]     Damp
               ***  Starting incremental Fock matrix formation  ***
  0   -321.1449321619   0.000000000000 0.04963194  0.00150432  0.2686406 0.7000
  1   -321.2529896616  -0.108057499770 0.03061583  0.00101502  0.1121998 0.7000
                               ***Turning on DIIS***
  2   -321.2906818225  -0.037692160866 0.05704971  0.00153643  0.0435146 0.0000
  3   -321.3564540695  -0.065772246969 0.02064077  0.00072004  0.0599542 0.0000
  4   -321.3679434103  -0.011489340830 0.00900680  0.00024294  0.0176593 0.0000
                      *** Initiating the SOSCF procedure ***
                           *** Shutting down DIIS ***
                      *** Re-Reading the Fockian *** 
                      *** Removing any level shift *** 
ITER      Energy       Delta-E        Grad      Rot      Max-DP    RMS-DP
  5   -321.36884341  -0.0008999952  0.000471  0.000471  0.002037  0.000068
               *** Restarting incremental Fock matrix formation ***
  6   -321.36890186  -0.0000584525  0.000180  0.000926  0.001497  0.000047
  7   -321.36890385  -0.0000019914  0.000219  0.000437  0.000423  0.000015
  8   -321.36890443  -0.0000005794  0.000130  0.000265  0.000371  0.000012
  9   -321.36890466  -0.0000002358  0.000024  0.000030  0.000068  0.000002
 10   -321.36890467  -0.0000000090  0.000024  0.000029  0.000060  0.000002
 11   -321.36890469  -0.0000000189  0.000009  0.000027  0.000021  0.000001
 12   -321.36890469   0.0000000049  0.000013  0.000018  0.000014  0.000000
                  ***Gradient check signals convergence***
              ***Rediagonalizing the Fockian in SOSCF/NRSCF***

               *****************************************************
               *                     SUCCESS                       *
               *           SCF CONVERGED AFTER  13 CYCLES          *
               *****************************************************

Old exchange energy                            =     -7.609351887 Eh
New exchange energy                            =     -7.609358978 Eh
Exchange energy change after final integration =     -0.000007091 Eh
Total energy after final integration           =   -321.368911785 Eh
Final COS-X integration done in                =     0.474 sec

----------------
TOTAL SCF ENERGY
----------------

Total Energy       :         -321.36891178 Eh           -8744.89267 eV

Components:
Nuclear Repulsion  :          185.06909411 Eh            5035.98608 eV
Electronic Energy  :         -506.43800589 Eh          -13780.87875 eV
One Electron Energy:         -807.54184482 Eh          -21974.33075 eV
Two Electron Energy:          301.10383893 Eh            8193.45200 eV
Max COSX asymmetry :            0.00000100 Eh               0.00003 eV
CPCM Dielectric    :           -0.08960830 Eh              -2.43837 eV

Virial components:
Potential Energy   :         -641.39843044 Eh          -17453.33860 eV
Kinetic Energy     :          320.02951866 Eh            8708.44593 eV
Virial Ratio       :            2.00418522


DFT components:
N(Alpha)           :       20.999985271856 electrons
N(Beta)            :       20.999985271856 electrons
N(Total)           :       41.999970543711 electrons
E(X)               :      -30.377222277128 Eh       
E(C)               :       -1.728705551386 Eh       
E(XC)              :      -32.105927828514 Eh       
DFET-embed. en.    :        0.000000000000 Eh       
CPCM Solvation Model Properties:
Surface-charge          :           -0.01476884
Charge-correction       :            0.00034039 Eh               0.00926 eV
Free-energy (cav+disp)  :  This term is not implemented in the current solvation scheme

---------------
SCF CONVERGENCE
---------------

  Last Energy change         ...   -5.9706e-09  Tolerance :   1.0000e-08
  Last MAX-Density change    ...    1.1102e-15  Tolerance :   1.0000e-07
  Last RMS-Density change    ...    2.2698e-17  Tolerance :   5.0000e-09
  Last Orbital Gradient      ...    1.5967e-06  Tolerance :   1.0000e-05
  Last Orbital Rotation      ...    3.3154e-06  Tolerance :   1.0000e-05

             **** THE GBW FILE WAS UPDATED (/home/rudenko/mopac_kie/for_orca/CH3NO2_H2O_near/orca/orca_end/end.gbw) ****
             **** DENSITY /home/rudenko/mopac_kie/for_orca/CH3NO2_H2O_near/orca/orca_end/end.scfp WAS UPDATED ****
             **** ENERGY FILE WAS UPDATED (/home/rudenko/mopac_kie/for_orca/CH3NO2_H2O_near/orca/orca_end/end.en.tmp) ****
             **** THE GBW FILE WAS UPDATED (/home/rudenko/mopac_kie/for_orca/CH3NO2_H2O_near/orca/orca_end/end.gbw) ****
             **** DENSITY /home/rudenko/mopac_kie/for_orca/CH3NO2_H2O_near/orca/orca_end/end.scfp WAS UPDATED ****
----------------
ORBITAL ENERGIES
----------------

  NO   OCC          E(Eh)            E(eV) 
   0   2.0000     -19.270746      -524.3837 
   1   2.0000     -19.095498      -519.6149 
   2   2.0000     -19.094490      -519.5875 
   3   2.0000     -14.499027      -394.5386 
   4   2.0000     -10.167229      -276.6644 
   5   2.0000      -1.168105       -31.7858 
   6   2.0000      -1.138992       -30.9935 
   7   2.0000      -0.980462       -26.6797 
   8   2.0000      -0.798080       -21.7169 
   9   2.0000      -0.611056       -16.6277 
  10   2.0000      -0.603926       -16.4337 
  11   2.0000      -0.564655       -15.3650 
  12   2.0000      -0.500613       -13.6224 
  13   2.0000      -0.487898       -13.2764 
  14   2.0000      -0.484984       -13.1971 
  15   2.0000      -0.477699       -12.9989 
  16   2.0000      -0.399688       -10.8761 
  17   2.0000      -0.287102        -7.8124 
  18   2.0000      -0.272041        -7.4026 
  19   2.0000      -0.243279        -6.6200 
  20   2.0000      -0.218267        -5.9393 
  21   0.0000      -0.030173        -0.8210 
  22   0.0000       0.006772         0.1843 
  23   0.0000       0.060782         1.6540 
  24   0.0000       0.086293         2.3481 
  25   0.0000       0.124257         3.3812 
  26   0.0000       0.129328         3.5192 
  27   0.0000       0.140368         3.8196 
  28   0.0000       0.196577         5.3491 
  29   0.0000       0.230163         6.2630 
  30   0.0000       0.249019         6.7762 
  31   0.0000       0.283675         7.7192 
  32   0.0000       0.286459         7.7949 
  33   0.0000       0.324533         8.8310 
  34   0.0000       0.338487         9.2107 
  35   0.0000       0.357785         9.7358 
  36   0.0000       0.386211        10.5093 
  37   0.0000       0.408303        11.1105 
  38   0.0000       0.410177        11.1615 
  39   0.0000       0.415832        11.3154 
  40   0.0000       0.457898        12.4600 
  41   0.0000       0.471646        12.8341 
  42   0.0000       0.484980        13.1970 
  43   0.0000       0.498663        13.5693 
  44   0.0000       0.512887        13.9564 
  45   0.0000       0.524570        14.2743 
  46   0.0000       0.537807        14.6345 
  47   0.0000       0.552080        15.0229 
  48   0.0000       0.580141        15.7865 
  49   0.0000       0.595307        16.1991 
  50   0.0000       0.616759        16.7829 
  51   0.0000       0.625862        17.0306 
  52   0.0000       0.723957        19.6999 
  53   0.0000       0.757856        20.6223 
  54   0.0000       0.786653        21.4059 
  55   0.0000       0.804210        21.8837 
  56   0.0000       0.953776        25.9536 
  57   0.0000       0.978642        26.6302 
  58   0.0000       1.020896        27.7800 
  59   0.0000       1.061557        28.8864 
  60   0.0000       1.091280        29.6952 
  61   0.0000       1.128327        30.7033 
  62   0.0000       1.163610        31.6634 
  63   0.0000       1.234423        33.5904 
  64   0.0000       1.301042        35.4032 
  65   0.0000       1.348025        36.6816 
  66   0.0000       1.422089        38.6970 
  67   0.0000       1.432054        38.9682 
  68   0.0000       1.436271        39.0829 
  69   0.0000       1.516568        41.2679 
  70   0.0000       1.537473        41.8368 
  71   0.0000       1.562270        42.5115 
  72   0.0000       1.571982        42.7758 
  73   0.0000       1.599911        43.5358 
  74   0.0000       1.618780        44.0492 
  75   0.0000       1.632107        44.4119 
  76   0.0000       1.682924        45.7947 
  77   0.0000       1.717044        46.7231 
  78   0.0000       1.753569        47.7170 
  79   0.0000       1.780845        48.4593 
  80   0.0000       1.842408        50.1345 
  81   0.0000       1.858017        50.5592 
  82   0.0000       1.897796        51.6417 
  83   0.0000       1.914244        52.0892 
  84   0.0000       1.987018        54.0695 
  85   0.0000       2.012814        54.7715 
  86   0.0000       2.034060        55.3496 
  87   0.0000       2.095631        57.0250 
  88   0.0000       2.115723        57.5718 
  89   0.0000       2.157111        58.6980 
  90   0.0000       2.177488        59.2525 
  91   0.0000       2.226949        60.5984 
  92   0.0000       2.236259        60.8517 
  93   0.0000       2.271571        61.8126 
  94   0.0000       2.284817        62.1730 
  95   0.0000       2.292842        62.3914 
  96   0.0000       2.316927        63.0468 
  97   0.0000       2.343791        63.7778 
  98   0.0000       2.382261        64.8246 
  99   0.0000       2.414703        65.7074 
 100   0.0000       2.481460        67.5240 
 101   0.0000       2.550679        69.4075 
 102   0.0000       2.584302        70.3224 
 103   0.0000       2.610779        71.0429 
 104   0.0000       2.628806        71.5334 
 105   0.0000       2.674568        72.7787 
 106   0.0000       2.733408        74.3798 
 107   0.0000       2.749628        74.8212 
 108   0.0000       2.767958        75.3200 
 109   0.0000       2.829855        77.0043 
 110   0.0000       2.850199        77.5579 
 111   0.0000       2.899277        78.8933 
 112   0.0000       2.973336        80.9086 
 113   0.0000       3.012122        81.9640 
 114   0.0000       3.030797        82.4722 
 115   0.0000       3.079119        83.7871 
 116   0.0000       3.164098        86.0995 
 117   0.0000       3.181316        86.5680 
 118   0.0000       3.296216        89.6946 
 119   0.0000       3.327817        90.5545 
 120   0.0000       3.368924        91.6731 
 121   0.0000       3.417723        93.0010 
 122   0.0000       3.541532        96.3700 
 123   0.0000       3.589892        97.6859 
 124   0.0000       3.679497       100.1242 
 125   0.0000       3.770265       102.5941 
 126   0.0000       3.833137       104.3050 
 127   0.0000       3.855865       104.9234 
 128   0.0000       3.885011       105.7165 
 129   0.0000       4.062325       110.5415 
 130   0.0000       4.103388       111.6589 
 131   0.0000       4.140865       112.6787 
 132   0.0000       4.215566       114.7114 
 133   0.0000       4.541778       123.5881 
 134   0.0000       4.657361       126.7332 
 135   0.0000       4.721120       128.4682 
 136   0.0000       4.732314       128.7728 
 137   0.0000       4.742533       129.0509 
 138   0.0000       4.764149       129.6391 
 139   0.0000       4.915030       133.7448 
 140   0.0000       4.959755       134.9618 
 141   0.0000       5.016323       136.5011 
 142   0.0000       5.172958       140.7633 
 143   0.0000       5.174749       140.8121 
 144   0.0000       5.180997       140.9821 
 145   0.0000       5.188404       141.1837 
 146   0.0000       5.238054       142.5347 
 147   0.0000       5.242177       142.6469 
 148   0.0000       5.262505       143.2000 
 149   0.0000       5.287868       143.8902 
 150   0.0000       5.326085       144.9301 
 151   0.0000       5.407608       147.1485 
 152   0.0000       5.409962       147.2126 
 153   0.0000       5.607288       152.5821 
 154   0.0000       5.692724       154.9069 
 155   0.0000       5.701896       155.1565 
 156   0.0000       5.729048       155.8953 
 157   0.0000       5.741890       156.2448 
 158   0.0000       5.991400       163.0343 
 159   0.0000       6.090315       165.7259 
 160   0.0000       6.240487       169.8123 
 161   0.0000       6.288104       171.1080 
 162   0.0000       6.329862       172.2443 
 163   0.0000       6.342398       172.5854 
 164   0.0000       6.352775       172.8678 
 165   0.0000       6.376723       173.5194 
 166   0.0000       6.396223       174.0501 
 167   0.0000       6.406430       174.3278 
 168   0.0000       6.458679       175.7496 
 169   0.0000       6.699336       182.2982 
 170   0.0000       6.855294       186.5420 
 171   0.0000       6.858433       186.6274 
 172   0.0000       6.864809       186.8009 
 173   0.0000       6.879726       187.2069 
 174   0.0000       6.896148       187.6537 
 175   0.0000       7.132817       194.0938 
 176   0.0000       7.211505       196.2350 
 177   0.0000       7.239673       197.0015 
 178   0.0000       7.386635       201.0005 
 179   0.0000       7.534539       205.0252 
 180   0.0000      22.537843       613.2859 
 181   0.0000      32.217612       876.6858 
 182   0.0000      43.332808      1179.1457 
 183   0.0000      43.935841      1195.5550 
 184   0.0000      44.040714      1198.4088 

                    ********************************
                    * MULLIKEN POPULATION ANALYSIS *
                    ********************************

-----------------------
MULLIKEN ATOMIC CHARGES
-----------------------
   0 C :   -0.580605
   1 H :    0.172553
   2 H :    0.163844
   3 H :    0.396442
   4 N :    0.450720
   5 O :   -0.546219
   6 O :   -0.546029
   7 H :    0.448314
   8 O :   -0.398986
   9 H :    0.439966
Sum of atomic charges:    0.0000000

--------------------------------
MULLIKEN REDUCED ORBITAL CHARGES
--------------------------------
  0 C s       :     3.294125  s :     3.294125
      pz      :     0.796821  p :     3.221565
      px      :     1.315692
      py      :     1.109052
      dz2     :     0.014623  d :     0.057236
      dxz     :     0.012494
      dyz     :     0.021235
      dx2y2   :     0.006263
      dxy     :     0.002620
      f0      :     0.002377  f :     0.007679
      f+1     :     0.001844
      f-1     :     0.001486
      f+2     :     0.001226
      f-2     :     0.000326
      f+3     :     0.000067
      f-3     :     0.000352
  1 H s       :     0.804539  s :     0.804539
      pz      :     0.005615  p :     0.022907
      px      :     0.006972
      py      :     0.010320
  2 H s       :     0.812694  s :     0.812694
      pz      :     0.006036  p :     0.023461
      px      :     0.007568
      py      :     0.009857
  3 H s       :     0.556851  s :     0.556851
      pz      :     0.009095  p :     0.046707
      px      :     0.027167
      py      :     0.010446
  4 N s       :     3.288945  s :     3.288945
      pz      :     1.027181  p :     3.013263
      px      :     1.144267
      py      :     0.841815
      dz2     :     0.052745  d :     0.232822
      dxz     :     0.038502
      dyz     :     0.059425
      dx2y2   :     0.031955
      dxy     :     0.050195
      f0      :     0.001145  f :     0.014250
      f+1     :     0.000746
      f-1     :     0.004998
      f+2     :     0.001810
      f-2     :     0.002338
      f+3     :     0.001755
      f-3     :     0.001457
  5 O s       :     3.877670  s :     3.877670
      pz      :     1.688317  p :     4.629380
      px      :     1.629728
      py      :     1.311335
      dz2     :     0.004443  d :     0.036185
      dxz     :     0.002693
      dyz     :     0.012514
      dx2y2   :     0.009265
      dxy     :     0.007269
      f0      :     0.000355  f :     0.002985
      f+1     :     0.000008
      f-1     :     0.000553
      f+2     :     0.000833
      f-2     :     0.000376
      f+3     :     0.000404
      f-3     :     0.000456
  6 O s       :     3.878377  s :     3.878377
      pz      :     1.661414  p :     4.628453
      px      :     1.602008
      py      :     1.365031
      dz2     :     0.004544  d :     0.036213
      dxz     :     0.003390
      dyz     :     0.012672
      dx2y2   :     0.008161
      dxy     :     0.007446
      f0      :     0.000349  f :     0.002986
      f+1     :     0.000034
      f-1     :     0.000571
      f+2     :     0.000774
      f-2     :     0.000483
      f+3     :     0.000395
      f-3     :     0.000381
  7 H s       :     0.514332  s :     0.514332
      pz      :     0.011578  p :     0.037355
      px      :     0.007523
      py      :     0.018254
  8 O s       :     3.751554  s :     3.751554
      pz      :     1.741066  p :     4.620582
      px      :     1.455968
      py      :     1.423549
      dz2     :     0.002080  d :     0.026036
      dxz     :     0.008957
      dyz     :     0.009198
      dx2y2   :     0.002811
      dxy     :     0.002989
      f0      :     0.000240  f :     0.000814
      f+1     :     0.000047
      f-1     :     0.000012
      f+2     :     0.000151
      f-2     :     0.000138
      f+3     :     0.000029
      f-3     :     0.000197
  9 H s       :     0.522347  s :     0.522347
      pz      :     0.012866  p :     0.037686
      px      :     0.015451
      py      :     0.009369


                     *******************************
                     * LOEWDIN POPULATION ANALYSIS *
                     *******************************

----------------------
LOEWDIN ATOMIC CHARGES
----------------------
   0 C :   -0.441037
   1 H :    0.109758
   2 H :    0.112194
   3 H :    0.225067
   4 N :   -0.113506
   5 O :   -0.250310
   6 O :   -0.247885
   7 H :    0.281644
   8 O :    0.044018
   9 H :    0.280055

-------------------------------
LOEWDIN REDUCED ORBITAL CHARGES
-------------------------------
  0 C s       :     2.878358  s :     2.878358
      pz      :     0.953614  p :     3.243263
      px      :     1.206589
      py      :     1.083060
      dz2     :     0.081333  d :     0.277600
      dxz     :     0.050336
      dyz     :     0.111433
      dx2y2   :     0.027713
      dxy     :     0.006785
      f0      :     0.013563  f :     0.041816
      f+1     :     0.011402
      f-1     :     0.008911
      f+2     :     0.003783
      f-2     :     0.001649
      f+3     :     0.000521
      f-3     :     0.001987
  1 H s       :     0.819094  s :     0.819094
      pz      :     0.016598  p :     0.071148
      px      :     0.022290
      py      :     0.032260
  2 H s       :     0.815166  s :     0.815166
      pz      :     0.017769  p :     0.072640
      px      :     0.023977
      py      :     0.030894
  3 H s       :     0.610214  s :     0.610214
      pz      :     0.029769  p :     0.164719
      px      :     0.100253
      py      :     0.034697
  4 N s       :     2.925111  s :     2.925111
      pz      :     1.198976  p :     3.342351
      px      :     1.058081
      py      :     1.085295
      dz2     :     0.171552  d :     0.773645
      dxz     :     0.114895
      dyz     :     0.220597
      dx2y2   :     0.128378
      dxy     :     0.138222
      f0      :     0.005270  f :     0.072398
      f+1     :     0.003104
      f-1     :     0.027533
      f+2     :     0.008684
      f-2     :     0.012696
      f+3     :     0.007182
      f-3     :     0.007928
  5 O s       :     3.522127  s :     3.522127
      pz      :     1.639509  p :     4.627809
      px      :     1.576299
      py      :     1.412002
      dz2     :     0.011871  d :     0.090561
      dxz     :     0.005760
      dyz     :     0.032356
      dx2y2   :     0.024716
      dxy     :     0.015858
      f0      :     0.001099  f :     0.009812
      f+1     :     0.000021
      f-1     :     0.001945
      f+2     :     0.002739
      f-2     :     0.001074
      f+3     :     0.001267
      f-3     :     0.001667
  6 O s       :     3.521514  s :     3.521514
      pz      :     1.620793  p :     4.625826
      px      :     1.555644
      py      :     1.449389
      dz2     :     0.012269  d :     0.090707
      dxz     :     0.007681
      dyz     :     0.032371
      dx2y2   :     0.021705
      dxy     :     0.016682
      f0      :     0.001097  f :     0.009838
      f+1     :     0.000130
      f-1     :     0.001975
      f+2     :     0.002519
      f-2     :     0.001455
      f+3     :     0.001295
      f-3     :     0.001368
  7 H s       :     0.591388  s :     0.591388
      pz      :     0.039458  p :     0.126968
      px      :     0.020466
      py      :     0.067044
  8 O s       :     3.412259  s :     3.412259
      pz      :     1.707985  p :     4.505497
      px      :     1.413714
      py      :     1.383797
      dz2     :     0.002046  d :     0.036194
      dxz     :     0.009838
      dyz     :     0.010364
      dx2y2   :     0.006840
      dxy     :     0.007105
      f0      :     0.000319  f :     0.002032
      f+1     :     0.000106
      f-1     :     0.000035
      f+2     :     0.000532
      f-2     :     0.000506
      f+3     :     0.000055
      f-3     :     0.000480
  9 H s       :     0.591519  s :     0.591519
      pz      :     0.047286  p :     0.128425
      px      :     0.052749
      py      :     0.028390


                      *****************************
                      * MAYER POPULATION ANALYSIS *
                      *****************************

  NA   - Mulliken gross atomic population
  ZA   - Total nuclear charge
  QA   - Mulliken gross atomic charge
  VA   - Mayer's total valence
  BVA  - Mayer's bonded valence
  FA   - Mayer's free valence

  ATOM       NA         ZA         QA         VA         BVA        FA
  0 C      6.5806     6.0000    -0.5806     3.7147     3.7147     0.0000
  1 H      0.8274     1.0000     0.1726     0.9533     0.9533     0.0000
  2 H      0.8362     1.0000     0.1638     0.9582     0.9582     0.0000
  3 H      0.6036     1.0000     0.3964     0.8814     0.8814    -0.0000
  4 N      6.5493     7.0000     0.4507     4.0756     4.0756     0.0000
  5 O      8.5462     8.0000    -0.5462     1.6514     1.6514     0.0000
  6 O      8.5460     8.0000    -0.5460     1.6558     1.6558     0.0000
  7 H      0.5517     1.0000     0.4483     0.8134     0.8134    -0.0000
  8 O      8.3990     8.0000    -0.3990     2.2294     2.2294    -0.0000
  9 H      0.5600     1.0000     0.4400     0.8241     0.8241    -0.0000

  Mayer bond orders larger than 0.100000
B(  0-C ,  1-H ) :   0.9524 B(  0-C ,  2-H ) :   0.9392 B(  0-C ,  3-H ) :   0.1679 
B(  0-C ,  4-N ) :   1.3303 B(  0-C ,  5-O ) :   0.1749 B(  0-C ,  6-O ) :   0.1644 
B(  3-H ,  8-O ) :   0.6618 B(  4-N ,  5-O ) :   1.3700 B(  4-N ,  6-O ) :   1.3717 
B(  7-H ,  8-O ) :   0.7953 B(  8-O ,  9-H ) :   0.7945 

-------
TIMINGS
-------

Total SCF time: 0 days 0 hours 0 min 8 sec 

Total time                  ....       8.270 sec
Sum of individual times     ....       7.904 sec  ( 95.6%)

Fock matrix formation       ....       7.076 sec  ( 85.6%)
  Split-RI-J                ....       0.637 sec  (  9.0% of F)
  Chain of spheres X        ....       3.593 sec  ( 50.8% of F)
  XC integration            ....       0.744 sec  ( 10.5% of F)
    Basis function eval.    ....       0.184 sec  ( 24.8% of XC)
    Density eval.           ....       0.143 sec  ( 19.3% of XC)
    XC-Functional eval.     ....       0.041 sec  (  5.6% of XC)
    XC-Potential eval.      ....       0.138 sec  ( 18.6% of XC)
Diagonalization             ....       0.083 sec  (  1.0%)
Density matrix formation    ....       0.010 sec  (  0.1%)
Population analysis         ....       0.012 sec  (  0.1%)
Initial guess               ....       0.059 sec  (  0.7%)
Orbital Transformation      ....       0.000 sec  (  0.0%)
Orbital Orthonormalization  ....       0.000 sec  (  0.0%)
DIIS solution               ....       0.052 sec  (  0.6%)
SOSCF solution              ....       0.081 sec  (  1.0%)
Grid generation             ....       0.531 sec  (  6.4%)

Maximum memory used throughout the entire SCF-calculation: 65.3 MB


-------------------------------------------------------------------------------
                          DFT DISPERSION CORRECTION                            
                                                                               
                              DFTD3 V3.1  Rev 1                                
                          USING Becke-Johnson damping                          
-------------------------------------------------------------------------------
The B3LYP functional is recognized
Active option DFTDOPT                   ...         4   

molecular C6(AA) [au] = 782.083083 


            DFT-D V3
 parameters
 s6 scaling factor         :     1.0000 
 a1 scaling factor         :     0.3981 
 s8 scaling factor         :     1.9889 
 a2 scaling factor         :     4.4211 
 ad hoc parameters k1-k3   :    16.0000     1.3333    -4.0000 

 Edisp/kcal,au: -5.707079928154  -0.009094809808 
 E6   /kcal   :  -2.880123785 
 E8   /kcal   :  -2.826956143 
 % E8         :  49.534195749 

-------------------------   ----------------
Dispersion correction           -0.009094810
-------------------------   ----------------


-------------------------   --------------------
FINAL SINGLE POINT ENERGY      -321.378006594394
-------------------------   --------------------



           ************************************************************
           *        Program running with 18 parallel MPI-processes    *
           *              working on a common directory               *
           ************************************************************
------------------------------------------------------------------------------
                         ORCA SCF GRADIENT CALCULATION
------------------------------------------------------------------------------

 ... reading COSX grid (gridx3)
Gradient of the Kohn-Sham DFT energy:
Kohn-Sham wavefunction type      ... RKS
Hartree-Fock exchange scaling    ...    0.200
Number of operators              ...    1
Number of atoms                  ...   10
Basis set dimensions             ...  185
Integral neglect threshold       ... 2.5e-11
Integral primitive cutoff        ... 2.5e-12
SHARK Integral package           ... ON

Nuc. rep. gradient       (SHARK) ... done (  0.0 sec)
HCore & Overlap gradient (SHARK) ... done (  0.0 sec)
RI-J gradient            (SHARK) ... done (  0.2 sec)
COSX-gradient                    ... done (  0.9 sec)
Exchange-correlation gradient    ... done
Dispersion correction            ... done

------------------
CARTESIAN GRADIENT
------------------

   1   C   :   -0.016290159   -0.002406543    0.029743570
   2   H   :    0.004832871    0.005466155   -0.006728481
   3   H   :    0.006533062   -0.007389059   -0.005998796
   4   H   :    0.009627202    0.011812050   -0.020198869
   5   N   :    0.003633708   -0.001972724   -0.010103481
   6   O   :   -0.002007192   -0.019884349    0.000015077
   7   O   :    0.001624686    0.020137968   -0.000496365
   8   H   :   -0.007038579   -0.026704206   -0.021313511
   9   O   :   -0.017851277    0.006383655    0.059731154
  10   H   :    0.016938931    0.014214700   -0.024611359

Difference to translation invariance:
           :    0.0000032518   -0.0003423515    0.0000389385

Difference to rotation invariance:
           :    0.0011515566   -0.0011538765    0.0000232438

Norm of the cartesian gradient     ...    0.0958837160
RMS gradient                       ...    0.0175058914
MAX gradient                       ...    0.0597311539

-------
TIMINGS
-------

Total SCF gradient time            ...        1.976 sec

One electron gradient       ....       0.022 sec  (  1.1%)
RI-J Coulomb gradient       ....       0.193 sec  (  9.7%)
COSX gradient               ....       0.862 sec  ( 43.6%)
XC gradient                 ....       0.250 sec  ( 12.7%)
CPCM gradient               ....       0.133 sec  (  6.7%)
   A-Matrix (El+Nuc)        ....       0.032 sec  (  1.6%)
   Potential                ....       0.101 sec  (  5.1%)

Maximum memory used throughout the entire SCFGRAD-calculation: 39.7 MB
------------------------------------------------------------------------------
                         ORCA GEOMETRY RELAXATION STEP
------------------------------------------------------------------------------

Reading the OPT-File                    .... done
Getting information on internals        .... done
Copying old internal coords+grads       .... done
Making the new internal coordinates     .... (new redundants).... done
Validating the new internal coordinates .... (new redundants).... done
Calculating the B-matrix                .... done
Calculating the G,G- and P matrices     .... done
Transforming gradient to internals      .... done
Projecting the internal gradient        .... done
Number of atoms                         ....  10
Number of internal coordinates          ....  58
Current Energy                          ....  -321.378006594 Eh
Current gradient norm                   ....     0.095883716 Eh/bohr
Maximum allowed component of the step   ....  0.300
Current trust radius                    ....  0.300
Evaluating the initial hessian          ....  (Almloef) done
Projecting the Hessian                  .... done
Forming the augmented Hessian           .... done
Diagonalizing the augmented Hessian     .... done
Last element of RFO vector              ....  0.981407982
Lowest eigenvalues of augmented Hessian:
 -0.010238114  0.015165268  0.043365175  0.043391747  0.062503955
Length of the computed step             ....  0.195569276
The final length of the internal step   ....  0.195569276
Converting the step to cartesian space:
 Initial RMS(Int)=    0.0256795041
Transforming coordinates:
 Iter   0:  RMS(Cart)=    0.0286227140 RMS(Int)=    0.0258744537
 Iter   1:  RMS(Cart)=    0.0009177632 RMS(Int)=    0.0030788649
 Iter   2:  RMS(Cart)=    0.0001979130 RMS(Int)=    0.0014950041
 Iter   3:  RMS(Cart)=    0.0001052564 RMS(Int)=    0.0007351351
 Iter   4:  RMS(Cart)=    0.0000520138 RMS(Int)=    0.0003630654
 Iter   5:  RMS(Cart)=    0.0000257022 RMS(Int)=    0.0001795251
 Iter   6:  RMS(Cart)=    0.0000127041 RMS(Int)=    0.0000887498
 Iter   7:  RMS(Cart)=    0.0000062813 RMS(Int)=    0.0000438800
 Iter   8:  RMS(Cart)=    0.0000031054 RMS(Int)=    0.0000216939
 Iter   9:  RMS(Cart)=    0.0000015353 RMS(Int)=    0.0000107256
 Iter  10:  RMS(Cart)=    0.0000007591 RMS(Int)=    0.0000053027
 Iter  11:  RMS(Cart)=    0.0000003753 RMS(Int)=    0.0000026217
 Iter  12:  RMS(Cart)=    0.0000001855 RMS(Int)=    0.0000012962
 Iter  13:  RMS(Cart)=    0.0000000917 RMS(Int)=    0.0000006408
done
Storing new coordinates                 .... done

                                .--------------------.
          ----------------------|Geometry convergence|-------------------------
          Item                value                   Tolerance       Converged
          ---------------------------------------------------------------------
          RMS gradient        0.0081902013            0.0001000000      NO
          MAX gradient        0.0341814575            0.0003000000      NO
          RMS step            0.0256795041            0.0020000000      NO
          MAX step            0.0828385863            0.0040000000      NO
          ........................................................
          Max(Bonds)      0.0438      Max(Angles)    2.91
          Max(Dihed)        3.05      Max(Improp)    0.00
          ---------------------------------------------------------------------

The optimization has not yet converged - more geometry cycles are needed


    ---------------------------------------------------------------------------
                         Redundant Internal Coordinates
                            (Angstroem and degrees)

        Definition                    Value    dE/dq     Step     New-Value
    ----------------------------------------------------------------------------
     1. B(H   1,C   0)                1.0766 -0.000604  0.0021    1.0787   
     2. B(H   2,C   0)                1.0776  0.000452 -0.0004    1.0772   
     3. B(H   3,H   2)                1.9966 -0.001757  0.0090    2.0056   
     4. B(H   3,H   1)                2.1877 -0.000723 -0.0025    2.1852   
     5. B(H   3,C   0)                1.8420  0.002737 -0.0126    1.8294   
     6. B(N   4,C   0)                1.3312 -0.011074  0.0083    1.3395   
     7. B(O   5,N   4)                1.2567 -0.017148  0.0110    1.2677   
     8. B(O   6,N   4)                1.2561 -0.017320  0.0110    1.2672   
     9. B(O   8,H   7)                1.0298  0.034181 -0.0438    0.9859   
    10. B(O   8,H   3)                1.0624  0.000996 -0.0014    1.0610   
    11. B(H   9,O   8)                1.0288  0.031907 -0.0408    0.9880   
    12. A(H   2,C   0,N   4)          121.23  0.001699   -1.17    120.06   
    13. A(H   1,C   0,N   4)          121.00  0.001706   -0.98    120.02   
    14. A(H   1,C   0,H   2)          116.20 -0.002850    1.92    118.11   
    15. A(H   1,C   0,H   3)           93.38 -0.001626    0.47     93.85   
    16. A(H   3,C   0,N   4)          106.57  0.001028   -0.28    106.28   
    17. A(H   2,C   0,H   3)           81.78 -0.002288    1.15     82.93   
    18. A(C   0,H   1,H   3)           57.19  0.001640   -0.55     56.65   
    19. A(C   0,H   2,H   3)           65.94  0.002063   -1.08     64.86   
    20. A(H   1,H   3,O   8)          122.51 -0.003846    1.41    123.92   
    21. A(C   0,H   3,O   8)          140.33 -0.005782    2.59    142.92   
    22. A(C   0,H   3,H   2)           32.29  0.000226   -0.07     32.22   
    23. A(H   1,H   3,H   2)           51.59 -0.000624    0.57     52.16   
    24. A(H   2,H   3,O   8)          172.60 -0.005565    2.53    175.13   
    25. A(C   0,H   3,H   1)           29.42 -0.000015    0.08     29.51   
    26. A(O   5,N   4,O   6)          117.11 -0.016362    1.98    119.09   
    27. A(C   0,N   4,O   6)          121.39  0.008785   -1.06    120.33   
    28. A(C   0,N   4,O   5)          121.48  0.007583   -0.92    120.57   
    29. A(H   3,O   8,H   7)          100.05 -0.009882    1.97    102.02   
    30. A(H   7,O   8,H   9)          101.95 -0.000035    0.38    102.33   
    31. A(H   3,O   8,H   9)          101.06 -0.014849    2.91    103.97   
    32. D(H   3,H   1,C   0,N   4)   -111.64 -0.000665    0.33   -111.31   
    33. D(H   3,H   1,C   0,H   2)     82.49 -0.003330    1.50     83.99   
    34. D(H   3,H   2,C   0,N   4)    104.44 -0.000133    0.34    104.77   
    35. D(H   3,H   2,C   0,H   1)    -89.73  0.002536   -0.81    -90.54   
    36. D(O   8,H   3,H   1,C   0)    136.72 -0.005639    3.05    139.77   
    37. D(O   8,H   3,C   0,N   4)     58.87 -0.001664    1.21     60.08   
    38. D(O   8,H   3,C   0,H   1)    -64.90 -0.003134    2.16    -62.74   
    39. D(H   2,H   3,C   0,N   4)   -120.23 -0.001184    0.92   -119.31   
    40. D(H   1,H   3,C   0,N   4)    123.77  0.001470   -0.95    122.83   
    41. D(H   1,H   3,C   0,H   2)   -116.00  0.002654   -1.87   -117.86   
    42. D(H   2,H   3,H   1,C   0)    -37.79 -0.001664    1.14    -36.65   
    43. D(O   8,H   3,C   0,H   2)    179.10 -0.000480    0.29    179.39   
    44. D(O   8,H   3,H   2,C   0)     -4.46  0.000413    0.17     -4.29   
    45. D(H   1,H   3,H   2,C   0)     34.30  0.001203   -0.83     33.47   
    46. D(H   2,H   3,C   0,H   1)    116.00 -0.002654    1.87    117.86   
    47. D(O   6,N   4,C   0,H   3)    -96.80 -0.000436    0.39    -96.42   
    48. D(O   6,N   4,C   0,H   2)    172.86  0.001191   -0.48    172.38   
    49. D(O   6,N   4,C   0,H   1)      7.71 -0.000969    0.32      8.03   
    50. D(O   5,N   4,C   0,H   3)     82.03 -0.000231    0.17     82.20   
    51. D(O   5,N   4,C   0,H   2)     -8.30  0.001396   -0.70     -9.00   
    52. D(O   5,N   4,C   0,H   1)   -173.46 -0.000764    0.10   -173.36   
    53. D(H   9,O   8,H   3,H   1)    134.71 -0.002183    0.71    135.42   
    54. D(H   9,O   8,H   3,C   0)    166.55 -0.002810    0.73    167.28   
    55. D(H   7,O   8,H   3,H   2)     65.87  0.002358   -0.77     65.10   
    56. D(H   7,O   8,H   3,H   1)     30.29  0.003762   -0.85     29.44   
    57. D(H   9,O   8,H   3,H   2)    170.28 -0.003587    0.79    171.07   
    58. D(H   7,O   8,H   3,C   0)     62.13  0.003135   -0.83     61.31   
    ----------------------------------------------------------------------------

         *************************************************************
         *                GEOMETRY OPTIMIZATION CYCLE   2            *
         *************************************************************
---------------------------------
CARTESIAN COORDINATES (ANGSTROEM)
---------------------------------
  C      0.561959   -0.788045    0.401349
  H      0.484229   -1.722712   -0.131711
  H      0.648938    0.118612   -0.174012
  H      2.389088   -0.749919    0.315472
  N      0.245432   -0.729727    1.701657
  O      0.211901    0.383200    2.307711
  O      0.000728   -1.791305    2.348866
  H      3.143537   -2.145078    0.184455
  O      3.261914   -1.269503    0.621980
  H      3.983113   -0.862063    0.083492

----------------------------
CARTESIAN COORDINATES (A.U.)
----------------------------
  NO LB      ZA    FRAG     MASS         X           Y           Z
   0 C     6.0000    0    12.011    1.061949   -1.489188    0.758439
   1 H     1.0000    0     1.008    0.915060   -3.255454   -0.248898
   2 H     1.0000    0     1.008    1.226315    0.224144   -0.328834
   3 H     1.0000    0     1.008    4.514722   -1.417142    0.596156
   4 N     7.0000    0    14.007    0.463799   -1.378984    3.215666
   5 O     8.0000    0    15.999    0.400436    0.724142    4.360942
   6 O     8.0000    0    15.999    0.001375   -3.385076    4.438714
   7 H     1.0000    0     1.008    5.940425   -4.053610    0.348569
   8 O     8.0000    0    15.999    6.164124   -2.399012    1.175372
   9 H     1.0000    0     1.008    7.526994   -1.629063    0.157777

--------------------------------
INTERNAL COORDINATES (ANGSTROEM)
--------------------------------
 C      0   0   0     0.000000000000     0.00000000     0.00000000
 H      1   0   0     1.078794740952     0.00000000     0.00000000
 H      1   2   0     1.077325738961   118.10367112     0.00000000
 H      1   2   3     1.829543043644    93.83131755   275.98428664
 N      1   2   3     1.339549588147   120.02271363   164.66569230
 O      5   1   2     1.267687187180   120.56687830   186.64053287
 O      5   1   2     1.267165193698   120.32806665     8.02406495
 H      4   1   2     1.591485921887   117.32413405   333.99813904
 O      8   4   1     0.985938049053    40.70069613   216.52189085
 H      9   8   4     0.987980249928   102.24009601   252.64249286

---------------------------
INTERNAL COORDINATES (A.U.)
---------------------------
 C      0   0   0     0.000000000000     0.00000000     0.00000000
 H      1   0   0     2.038626615114     0.00000000     0.00000000
 H      1   2   0     2.035850603661   118.10367112     0.00000000
 H      1   2   3     3.457335302708    93.83131755   275.98428664
 N      1   2   3     2.531381864404   120.02271363   164.66569230
 O      5   1   2     2.395581607250   120.56687830   186.64053287
 O      5   1   2     2.394595182527   120.32806665     8.02406495
 H      4   1   2     3.007472538358   117.32413405   333.99813904
 O      8   4   1     1.863152897723    40.70069613   216.52189085
 H      9   8   4     1.867012098087   102.24009601   252.64249286



           ************************************************************
           *        Program running with 18 parallel MPI-processes    *
           *              working on a common directory               *
           ************************************************************
------------------------------------------------------------------------------
                   ___                                                        
                  /   \      - P O W E R E D   B Y -                         
                 /     \                                                     
                 |  |  |   _    _      __       _____    __    __             
                 |  |  |  | |  | |    /  \     |  _  \  |  |  /  |          
                  \  \/   | |  | |   /    \    | | | |  |  | /  /          
                 / \  \   | |__| |  /  /\  \   | |_| |  |  |/  /          
                |  |  |   |  __  | /  /__\  \  |    /   |      \           
                |  |  |   | |  | | |   __   |  |    \   |  |\   \          
                \     /   | |  | | |  |  |  |  | |\  \  |  | \   \       
                 \___/    |_|  |_| |__|  |__|  |_| \__\ |__|  \__/        
                                                                              
                      - O R C A' S   B I G   F R I E N D -                    
                                      &                                       
                       - I N T E G R A L  F E E D E R -                       
                                                                              
 v1 FN, 2020, v2 2021                                                         
------------------------------------------------------------------------------


Reading SHARK input file /home/rudenko/mopac_kie/for_orca/CH3NO2_H2O_near/orca/orca_end/end.SHARKINP.tmp ... ok
----------------------
SHARK INTEGRAL PACKAGE
----------------------

Number of atoms                             ...     10
Number of basis functions                   ...    185
Number of shells                            ...     75
Maximum angular momentum                    ...      3
Integral batch strategy                     ... SHARK/LIBINT Hybrid
RI-J (if used) integral strategy            ... SPLIT-RIJ (Revised 2003 algorithm where possible)
Printlevel                                  ...      1
Contraction scheme used                     ... SEGMENTED contraction
Coulomb Range Separation                    ... NOT USED
Exchange Range Separation                   ... NOT USED
Finite Nucleus Model                        ... NOT USED
Auxiliary Coulomb fitting basis             ... AVAILABLE
   # of basis functions in Aux-J            ...    300
   # of shells in Aux-J                     ...    100
   Maximum angular momentum in Aux-J        ...      4
Auxiliary J/K fitting basis                 ... NOT available
Auxiliary Correlation fitting basis         ... NOT available
Auxiliary 'external' fitting basis          ... NOT available
Integral threshold                          ...     2.500000e-11
Primitive cut-off                           ...     2.500000e-12
Primitive pair pre-selection threshold      ...     2.500000e-12

Calculating pre-screening integrals         ... done (  0.1 sec) Dimension = 75
Organizing shell pair data                  ... done (  0.0 sec)
Shell pair information
Total number of shell pairs                 ...      2850
[...]
Basis function cutoff            BFCut       ... 1.0000e-11
Integration weight cutoff        WCut        ... 1.0000e-14
Angular grids for H and He will be reduced by one unit
Partially contracted basis set               ... on
Rotationally invariant grid construction     ... off

Total number of grid points                  ...     6008
Total number of batches                      ...       98
Average number of points per batch           ...       61
Average number of grid points per atom       ...      601
UseSFitting                                  ... on

GRIDX 2
-------
General Integration Accuracy     IntAcc      ... 4.020
Radial Grid Type                 RadialGrid  ... OptM3 with GC (2021)
Angular Grid (max. ang.)         AngularGrid ... 2 (Lebedev-110)
Angular grid pruning method      GridPruning ... 4 (adaptive)
Weight generation scheme         WeightScheme... Becke
Basis function cutoff            BFCut       ... 1.0000e-11
Integration weight cutoff        WCut        ... 1.0000e-14
Angular grids for H and He will be reduced by one unit
Partially contracted basis set               ... on
Rotationally invariant grid construction     ... off

Total number of grid points                  ...    13220
Total number of batches                      ...      212
Average number of points per batch           ...       62
Average number of grid points per atom       ...     1322
UseSFitting                                  ... on

GRIDX 3
-------
General Integration Accuracy     IntAcc      ... 4.338
Radial Grid Type                 RadialGrid  ... OptM3 with GC (2021)
Angular Grid (max. ang.)         AngularGrid ... 3 (Lebedev-194)
Angular grid pruning method      GridPruning ... 4 (adaptive)
Weight generation scheme         WeightScheme... Becke
Basis function cutoff            BFCut       ... 1.0000e-11
Integration weight cutoff        WCut        ... 1.0000e-14
Angular grids for H and He will be reduced by one unit
Partially contracted basis set               ... on
Rotationally invariant grid construction     ... off

Total number of grid points                  ...    29125
Total number of batches                      ...      460
Average number of points per batch           ...       63
Average number of grid points per atom       ...     2912
UseSFitting                                  ... on

Time for X-Grid setup             =    0.246 sec


--------------------
CPCM SOLVATION MODEL
--------------------
CPCM parameters:
  Epsilon                                         ...      78.4000
  Refrac                                          ...       1.3300
  Rsolv                                           ...       1.3000
  Surface type                                    ... GAUSSIAN VDW
  Epsilon function type                           ...         CPCM
Radii:
 Radius for C  used is    3.8550 Bohr (=   2.0400 Ang.)
 Radius for H  used is    2.4944 Bohr (=   1.3200 Ang.)
 Radius for N  used is    3.5149 Bohr (=   1.8600 Ang.)
 Radius for O  used is    3.4469 Bohr (=   1.8240 Ang.)
Calculating surface                               ...        done! (  0.0s)
GEPOL surface points                              ...          680
GEPOL Volume                                      ...     683.1700
GEPOL Surface-area                                ...     473.0279
Calculating surface distance matrix               ...        done! (  0.0s)
Performing Cholesky decomposition & store         ...        done! (  0.1s)
Overall time for CPCM initialization              ...                 0.1s
--------------
SCF ITERATIONS
--------------
ITER       Energy         Delta-E        Max-DP      RMS-DP      [F,P]     Damp
               ***  Starting incremental Fock matrix formation  ***
                      *** Initiating the SOSCF procedure ***
                      *** Re-Reading the Fockian *** 
                      *** Removing any level shift *** 
ITER      Energy       Delta-E        Grad      Rot      Max-DP    RMS-DP
  0   -321.44937948 -321.4493794817  0.002985  0.002985  0.003073  0.000098
               *** Restarting incremental Fock matrix formation ***
  1   -321.44971130  -0.0003318194  0.001061  0.002344  0.001610  0.000049
  2   -321.44974431  -0.0000330051  0.000382  0.001601  0.000753  0.000021
  3   -321.44973961   0.0000046988  0.001128  0.001225  0.000495  0.000013
  4   -321.44974581  -0.0000062017  0.000043  0.000052  0.000069  0.000002
  5   -321.44974582  -0.0000000060  0.000045  0.000030  0.000049  0.000001
  6   -321.44974584  -0.0000000296  0.000009  0.000014  0.000015  0.000000
  7   -321.44974585  -0.0000000008  0.000009  0.000009  0.000008  0.000000
  8   -321.44974585  -0.0000000009  0.000004  0.000006  0.000005  0.000000
  9   -321.44974585  -0.0000000001  0.000004  0.000003  0.000003  0.000000
                  ***Gradient check signals convergence***
              ***Rediagonalizing the Fockian in SOSCF/NRSCF***

               *****************************************************
               *                     SUCCESS                       *
               *           SCF CONVERGED AFTER  10 CYCLES          *
               *****************************************************

Old exchange energy                            =     -7.622294876 Eh
New exchange energy                            =     -7.622303217 Eh
Exchange energy change after final integration =     -0.000008341 Eh
Total energy after final integration           =   -321.449754188 Eh
Final COS-X integration done in                =     0.510 sec
Total Energy       :         -321.44975419 Eh           -8747.09251 eV
  Last Energy change         ...   -2.1470e-10  Tolerance :   1.0000e-08
  Last MAX-Density change    ...    1.4433e-15  Tolerance :   1.0000e-07
             **** THE GBW FILE WAS UPDATED (/home/rudenko/mopac_kie/for_orca/CH3NO2_H2O_near/orca/orca_end/end.gbw) ****
             **** DENSITY /home/rudenko/mopac_kie/for_orca/CH3NO2_H2O_near/orca/orca_end/end.scfp WAS UPDATED ****
             **** ENERGY FILE WAS UPDATED (/home/rudenko/mopac_kie/for_orca/CH3NO2_H2O_near/orca/orca_end/end.en.tmp) ****
             **** THE GBW FILE WAS UPDATED (/home/rudenko/mopac_kie/for_orca/CH3NO2_H2O_near/orca/orca_end/end.gbw) ****
             **** DENSITY /home/rudenko/mopac_kie/for_orca/CH3NO2_H2O_near/orca/orca_end/end.scfp WAS UPDATED ****
Total SCF time: 0 days 0 hours 0 min 7 sec 

Maximum memory used throughout the entire SCF-calculation: 65.2 MB


-------------------------------------------------------------------------------
                          DFT DISPERSION CORRECTION                            
                                                                               
                              DFTD3 V3.1  Rev 1                                
                          USING Becke-Johnson damping                          
-------------------------------------------------------------------------------
-------------------------   ----------------
Dispersion correction           -0.007629068
-------------------------   ----------------


-------------------------   --------------------
FINAL SINGLE POINT ENERGY      -321.457383255557
-------------------------   --------------------



           ************************************************************
           *        Program running with 18 parallel MPI-processes    *
           *              working on a common directory               *
           ************************************************************
------------------------------------------------------------------------------
                         ORCA SCF GRADIENT CALCULATION
------------------------------------------------------------------------------

 ... reading COSX grid (gridx3)
Gradient of the Kohn-Sham DFT energy:
Kohn-Sham wavefunction type      ... RKS
Hartree-Fock exchange scaling    ...    0.200
Number of operators              ...    1
Number of atoms                  ...   10
Basis set dimensions             ...  185
Integral neglect threshold       ... 2.5e-11
Integral primitive cutoff        ... 2.5e-12
SHARK Integral package           ... ON

Nuc. rep. gradient       (SHARK) ... done (  0.0 sec)
HCore & Overlap gradient (SHARK) ... done (  0.0 sec)
RI-J gradient            (SHARK) ... done (  0.1 sec)
COSX-gradient                    ... done (  0.5 sec)
Exchange-correlation gradient    ... done
Dispersion correction            ... done

------------------
CARTESIAN GRADIENT
------------------

   1   C   :   -0.000266857    0.000664626   -0.000309128
   2   H   :   -0.000103188   -0.000258699    0.000243432
   3   H   :    0.000063092    0.000168930   -0.000139018
   4   H   :    0.000185593   -0.000141125    0.000697265
   5   N   :    0.000167892   -0.000592794   -0.000512586
   6   O   :    0.000320648    0.000347003    0.000260737
   7   O   :   -0.000363615   -0.000161741   -0.000147611
   8   H   :    0.000235368    0.000461465    0.000494516
   9   O   :   -0.000176590   -0.000578458   -0.000891757
  10   H   :   -0.000296585    0.000005362    0.000310764

Difference to translation invariance:
           :   -0.0002342431   -0.0000854313    0.0000066150

Difference to rotation invariance:
           :    0.0001858109   -0.0007763452   -0.0005950730

Norm of the cartesian gradient     ...    0.0020760340
RMS gradient                       ...    0.0003790302
MAX gradient                       ...    0.0008917569

-------
TIMINGS
-------

Total SCF gradient time            ...        1.741 sec

One electron gradient       ....       0.014 sec  (  0.8%)
RI-J Coulomb gradient       ....       0.141 sec  (  8.1%)
COSX gradient               ....       0.542 sec  ( 31.1%)
XC gradient                 ....       0.244 sec  ( 14.0%)
CPCM gradient               ....       0.117 sec  (  6.7%)
   A-Matrix (El+Nuc)        ....       0.035 sec  (  2.0%)
   Potential                ....       0.082 sec  (  4.7%)

Maximum memory used throughout the entire SCFGRAD-calculation: 39.5 MB
------------------------------------------------------------------------------
                         ORCA GEOMETRY RELAXATION STEP
------------------------------------------------------------------------------

Reading the OPT-File                    .... done
Getting information on internals        .... done
Copying old internal coords+grads       .... done
Making the new internal coordinates     .... (new redundants).... done
Validating the new internal coordinates .... (new redundants).... done
Calculating the B-matrix                .... done
Calculating the G,G- and P matrices     .... done
Transforming gradient to internals      .... done
Projecting the internal gradient        .... done
Number of atoms                         ....  10
Number of internal coordinates          ....  35
Current Energy                          ....  -321.457383256 Eh
Current gradient norm                   ....     0.002076034 Eh/bohr
Maximum allowed component of the step   ....  0.300
Current trust radius                    ....  0.300
Updating the Hessian (BFGS)             .... done
Forming the augmented Hessian           .... done
Diagonalizing the augmented Hessian     .... done
Last element of RFO vector              ....  0.989535773
Lowest eigenvalues of augmented Hessian:
 -0.000019139  0.000261850  0.000622251  0.002725272  0.005366822
Length of the computed step             ....  0.145813572
The final length of the internal step   ....  0.145813572
Converting the step to cartesian space:
 Initial RMS(Int)=    0.0246469922
Transforming coordinates:
 Iter   0:  RMS(Cart)=    0.0215769809 RMS(Int)=    0.0124210221
 Iter   1:  RMS(Cart)=    0.0034130616 RMS(Int)=    0.0038520007
 Iter   2:  RMS(Cart)=    0.0018375473 RMS(Int)=    0.0021051632
 Iter   3:  RMS(Cart)=    0.0010018069 RMS(Int)=    0.0011545134
 Iter   4:  RMS(Cart)=    0.0005478459 RMS(Int)=    0.0006333702
 Iter   5:  RMS(Cart)=    0.0002999656 RMS(Int)=    0.0003473909
 Iter   6:  RMS(Cart)=    0.0001643330 RMS(Int)=    0.0001904924
 Iter   7:  RMS(Cart)=    0.0000900517 RMS(Int)=    0.0001044399
 Iter   8:  RMS(Cart)=    0.0000493534 RMS(Int)=    0.0000572549
 Iter   9:  RMS(Cart)=    0.0000270503 RMS(Int)=    0.0000313858
 Iter  10:  RMS(Cart)=    0.0000148266 RMS(Int)=    0.0000172044
 Iter  11:  RMS(Cart)=    0.0000081268 RMS(Int)=    0.0000094306
 Iter  12:  RMS(Cart)=    0.0000044546 RMS(Int)=    0.0000051693
 Iter  13:  RMS(Cart)=    0.0000024417 RMS(Int)=    0.0000028335
 Iter  14:  RMS(Cart)=    0.0000013384 RMS(Int)=    0.0000015532
 Iter  15:  RMS(Cart)=    0.0000007336 RMS(Int)=    0.0000008513
 Iter  16:  RMS(Cart)=    0.0000004021 RMS(Int)=    0.0000004667
 Iter  17:  RMS(Cart)=    0.0000002204 RMS(Int)=    0.0000002558
 Iter  18:  RMS(Cart)=    0.0000001208 RMS(Int)=    0.0000001402
 Iter  19:  RMS(Cart)=    0.0000000662 RMS(Int)=    0.0000000769
done
Storing new coordinates                 .... done

                                .--------------------.
          ----------------------|Geometry convergence|-------------------------
          Item                value                   Tolerance       Converged
          ---------------------------------------------------------------------
          Energy change      -0.0000100061            0.0000050000      NO
          RMS gradient        0.0002635328            0.0001000000      NO
          MAX gradient        0.0006384599            0.0003000000      NO
          RMS step            0.0246469922            0.0020000000      NO
          MAX step            0.0966455392            0.0040000000      NO
          ........................................................
          Max(Bonds)      0.0118      Max(Angles)    5.54
          Max(Dihed)        2.73      Max(Improp)    0.00
          ---------------------------------------------------------------------

The optimization has not yet converged - more geometry cycles are needed


    ---------------------------------------------------------------------------
                         Redundant Internal Coordinates
                            (Angstroem and degrees)

        Definition                    Value    dE/dq     Step     New-Value
    ----------------------------------------------------------------------------
     1. B(H   1,C   0)                1.0836  0.000085  0.0002    1.0838   
     2. B(H   2,C   0)                1.0883  0.000221  0.0000    1.0883   
     3. B(H   3,C   0)                1.0884  0.000132  0.0041    1.0926   
     4. B(N   4,C   0)                1.4907 -0.000404 -0.0019    1.4888   
     5. B(O   5,N   4)                1.2220  0.000535  0.0000    1.2221   
     6. B(O   6,N   4)                1.2211  0.000346  0.0002    1.2214   
     7. B(O   8,H   7)                0.9648 -0.000638  0.0000    0.9649   
     8. B(O   8,H   3)                2.4697 -0.000129 -0.0118    2.4579   
     9. B(H   9,O   8)                0.9654 -0.000089 -0.0003    0.9650   
    10. A(H   1,C   0,H   2)          112.03  0.000123   -0.30    111.73   
    11. A(H   1,C   0,N   4)          108.28 -0.000194   -2.64    105.63   
    12. A(H   2,C   0,H   3)          109.94  0.000023    0.64    110.57   
    13. A(H   1,C   0,H   3)          112.26  0.000168   -1.00    111.26   
    14. A(H   2,C   0,N   4)          106.85  0.000198    1.07    107.92   
    15. A(H   3,C   0,N   4)          107.21 -0.000342   -0.18    107.03   
    16. L(C   0,H   3,O   8,N   4, 2) 221.93  0.000129   -5.54    216.40   
    17. L(C   0,H   3,O   8,N   4, 1) 209.25  0.000381    0.04    209.29   
    18. A(C   0,N   4,O   5)          117.30 -0.000204   -0.00    117.30   
    19. A(O   5,N   4,O   6)          124.16  0.000249    0.02    124.18   
    20. A(C   0,N   4,O   6)          118.54 -0.000045   -0.03    118.51   
    21. A(H   3,O   8,H   9)           79.46 -0.000602   -0.18     79.29   
    22. A(H   3,O   8,H   7)          107.88  0.000506   -1.54    106.34   
    23. A(H   7,O   8,H   9)          104.65  0.000259    1.18    105.83   
    24. D(O   6,N   4,C   0,H   2)    116.66 -0.000016   -0.27    116.39   
    25. D(O   6,N   4,C   0,H   1)     -4.18 -0.000167   -1.15     -5.33   
    26. D(O   5,N   4,C   0,H   1)    176.00 -0.000110   -1.15    174.85   
    27. D(O   6,N   4,C   0,H   3)   -125.51 -0.000061    0.52   -125.00   
    28. D(O   5,N   4,C   0,H   3)     54.67 -0.000004    0.52     55.19   
    29. D(O   5,N   4,C   0,H   2)    -63.15  0.000042   -0.27    -63.43   
    30. D(H   7,O   8,C   0,H   1)      0.31  0.000149   -2.13     -1.82   
    31. D(H   9,O   8,C   0,N   4)   -128.16 -0.000180    0.73   -127.43   
    32. D(H   9,O   8,C   0,H   2)    -12.96  0.000027   -2.03    -14.99   
    33. D(H   9,O   8,C   0,H   1)    101.02  0.000165   -2.73     98.29   
    34. D(H   7,O   8,C   0,N   4)    131.12 -0.000196    1.34    132.47   
    35. D(H   7,O   8,C   0,H   2)   -113.67  0.000011   -1.42   -115.10   
    ----------------------------------------------------------------------------




    ----------------------------------------------------------------------------
                                  WARNING !!!
       The optimization did not converge but reached the maximum number of
       optimization cycles.
       Please check your results very carefully.
    ----------------------------------------------------------------------------



                            ***************************************
                            *     ORCA property calculations      *
                            ***************************************

                                    ---------------------
                                    Active property flags
                                    ---------------------
   (+) Dipole Moment


------------------------------------------------------------------------------
                       ORCA ELECTRIC PROPERTIES CALCULATION
------------------------------------------------------------------------------

Dipole Moment Calculation                       ... on
Quadrupole Moment Calculation                   ... off
Polarizability Calculation                      ... off
GBWName                                         ... /home/rudenko/mopac_kie/for_orca/CH3NO2_H2O_near/orca/orca_end/end.gbw
Electron density file                           ... /home/rudenko/mopac_kie/for_orca/CH3NO2_H2O_near/orca/orca_end/end.scfp
The origin for moment calculation is the CENTER OF MASS  = ( 1.761189, -1.579376  2.659255)

-------------
DIPOLE MOMENT
-------------
                                X             Y             Z
Electronic contribution:     -4.24554       0.75863       4.14349
Nuclear contribution   :      5.79246      -1.20808      -6.25439
                        -----------------------------------------
Total Dipole Moment    :      1.54693      -0.44946      -2.11089
                        -----------------------------------------
Magnitude (a.u.)       :      2.65535
Magnitude (Debye)      :      6.74935



--------------------
Rotational spectrum 
--------------------
 
Rotational constants in cm-1:     0.332714     0.052135     0.047524 
Rotational constants in MHz :  9974.516189  1562.976962  1424.733818 

 Dipole components along the rotational axes: 
x,y,z [a.u.] :     2.283518     1.161558     0.697991 
x,y,z [Debye]:     5.804241     2.952445     1.774153 

 

Timings for individual modules:

Sum of individual times         ...      562.637 sec (=   9.377 min)
GTO integral calculation        ...       31.428 sec (=   0.524 min)   5.6 %
SCF iterations                  ...      416.532 sec (=   6.942 min)  74.0 %
SCF Gradient evaluation         ...      113.332 sec (=   1.889 min)  20.1 %
Geometry relaxation             ...        1.345 sec (=   0.022 min)   0.2 %
                             ****ORCA TERMINATED NORMALLY****
TOTAL RUN TIME: 0 days 0 hours 9 minutes 47 seconds 679 msec
