
                                        *****************
                                        * O   R   C   A *
                                        *****************

                                            #,                                       
                                            ###                                      
                                            ####                                     
                                            #####                                    
                                            ######                                   
                                           ########,                                 
                                     ,,################,,,,,                         
                               ,,#################################,,                 
                          ,,##########################################,,             
                       ,#########################################, ''#####,          
                    ,#############################################,,   '####,        
                  ,##################################################,,,,####,       
                ,###########''''           ''''###############################       
              ,#####''   ,,,,##########,,,,          '''####'''          '####       
            ,##' ,,,,###########################,,,                        '##       
           ' ,,###''''                  '''############,,,                           
         ,,##''                                '''############,,,,        ,,,,,,###''
      ,#''                                            '''#######################'''  
     '                                                          ''''####''''         
             ,#######,   #######,   ,#######,      ##                                
            ,#'     '#,  ##    ##  ,#'     '#,    #''#        ######   ,####,        
            ##       ##  ##   ,#'  ##            #'  '#       #        #'  '#        
            ##       ##  #######   ##           ,######,      #####,   #    #        
            '#,     ,#'  ##    ##  '#,     ,#' ,#      #,         ##   #,  ,#        
             '#######'   ##     ##  '#######'  #'      '#     #####' # '####'        



                  #######################################################
                  #                        -***-                        #
                  #          Department of theory and spectroscopy      #
                  #    Directorship and core code : Frank Neese         #
                  #        Max Planck Institute fuer Kohlenforschung    #
                  #                Kaiser Wilhelm Platz 1               #
                  #                 D-45470 Muelheim/Ruhr               #
                  #                      Germany                        #
                  #                                                     #
                  #                  All rights reserved                #
                  #                        -***-                        #
                  #######################################################


                         Program Version 5.0.0 -  RELEASE  -
                                (SVN: $Rev: 19529$)
                ($Date: 2021-06-28 11:36:33 +0200 (Mo, 28 Jun 2021) $)


 With contributions from (in alphabetic order):
   Daniel Aravena         : Magnetic Suceptibility
   Michael Atanasov       : Ab Initio Ligand Field Theory (pilot matlab implementation)
   Alexander A. Auer      : GIAO ZORA, VPT2 properties, NMR spectrum
   Ute Becker             : Parallelization
   Giovanni Bistoni       : ED, misc. LED, open-shell LED, HFLD
   Martin Brehm           : Molecular dynamics
   Dmytro Bykov           : SCF Hessian
   Vijay G. Chilkuri      : MRCI spin determinant printing, contributions to CSF-ICE
   Dipayan Datta          : RHF DLPNO-CCSD density
   Achintya Kumar Dutta   : EOM-CC, STEOM-CC
   Dmitry Ganyushin       : Spin-Orbit,Spin-Spin,Magnetic field MRCI
   Miquel Garcia          : C-PCM Hessian, Gaussian charge scheme
   Yang Guo               : DLPNO-NEVPT2, F12-NEVPT2, CIM, IAO-localization
   Andreas Hansen         : Spin unrestricted coupled pair/coupled cluster methods
   Benjamin Helmich-Paris : MC-RPA, TRAH-SCF, COSX integrals
   Lee Huntington         : MR-EOM, pCC
   Robert Izsak           : Overlap fitted RIJCOSX, COSX-SCS-MP3, EOM
   Marcus Kettner         : VPT2
   Christian Kollmar      : KDIIS, OOCD, Brueckner-CCSD(T), CCSD density, CASPT2, CASPT2-K
   Simone Kossmann        : Meta GGA functionals, TD-DFT gradient, OOMP2, MP2 Hessian
   Martin Krupicka        : Initial AUTO-CI
   Lucas Lang             : DCDCAS
   Marvin Lechner         : AUTO-CI (C++ implementation), FIC-MRCC
   Dagmar Lenk            : GEPOL surface, SMD
   Dimitrios Liakos       : Extrapolation schemes; Compound Job, initial MDCI parallelization
   Dimitrios Manganas     : Further ROCIS development; embedding schemes
   Dimitrios Pantazis     : SARC Basis sets
   Anastasios Papadopoulos: AUTO-CI, single reference methods and gradients
   Taras Petrenko         : DFT Hessian,TD-DFT gradient, ASA, ECA, R-Raman, ABS, FL, XAS/XES, NRVS
   Peter Pinski           : DLPNO-MP2, DLPNO-MP2 Gradient
   Christoph Reimann      : Effective Core Potentials
   Marius Retegan         : Local ZFS, SOC
   Christoph Riplinger    : Optimizer, TS searches, QM/MM, DLPNO-CCSD(T), (RO)-DLPNO pert. Triples
   Tobias Risthaus        : Range-separated hybrids, TD-DFT gradient, RPA, STAB
   Michael Roemelt        : Original ROCIS implementation
   Masaaki Saitow         : Open-shell DLPNO-CCSD energy and density
   Barbara Sandhoefer     : DKH picture change effects
   Avijit Sen             : IP-ROCIS
   Kantharuban Sivalingam : CASSCF convergence, NEVPT2, FIC-MRCI
   Bernardo de Souza      : ESD, SOC TD-DFT
   Georgi Stoychev        : AutoAux, RI-MP2 NMR
   Willem Van den Heuvel  : Paramagnetic NMR
   Boris Wezisla          : Elementary symmetry handling
   Frank Wennmohs         : Technical directorship


 We gratefully acknowledge several colleagues who have allowed us to
 interface, adapt or use parts of their codes:
   Stefan Grimme, W. Hujo, H. Kruse, P. Pracht,  : VdW corrections, initial TS optimization,
                  C. Bannwarth, S. Ehlert          DFT functionals, gCP, sTDA/sTD-DF
   Ed Valeev, F. Pavosevic, A. Kumar             : LibInt (2-el integral package), F12 methods
   Garnet Chan, S. Sharma, J. Yang, R. Olivares  : DMRG
   Ulf Ekstrom                                   : XCFun DFT Library
   Mihaly Kallay                                 : mrcc  (arbitrary order and MRCC methods)
   Jiri Pittner, Ondrej Demel                    : Mk-CCSD
   Frank Weinhold                                : gennbo (NPA and NBO analysis)
   Christopher J. Cramer and Donald G. Truhlar   : smd solvation model
   Lars Goerigk                                  : TD-DFT with DH, B97 family of functionals
   V. Asgeirsson, H. Jonsson                     : NEB implementation
   FAccTs GmbH                                   : IRC, NEB, NEB-TS, DLPNO-Multilevel, CI-OPT
                                                   MM, QMMM, 2- and 3-layer-ONIOM, Crystal-QMMM,
                                                   LR-CPCM, SF, NACMEs, symmetry and pop. for TD-DFT,
                                                   nearIR, NL-DFT gradient (VV10), updates on ESD,
                                                   ML-optimized integration grids
   S Lehtola, MJT Oliveira, MAL Marques          : LibXC Library
   Liviu Ungur et al                             : ANISO software


 Your calculation uses the libint2 library for the computation of 2-el integrals
 For citations please refer to: http://libint.valeyev.net

 Your ORCA version has been built with support for libXC version: 5.1.0
 For citations please refer to: https://tddft.org/programs/libxc/

 This ORCA versions uses:
   CBLAS   interface :  Fast vector & matrix operations
   LAPACKE interface :  Fast linear algebra routines
   SCALAPACK package :  Parallel linear algebra routines
   Shared memory     :  Shared parallel matrices
   BLAS/LAPACK       :  OpenBLAS 0.3.15  USE64BITINT DYNAMIC_ARCH NO_AFFINITY Sandybridge SINGLE_THREADED
        Core in use  :  Sandybridge
   Copyright (c) 2011-2014, The OpenBLAS Project




***************************************
The coordinates will be read from file: start.xyz
***************************************


Your calculation utilizes the atom-pairwise dispersion correction
with the Becke-Johnson damping scheme (D3BJ)
Cite in your paper:
S.Grimme, S.Ehrlich, L.Goerigk, J Comput Chem, (2011), 32, 1456–1465 
S.Grimme, J.Antony, S.Ehrlich and H.Krieg, J.Chem.Phys., 132, (2010), 154104 
   

Your calculation utilizes a Nudged-Elastic-Band implementation
 by V.Asgeirsson, C. Riplinger & H. Jonsson
Please cite in your paper:
 V. Asgeirsson et al., in prep. (2019)
   

================================================================================

----- Orbital basis set information -----
Your calculation utilizes the basis: def2-TZVP
   F. Weigend and R. Ahlrichs, Phys. Chem. Chem. Phys. 7, 3297 (2005).

----- AuxJ basis set information -----
Your calculation utilizes the auxiliary basis: def2/J
   F. Weigend, Phys. Chem. Chem. Phys. 8, 1057 (2006).

================================================================================
                                        WARNINGS
                       Please study these warnings very carefully!
================================================================================


WARNING: Geometry Optimization
  ===> : Switching off AutoStart
         For restart on a previous wavefunction, please use MOREAD

INFO   : the flag for use of the SHARK integral package has been found!

================================================================================
                                       INPUT FILE
================================================================================
NAME = neb.inp
|  1> ! NEB-TS b3lyp D3 def2-TZVP CPCM
|  2> 
|  3> %pal
|  4> nprocs 18
|  5> end
|  6> 
|  7> %cpcm
|  8> epsilon 78.0
|  9> end
| 10> 
| 11> %neb
| 12> NEB_End_XYZFile "end.xyz"
| 13> Nimages 6
| 14> end
| 15> 
| 16> 
| 17> *XYZfile 0 1 start.xyz
| 18> 
| 19>                          ****END OF INPUT****
================================================================================


------------------------------------------------------------------------------- 
                         Nudged Elastic Band Calculation                       
------------------------------------------------------------------------------- 

Number of images (incl. end points)     ....  8
Number of intermediate images           ....  6
Number of optimized images              ....  6
Optimization of end points before NEB   ....  NO
Use existing gbw files for MO input     ....  NO
Number of atoms                         ....  10
Number of (active) degrees of freedom   ....  30
Constrained atoms                       ....  None

-----------------------------------------
  REACTANT (ANGSTROEM)
-----------------------------------------
C      0.537184    -0.855104     0.394425 
H      0.678971    -1.756676    -0.192162 
H      1.016960    -0.009803    -0.096171 
H      0.879980    -0.961895     1.416303 
N     -0.924657    -0.553356     0.422082 
O     -1.409184    -0.141735     1.464188 
O     -1.554555    -0.714876    -0.611086 
H      3.666520    -0.896385    -0.246165 
O      3.796126    -1.510546     0.487147 
H      3.614346    -0.983265     1.274728 

-----------------------------------------
  PRODUCT (ANGSTROEM)
-----------------------------------------
C      0.741422    -0.879660     0.580139 
H      0.276215    -1.667059    -0.001456 
H      0.742642     0.071016     0.050331 
H      1.753210    -1.133876     0.888206 
N     -0.055403    -0.681554     1.825256 
O      0.372638     0.119184     2.643204 
O     -1.087674    -1.319339     1.964561 
H      4.211685    -2.109693    -0.270081 
O      4.129736    -1.328053     0.289657 
H      3.846368    -0.627506    -0.310557 



----------------------
NEB settings
----------------------
Method type                             ....  climbing image
Threshold for climbing image            ....  2.00e-02 Eh/Bohr 
Free endpoints                          ....  off 
Tangent type                            ....  improved 
Number of intermediate images           ....  6 
Number of images free to move           ....  6 
Spring type for image distribution      ....  distance between adjacent images 
Spring constant                         ....  energy weighted (0.0100 -to- 0.1000) Eh/Bohr^2 
Spring force perp. to the path          ....  none 
Generation of initial path              ....  image dependent pair potential 
Initial path via TS guess               ....  off 

Minimization of RMSD: Rotation          ....  always 
Minimization of RMSD: Translation type  ....  centroid 
Center fixed to origin                  ....  true 
Remove external force                   ....  true 

Reparametrization of the path           ....  off 
Convergence thresholds:
Convergence monitored for               ....  all images
Scaling factor                          ....  10.00

Convergence parameters for regular images:
               Max(|Fp|)                ....  2.00e-02 Eh/Bohr
               RMS(Fp)                  ....  1.00e-02 Eh/Bohr

Convergence parameters for climbing image:
               Max(|F|)                 ....  2.00e-03 Eh/Bohr
               RMS(F)                   ....  1.00e-03 Eh/Bohr
Optimization method:
Method                                  ....  L-BFGS
Max. iterations                         ....  500 
Step size                               ....  1.00 
Maximum allowed step size               ....  0.10 Bohr

LBFGS parameters: 
               Memory                   ....  20 
               Initial step size        ....  0.0010 
               Estimate curvature       ....  YES 
               Reset on maxmove         ....  YES 
               Reparam. on reset        ....  NO 
Generation of  the initial path:
Minimize RMSD between reactant and product configurations     .... done
       RMSD before minimization         ....  1.5696 Bohr
       RMSD after minimization          ....  0.8795 Bohr
Performing linear interpolation         ....  done
Interpolation using                     ....  IDPP (Image Dependent Pair Potential)
IDPP-Settings:
       Remove global transl. and rot.   ...   true
       Convergence tolerance            ....  0.0100 1/Ang.^3
       Max. numer of iterations         ....    7000
       Spring constant                  ....  1.0000 1/Ang.^4
       Time step                        ....  0.0100 fs
       Max. movement per iteration      ....  0.0500 Ang.
       Full print                       ....  false 
idpp initial path generation successfully converged in 52 iterations
Displacement along initial path:              4.9849 Bohr
Writing initial trajectory to file      ....  neb_initial_path_trj.xyz



----------------------
NEB OPTIMIZATION      
----------------------

Following output files will be written:
Energy profile during opt. written to    ....  neb.interp
Optimization log-file                    ....  neb.NEB.log
Current trajectory will be written to    ....  neb_MEP_trj.xyz
       and to allxyz file                ....  neb_MEP.allxyz
       and individual images to xyz file ....  neb_im{NIm}.xyz
Trajectory history will be written to    ....  neb_MEP_ALL_trj.xyz
Converged CI will be written to          ....  neb_NEB-CI_converged.xyz
Converged TS will be written to          ....  neb_NEB-TS_converged.xyz

Single point energy and gradient calculation of reactant and
product configurations (have to be performed only once)
Properties of fixed NEB end points:
               Reactant:
                         E               ....   -321.457589 Eh
                         RMS(F)          ....      0.000197 Eh/Bohr
                         MAX(|F|)        ....      0.000580 Eh/Bohr
               Product:
                         E               ....   -321.457409 Eh
                         RMS(F)          ....      0.000447 Eh/Bohr
                         MAX(|F|)        ....      0.000975 Eh/Bohr



Starting iterations:

Optim.  Iteration  HEI  E(HEI)-E(0)  max(|Fp|)   RMS(Fp)    dS
Switch-on CI threshold               0.020000 
   LBFGS     0      4    0.001240    0.008240   0.002536  4.9849       

Image  4 will be converted to a climbing image in the next iteration (max(|Fp|) < 0.0200) 

Optim.  Iteration  CI   E(CI)-E(0)   max(|Fp|)   RMS(Fp)    dS     max(|FCI|)   RMS(FCI)
Convergence thresholds               0.020000   0.010000            0.002000    0.001000 
   LBFGS     1      4    0.001369    0.023582   0.004886  4.9839    0.022660    0.007096       
   LBFGS     2      4    0.000823    0.013226   0.002678  4.9954    0.012660    0.003845       
   LBFGS     3      4    0.000647    0.006378   0.001750  5.0206    0.006203    0.002484       
   LBFGS     4      4    0.000645    0.012940   0.002621  5.0164    0.013702    0.003954       
   LBFGS     5      4    0.000469    0.005522   0.001038  5.0171    0.005506    0.001536       
   LBFGS     6      4    0.000418    0.004228   0.000822  5.0146    0.004325    0.001242       
   LBFGS     7      4    0.000450    0.007317   0.001428  5.0131    0.007458    0.002140       
   LBFGS     8      4    0.000391    0.004220   0.000939  5.0098    0.004279    0.001341       
   LBFGS     9      4    0.000369    0.001461   0.000454  5.0095    0.001308    0.000624       

                                .--------------------.
          ----------------------| CI-NEB convergence |-------------------------
          Item                value                   Tolerance       Converged
          ---------------------------------------------------------------------
          RMS(Fp)             0.0004543426            0.0100000000      YES
          MAX(|Fp|)           0.0014612202            0.0200000000      YES
          RMS(FCI)            0.0006237866            0.0010000000      YES
          MAX(|FCI|)          0.0013080387            0.0020000000      YES
          ---------------------------------------------------------------------

The elastic band and climbing image have converged successfully to a MEP in 9 iterations!


                    *********************H U R R A Y*********************
                    ***        THE NEB OPTIMIZATION HAS CONVERGED     ***
                    *****************************************************



---------------------------------------------------------------
                         PATH SUMMARY              
---------------------------------------------------------------
All forces in Eh/Bohr.

Image Dist.(Ang.)    E(Eh)   dE(kcal/mol)  max(|Fp|)  RMS(Fp)
  0     0.000    -321.45759      0.00       0.00058   0.00020
  1     0.698    -321.45736      0.14       0.00105   0.00044
  2     1.021    -321.45726      0.21       0.00140   0.00060
  3     1.268    -321.45722      0.23       0.00146   0.00063
  4     1.510    -321.45722      0.23       0.00132   0.00062 <= CI
  5     1.768    -321.45726      0.21       0.00109   0.00054
  6     2.084    -321.45733      0.16       0.00106   0.00045
  7     2.651    -321.45741      0.11       0.00095   0.00045

Straight line distance between images along the path:
        D( 0- 1) =   0.6985 Ang.
        D( 1- 2) =   0.3224 Ang.
        D( 2- 3) =   0.2466 Ang.
        D( 3- 4) =   0.2430 Ang.
        D( 4- 5) =   0.2575 Ang.
        D( 5- 6) =   0.3159 Ang.
        D( 6- 7) =   0.5671 Ang.

---------------------------------------------------------------
               INFORMATION ABOUT SADDLE POINT     
---------------------------------------------------------------

Climbing image                            ....  4 
Energy                                    ....  -321.45721983 Eh
Max. abs. force                           ....  1.3080e-03 Eh/Bohr

-----------------------------------------
  SADDLE POINT (ANGSTROEM)
-----------------------------------------
C     -0.509365     0.125578    -0.297784 
H     -0.422821    -0.517139    -1.164875 
H     -0.209699     1.144131    -0.531919 
H      0.054069    -0.244781     0.550355 
N     -1.945872     0.195163     0.096687 
O     -2.207275     0.586153     1.222778 
O     -2.787998    -0.122780    -0.727213 
H      2.845730    -0.720951    -0.407935 
O      2.642412    -0.693456     0.535623 
H      2.540819     0.248082     0.724282 

-----------------------------------------
  FORCES (Eh/Bohr)
-----------------------------------------
C     -0.000575    -0.000076     0.000546 
H     -0.000277    -0.000320    -0.000670 
H      0.000566     0.001174    -0.000329 
H      0.000253    -0.000317     0.000572 
N     -0.000529    -0.000845    -0.000310 
O      0.000656     0.000751     0.001308 
O     -0.000379    -0.000307    -0.001308 
H     -0.000218    -0.000737    -0.000169 
O      0.000619     0.000891    -0.000288 
H     -0.000038    -0.000054     0.000696 

-----------------------------------------
  UNIT TANGENT
-----------------------------------------
C     -0.022751     0.104061    -0.157465 
H     -0.097267     0.297024    -0.315128 
H     -0.114150     0.179371     0.034511 
H      0.119151    -0.055800    -0.310606 
N      0.025754    -0.065016     0.062084 
O      0.158722    -0.101453     0.108180 
O     -0.069971    -0.166906     0.194956 
H      0.114961    -0.443206     0.310061 
O     -0.104264     0.057243     0.280999 
H     -0.010184     0.194682    -0.207591 
 => Unit tangent is an approximation to the TS mode at the saddle point

Next a TS optimization is performed on the CI from the NEB run.

         *************************************************************
         *                       TS OPTIMIZATION                     *
         *************************************************************


Following output files will be written:
Converged TS will be written to          ....  neb_NEB-TS_converged.xyz
                                         ....  neb.xyz
Current trajectory will be written to    ....  neb_trj.xyz
Initial Hessian will be stored in        ....  neb.appr.hess
Geometry optimization settings:
Update method            Update   .... Bofill
Choice of coordinates    CoordSys .... Z-matrix Internals
Initial Hessian          InHess   .... Read

Convergence Tolerances:
Energy Change            TolE     ....  5.0000e-06 Eh
Max. Gradient            TolMAXG  ....  3.0000e-04 Eh/bohr
RMS Gradient             TolRMSG  ....  1.0000e-04 Eh/bohr
Max. Displacement        TolMAXD  ....  4.0000e-03 bohr
RMS Displacement         TolRMSD  ....  2.0000e-03 bohr
Strict Convergence                ....  False
------------------------------------------------------------------------------
                        ORCA OPTIMIZATION COORDINATE SETUP
------------------------------------------------------------------------------

The optimization will be done in new redundant internal coordinates
Making redundant internal coordinates   ...  (new redundants) done
Following TS mode number                ...     0
TS-active-atoms for coordinate setup... 1 3 7 
Evaluating the initial hessian          ... (Reading Exact Hessian)...  
InHessName: neb.appr.hess	The file <neb.appr.hess> is opened as a .hess file
done
done
Diagonalizing the Hessian               .... done
Dimension of the hessian                .... 96
Lowest eigenvalues of the non projected Hessian:
 -0.000333678 -0.000000000 -0.000000000 -0.000000000 -0.000000000
done
Evaluating the coordinates              ...  done
Calculating the B-matrix                .... done
Calculating the G-matrix                .... done
Diagonalizing the G-matrix              .... done
The first mode is                       ....   72
The number of degrees of freedom        ....   24

    -----------------------------------------------------------------
                    Redundant Internal Coordinates


    -----------------------------------------------------------------
         Definition                    Initial Value    d2E/dq (diagonal element)
    -----------------------------------------------------------------
      1. B(H   1,C   0)                  1.0828         0.369851   
      2. B(H   2,C   0)                  1.0872         0.292670   
      3. B(H   3,C   0)                  1.0835         0.194460   
      4. B(N   4,C   0)                  1.4913         0.385841   
      5. B(O   5,N   4)                  1.2204         0.934609   
      6. B(O   6,N   4)                  1.2203         0.935307   
      7. B(H   7,H   3)                  2.9897         0.052321   
      8. B(O   8,H   7)                  0.9656         0.283320   
      9. B(O   8,H   3)                  2.6270         0.030985   
     10. B(H   9,H   3)                  2.5411         0.029305   
     11. B(H   9,H   2)                  3.1538         0.030255   
     12. B(H   9,C   0)                  3.2192         0.032057   
     13. B(H   9,O   8)                  0.9656         0.216842   
     14. A(H   1,C   0,H   9)          101.6015         0.036238   
     15. A(H   2,C   0,H   3)          110.2105         0.022653   
     16. A(N   4,C   0,H   9)          145.7840         0.052377   
     17. A(H   1,C   0,H   2)          111.1986         0.017191   
     18. A(H   3,C   0,N   4)          108.0472         0.061153   
     19. A(H   3,C   0,H   9)           43.2617         0.008749   
     20. A(H   2,C   0,N   4)          106.1853         0.017711   
     21. A(H   2,C   0,H   9)           76.7953         0.015638   
     22. A(H   1,C   0,H   3)          112.4817         0.030712   
     23. A(H   1,C   0,N   4)          108.4519         0.064758   
     24. A(C   0,H   2,H   9)           83.5942         0.019896   
     25. A(H   7,H   3,O   8)           18.3742         0.009230   
     26. A(H   7,H   3,H   9)           30.5757         0.012746   
     27. A(C   0,H   3,H   9)          119.7474         0.019709   
     28. A(C   0,H   3,O   8)          124.4966         0.016508   
     29. A(O   8,H   3,H   9)           21.4537         0.009058   
     30. A(C   0,H   3,H   7)          106.8043         0.018913   
     31. A(C   0,N   4,O   5)          117.7334         0.297688   
     32. A(O   5,N   4,O   6)          123.9641         0.311653   
     33. A(C   0,N   4,O   6)          118.2943         0.297144   
     34. A(H   3,H   7,O   8)           59.0456         0.024111   
     35. A(H   3,O   8,H   9)           74.2586         0.016963   
     36. A(H   3,O   8,H   7)          102.5802         0.032697   
     37. A(H   7,O   8,H   9)          103.9358         0.013624   
     38. A(C   0,H   9,O   8)           90.0316         0.020048   
     39. A(H   2,H   9,H   3)           34.3461         0.012057   
     40. A(C   0,H   9,H   3)           16.9909         0.005975   
     41. A(H   3,H   9,O   8)           84.2877         0.019192   
     42. A(C   0,H   9,H   2)           19.6105         0.008328   
     43. A(H   2,H   9,O   8)          106.9162         0.023021   
     44. D(H   9,H   2,C   0,H   3)     27.9371         0.007923   
     45. D(H   9,H   2,C   0,N   4)    144.7194         0.055784   
     46. D(H   9,H   2,C   0,H   1)    -97.5016         0.042043   
     47. D(H   9,H   3,C   0,H   2)    -41.7236         0.012944   
     48. D(H   7,H   3,C   0,H   9)    -30.3132         0.011328   
     49. D(H   9,H   3,C   0,N   4)   -157.3406         0.012577   
     50. D(H   9,H   3,C   0,H   1)     82.9826         0.026982   
     51. D(O   8,H   3,C   0,H   9)    -24.7738         0.011977   
     52. D(H   7,H   3,C   0,H   2)    -72.0368         0.017658   
     53. D(O   8,H   3,C   0,N   4)    177.8855         0.020284   
     54. D(O   8,H   3,C   0,H   2)    -66.4975         0.017963   
     55. D(H   7,H   3,C   0,N   4)    172.3462         0.018976   
     56. D(H   7,H   3,C   0,H   1)     52.6694         0.030700   
     57. D(O   8,H   3,C   0,H   1)     58.2088         0.031068   
     58. D(O   5,N   4,C   0,H   1)    162.0927         0.013591   
     59. D(O   6,N   4,C   0,H   3)   -141.0920         0.008115   
     60. D(O   6,N   4,C   0,H   9)   -169.0960         0.010015   
     61. D(O   6,N   4,C   0,H   2)    100.6844         0.011406   
     62. D(O   6,N   4,C   0,H   1)    -18.9047         0.013530   
     63. D(O   5,N   4,C   0,H   9)     11.9015         0.007255   
     64. D(O   5,N   4,C   0,H   3)     39.9055         0.011027   
     65. D(O   5,N   4,C   0,H   2)    -78.3182         0.011218   
     66. D(O   8,H   7,H   3,H   9)     44.8649         0.028457   
     67. D(O   8,H   7,H   3,C   0)    165.3816         0.011958   
     68. D(H   9,O   8,H   7,H   3)    -76.6426         0.023114   
     69. D(H   9,O   8,H   3,H   7)    101.1554         0.014801   
     70. D(H   9,O   8,H   3,C   0)     84.1087         0.008101   
     71. D(H   7,O   8,H   3,C   0)    -17.0467         0.015102   
     72. D(H   7,O   8,H   3,H   9)   -101.1554         0.014801   
     73. D(O   8,H   9,C   0,H   2)   -149.9296         0.005425   
     74. D(O   8,H   9,C   0,H   1)    -40.6002         0.013320   
     75. D(H   3,H   9,O   8,H   7)     99.3935         0.040158   
     76. D(H   2,H   9,O   8,H   3)    -26.1409         0.008078   
     77. D(H   2,H   9,O   8,H   7)     73.2526         0.042079   
     78. D(C   0,H   9,O   8,H   3)    -16.0172         0.005277   
     79. D(C   0,H   9,O   8,H   7)     83.3763         0.039269   
     80. D(H   2,H   9,H   3,O   8)    131.6588         0.006437   
     81. D(H   2,H   9,H   3,C   0)     22.4345         0.007256   
     82. D(C   0,H   9,H   3,O   8)    109.2243         0.003000   
     83. D(C   0,H   9,H   3,H   7)     71.7805         0.018075   
     84. D(O   8,H   9,H   3,H   7)    -37.4438         0.023985   
     85. D(O   8,H   9,H   3,C   0)   -109.2243         0.003000   
     86. D(H   3,H   9,H   2,C   0)    -19.4068         0.007287   
     87. D(O   8,H   9,H   2,C   0)     31.5824         0.006725   
     88. D(H   3,H   9,C   0,N   4)     40.6481         0.018142   
     89. D(H   2,H   9,H   3,H   7)     94.2150         0.019060   
     90. D(H   3,H   9,C   0,H   2)    140.0946         0.008701   
     91. D(H   3,H   9,C   0,H   1)   -110.5760         0.017548   
     92. D(H   2,H   9,C   0,N   4)    -99.4465         0.016332   
     93. D(H   2,H   9,C   0,H   3)   -140.0946         0.008701   
     94. D(H   2,H   9,C   0,H   1)    109.3294         0.017751   
     95. D(O   8,H   9,C   0,N   4)    110.6239         0.013301   
     96. D(O   8,H   9,C   0,H   3)     69.9758         0.002915   
    -----------------------------------------------------------------

Number of atoms                         .... 10
Number of degrees of freedom            .... 96

         *************************************************************
         *                GEOMETRY OPTIMIZATION CYCLE   1            *
         *************************************************************


           ************************************************************
           *        Program running with 18 parallel MPI-processes    *
           *              working on a common directory               *
           ************************************************************
------------------------------------------------------------------------------
                           ORCA GTO INTEGRAL CALCULATION
                           -- RI-GTO INTEGRALS CHOSEN --
------------------------------------------------------------------------------
------------------------------------------------------------------------------
                   ___                                                        
                  /   \      - P O W E R E D   B Y -                         
                 /     \                                                     
                 |  |  |   _    _      __       _____    __    __             
                 |  |  |  | |  | |    /  \     |  _  \  |  |  /  |          
                  \  \/   | |  | |   /    \    | | | |  |  | /  /          
                 / \  \   | |__| |  /  /\  \   | |_| |  |  |/  /          
                |  |  |   |  __  | /  /__\  \  |    /   |      \           
                |  |  |   | |  | | |   __   |  |    \   |  |\   \          
                \     /   | |  | | |  |  |  |  | |\  \  |  | \   \       
                 \___/    |_|  |_| |__|  |__|  |_| \__\ |__|  \__/        
                                                                              
                      - O R C A' S   B I G   F R I E N D -                    
                                      &                                       
                       - I N T E G R A L  F E E D E R -                       
                                                                              
 v1 FN, 2020, v2 2021                                                         
------------------------------------------------------------------------------


Reading SHARK input file neb.SHARKINP.tmp ... ok
----------------------
SHARK INTEGRAL PACKAGE
----------------------

Number of atoms                             ...     10
Number of basis functions                   ...    185
Number of shells                            ...     75
Maximum angular momentum                    ...      3
Integral batch strategy                     ... SHARK/LIBINT Hybrid
RI-J (if used) integral strategy            ... SPLIT-RIJ (Revised 2003 algorithm where possible)
Printlevel                                  ...      1
Contraction scheme used                     ... SEGMENTED contraction
Coulomb Range Separation                    ... NOT USED
Exchange Range Separation                   ... NOT USED
Finite Nucleus Model                        ... NOT USED
Auxiliary Coulomb fitting basis             ... AVAILABLE
   # of basis functions in Aux-J            ...    300
   # of shells in Aux-J                     ...    100
   Maximum angular momentum in Aux-J        ...      4
Auxiliary J/K fitting basis                 ... NOT available
Auxiliary Correlation fitting basis         ... NOT available
Auxiliary 'external' fitting basis          ... NOT available
Integral threshold                          ...     2.500000e-11
Primitive cut-off                           ...     2.500000e-12
Primitive pair pre-selection threshold      ...     2.500000e-12

Calculating pre-screening integrals         ... done (  0.1 sec) Dimension = 75
Organizing shell pair data                  ... done (  0.0 sec)
Shell pair information
Total number of shell pairs                 ...      2850
Shell pairs after pre-screening             ...      2475
Total number of primitive shell pairs       ...      8640
Primitive shell pairs kept                  ...      5798
          la=0 lb=0:    705 shell pairs
          la=1 lb=0:    715 shell pairs
          la=1 lb=1:    194 shell pairs
          la=2 lb=0:    337 shell pairs
          la=2 lb=1:    173 shell pairs
          la=2 lb=2:     46 shell pairs
          la=3 lb=0:    169 shell pairs
          la=3 lb=1:     84 shell pairs
          la=3 lb=2:     40 shell pairs
          la=3 lb=3:     12 shell pairs

Calculating one electron integrals          ... done (  0.0 sec)
Calculating RI/J V-Matrix + Cholesky decomp.... done (  0.0 sec)
Calculating Nuclear repulsion               ... done (  0.0 sec) ENN=    172.512186116306 Eh

SHARK setup successfully completed in   0.2 seconds

Maximum memory used throughout the entire GTOINT-calculation: 13.8 MB


           ************************************************************
           *        Program running with 18 parallel MPI-processes    *
           *              working on a common directory               *
           ************************************************************
-------------------------------------------------------------------------------
                                 ORCA SCF
-------------------------------------------------------------------------------

------------
SCF SETTINGS
------------
Hamiltonian:
 Density Functional     Method          .... DFT(GTOs)
 Exchange Functional    Exchange        .... B88
   X-Alpha parameter    XAlpha          ....  0.666667
   Becke's b parameter  XBeta           ....  0.004200
 Correlation Functional Correlation     .... LYP
 LDA part of GGA corr.  LDAOpt          .... VWN-5
 Gradients option       PostSCFGGA      .... off
 Hybrid DFT is turned on
   Fraction HF Exchange ScalHFX         ....  0.200000
   Scaling of DF-GGA-X  ScalDFX         ....  0.720000
   Scaling of DF-GGA-C  ScalDFC         ....  0.810000
   Scaling of DF-LDA-C  ScalLDAC        ....  1.000000
   Perturbative correction              ....  0.000000
   Density functional embedding theory  .... OFF
   NL short-range parameter             ....  4.800000
 RI-approximation to the Coulomb term is turned on
   Number of AuxJ basis functions       .... 300
   RIJ-COSX (HFX calculated with COS-X)).... on


General Settings:
 Integral files         IntName         .... neb
 Hartree-Fock type      HFTyp           .... RHF
 Total Charge           Charge          ....    0
 Multiplicity           Mult            ....    1
 Number of Electrons    NEL             ....   42
 Basis Dimension        Dim             ....  185
 Nuclear Repulsion      ENuc            ....    172.5121861163 Eh

Convergence Acceleration:
 DIIS                   CNVDIIS         .... on
   Start iteration      DIISMaxIt       ....    12
   Startup error        DIISStart       ....  0.200000
   # of expansion vecs  DIISMaxEq       ....     5
   Bias factor          DIISBfac        ....   1.050
   Max. coefficient     DIISMaxC        ....  10.000
 Trust-Rad. Augm. Hess. CNVTRAH         .... auto
   Auto Start mean grad. ratio tolernc. ....  1.125000
   Auto Start start iteration           ....     1
   Auto Start num. interpolation iter.  ....    10
   Max. Number of Micro iterations      ....    16
   Max. Number of Macro iterations      .... Maxiter - #DIIS iter
   Number of Davidson start vectors     ....     2
   Converg. threshold I  (grad. norm)   ....   1.000e-05
   Converg. threshold II (energy diff.) ....   1.000e-08
   Grad. Scal. Fac. for Micro threshold ....   0.100
   Minimum threshold for Micro iter.    ....   0.010
   NR start threshold (gradient norm)   ....   0.001
   Initial trust radius                 ....   0.400
   Minimum AH scaling param. (alpha)    ....   1.000
   Maximum AH scaling param. (alpha)    .... 1000.000
   Orbital update algorithm             .... Taylor
   White noise on init. David. guess    .... on
   Maximum white noise                  ....   0.010
   Quad. conv. algorithm                .... NR
 SOSCF                  CNVSOSCF        .... on
   Start iteration      SOSCFMaxIt      ....   150
   Startup grad/error   SOSCFStart      ....  0.003300
 Level Shifting         CNVShift        .... on
   Level shift para.    LevelShift      ....    0.2500
   Turn off err/grad.   ShiftErr        ....    0.0010
 Zerner damping         CNVZerner       .... off
 Static damping         CNVDamp         .... on
   Fraction old density DampFac         ....    0.7000
   Max. Damping (<1)    DampMax         ....    0.9800
   Min. Damping (>=0)   DampMin         ....    0.0000
   Turn off err/grad.   DampErr         ....    0.1000
 Fernandez-Rico         CNVRico         .... off

SCF Procedure:
 Maximum # iterations   MaxIter         ....   125
 SCF integral mode      SCFMode         .... Direct
   Integral package                     .... SHARK and LIBINT hybrid scheme
 Reset frequency        DirectResetFreq ....    20
 Integral Threshold     Thresh          ....  2.500e-11 Eh
 Primitive CutOff       TCut            ....  2.500e-12 Eh

Convergence Tolerance:
 Convergence Check Mode ConvCheckMode   .... Total+1el-Energy
 Convergence forced     ConvForced      .... 0
 Energy Change          TolE            ....  1.000e-08 Eh
 1-El. energy change                    ....  1.000e-05 Eh
 Orbital Gradient       TolG            ....  1.000e-05
 Orbital Rotation angle TolX            ....  1.000e-05
 DIIS Error             TolErr          ....  5.000e-07


Diagonalization of the overlap matrix:
Smallest eigenvalue                        ... 8.197e-04
Time for diagonalization                   ...    0.015 sec
Threshold for overlap eigenvalues          ... 1.000e-08
Number of eigenvalues below threshold      ... 0
Time for construction of square roots      ...    0.010 sec
Total time needed                          ...    0.026 sec

---------------------
INITIAL GUESS: MOREAD
---------------------
Guess MOs are being read from file: neb.gbw
Input Geometry matches current geometry (good)
Input basis set matches current basis set (good)
MOs were renormalized
MOs were reorthogonalized (Cholesky)
                      ------------------
                      INITIAL GUESS DONE (   0.0 sec)
                      ------------------
-------------------
DFT GRID GENERATION
-------------------

General Integration Accuracy     IntAcc      ... 4.388
Radial Grid Type                 RadialGrid  ... OptM3 with GC (2021)
Angular Grid (max. ang.)         AngularGrid ... 4 (Lebedev-302)
Angular grid pruning method      GridPruning ... 4 (adaptive)
Weight generation scheme         WeightScheme... Becke
Basis function cutoff            BFCut       ... 1.0000e-11
Integration weight cutoff        WCut        ... 1.0000e-14
Angular grids for H and He will be reduced by one unit
Partially contracted basis set               ... off
Rotationally invariant grid construction     ... off

Total number of grid points                  ...    46831
Total number of batches                      ...      738
Average number of points per batch           ...       63
Average number of grid points per atom       ...     4683
Time for grid setup =    0.340 sec

--------------------
COSX GRID GENERATION
--------------------

GRIDX 1
-------
General Integration Accuracy     IntAcc      ... 3.816
Radial Grid Type                 RadialGrid  ... OptM3 with GC (2021)
Angular Grid (max. ang.)         AngularGrid ... 1 (Lebedev-50)
Angular grid pruning method      GridPruning ... 4 (adaptive)
Weight generation scheme         WeightScheme... Becke
Basis function cutoff            BFCut       ... 1.0000e-11
Integration weight cutoff        WCut        ... 1.0000e-14
Angular grids for H and He will be reduced by one unit
Partially contracted basis set               ... on
Rotationally invariant grid construction     ... off

Total number of grid points                  ...     6005
Total number of batches                      ...       99
Average number of points per batch           ...       60
Average number of grid points per atom       ...      600
UseSFitting                                  ... on

GRIDX 2
-------
General Integration Accuracy     IntAcc      ... 4.020
Radial Grid Type                 RadialGrid  ... OptM3 with GC (2021)
Angular Grid (max. ang.)         AngularGrid ... 2 (Lebedev-110)
Angular grid pruning method      GridPruning ... 4 (adaptive)
Weight generation scheme         WeightScheme... Becke
Basis function cutoff            BFCut       ... 1.0000e-11
Integration weight cutoff        WCut        ... 1.0000e-14
Angular grids for H and He will be reduced by one unit
Partially contracted basis set               ... on
Rotationally invariant grid construction     ... off

Total number of grid points                  ...    13189
Total number of batches                      ...      212
Average number of points per batch           ...       62
Average number of grid points per atom       ...     1319
UseSFitting                                  ... on

GRIDX 3
-------
General Integration Accuracy     IntAcc      ... 4.338
Radial Grid Type                 RadialGrid  ... OptM3 with GC (2021)
Angular Grid (max. ang.)         AngularGrid ... 3 (Lebedev-194)
Angular grid pruning method      GridPruning ... 4 (adaptive)
Weight generation scheme         WeightScheme... Becke
Basis function cutoff            BFCut       ... 1.0000e-11
Integration weight cutoff        WCut        ... 1.0000e-14
Angular grids for H and He will be reduced by one unit
Partially contracted basis set               ... on
Rotationally invariant grid construction     ... off

Total number of grid points                  ...    29086
Total number of batches                      ...      458
Average number of points per batch           ...       63
Average number of grid points per atom       ...     2909
UseSFitting                                  ... on

Time for X-Grid setup             =    0.273 sec


--------------------
CPCM SOLVATION MODEL
--------------------
CPCM parameters:
  Epsilon                                         ...      78.0000
  Refrac                                          ...       1.3300
  Rsolv                                           ...       1.3000
  Surface type                                    ... GAUSSIAN VDW
  Epsilon function type                           ...         CPCM
Radii:
 Radius for C  used is    3.8550 Bohr (=   2.0400 Ang.)
 Radius for H  used is    2.4944 Bohr (=   1.3200 Ang.)
 Radius for N  used is    3.5149 Bohr (=   1.8600 Ang.)
 Radius for O  used is    3.4469 Bohr (=   1.8240 Ang.)
Calculating surface                               ...        done! (  0.0s)
GEPOL surface points                              ...          679
GEPOL Volume                                      ...     685.7154
GEPOL Surface-area                                ...     474.4425
Calculating surface distance matrix               ...        done! (  0.0s)
Performing Cholesky decomposition & store         ...        done! (  0.1s)
Overall time for CPCM initialization              ...                 0.1s
--------------
SCF ITERATIONS
--------------
ITER       Energy         Delta-E        Max-DP      RMS-DP      [F,P]     Damp
               ***  Starting incremental Fock matrix formation  ***
                      *** Initiating the SOSCF procedure ***
                      *** Re-Reading the Fockian *** 
                      *** Removing any level shift *** 
ITER      Energy       Delta-E        Grad      Rot      Max-DP    RMS-DP
  0   -321.44950007 -321.4495000695  0.000002  0.000002  0.000003  0.000000
               *** Restarting incremental Fock matrix formation ***
  1   -321.44950007   0.0000000000  0.000003  0.000006  0.000005  0.000000
                 **** Energy Check signals convergence ****
              ***Rediagonalizing the Fockian in SOSCF/NRSCF***

               *****************************************************
               *                     SUCCESS                       *
               *           SCF CONVERGED AFTER   2 CYCLES          *
               *****************************************************

Old exchange energy                            =     -7.623084210 Eh
New exchange energy                            =     -7.623077452 Eh
Exchange energy change after final integration =      0.000006757 Eh
Total energy after final integration           =   -321.449493314 Eh
Final COS-X integration done in                =     0.479 sec

----------------
TOTAL SCF ENERGY
----------------

Total Energy       :         -321.44949331 Eh           -8747.08541 eV

Components:
Nuclear Repulsion  :          172.51218612 Eh            4694.29524 eV
Electronic Energy  :         -493.96167943 Eh          -13441.38064 eV
One Electron Energy:         -781.22815265 Eh          -21258.29878 eV
Two Electron Energy:          287.26647322 Eh            7816.91814 eV
Max COSX asymmetry :            0.00000076 Eh               0.00002 eV
CPCM Dielectric    :           -0.02489076 Eh              -0.67731 eV

Virial components:
Potential Energy   :         -641.67666371 Eh          -17460.90972 eV
Kinetic Energy     :          320.22717040 Eh            8713.82431 eV
Virial Ratio       :            2.00381705


DFT components:
N(Alpha)           :       21.000010543222 electrons
N(Beta)            :       21.000010543222 electrons
N(Total)           :       42.000021086445 electrons
E(X)               :      -30.414320943215 Eh       
E(C)               :       -1.722822539407 Eh       
E(XC)              :      -32.137143482622 Eh       
DFET-embed. en.    :        0.000000000000 Eh       
CPCM Solvation Model Properties:
Surface-charge          :           -0.01354824
Charge-correction       :            0.00016371 Eh               0.00445 eV
Free-energy (cav+disp)  :  This term is not implemented in the current solvation scheme

---------------
SCF CONVERGENCE
---------------

  Last Energy change         ...   -1.5502e-09  Tolerance :   1.0000e-08
  Last MAX-Density change    ...    6.1062e-16  Tolerance :   1.0000e-07
  Last RMS-Density change    ...    2.0641e-17  Tolerance :   5.0000e-09
  Last Orbital Gradient      ...    6.3356e-06  Tolerance :   1.0000e-05
  Last Orbital Rotation      ...    4.5471e-06  Tolerance :   1.0000e-05

             **** THE GBW FILE WAS UPDATED (neb.gbw) ****
             **** DENSITY neb.scfp WAS UPDATED ****
             **** ENERGY FILE WAS UPDATED (neb.en.tmp) ****
             **** THE GBW FILE WAS UPDATED (neb.gbw) ****
             **** DENSITY neb.scfp WAS UPDATED ****
----------------
ORBITAL ENERGIES
----------------

  NO   OCC          E(Eh)            E(eV) 
   0   2.0000     -19.170720      -521.6618 
   1   2.0000     -19.169851      -521.6382 
   2   2.0000     -19.124484      -520.4037 
   3   2.0000     -14.558578      -396.1590 
   4   2.0000     -10.218543      -278.0607 
   5   2.0000      -1.243230       -33.8300 
   6   2.0000      -1.068636       -29.0791 
   7   2.0000      -1.008334       -27.4382 
   8   2.0000      -0.812836       -22.1184 
   9   2.0000      -0.624109       -16.9829 
  10   2.0000      -0.555489       -15.1156 
  11   2.0000      -0.544470       -14.8158 
  12   2.0000      -0.533876       -14.5275 
  13   2.0000      -0.524467       -14.2715 
  14   2.0000      -0.438285       -11.9263 
  15   2.0000      -0.421496       -11.4695 
  16   2.0000      -0.393637       -10.7114 
  17   2.0000      -0.331663        -9.0250 
  18   2.0000      -0.326023        -8.8715 
  19   2.0000      -0.315497        -8.5851 
  20   2.0000      -0.307969        -8.3803 
  21   0.0000      -0.080685        -2.1956 
  22   0.0000       0.026603         0.7239 
  23   0.0000       0.068885         1.8745 
  24   0.0000       0.101921         2.7734 
  25   0.0000       0.112907         3.0724 
  26   0.0000       0.127854         3.4791 
  27   0.0000       0.138189         3.7603 
  28   0.0000       0.175789         4.7835 
  29   0.0000       0.203436         5.5358 
  30   0.0000       0.224662         6.1134 
  31   0.0000       0.245705         6.6860 
  32   0.0000       0.306408         8.3378 
  33   0.0000       0.332184         9.0392 
  34   0.0000       0.351334         9.5603 
  35   0.0000       0.370330        10.0772 
  36   0.0000       0.377955        10.2847 
  37   0.0000       0.407421        11.0865 
  38   0.0000       0.426594        11.6082 
  39   0.0000       0.432658        11.7732 
  40   0.0000       0.438106        11.9215 
  41   0.0000       0.445012        12.1094 
  42   0.0000       0.455500        12.3948 
  43   0.0000       0.477266        12.9871 
  44   0.0000       0.492678        13.4064 
  45   0.0000       0.517715        14.0877 
  46   0.0000       0.530488        14.4353 
  47   0.0000       0.534174        14.5356 
  48   0.0000       0.565468        15.3872 
  49   0.0000       0.567324        15.4377 
  50   0.0000       0.594539        16.1782 
  51   0.0000       0.614568        16.7233 
  52   0.0000       0.652466        17.7545 
  53   0.0000       0.696124        18.9425 
  54   0.0000       0.786340        21.3974 
  55   0.0000       0.830303        22.5937 
  56   0.0000       0.878997        23.9187 
  57   0.0000       0.926121        25.2010 
  58   0.0000       0.990486        26.9525 
  59   0.0000       1.018694        27.7201 
  60   0.0000       1.138907        30.9912 
  61   0.0000       1.153573        31.3903 
  62   0.0000       1.175425        31.9849 
  63   0.0000       1.218148        33.1475 
  64   0.0000       1.286432        35.0056 
  65   0.0000       1.315840        35.8058 
  66   0.0000       1.364227        37.1225 
  67   0.0000       1.382163        37.6106 
  68   0.0000       1.476816        40.1862 
  69   0.0000       1.492622        40.6163 
  70   0.0000       1.507622        41.0245 
  71   0.0000       1.545502        42.0552 
  72   0.0000       1.547246        42.1027 
  73   0.0000       1.577924        42.9375 
  74   0.0000       1.606896        43.7259 
  75   0.0000       1.614850        43.9423 
  76   0.0000       1.662049        45.2267 
  77   0.0000       1.682215        45.7754 
  78   0.0000       1.738288        47.3012 
  79   0.0000       1.763098        47.9763 
  80   0.0000       1.768287        48.1175 
  81   0.0000       1.901404        51.7398 
  82   0.0000       1.911490        52.0143 
  83   0.0000       1.934612        52.6435 
  84   0.0000       1.964613        53.4598 
  85   0.0000       2.012971        54.7757 
  86   0.0000       2.017241        54.8919 
  87   0.0000       2.047803        55.7235 
  88   0.0000       2.102007        57.1985 
  89   0.0000       2.110317        57.4247 
  90   0.0000       2.128596        57.9220 
  91   0.0000       2.177306        59.2475 
  92   0.0000       2.195945        59.7547 
  93   0.0000       2.231829        60.7312 
  94   0.0000       2.262120        61.5554 
  95   0.0000       2.290452        62.3264 
  96   0.0000       2.314264        62.9743 
  97   0.0000       2.357085        64.1395 
  98   0.0000       2.392914        65.1145 
  99   0.0000       2.498250        67.9808 
 100   0.0000       2.539355        69.0994 
 101   0.0000       2.566254        69.8313 
 102   0.0000       2.572298        69.9958 
 103   0.0000       2.579902        70.2027 
 104   0.0000       2.597529        70.6823 
 105   0.0000       2.613021        71.1039 
 106   0.0000       2.658847        72.3509 
 107   0.0000       2.668342        72.6093 
 108   0.0000       2.714307        73.8601 
 109   0.0000       2.720867        74.0386 
 110   0.0000       2.822851        76.8137 
 111   0.0000       2.873143        78.1822 
 112   0.0000       2.904256        79.0288 
 113   0.0000       2.987771        81.3014 
 114   0.0000       3.006677        81.8158 
 115   0.0000       3.044437        82.8433 
 116   0.0000       3.146750        85.6274 
 117   0.0000       3.219596        87.6097 
 118   0.0000       3.226311        87.7924 
 119   0.0000       3.341528        90.9276 
 120   0.0000       3.397067        92.4389 
 121   0.0000       3.456908        94.0672 
 122   0.0000       3.479050        94.6698 
 123   0.0000       3.561876        96.9236 
 124   0.0000       3.654626        99.4474 
 125   0.0000       3.721787       101.2750 
 126   0.0000       3.756136       102.2097 
 127   0.0000       3.915530       106.5470 
 128   0.0000       3.975840       108.1881 
 129   0.0000       4.017680       109.3266 
 130   0.0000       4.086089       111.1881 
 131   0.0000       4.146244       112.8250 
 132   0.0000       4.262533       115.9894 
 133   0.0000       4.397150       119.6525 
 134   0.0000       4.535301       123.4118 
 135   0.0000       4.550157       123.8161 
 136   0.0000       4.606766       125.3565 
 137   0.0000       4.666483       126.9815 
 138   0.0000       4.749376       129.2371 
 139   0.0000       4.798918       130.5852 
 140   0.0000       4.881065       132.8205 
 141   0.0000       5.055136       137.5573 
 142   0.0000       5.076316       138.1336 
 143   0.0000       5.094806       138.6367 
 144   0.0000       5.112716       139.1241 
 145   0.0000       5.126459       139.4981 
 146   0.0000       5.130630       139.6115 
 147   0.0000       5.200361       141.5090 
 148   0.0000       5.270250       143.4108 
 149   0.0000       5.284171       143.7896 
 150   0.0000       5.304127       144.3326 
 151   0.0000       5.373303       146.2150 
 152   0.0000       5.402263       147.0031 
 153   0.0000       5.447583       148.2363 
 154   0.0000       5.555920       151.1843 
 155   0.0000       5.604079       152.4947 
 156   0.0000       5.677064       154.4808 
 157   0.0000       5.924031       161.2011 
 158   0.0000       6.018484       163.7713 
 159   0.0000       6.199287       168.6912 
 160   0.0000       6.222196       169.3146 
 161   0.0000       6.259401       170.3270 
 162   0.0000       6.311592       171.7471 
 163   0.0000       6.312540       171.7729 
 164   0.0000       6.324382       172.0952 
 165   0.0000       6.339465       172.5056 
 166   0.0000       6.363874       173.1698 
 167   0.0000       6.400081       174.1551 
 168   0.0000       6.425073       174.8351 
 169   0.0000       6.628373       180.3672 
 170   0.0000       6.835917       186.0148 
 171   0.0000       6.855957       186.5601 
 172   0.0000       6.890329       187.4954 
 173   0.0000       6.912759       188.1057 
 174   0.0000       6.998531       190.4397 
 175   0.0000       7.069013       192.3576 
 176   0.0000       7.207228       196.1186 
 177   0.0000       7.241733       197.0576 
 178   0.0000       7.287482       198.3025 
 179   0.0000       7.369780       200.5419 
 180   0.0000      22.317904       607.3010 
 181   0.0000      32.300599       878.9440 
 182   0.0000      43.247439      1176.8226 
 183   0.0000      43.884562      1194.1596 
 184   0.0000      43.908440      1194.8094 
-------
TIMINGS
-------

Total SCF time: 0 days 0 hours 0 min 3 sec 

Total time                  ....       3.094 sec
Sum of individual times     ....       2.746 sec  ( 88.7%)

Fock matrix formation       ....       2.069 sec  ( 66.9%)
  Split-RI-J                ....       0.298 sec  ( 14.4% of F)
  Chain of spheres X        ....       1.162 sec  ( 56.1% of F)
  XC integration            ....       0.147 sec  (  7.1% of F)
    Basis function eval.    ....       0.036 sec  ( 24.5% of XC)
    Density eval.           ....       0.028 sec  ( 18.8% of XC)
    XC-Functional eval.     ....       0.009 sec  (  5.8% of XC)
    XC-Potential eval.      ....       0.023 sec  ( 15.8% of XC)
Diagonalization             ....       0.014 sec  (  0.4%)
Density matrix formation    ....       0.003 sec  (  0.1%)
Population analysis         ....       0.000 sec  (  0.0%)
Initial guess               ....       0.019 sec  (  0.6%)
Orbital Transformation      ....       0.000 sec  (  0.0%)
Orbital Orthonormalization  ....       0.009 sec  (  0.3%)
DIIS solution               ....       0.007 sec  (  0.2%)
SOSCF solution              ....       0.021 sec  (  0.7%)
Grid generation             ....       0.613 sec  ( 19.8%)

Maximum memory used throughout the entire SCF-calculation: 65.2 MB


-------------------------------------------------------------------------------
                          DFT DISPERSION CORRECTION                            
                                                                               
                              DFTD3 V3.1  Rev 1                                
                          USING Becke-Johnson damping                          
-------------------------------------------------------------------------------
The B3LYP functional is recognized
Active option DFTDOPT                   ...         4   

molecular C6(AA) [au] = 741.690599 


            DFT-D V3
 parameters
 s6 scaling factor         :     1.0000 
 a1 scaling factor         :     0.3981 
 s8 scaling factor         :     1.9889 
 a2 scaling factor         :     4.4211 
 ad hoc parameters k1-k3   :    16.0000     1.3333    -4.0000 

 Edisp/kcal,au: -4.848466132547  -0.007726521775 
 E6   /kcal   :  -2.461434328 
 E8   /kcal   :  -2.387031804 
 % E8         :  49.232721011 

-------------------------   ----------------
Dispersion correction           -0.007726522
-------------------------   ----------------


-------------------------   --------------------
FINAL SINGLE POINT ENERGY      -321.457219835358
-------------------------   --------------------



           ************************************************************
           *        Program running with 18 parallel MPI-processes    *
           *              working on a common directory               *
           ************************************************************
------------------------------------------------------------------------------
                         ORCA SCF GRADIENT CALCULATION
------------------------------------------------------------------------------

 ... reading COSX grid (gridx3)
Gradient of the Kohn-Sham DFT energy:
Kohn-Sham wavefunction type      ... RKS
Hartree-Fock exchange scaling    ...    0.200
Number of operators              ...    1
Number of atoms                  ...   10
Basis set dimensions             ...  185
Integral neglect threshold       ... 2.5e-11
Integral primitive cutoff        ... 2.5e-12
SHARK Integral package           ... ON

Nuc. rep. gradient       (SHARK) ... done (  0.0 sec)
HCore & Overlap gradient (SHARK) ... done (  0.0 sec)
RI-J gradient            (SHARK) ... done (  0.2 sec)
COSX-gradient                    ... done (  0.7 sec)
Exchange-correlation gradient    ... done
Dispersion correction            ... done

------------------
CARTESIAN GRADIENT
------------------

   1   C   :    0.000573838    0.000075853   -0.000545518
   2   H   :    0.000277419    0.000320208    0.000670026
   3   H   :   -0.000565585   -0.001173854    0.000329444
   4   H   :   -0.000252536    0.000317323   -0.000572282
   5   N   :    0.000530285    0.000844628    0.000309334
   6   O   :   -0.000656288   -0.000750509   -0.001307280
   7   O   :    0.000378741    0.000307245    0.001308440
   8   H   :    0.000217992    0.000737315    0.000168828
   9   O   :   -0.000619333   -0.000891625    0.000287898
  10   H   :    0.000038403    0.000054269   -0.000695896

Difference to translation invariance:
           :   -0.0000770634   -0.0001591479   -0.0000470062

Difference to rotation invariance:
           :    0.0002580184    0.0004631405   -0.0003244373

Norm of the cartesian gradient     ...    0.0034164745
RMS gradient                       ...    0.0006237600
MAX gradient                       ...    0.0013084399

-------
TIMINGS
-------

Total SCF gradient time            ...        1.831 sec

One electron gradient       ....       0.023 sec  (  1.3%)
RI-J Coulomb gradient       ....       0.215 sec  ( 11.8%)
COSX gradient               ....       0.664 sec  ( 36.3%)
XC gradient                 ....       0.221 sec  ( 12.1%)
CPCM gradient               ....       0.134 sec  (  7.3%)
   A-Matrix (El+Nuc)        ....       0.034 sec  (  1.9%)
   Potential                ....       0.100 sec  (  5.5%)

Maximum memory used throughout the entire SCFGRAD-calculation: 39.5 MB
------------------------------------------------------------------------------
                         ORCA GEOMETRY RELAXATION STEP
------------------------------------------------------------------------------

Reading the OPT-File                    .... done
Getting information on internals        .... done
Copying old internal coords+grads       .... done
Making the new internal coordinates     .... (new redundants).... done
Validating the new internal coordinates .... (new redundants).... done
Calculating the B-matrix                .... done
Calculating the G,G- and P matrices     .... done
Transforming gradient to internals      .... done
Projecting the internal gradient        .... done
Number of atoms                         ....  10
Number of internal coordinates          ....  96
Current Energy                          ....  -321.457219835 Eh
Current gradient norm                   ....     0.003416474 Eh/bohr
Maximum allowed component of the step   ....  0.300
Current trust radius                    ....  0.100
Evaluating the initial hessian          ....  (read) 
(Reading Exact Hessian)...  
InHessName: neb.appr.hess	The file <neb.appr.hess> is opened as a .hess file
done
done
Diagonalizing the Hessian               .... done
Dimension of the hessian                .... 96
Lowest eigenvalues of the non projected Hessian:
 -0.000333678 -0.000000000 -0.000000000 -0.000000000 -0.000000000
done
Projecting the Hessian                  .... done
Diagonalizing the Hessian               .... done
Dimension of the hessian                ....  96
Lowest eigenvalues of the Hessian:
 -0.000333678  0.003161767  0.013632445  0.015750024  0.031937446
Hessian has   1 negative eigenvalues
Taking P-RFO step
Searching for lambda that maximizes along the lowest mode
TS mode is mode number   0 with eigenvalue  -0.00033368 and components:
   1.    0.00358240
   2.    0.00261146
   3.    0.00534071
   4.    0.00208786
   5.    0.00146597
   6.    0.00175500
   7.   -0.07553827
   8.    0.01957833
   9.   -0.13747612
  10.   -0.03395320
  11.    0.00645792
  12.    0.01105747
  13.    0.01781043
  14.    0.03569187
  15.   -0.00115129
  16.   -0.04044562
  17.    0.00214017
  18.   -0.00212602
  19.   -0.02355754
  20.   -0.00084882
  21.   -0.00208133
  22.   -0.00146818
  23.    0.00345128
  24.    0.00218853
  25.    0.00587992
  26.    0.01427127
  27.    0.02824878
  28.    0.12556713
  29.    0.01224056
  30.    0.13825683
  31.   -0.00238762
  32.    0.00002055
  33.    0.00249587
  34.   -0.03454646
  35.    0.05079356
  36.    0.02866655
  37.   -0.00002197
  38.    0.01226164
  39.    0.00002968
  40.   -0.00469123
  41.   -0.06303413
  42.   -0.00010720
  43.    0.05358562
  44.   -0.03889913
  45.   -0.04247423
  46.   -0.03770410
  47.    0.04352338
  48.   -0.09172420
  49.    0.04635595
  50.    0.04437117
  51.   -0.01055558
  52.   -0.04820082
  53.    0.03580038
  54.    0.03296780
  55.   -0.04536825
  56.   -0.04735303
  57.    0.03381559
  58.    0.06726196
  59.    0.07613256
  60.    0.06202488
  61.    0.07899369
  62.    0.07513464
  63.    0.05415219
  64.    0.06825988
  65.    0.07112101
  66.    0.00662043
  67.   -0.19117076
  68.   -0.05883349
  69.    0.00173292
  70.   -0.23666117
  71.   -0.23839409
  72.   -0.00173292
  73.   -0.23670216
  74.   -0.24107095
  75.    0.04076910
  76.    0.10169266
  77.    0.14246176
  78.    0.03155227
  79.    0.07232137
  80.    0.25126713
  81.   -0.01991755
  82.    0.27118468
  83.    0.27638750
  84.    0.00520282
  85.   -0.27118468
  86.    0.02229757
  87.   -0.24131938
  88.    0.04486249
  89.    0.25646995
  90.    0.04005570
  91.    0.03568691
  92.    0.00480679
  93.   -0.04005570
  94.   -0.00436879
  95.   -0.23189538
  96.   -0.27675786

Lambda that maximizes along the TS mode:       0.00000803
Searching for lambda that minimizes along all other modes
In cycle   1: lambdaN =  -0.00004257   step =   0.00004257
In cycle   2: lambdaN =  -0.00004258   step =   0.00000000
Lambda that minimizes along all other modes:  -0.00004258
Calculated stepsize too large (   0.1694 >    0.1000). Scaled with    0.5904.
The final length of the internal step   ....       0.1000
Converting the step to cartesian space:
 Initial RMS(Int)=    0.0102062073
Transforming coordinates:
 Iter   0:  RMS(Cart)=    0.0107754143 RMS(Int)=    0.0102043857
 Iter   1:  RMS(Cart)=    0.0000500331 RMS(Int)=    0.0000396788
 Iter   2:  RMS(Cart)=    0.0000006235 RMS(Int)=    0.0000005722
 Iter   3:  RMS(Cart)=    0.0000000065 RMS(Int)=    0.0000000052
done
Storing new coordinates                 .... done

                                .--------------------.
          ----------------------|Geometry convergence|-------------------------
          Item                value                   Tolerance       Converged
          ---------------------------------------------------------------------
          RMS gradient        0.0003077452            0.0001000000      NO
          MAX gradient        0.0013096897            0.0003000000      NO
          RMS step            0.0102062073            0.0020000000      NO
          MAX step            0.0300107386            0.0040000000      NO
          ........................................................
          Max(Bonds)      0.0159      Max(Angles)    0.61
          Max(Dihed)        1.44      Max(Improp)    0.00
          ---------------------------------------------------------------------

The optimization has not yet converged - more geometry cycles are needed


    ---------------------------------------------------------------------------
                         Redundant Internal Coordinates
                            (Angstroem and degrees)

        Definition                    Value    dE/dq     Step     New-Value  comp.(TS mode)
    ----------------------------------------------------------------------------
     1. B(H   1,C   0)                1.0828 -0.000711  0.0004    1.0832   
     2. B(H   2,C   0)                1.0872 -0.001143  0.0011    1.0883   
     3. B(H   3,C   0)                1.0835 -0.000608  0.0007    1.0842   
     4. B(N   4,C   0)                1.4913 -0.000165  0.0000    1.4913   
     5. B(O   5,N   4)                1.2204 -0.001310  0.0004    1.2207   
     6. B(O   6,N   4)                1.2203 -0.001228  0.0003    1.2206   
     7. B(H   7,H   3)                2.9897 -0.000078  0.0127    3.0024   
     8. B(O   8,H   7)                0.9656 -0.000124 -0.0007    0.9649   
     9. B(O   8,H   3)                2.6270 -0.000010  0.0159    2.6429   
    10. B(H   9,H   3)                2.5411  0.000045  0.0107    2.5518   
    11. B(H   9,H   2)                3.1538 -0.000098  0.0092    3.1630   
    12. B(H   9,C   0)                3.2192 -0.000330  0.0094    3.2286   
    13. B(H   9,O   8)                0.9656 -0.000050 -0.0005    0.9651   
    14. A(H   1,C   0,H   9)          101.60 -0.000167   -0.17    101.44   
    15. A(H   2,C   0,H   3)          110.21  0.000181   -0.00    110.21   
    16. A(N   4,C   0,H   9)          145.78 -0.000072    0.22    146.00   
    17. A(H   1,C   0,H   2)          111.20 -0.000014   -0.03    111.17   
    18. A(H   3,C   0,N   4)          108.05 -0.000081    0.00    108.05   
    19. A(H   3,C   0,H   9)           43.26  0.000033    0.12     43.38   
    20. A(H   2,C   0,N   4)          106.19 -0.000154    0.03    106.21   
    21. A(H   2,C   0,H   9)           76.80  0.000167    0.01     76.81   
    22. A(H   1,C   0,H   3)          112.48 -0.000154    0.05    112.53   
    23. A(H   1,C   0,N   4)          108.45  0.000221   -0.05    108.40   
    24. A(C   0,H   2,H   9)           83.59  0.000012    0.03     83.62   
    25. A(H   7,H   3,O   8)           18.37 -0.000018   -0.08     18.29   
    26. A(H   7,H   3,H   9)           30.58 -0.000072   -0.13     30.44   
    27. A(C   0,H   3,H   9)          119.75  0.000049   -0.10    119.65   
    28. A(C   0,H   3,O   8)          124.50  0.000057   -0.61    123.89   
    29. A(O   8,H   3,H   9)           21.45 -0.000011   -0.13     21.32   
    30. A(C   0,H   3,H   7)          106.80  0.000058   -0.61    106.20   
    31. A(C   0,N   4,O   5)          117.73  0.000998   -0.07    117.67   
    32. A(O   5,N   4,O   6)          123.96 -0.001238    0.09    124.05   
    33. A(C   0,N   4,O   6)          118.29  0.000243   -0.03    118.27   
    34. A(H   3,H   7,O   8)           59.05  0.000021    0.23     59.27   
    35. A(H   3,O   8,H   9)           74.26  0.000033   -0.24     74.02   
    36. A(H   3,O   8,H   7)          102.58 -0.000003   -0.14    102.44   
    37. A(H   7,O   8,H   9)          103.94 -0.000222    0.15    104.09   
    38. A(C   0,H   9,O   8)           90.03 -0.000040   -0.03     90.00   
    39. A(H   2,H   9,H   3)           34.35 -0.000243   -0.08     34.26   
    40. A(C   0,H   9,H   3)           16.99 -0.000083   -0.02     16.97   
    41. A(H   3,H   9,O   8)           84.29 -0.000022    0.38     84.66   
    42. A(C   0,H   9,H   2)           19.61 -0.000178   -0.04     19.57   
    43. A(H   2,H   9,O   8)          106.92 -0.000187   -0.28    106.64   
    44. D(H   9,H   2,C   0,H   3)     27.94  0.000042    0.21     28.15   
    45. D(H   9,H   2,C   0,N   4)    144.72 -0.000047    0.23    144.95   
    46. D(H   9,H   2,C   0,H   1)    -97.50  0.000119    0.17    -97.33   
    47. D(H   9,H   3,C   0,H   2)    -41.72 -0.000074   -0.24    -41.96   
    48. D(H   7,H   3,C   0,H   9)    -30.31  0.000070    0.50    -29.82   
    49. D(H   9,H   3,C   0,N   4)   -157.34  0.000058   -0.27   -157.61   
    50. D(H   9,H   3,C   0,H   1)     82.98 -0.000068   -0.24     82.74   
    51. D(O   8,H   3,C   0,H   9)    -24.77  0.000000    0.13    -24.65   
    52. D(H   7,H   3,C   0,H   2)    -72.04 -0.000004    0.26    -71.78   
    53. D(O   8,H   3,C   0,N   4)    177.89  0.000059   -0.15    177.74   
    54. D(O   8,H   3,C   0,H   2)    -66.50 -0.000074   -0.11    -66.61   
    55. D(H   7,H   3,C   0,N   4)    172.35  0.000129    0.22    172.57   
    56. D(H   7,H   3,C   0,H   1)     52.67  0.000002    0.25     52.92   
    57. D(O   8,H   3,C   0,H   1)     58.21 -0.000068   -0.12     58.09   
    58. D(O   5,N   4,C   0,H   1)    162.09 -0.000157   -0.06    162.04   
    59. D(O   6,N   4,C   0,H   3)   -141.09  0.000138   -0.59   -141.68   
    60. D(O   6,N   4,C   0,H   9)   -169.10  0.000101   -0.48   -169.57   
    61. D(O   6,N   4,C   0,H   2)    100.68  0.000049   -0.60    100.08   
    62. D(O   6,N   4,C   0,H   1)    -18.90  0.000034   -0.56    -19.46   
    63. D(O   5,N   4,C   0,H   9)     11.90 -0.000089    0.02     11.93   
    64. D(O   5,N   4,C   0,H   3)     39.91 -0.000053   -0.09     39.82   
    65. D(O   5,N   4,C   0,H   2)    -78.32 -0.000142   -0.10    -78.42   
    66. D(O   8,H   7,H   3,H   9)     44.86  0.000138   -0.15     44.72   
    67. D(O   8,H   7,H   3,C   0)    165.38  0.000184    0.82    166.21   
    68. D(H   9,O   8,H   7,H   3)    -76.64  0.000004    0.26    -76.39   
    69. D(H   9,O   8,H   3,H   7)    101.16 -0.000228    0.15    101.31   
    70. D(H   9,O   8,H   3,C   0)     84.11 -0.000018    1.19     85.30   
    71. D(H   7,O   8,H   3,C   0)    -17.05  0.000210    1.04    -16.01   
    72. D(H   7,O   8,H   3,H   9)   -101.16  0.000228   -0.15   -101.31   
    73. D(O   8,H   9,C   0,H   2)   -149.93 -0.000023    1.21   -148.72   
    74. D(O   8,H   9,C   0,H   1)    -40.60  0.000015    1.22    -39.38   
    75. D(H   3,H   9,O   8,H   7)     99.39  0.000058   -0.24     99.16   
    76. D(H   2,H   9,O   8,H   3)    -26.14  0.000188   -0.46    -26.60   
    77. D(H   2,H   9,O   8,H   7)     73.25  0.000246   -0.70     72.56   
    78. D(C   0,H   9,O   8,H   3)    -16.02  0.000082   -0.12    -16.14   
    79. D(C   0,H   9,O   8,H   7)     83.38  0.000140   -0.36     83.02   
    80. D(H   2,H   9,H   3,O   8)    131.66 -0.000032   -1.28    130.38          0.25
    81. D(H   2,H   9,H   3,C   0)     22.43 -0.000069    0.12     22.55   
    82. D(C   0,H   9,H   3,O   8)    109.22  0.000037   -1.39    107.83          0.27
    83. D(C   0,H   9,H   3,H   7)     71.78 -0.000049   -1.35     70.43          0.28
    84. D(O   8,H   9,H   3,H   7)    -37.44 -0.000086    0.05    -37.40   
    85. D(O   8,H   9,H   3,C   0)   -109.22 -0.000037    1.39   -107.83          0.27
    86. D(H   3,H   9,H   2,C   0)    -19.41 -0.000022   -0.11    -19.52   
    87. D(O   8,H   9,H   2,C   0)     31.58 -0.000059    1.24     32.82   
    88. D(H   3,H   9,C   0,N   4)     40.65  0.000051   -0.29     40.36   
    89. D(H   2,H   9,H   3,H   7)     94.21 -0.000118   -1.23     92.98          0.26
    90. D(H   3,H   9,C   0,H   2)    140.09  0.000019   -0.22    139.87   
    91. D(H   3,H   9,C   0,H   1)   -110.58  0.000057   -0.22   -110.80   
    92. D(H   2,H   9,C   0,N   4)    -99.45  0.000033   -0.07    -99.51   
    93. D(H   2,H   9,C   0,H   3)   -140.09 -0.000019    0.22   -139.87   
    94. D(H   2,H   9,C   0,H   1)    109.33  0.000038    0.00    109.33   
    95. D(O   8,H   9,C   0,N   4)    110.62  0.000009    1.15    111.77   
    96. D(O   8,H   9,C   0,H   3)     69.98 -0.000042    1.44     71.41          0.28
    ----------------------------------------------------------------------------

         *************************************************************
         *                GEOMETRY OPTIMIZATION CYCLE   2            *
         *************************************************************
---------------------------------
CARTESIAN COORDINATES (ANGSTROEM)
---------------------------------
  C     -0.511843    0.122115   -0.293390
  H     -0.423588   -0.525380   -1.157299
  H     -0.209627    1.139945   -0.532550
  H      0.048494   -0.244360    0.559390
  N     -1.949798    0.195186    0.095280
  O     -2.213678    0.591320    1.219397
  O     -2.789318   -0.116242   -0.734239
  H      2.849466   -0.709989   -0.416278
  O      2.652456   -0.695102    0.528191
  H      2.547436    0.242507    0.731498

----------------------------
CARTESIAN COORDINATES (A.U.)
----------------------------
  NO LB      ZA    FRAG     MASS         X           Y           Z
   0 C     6.0000    0    12.011   -0.967242    0.230764   -0.554427
   1 H     1.0000    0     1.008   -0.800466   -0.992825   -2.186979
   2 H     1.0000    0     1.008   -0.396138    2.154184   -1.006374
   3 H     1.0000    0     1.008    0.091641   -0.461773    1.057094
   4 N     7.0000    0    14.007   -3.684584    0.368848    0.180053
   5 O     8.0000    0    15.999   -4.183245    1.117433    2.304326
   6 O     8.0000    0    15.999   -5.271048   -0.219666   -1.387510
   7 H     1.0000    0     1.008    5.384711   -1.341684   -0.786651
   8 O     8.0000    0    15.999    5.012416   -1.313552    0.998137
   9 H     1.0000    0     1.008    4.813956    0.458272    1.382331

--------------------------------
INTERNAL COORDINATES (ANGSTROEM)
--------------------------------
 C      0   0   0     0.000000000000     0.00000000     0.00000000
 H      1   0   0     1.083225701616     0.00000000     0.00000000
 H      1   2   0     1.088352104416   111.17002926     0.00000000
 H      1   2   3     1.084211383233   112.52856206   235.82786235
 N      1   2   3     1.491348122062   108.40276301   116.38355948
 O      5   1   2     1.220735051820   117.66587111   162.03671147
 O      5   1   2     1.220607751341   118.26499800   340.53735699
 H      4   1   2     3.002363008031   106.19868934    52.92327925
 O      8   4   1     0.964913027433    59.27267572   166.20877625
 H      9   8   4     0.965128632709   104.08699673   283.61566087

---------------------------
INTERNAL COORDINATES (A.U.)
---------------------------
 C      0   0   0     0.000000000000     0.00000000     0.00000000
 H      1   0   0     2.046999917279     0.00000000     0.00000000
 H      1   2   0     2.056687414623   111.17002926     0.00000000
 H      1   2   3     2.048862585591   112.52856206   235.82786235
 N      1   2   3     2.818239521035   108.40276301   116.38355948
 O      5   1   2     2.306854930017   117.66587111   162.03671147
 O      5   1   2     2.306614366976   118.26499800   340.53735699
 H      4   1   2     5.673643839795   106.19868934    52.92327925
 O      8   4   1     1.823421364901    59.27267572   166.20877625
[...]
  Epsilon function type                           ...         CPCM
Radii:
 Radius for C  used is    3.8550 Bohr (=   2.0400 Ang.)
 Radius for H  used is    2.4944 Bohr (=   1.3200 Ang.)
 Radius for N  used is    3.5149 Bohr (=   1.8600 Ang.)
 Radius for O  used is    3.4469 Bohr (=   1.8240 Ang.)
Calculating surface                               ...        done! (  0.0s)
GEPOL surface points                              ...          685
GEPOL Volume                                      ...     687.4290
GEPOL Surface-area                                ...     478.2540
Calculating surface distance matrix               ...        done! (  0.0s)
Performing Cholesky decomposition & store         ...        done! (  0.0s)
Overall time for CPCM initialization              ...                 0.1s
--------------
SCF ITERATIONS
--------------
ITER       Energy         Delta-E        Max-DP      RMS-DP      [F,P]     Damp
               ***  Starting incremental Fock matrix formation  ***
                      *** Initiating the SOSCF procedure ***
                      *** Re-Reading the Fockian *** 
                      *** Removing any level shift *** 
ITER      Energy       Delta-E        Grad      Rot      Max-DP    RMS-DP
  0   -321.44962618 -321.4496261774  0.000561  0.000561  0.000637  0.000018
               *** Restarting incremental Fock matrix formation ***
  1   -321.44963694  -0.0000107588  0.000135  0.000511  0.000299  0.000009
  2   -321.44963793  -0.0000009952  0.000032  0.000170  0.000069  0.000002
  3   -321.44963791   0.0000000167  0.000099  0.000124  0.000071  0.000001
  4   -321.44963796  -0.0000000438  0.000017  0.000042  0.000018  0.000001
  5   -321.44963796  -0.0000000040  0.000011  0.000014  0.000010  0.000000
  6   -321.44963796  -0.0000000009  0.000009  0.000013  0.000006  0.000000
  7   -321.44963796   0.0000000004  0.000003  0.000005  0.000003  0.000000
                  ***Gradient check signals convergence***
              ***Rediagonalizing the Fockian in SOSCF/NRSCF***

               *****************************************************
               *                     SUCCESS                       *
               *           SCF CONVERGED AFTER   8 CYCLES          *
               *****************************************************

Old exchange energy                            =     -7.622331835 Eh
New exchange energy                            =     -7.622325315 Eh
Exchange energy change after final integration =      0.000006519 Eh
Total energy after final integration           =   -321.449631444 Eh
Final COS-X integration done in                =     0.531 sec

----------------
TOTAL SCF ENERGY
----------------

Total Energy       :         -321.44963144 Eh           -8747.08917 eV

Components:
Nuclear Repulsion  :          171.76959970 Eh            4674.08843 eV
Electronic Energy  :         -493.21923114 Eh          -13421.17760 eV
One Electron Energy:         -779.74903452 Eh          -21218.04993 eV
Two Electron Energy:          286.52980338 Eh            7796.87234 eV
Max COSX asymmetry :            0.00000077 Eh               0.00002 eV
CPCM Dielectric    :           -0.02479163 Eh              -0.67461 eV

Virial components:
Potential Energy   :         -641.66280173 Eh          -17460.53251 eV
Kinetic Energy     :          320.21317028 Eh            8713.44335 eV
Virial Ratio       :            2.00386137


DFT components:
N(Alpha)           :       21.000011561950 electrons
N(Beta)            :       21.000011561950 electrons
N(Total)           :       42.000023123901 electrons
E(X)               :      -30.411782779875 Eh       
E(C)               :       -1.722442987626 Eh       
E(XC)              :      -32.134225767501 Eh       
DFET-embed. en.    :        0.000000000000 Eh       
CPCM Solvation Model Properties:
Surface-charge          :           -0.01359147
Charge-correction       :            0.00016061 Eh               0.00437 eV
Free-energy (cav+disp)  :  This term is not implemented in the current solvation scheme

---------------
SCF CONVERGENCE
---------------

  Last Energy change         ...    9.0949e-11  Tolerance :   1.0000e-08
  Last MAX-Density change    ...    7.7716e-16  Tolerance :   1.0000e-07
  Last RMS-Density change    ...    1.9480e-17  Tolerance :   5.0000e-09
  Last Orbital Gradient      ...    1.3624e-06  Tolerance :   1.0000e-05
  Last Orbital Rotation      ...    1.3894e-06  Tolerance :   1.0000e-05

             **** THE GBW FILE WAS UPDATED (neb.gbw) ****
             **** DENSITY neb.scfp WAS UPDATED ****
             **** ENERGY FILE WAS UPDATED (neb.en.tmp) ****
             **** THE GBW FILE WAS UPDATED (neb.gbw) ****
             **** DENSITY neb.scfp WAS UPDATED ****
----------------
ORBITAL ENERGIES
----------------

  NO   OCC          E(Eh)            E(eV) 
   0   2.0000     -19.171270      -521.6768 
   1   2.0000     -19.170170      -521.6469 
   2   2.0000     -19.124056      -520.3920 
   3   2.0000     -14.558814      -396.1655 
   4   2.0000     -10.219332      -278.0822 
   5   2.0000      -1.242738       -33.8166 
   6   2.0000      -1.068745       -29.0820 
   7   2.0000      -1.007793       -27.4235 
   8   2.0000      -0.812579       -22.1114 
   9   2.0000      -0.624243       -16.9865 
  10   2.0000      -0.555279       -15.1099 
  11   2.0000      -0.544315       -14.8116 
  12   2.0000      -0.534035       -14.5318 
  13   2.0000      -0.525237       -14.2924 
  14   2.0000      -0.438510       -11.9325 
  15   2.0000      -0.421138       -11.4597 
  16   2.0000      -0.392492       -10.6802 
  17   2.0000      -0.331919        -9.0320 
  18   2.0000      -0.325704        -8.8629 
  19   2.0000      -0.315459        -8.5841 
  20   2.0000      -0.308530        -8.3955 
  21   0.0000      -0.081178        -2.2090 
  22   0.0000       0.026266         0.7147 
  23   0.0000       0.068346         1.8598 
  24   0.0000       0.101645         2.7659 
  25   0.0000       0.112352         3.0573 
  26   0.0000       0.127516         3.4699 
  27   0.0000       0.135920         3.6986 
  28   0.0000       0.174666         4.7529 
  29   0.0000       0.203067         5.5257 
  30   0.0000       0.223508         6.0820 
  31   0.0000       0.245347         6.6762 
  32   0.0000       0.305515         8.3135 
  33   0.0000       0.330050         8.9811 
  34   0.0000       0.352039         9.5795 
  35   0.0000       0.369474        10.0539 
  36   0.0000       0.377498        10.2723 
  37   0.0000       0.406994        11.0749 
  38   0.0000       0.426839        11.6149 
  39   0.0000       0.431648        11.7457 
  40   0.0000       0.437300        11.8995 
  41   0.0000       0.442968        12.0538 
  42   0.0000       0.454861        12.3774 
  43   0.0000       0.476174        12.9574 
  44   0.0000       0.492255        13.3949 
  45   0.0000       0.516983        14.0678 
  46   0.0000       0.527411        14.3516 
  47   0.0000       0.533863        14.5272 
  48   0.0000       0.564788        15.3687 
  49   0.0000       0.567836        15.4516 
  50   0.0000       0.593384        16.1468 
  51   0.0000       0.612788        16.6748 
  52   0.0000       0.653586        17.7850 
  53   0.0000       0.690324        18.7847 
  54   0.0000       0.785689        21.3797 
  55   0.0000       0.828258        22.5381 
  56   0.0000       0.878298        23.8997 
  57   0.0000       0.925789        25.1920 
  58   0.0000       0.989692        26.9309 
  59   0.0000       1.017552        27.6890 
  60   0.0000       1.139724        31.0135 
  61   0.0000       1.153286        31.3825 
  62   0.0000       1.177282        32.0355 
  63   0.0000       1.214822        33.0570 
  64   0.0000       1.287304        35.0293 
  65   0.0000       1.314944        35.7815 
  66   0.0000       1.363548        37.1040 
  67   0.0000       1.382595        37.6223 
  68   0.0000       1.475973        40.1633 
  69   0.0000       1.490788        40.5664 
  70   0.0000       1.506228        40.9865 
  71   0.0000       1.544049        42.0157 
  72   0.0000       1.547652        42.1137 
  73   0.0000       1.576424        42.8967 
  74   0.0000       1.606522        43.7157 
  75   0.0000       1.611158        43.8418 
  76   0.0000       1.657650        45.1070 
  77   0.0000       1.683433        45.8085 
  78   0.0000       1.737298        47.2743 
  79   0.0000       1.761313        47.9278 
  80   0.0000       1.765473        48.0410 
  81   0.0000       1.901171        51.7335 
  82   0.0000       1.910477        51.9867 
  83   0.0000       1.935329        52.6630 
  84   0.0000       1.964296        53.4512 
  85   0.0000       2.013520        54.7907 
  86   0.0000       2.016527        54.8725 
  87   0.0000       2.046935        55.6999 
  88   0.0000       2.104014        57.2531 
  89   0.0000       2.108466        57.3743 
  90   0.0000       2.123029        57.7705 
  91   0.0000       2.175510        59.1986 
  92   0.0000       2.194976        59.7283 
  93   0.0000       2.229765        60.6750 
  94   0.0000       2.260714        61.5172 
  95   0.0000       2.290723        62.3337 
  96   0.0000       2.311604        62.9020 
  97   0.0000       2.353665        64.0465 
  98   0.0000       2.396806        65.2204 
  99   0.0000       2.497686        67.9655 
 100   0.0000       2.537056        69.0368 
 101   0.0000       2.565793        69.8188 
 102   0.0000       2.569878        69.9299 
 103   0.0000       2.579295        70.1862 
 104   0.0000       2.596913        70.6656 
 105   0.0000       2.612444        71.0882 
 106   0.0000       2.656931        72.2988 
 107   0.0000       2.664464        72.5037 
 108   0.0000       2.712757        73.8179 
 109   0.0000       2.721090        74.0446 
 110   0.0000       2.819921        76.7339 
 111   0.0000       2.868093        78.0448 
 112   0.0000       2.903040        78.9957 
 113   0.0000       2.986803        81.2750 
 114   0.0000       3.003566        81.7312 
 115   0.0000       3.042939        82.8026 
 116   0.0000       3.144233        85.5589 
 117   0.0000       3.216068        87.5137 
 118   0.0000       3.222949        87.7009 
 119   0.0000       3.340082        90.8882 
 120   0.0000       3.394137        92.3592 
 121   0.0000       3.453884        93.9850 
 122   0.0000       3.477581        94.6298 
 123   0.0000       3.558223        96.8242 
 124   0.0000       3.649465        99.3070 
 125   0.0000       3.720592       101.2424 
 126   0.0000       3.756010       102.2062 
 127   0.0000       3.919795       106.6630 
 128   0.0000       3.974223       108.1441 
 129   0.0000       4.016735       109.3009 
 130   0.0000       4.081710       111.0690 
 131   0.0000       4.143842       112.7597 
 132   0.0000       4.261723       115.9674 
 133   0.0000       4.395161       119.5984 
 134   0.0000       4.533941       123.3748 
 135   0.0000       4.548289       123.7652 
 136   0.0000       4.604441       125.2932 
 137   0.0000       4.664763       126.9347 
 138   0.0000       4.748786       129.2210 
 139   0.0000       4.798694       130.5791 
 140   0.0000       4.879162       132.7687 
 141   0.0000       5.055566       137.5690 
 142   0.0000       5.075744       138.1180 
 143   0.0000       5.095509       138.6558 
 144   0.0000       5.112339       139.1138 
 145   0.0000       5.125903       139.4829 
 146   0.0000       5.130344       139.6038 
 147   0.0000       5.198276       141.4523 
 148   0.0000       5.270982       143.4307 
 149   0.0000       5.284217       143.7909 
 150   0.0000       5.303399       144.3128 
 151   0.0000       5.374131       146.2375 
 152   0.0000       5.401159       146.9730 
 153   0.0000       5.454537       148.4255 
 154   0.0000       5.554743       151.1523 
 155   0.0000       5.599528       152.3709 
 156   0.0000       5.673890       154.3944 
 157   0.0000       5.921541       161.1333 
 158   0.0000       6.015345       163.6859 
 159   0.0000       6.201052       168.7392 
 160   0.0000       6.220731       169.2747 
 161   0.0000       6.258936       170.3143 
 162   0.0000       6.308807       171.6714 
 163   0.0000       6.309742       171.6968 
 164   0.0000       6.323550       172.0725 
 165   0.0000       6.337343       172.4479 
 166   0.0000       6.364108       173.1762 
 167   0.0000       6.400011       174.1531 
 168   0.0000       6.420281       174.7047 
 169   0.0000       6.625409       180.2865 
 170   0.0000       6.835079       185.9920 
 171   0.0000       6.854633       186.5241 
 172   0.0000       6.897145       187.6808 
 173   0.0000       6.911294       188.0659 
 174   0.0000       6.992903       190.2866 
 175   0.0000       7.066846       192.2987 
 176   0.0000       7.207706       196.1316 
 177   0.0000       7.239621       197.0001 
 178   0.0000       7.290207       198.3766 
 179   0.0000       7.368257       200.5005 
 180   0.0000      22.310049       607.0873 
 181   0.0000      32.294191       878.7696 
 182   0.0000      43.244636      1176.7464 
 183   0.0000      43.883696      1194.1361 
 184   0.0000      43.906178      1194.7478 
-------
TIMINGS
-------

Total SCF time: 0 days 0 hours 0 min 6 sec 

Total time                  ....       6.097 sec
Sum of individual times     ....       5.726 sec  ( 93.9%)

Fock matrix formation       ....       5.157 sec  ( 84.6%)
  Split-RI-J                ....       0.478 sec  (  9.3% of F)
  Chain of spheres X        ....       2.703 sec  ( 52.4% of F)
  XC integration            ....       0.488 sec  (  9.5% of F)
    Basis function eval.    ....       0.133 sec  ( 27.2% of XC)
    Density eval.           ....       0.094 sec  ( 19.3% of XC)
    XC-Functional eval.     ....       0.030 sec  (  6.1% of XC)
    XC-Potential eval.      ....       0.072 sec  ( 14.7% of XC)
Diagonalization             ....       0.016 sec  (  0.3%)
Density matrix formation    ....       0.008 sec  (  0.1%)
Population analysis         ....       0.000 sec  (  0.0%)
Initial guess               ....       0.015 sec  (  0.3%)
Orbital Transformation      ....       0.000 sec  (  0.0%)
Orbital Orthonormalization  ....       0.009 sec  (  0.1%)
DIIS solution               ....       0.007 sec  (  0.1%)
SOSCF solution              ....       0.088 sec  (  1.4%)
Grid generation             ....       0.436 sec  (  7.1%)

Maximum memory used throughout the entire SCF-calculation: 65.2 MB


-------------------------------------------------------------------------------
                          DFT DISPERSION CORRECTION                            
                                                                               
                              DFTD3 V3.1  Rev 1                                
                          USING Becke-Johnson damping                          
-------------------------------------------------------------------------------
The B3LYP functional is recognized
Active option DFTDOPT                   ...         4   

molecular C6(AA) [au] = 741.705897 


            DFT-D V3
 parameters
 s6 scaling factor         :     1.0000 
 a1 scaling factor         :     0.3981 
 s8 scaling factor         :     1.9889 
 a2 scaling factor         :     4.4211 
 ad hoc parameters k1-k3   :    16.0000     1.3333    -4.0000 

 Edisp/kcal,au: -4.789391968873  -0.007632381113 
 E6   /kcal   :  -2.432382873 
 E8   /kcal   :  -2.357009096 
 % E8         :  49.213117465 

-------------------------   ----------------
Dispersion correction           -0.007632381
-------------------------   ----------------


-------------------------   --------------------
FINAL SINGLE POINT ENERGY      -321.457263824695
-------------------------   --------------------

                                *** OPTIMIZATION RUN DONE ***


                    ***********************HURRAY************************
                    ***        THE TS OPTIMIZATION HAS CONVERGED      ***
                    *****************************************************



---------------------------------------------------------------
                      PATH SUMMARY FOR NEB-TS             
---------------------------------------------------------------
All forces in Eh/Bohr. Global forces for TS.

Image     E(Eh)   dE(kcal/mol)  max(|Fp|)  RMS(Fp)
  0    -321.45759     0.00       0.00058   0.00020
  1    -321.45736     0.14       0.00105   0.00044
  2    -321.45726     0.21       0.00140   0.00060
  3    -321.45722     0.23       0.00146   0.00063
  4    -321.45722     0.23       0.00132   0.00062 <= CI
 TS    -321.45726     0.20       0.00033   0.00013 <= TS
  5    -321.45726     0.21       0.00109   0.00054
  6    -321.45733     0.16       0.00106   0.00045
  7    -321.45741     0.11       0.00095   0.00045
----------
STATISTICS
----------

For the individual parts of the NEB, NEB-CI or NEB-TS run:

Number of iterations:
     NEB                               ... 10  40.0%
     TS optimization                   ... 15  60.0%
Number of SCF / gradient calculations:
     NEB                               ... 68  81.9%
     TS optimization                   ... 15  18.1%

----------
 TIMINGS
----------

For the individual parts of the NEB, NEB-CI or NEB-TS run:

Total                                  ...      518.252 sec
NEB                                    ...      371.332 sec  71.7%
TS Optimization                        ...      146.921 sec  28.3%


                            ***************************************
                            *     ORCA property calculations      *
                            ***************************************

                                    ---------------------
                                    Active property flags
                                    ---------------------
   (+) Dipole Moment


------------------------------------------------------------------------------
                       ORCA ELECTRIC PROPERTIES CALCULATION
------------------------------------------------------------------------------

Dipole Moment Calculation                       ... on
Quadrupole Moment Calculation                   ... off
Polarizability Calculation                      ... off
GBWName                                         ... neb.gbw
Electron density file                           ... neb.scfp
The origin for moment calculation is the CENTER OF MASS  = (-1.590745,  0.015559  0.314519)

-------------
DIPOLE MOMENT
-------------
                                X             Y             Z
Electronic contribution:     -6.65120       0.77173       0.49336
Nuclear contribution   :      8.48801      -0.13776      -1.53463
                        -----------------------------------------
Total Dipole Moment    :      1.83681       0.63396      -1.04127
                        -----------------------------------------
Magnitude (a.u.)       :      2.20454
Magnitude (Debye)      :      5.60351



--------------------
Rotational spectrum 
--------------------
 
Rotational constants in cm-1:     0.375005     0.047571     0.043180 
Rotational constants in MHz : 11242.352604  1426.156839  1294.516908 

 Dipole components along the rotational axes: 
x,y,z [a.u.] :    -1.633203     0.813126    -1.237534 
x,y,z [Debye]:    -4.151272     2.066803    -3.145561 

 

Timings for individual modules:

Sum of individual times         ...      537.010 sec (=   8.950 min)
GTO integral calculation        ...       10.761 sec (=   0.179 min)   2.0 %
SCF iterations                  ...      117.795 sec (=   1.963 min)  21.9 %
SCF Gradient evaluation         ...       36.073 sec (=   0.601 min)   6.7 %
Geometry relaxation             ...        1.049 sec (=   0.017 min)   0.2 %
NEB Iterations                  ...      371.332 sec (=   6.189 min)  69.1 %
                             ****ORCA TERMINATED NORMALLY****
TOTAL RUN TIME: 0 days 0 hours 8 minutes 39 seconds 939 msec
