 *******************************************************************************
 **                                                                           **
 **                              MOPAC v22.0.6                                **
 **                                                                           **
 *******************************************************************************
 **          Digital Object Identifier (DOI): 10.5281/zenodo.6511958          **
 **    Visit the DOI location for information on how to cite this program.    **
 *******************************************************************************

                              PM7 CALCULATION RESULTS

 *******************************************************************************
 *  CALCULATION DONE:                                Sat Mar 23 14:52:46 2024  *
 *  PM7        - The PM7 Hamiltonian to be used
 *  SINGLET    - SPIN STATE DEFINED AS A SINGLET
 *
 *
 *
 *                 CHARGE ON SYSTEM = -1
 *
 *
 *
 *  EPS=78.4   - USE ANDREAS KLAMT'S COSMO IMPLICIT SOLVATION MODEL
 *  T=         - A TIME OF 14.0 DAYS REQUESTED
 *  DUMP=N     - RESTART FILE WRITTEN EVERY 30.0 MINUTES REQUESTED
 *  RELSCF     - DEFAULT SCF CRITERION MULTIPLIED BY 1.0000
 *              (DEFAULT SCF CRITERION = 0.00010)
 *  ITRY=      - DO A MAXIMUM OF 15000 ITERATIONS FOR SCF
 *  AUX        - OUTPUT AUXILIARY INFORMATION
 *  BONDS      - FINAL BOND-ORDER MATRIX TO BE PRINTED
 *******************************************************************************
PM7 BONDS AUX DUMP=30M ITRY=15000 T=14D CHARGE=-1 SINGLET eps=78.4 RELSCF=1
 Title: ASE calculation

   ATOM   CHEMICAL          X               Y               Z
  NUMBER   SYMBOL      (ANGSTROMS)     (ANGSTROMS)     (ANGSTROMS)

     1       C         -0.74945216     -1.00119025      0.58066687   
     2       H         -1.20273002  *  -1.24163813  *  -0.36500944  *
     3       H          1.69354244      0.33469439  *   2.49521792  *
     4       H         -0.48634107  *  -1.84165618  *   1.19809211  *
     5       N         -0.55407771  *   0.23571551  *   0.96269834  *
     6       O         -0.01580991  *   0.53370907  *   2.07544422  *
     7       O         -0.88430817  *   1.21867808  *   0.22296951  *
     8       H          3.85941727  *   1.56529827  *  -0.07843912  *
     9       O          4.19421648  *   0.91010914  *  -0.71325592  *
    10       H          2.19796361  *  -1.78177067  *  -0.41528458  *
    11       O          2.56199594     -1.04658950      0.12461378   
    12       H          3.62885648  *   0.14518540  *  -0.52481889  *
    13       H          0.09839747  *   2.57232876  *   0.53447756  *
    14       O          0.62980431  *   3.39366480  *   0.60634046  *
    15       H          1.52380740  *   3.08559515  *   0.79683969  *
    16       H          2.90776532  *   1.78852407  *   1.80918849  *
    17       O          3.10063937  *   2.49887964  *   1.15031642  *
    18       H          3.66450812  *   3.13087386  *   1.61842514  *
    19       H          1.78144810  *  -0.59935167  *   0.45875632  *
    20       O          2.55064484  *   0.51905444  *   2.86410583  *
    21       H          2.36441024  *   0.92783516  *   3.72416092  *
    22       H          0.69138909  *  -2.65447923  *  -1.75624661  *
    23       O          1.41367916  *  -3.04383378  *  -1.23940601  *
    24       H          2.00885572  *  -3.41177510  *  -1.90917883  *



          CARTESIAN COORDINATES 

    NO.       ATOM           X           Y           Z

     1         C         -0.7495     -1.0012      0.5807
     2         H         -1.2027     -1.2416     -0.3650
     3         H          1.6935      0.3347      2.4952
     4         H         -0.4863     -1.8417      1.1981
     5         N         -0.5541      0.2357      0.9627
     6         O         -0.0158      0.5337      2.0754
     7         O         -0.8843      1.2187      0.2230
     8         H          3.8594      1.5653     -0.0784
     9         O          4.1942      0.9101     -0.7133
    10         H          2.1980     -1.7818     -0.4153
    11         O          2.5620     -1.0466      0.1246
    12         H          3.6289      0.1452     -0.5248
    13         H          0.0984      2.5723      0.5345
    14         O          0.6298      3.3937      0.6063
    15         H          1.5238      3.0856      0.7968
    16         H          2.9078      1.7885      1.8092
    17         O          3.1006      2.4989      1.1503
    18         H          3.6645      3.1309      1.6184
    19         H          1.7814     -0.5994      0.4588
    20         O          2.5506      0.5191      2.8641
    21         H          2.3644      0.9278      3.7242
    22         H          0.6914     -2.6545     -1.7562
    23         O          1.4137     -3.0438     -1.2394
    24         H          2.0089     -3.4118     -1.9092

 General Reference for PM7:
 "Optimization of Parameters for Semiempirical Methods VI: More Modifications to the 
 NDDO Approximations and Re-optimization of Parameters", J. J. P. Stewart, J. Mol. Mod., 1:32, 19 (2013)
 https://link.springer.com/article/10.1007/s00894-012-1667-x

           Empirical Formula: C H14 N O8  =    24 atoms



      MOLECULAR POINT GROUP   :   C1  


 SINGLET STATE CALCULATION


      RHF CALCULATION, NO. OF DOUBLY OCCUPIED LEVELS = 36


          Geometry optimization using EF
  SCF CRITERION =    0.1000E-03

          DIAGONAL MATRIX USED AS START HESSIAN

 CYCLE:     1 TIME:   0.074 TIME LEFT:  2.00W  GRAD.:    13.506 HEAT: -544.5254
 CYCLE:     2 TIME:   0.043 TIME LEFT:  2.00W  GRAD.:    14.936 HEAT: -544.6729
 CYCLE:     3 TIME:   0.043 TIME LEFT:  2.00W  GRAD.:     8.572 HEAT: -544.6879
 CYCLE:     4 TIME:   0.016 TIME LEFT:  2.00W  GRAD.:     6.721 HEAT: -544.6965
 CYCLE:     5 TIME:   0.027 TIME LEFT:  2.00W  GRAD.:     3.003 HEAT: -544.7093
 CYCLE:     6 TIME:   0.012 TIME LEFT:  2.00W  GRAD.:     4.668 HEAT: -544.7165
 CYCLE:     7 TIME:   0.027 TIME LEFT:  2.00W  GRAD.:     2.349 HEAT: -544.7079
 CYCLE:     8 TIME:   0.016 TIME LEFT:  2.00W  GRAD.:     4.741 HEAT: -544.7206
 CYCLE:     9 TIME:   0.016 TIME LEFT:  2.00W  GRAD.:     3.866 HEAT: -544.7213
 CYCLE:    10 TIME:   0.016 TIME LEFT:  2.00W  GRAD.:     7.229 HEAT: -544.7218
 CYCLE:    11 TIME:   0.012 TIME LEFT:  2.00W  GRAD.:     5.135 HEAT: -544.7313
 CYCLE:    12 TIME:   0.016 TIME LEFT:  2.00W  GRAD.:     4.397 HEAT: -544.7376
 CYCLE:    13 TIME:   0.016 TIME LEFT:  2.00W  GRAD.:     2.499 HEAT: -544.7416
 CYCLE:    14 TIME:   0.027 TIME LEFT:  2.00W  GRAD.:     2.293 HEAT: -544.7473
 CYCLE:    15 TIME:   0.027 TIME LEFT:  2.00W  GRAD.:     1.672 HEAT: -544.7480
 CYCLE:    16 TIME:   0.047 TIME LEFT:  2.00W  GRAD.:     1.477 HEAT: -544.7394
 CYCLE:    17 TIME:   0.047 TIME LEFT:  2.00W  GRAD.:     1.489 HEAT: -544.7444
 CYCLE:    18 TIME:   0.074 TIME LEFT:  2.00W  GRAD.:     1.097 HEAT: -544.7485
 CYCLE:    19 TIME:   0.031 TIME LEFT:  2.00W  GRAD.:     1.672 HEAT: -544.7701
 CYCLE:    20 TIME:   0.062 TIME LEFT:  2.00W  GRAD.:     1.545 HEAT: -544.7667
 CYCLE:    21 TIME:   0.074 TIME LEFT:  2.00W  GRAD.:     0.929 HEAT: -544.7655

     GRADIENT =  0.92905 IS LESS THAN CUTOFF =  1.00000



 -------------------------------------------------------------------------------
 PM7 BONDS AUX DUMP=30M ITRY=15000 T=14D CHARGE=-1 SINGLET eps=78.4 RELSCF=1
 Title: ASE calculation



     GEOMETRY OPTIMISED USING EIGENVECTOR FOLLOWING (EF).     
     SCF FIELD WAS ACHIEVED                                   


                              PM7 CALCULATION
                                                       MOPAC v22.0.6 Linux
                                                       Sat Mar 23 14:52:47 2024




          FINAL HEAT OF FORMATION =       -544.76551 KCAL/MOL =   -2279.29889 KJ/MOL
          VAN DER WAALS AREA      =        209.99 SQUARE ANGSTROMS



          DIELECTRIC ENERGY       =         -3.80664 EV
          COSMO AREA              =        209.99 SQUARE ANGSTROMS
          COSMO VOLUME            =        213.20 CUBIC ANGSTROMS

          GRADIENT NORM           =          0.92905          =       0.18964 PER ATOM
          IONIZATION POTENTIAL    =          9.353872 EV
          HOMO LUMO ENERGIES (EV) =         -9.354  1.073
          NO. OF FILLED LEVELS    =         36
          MOLECULAR WEIGHT        =        168.1235         POINT GROUP:  C1  

          MOLECULAR DIMENSIONS (Angstroms)

            Atom       Atom       Distance
            H    24    H    18     7.60824
            H     4    O     9     5.17967
            H    21    O     7     4.28143


          SCF CALCULATIONS        =         46

          WALL-CLOCK TIME         =      0.758 SECONDS
          COMPUTATION TIME        =     19.914 SECONDS




   ATOM   CHEMICAL          X               Y               Z
  NUMBER   SYMBOL      (ANGSTROMS)     (ANGSTROMS)     (ANGSTROMS)

     1       C         -0.74945216     -1.00119025      0.58066687   
     2       H         -1.22353867  *  -1.23268701  *  -0.35675072  *
     3       H          1.69354244      0.34346505  *   2.49031659  *
     4       H         -0.47639636  *  -1.84548601  *   1.18855920  *
     5       N         -0.54591401  *   0.23239105  *   0.97046587  *
     6       O          0.00688568  *   0.52052342  *   2.07888464  *
     7       O         -0.88214249  *   1.22206465  *   0.24265869  *
     8       H          3.85403330  *   1.57014559  *  -0.09637942  *
     9       O          4.17856470  *   0.91334713  *  -0.73445304  *
    10       H          2.20438350  *  -1.78146369  *  -0.41923564  *
    11       O          2.56199594     -1.04658950      0.12461378   
    12       H          3.61666996  *   0.14839934  *  -0.53402629  *
    13       H          0.10828880  *   2.57085768  *   0.55230124  *
    14       O          0.63713450  *   3.39377234  *   0.62568652  *
    15       H          1.53437009  *   3.08879288  *   0.80434047  *
    16       H          2.93431853  *   1.79836583  *   1.79702642  *
    17       O          3.11942128  *   2.51291797  *   1.13983509  *
    18       H          3.68612865  *   3.14189949  *   1.60820645  *
    19       H          1.77910356  *  -0.60080195  *   0.45501407  *
    20       O          2.58234123  *   0.52232230  *   2.84370250  *
    21       H          2.42038499  *   0.92908246  *   3.70918816  *
    22       H          0.67954637  *  -2.66588008  *  -1.72594113  *
    23       O          1.43600771  *  -3.04649951  *  -1.25341737  *
    24       H          2.01688878  *  -3.36713177  *  -1.95990651  *

                             CARTESIAN COORDINATES

   1    C       -0.749452160    -1.001190250     0.580666870
   2    H       -1.223538672    -1.232687007    -0.356750722
   3    H        1.693542440     0.343465051     2.490316590
   4    H       -0.476396356    -1.845486012     1.188559200
   5    N       -0.545914007     0.232391051     0.970465874
   6    O        0.006885684     0.520523417     2.078884643
   7    O       -0.882142491     1.222064653     0.242658688
   8    H        3.854033298     1.570145595    -0.096379423
   9    O        4.178564703     0.913347134    -0.734453036
  10    H        2.204383502    -1.781463691    -0.419235643
  11    O        2.561995940    -1.046589500     0.124613780
  12    H        3.616669964     0.148399337    -0.534026291
  13    H        0.108288795     2.570857682     0.552301239
  14    O        0.637134499     3.393772336     0.625686523
  15    H        1.534370090     3.088792880     0.804340467
  16    H        2.934318533     1.798365833     1.797026418
  17    O        3.119421277     2.512917974     1.139835088
  18    H        3.686128650     3.141899488     1.608206453
  19    H        1.779103555    -0.600801948     0.455014069
  20    O        2.582341234     0.522322298     2.843702502
  21    H        2.420384992     0.929082464     3.709188161
  22    H        0.679546373    -2.665880084    -1.725941128
  23    O        1.436007715    -3.046499507    -1.253417370
  24    H        2.016888781    -3.367131774    -1.959906506


           Empirical Formula: C H14 N O8  =    24 atoms



      MOLECULAR POINT GROUP   :   C1  


                  EIGENVALUES  
 -35.91173 -29.99123 -29.68741 -29.09147 -28.97947 -28.54625 -28.24302 -27.83227
 -26.31324 -21.01229 -18.19280 -17.93421 -17.83664 -17.75888 -17.53729 -17.39683
 -17.19009 -16.95085 -16.02992 -15.14704 -14.84599 -14.58545 -14.45568 -14.22867
 -13.96488 -13.51643 -12.45531 -12.41612 -12.37700 -12.31809 -12.14578 -12.02945
 -11.17275 -11.00567 -10.81587  -9.35387   1.07254   1.90526   3.25394   3.71494
   4.25981   4.56405   4.80727   5.29209   5.58715   5.93887   6.37456   6.45185
   6.57489   6.62820   6.63446   6.81782   7.07324   7.30567


              NET ATOMIC CHARGES AND DIPOLE CONTRIBUTIONS

  ATOM NO.   TYPE          CHARGE      No. of ELECS.   s-Pop       p-Pop       
    1          C          -0.561197        4.5612     1.07549     3.48571
    2          H           0.189822        0.8102     0.81018
    3          H           0.382194        0.6178     0.61781
    4          H           0.189341        0.8107     0.81066
    5          N           0.707520        4.2925     1.41022     2.88226
    6          O          -0.736709        6.7367     1.94367     4.79304
    7          O          -0.726098        6.7261     1.94481     4.78128
    8          H           0.375344        0.6247     0.62466
    9          O          -0.797122        6.7971     1.82310     4.97402
   10          H           0.387492        0.6125     0.61251
   11          O          -0.757493        6.7575     1.81392     4.94357
   12          H           0.374930        0.6251     0.62507
   13          H           0.389879        0.6101     0.61012
   14          O          -0.825730        6.8257     1.81840     5.00733
   15          H           0.376333        0.6237     0.62367
   16          H           0.391059        0.6089     0.60894
   17          O          -0.767840        6.7678     1.81320     4.95464
   18          H           0.389121        0.6109     0.61088
   19          H           0.358000        0.6420     0.64200
   20          O          -0.752195        6.7522     1.81607     4.93612
   21          H           0.383521        0.6165     0.61648
   22          H           0.381123        0.6189     0.61888
   23          O          -0.732858        6.7329     1.81297     4.91989
   24          H           0.381565        0.6184     0.61844
 DIPOLE           X         Y         Z       TOTAL
 POINT-CHG.     2.915    -7.219    -0.394     7.795
 HYBRID        -0.542     0.239     0.455     0.747
 SUM            2.372    -6.980     0.062     7.373


          ATOMIC ORBITAL ELECTRON POPULATIONS

     Atom    s        px        py        pz   
    1  C   1.07549   1.35374   0.92780   1.20416
    2  H   0.81018
    3  H   0.61781
    4  H   0.81066
    5  N   1.41022   0.96949   0.98431   0.92845
    6  O   1.94367   1.65739   1.91133   1.22432
    7  O   1.94481   1.75522   1.42828   1.59779
    8  H   0.62466
    9  O   1.82310   1.74486   1.49279   1.73637
   10  H   0.61251
   11  O   1.81392   1.51916   1.63030   1.79411
   12  H   0.62507
   13  H   0.61012
   14  O   1.81840   1.46476   1.56166   1.98091
   15  H   0.62367
   16  H   0.60894
   17  O   1.81320   1.78793   1.56440   1.60231
   18  H   0.61088
   19  H   0.64200
   20  O   1.81607   1.52718   1.87215   1.53680
   21  H   0.61648
   22  H   0.61888
   23  O   1.81297   1.53434   1.85609   1.52945
   24  H   0.61844

          BONDING CONTRIBUTION OF EACH M.O.

  1.4303  1.1571  1.1296  1.1005  1.0900  1.0966  1.0678  0.9236  1.1987  1.0629
  1.5882  1.3967  1.5285  1.6325  1.5560  1.5435  1.4279  1.5850  1.1857  0.6618
  0.7126  0.6469  0.6935  0.5999  0.6163  1.8145  0.1101  0.1182  0.1541  0.2175
  0.0015  0.0008  0.4149  0.4267  0.2725  0.9604 -2.5070 -2.1499 -1.7930 -1.7547
 -1.8239 -1.7345 -1.8085 -1.7787 -1.7313 -1.8625 -1.8860 -1.7401 -1.7607 -1.6998
 -1.8754 -1.7663 -1.7252 -1.7262





            (VALENCIES)   BOND ORDERS

     1  C     (3.739)     5  N 1.522     4  H 0.949     2  H 0.949     7  O 0.155     6  O 0.155

     2  H     (0.964)     1  C 0.949     6  O 0.011

     3  H     (0.854)    20  O 0.815     6  O 0.033

     4  H     (0.964)     1  C 0.949     7  O 0.011

     5  N     (3.820)     1  C 1.522     7  O 1.144     6  O 1.142

     6  O     (1.490)     5  N 1.142     1  C 0.155     7  O 0.132     3  H 0.033    20  O 0.012     2  H 0.011

     7  O     (1.515)     5  N 1.144     1  C 0.155     6  O 0.132    13  H 0.048    14  O 0.020     4  H 0.011

     8  H     (0.859)     9  O 0.818    17  O 0.038

     9  O     (1.680)    12  H 0.821     8  H 0.818    17  O 0.017    11  O 0.015

    10  H     (0.850)    11  O 0.800    23  O 0.046

    11  O     (1.740)    19  H 0.862    10  H 0.800    12  H 0.035    23  O 0.020     9  O 0.015

    12  H     (0.859)     9  O 0.821    11  O 0.035

    13  H     (0.848)    14  O 0.796     7  O 0.048

    14  O     (1.658)    15  H 0.819    13  H 0.796     7  O 0.020    17  O 0.016

    15  H     (0.858)    14  O 0.819    17  O 0.037

    16  H     (0.847)    17  O 0.788    20  O 0.052

    17  O     (1.766)    18  H 0.843    16  H 0.788     8  H 0.038    15  H 0.037    20  O 0.024     9  O 0.017
                         14  O 0.016

    18  H     (0.849)    17  O 0.843

    19  H     (0.872)    11  O 0.862

    20  O     (1.761)    21  H 0.849     3  H 0.815    16  H 0.052    17  O 0.024     6  O 0.012

    21  H     (0.853)    20  O 0.849

    22  H     (0.855)    23  O 0.851

    23  O     (1.770)    24  H 0.851    22  H 0.851    10  H 0.046    11  O 0.020

    24  H     (0.854)    23  O 0.851


 **********************
 *                    *
 * JOB ENDED NORMALLY *
 *                    *
 **********************



 TOTAL JOB TIME:             0.76 SECONDS

 == MOPAC DONE ==
