 *******************************************************************************
 **                                                                           **
 **                              MOPAC v22.0.6                                **
 **                                                                           **
 *******************************************************************************
 **          Digital Object Identifier (DOI): 10.5281/zenodo.6511958          **
 **    Visit the DOI location for information on how to cite this program.    **
 *******************************************************************************

                              PM7 CALCULATION RESULTS

 *******************************************************************************
 *  CALCULATION DONE:                                Sat Mar 23 14:52:49 2024  *
 *  PM7        - The PM7 Hamiltonian to be used
 *  SINGLET    - SPIN STATE DEFINED AS A SINGLET
 *
 *
 *
 *                 CHARGE ON SYSTEM = -1
 *
 *
 *
 *  EPS=78.4   - USE ANDREAS KLAMT'S COSMO IMPLICIT SOLVATION MODEL
 *  LET        - OVERRIDE SOME SAFETY CHECKS
 *  T=         - A TIME OF 14.0 DAYS REQUESTED
 *  DUMP=N     - RESTART FILE WRITTEN EVERY 30.0 MINUTES REQUESTED
 *  RELSCF     - DEFAULT SCF CRITERION MULTIPLIED BY 1.0000
 *              (DEFAULT SCF CRITERION = 0.00010)
 *  ITRY=      - DO A MAXIMUM OF 15000 ITERATIONS FOR SCF
 *  AUX        - OUTPUT AUXILIARY INFORMATION
 *  ISOTOPE    - SAVE THE FORCE MATRIX FOR USE LATER
 *  BONDS      - FINAL BOND-ORDER MATRIX TO BE PRINTED
 *  LARGE      - EXPANDED OUTPUT TO BE PRINTED
 *  THERMO     - THERMODYNAMIC QUANTITIES TO BE CALCULATED
 *******************************************************************************
PM7 AUX LARGE THERMO(298,298) LET ISOTOPE BONDS DUMP=30M ITRY=15000 T=14D CHARGE=-1 SINGLET eps=78.4 RELSCF=1
 Title: ASE calculation

   ATOM   CHEMICAL          X               Y               Z
  NUMBER   SYMBOL      (ANGSTROMS)     (ANGSTROMS)     (ANGSTROMS)

     1       C         -0.74945216  *  -1.00119025  *   0.58066687  *
     2       H         -1.22353867  *  -1.23268701  *  -0.35675072  *
     3       D          1.69354244  *   0.34346505  *   2.49031659  *
     4       H         -0.47639636  *  -1.84548601  *   1.18855920  *
     5       N         -0.54591401  *   0.23239105  *   0.97046587  *
     6       O          0.00688568  *   0.52052342  *   2.07888464  *
     7       O         -0.88214249  *   1.22206465  *   0.24265869  *
     8       H          3.85403330  *   1.57014560  *  -0.09637942  *
     9       O          4.17856470  *   0.91334713  *  -0.73445304  *
    10       H          2.20438350  *  -1.78146369  *  -0.41923564  *
    11       O          2.56199594  *  -1.04658950  *   0.12461378  *
    12       H          3.61666996  *   0.14839934  *  -0.53402629  *
    13       H          0.10828879  *   2.57085768  *   0.55230124  *
    14       O          0.63713450  *   3.39377234  *   0.62568652  *
    15       H          1.53437009  *   3.08879288  *   0.80434047  *
    16       H          2.93431853  *   1.79836583  *   1.79702642  *
    17       O          3.11942128  *   2.51291797  *   1.13983509  *
    18       H          3.68612865  *   3.14189949  *   1.60820645  *
    19       H          1.77910356  *  -0.60080195  *   0.45501407  *
    20       O          2.58234123  *   0.52232230  *   2.84370250  *
    21       H          2.42038499  *   0.92908246  *   3.70918816  *
    22       H          0.67954637  *  -2.66588008  *  -1.72594113  *
    23       O          1.43600771  *  -3.04649951  *  -1.25341737  *
    24       H          2.01688878  *  -3.36713177  *  -1.95990651  *


                                Isotopes Used

              Atom:    3  H  Default mass  1.0079,  mass used:  2.0140 amu


          CARTESIAN COORDINATES 

    NO.       ATOM           X           Y           Z

     1         C         -0.7495     -1.0012      0.5807
     2         H         -1.2235     -1.2327     -0.3568
     3         H          1.6935      0.3435      2.4903
     4         H         -0.4764     -1.8455      1.1886
     5         N         -0.5459      0.2324      0.9705
     6         O          0.0069      0.5205      2.0789
     7         O         -0.8821      1.2221      0.2427
     8         H          3.8540      1.5701     -0.0964
     9         O          4.1786      0.9133     -0.7345
    10         H          2.2044     -1.7815     -0.4192
    11         O          2.5620     -1.0466      0.1246
    12         H          3.6167      0.1484     -0.5340
    13         H          0.1083      2.5709      0.5523
    14         O          0.6371      3.3938      0.6257
    15         H          1.5344      3.0888      0.8043
    16         H          2.9343      1.7984      1.7970
    17         O          3.1194      2.5129      1.1398
    18         H          3.6861      3.1419      1.6082
    19         H          1.7791     -0.6008      0.4550
    20         O          2.5823      0.5223      2.8437
    21         H          2.4204      0.9291      3.7092
    22         H          0.6795     -2.6659     -1.7259
    23         O          1.4360     -3.0465     -1.2534
    24         H          2.0169     -3.3671     -1.9599

 General Reference for PM7:
 "Optimization of Parameters for Semiempirical Methods VI: More Modifications to the 
 NDDO Approximations and Re-optimization of Parameters", J. J. P. Stewart, J. Mol. Mod., 1:32, 19 (2013)
 https://link.springer.com/article/10.1007/s00894-012-1667-x

           Empirical Formula: C H14 N O8  =    24 atoms



      MOLECULAR POINT GROUP   :   C1  


 SINGLET STATE CALCULATION


      RHF CALCULATION, NO. OF DOUBLY OCCUPIED LEVELS = 36

  SCF CRITERION =    0.1000E-03


          HEAT OF FORMATION =    -544.765509 KCALS/MOLE


          CARTESIAN COORDINATE DERIVATIVES

   NUMBER  ATOM         X            Y            Z

     1       C      3.103332    -2.802585    -0.449250
     2       H      0.077127    -0.171085    -0.228831
     3       H     -1.620385     2.680174     2.053778
     4       H     -0.065924     0.130228    -0.045883
     5       N     -0.077159     0.057510    -0.158405
     6       O      0.145218    -0.059321    -0.133741
     7       O      0.112422     0.159405     0.058505
     8       H     -0.032779    -0.013430     0.118237
     9       O     -0.194006    -0.053405     0.066258
    10       H     -0.043241     0.035011     0.089307
    11       O     -1.277519     0.556539    -0.587543
    12       H     -0.089566     0.055646     0.119110
    13       H      0.124773    -0.122706    -0.135786
    14       O     -0.092907     0.385071    -0.178509
    15       H      0.026971    -0.045951    -0.086265
    16       H     -0.114591    -0.043228    -0.125344
    17       O      0.180332    -0.255669    -0.179092
    18       H     -0.105549    -0.107175     0.078175
    19       H      0.018506     0.026191    -0.075065
    20       O      0.208452    -0.200400     0.081754
    21       H     -0.248015     0.000971    -0.254015
    22       H      0.086774     0.160771    -0.290307
    23       O     -0.093958     0.104411    -0.206078
    24       H     -0.019278    -0.464873     0.478373

 DIPOLE           X         Y         Z       TOTAL
 POINT-CHG.     6.825   -11.475     8.536    15.847
 HYBRID        -0.209    -0.513    -0.501     0.747
 SUM            6.616   -11.988     8.035    15.876


          GRADIENT NORM =   5.96762


                              **** WARNING ****

           GRADIENT IS VERY LARGE FOR A THERMO CALCULATION
           RESULTS ARE LIKELY TO BE INACCURATE IF THERE ARE
           ANY LOW-LYING VIBRATIONS (LESS THAN ABOUT 400CM-1)
           GRADIENT NORM SHOULD BE LESS THAN ABOUT 1.0 FOR THERMO
           TO GIVE ACCURATE RESULTS


          TIME FOR SCF CALCULATION =    0.08

          TIME FOR DERIVATIVES     =    0.02

          MOLECULAR WEIGHT =  169.13



          ROTATIONAL CONSTANTS IN CM(-1)

          A =    0.02556589   B =    0.02157528   C =    0.01547772



           PRINCIPAL MOMENTS OF INERTIA IN UNITS OF 10**(-40)*GRAM-CM**2

          A =     1094.9258   B =     1297.4455   C =     1808.5840


          ORIENTATION OF MOLECULE IN FORCE CALCULATION

    NO.       ATOM         X         Y         Z

     1          C       1.3040   -2.1786    0.1715
     2          H       2.3796   -2.1786    0.1715
     3          H      -1.7263   -0.6818    0.1715
     4          H       0.8356   -2.6641    1.0093
     5          N       0.6091   -1.6477   -0.8033
     6          O      -0.6625   -1.6468   -0.8197
     7          O       1.1785   -1.0831   -1.7929
     8          H      -0.6883    2.7476    0.3303
     9          O      -0.1339    2.9955    1.0886
    10          H       1.0414    0.1342    2.3887
    11          O       0.2517    0.4731    1.9142
    12          H       0.1037    2.1280    1.4519
    13          H       0.1819    0.1224   -2.4633
    14          O      -0.2922    0.8586   -2.9054
    15          H      -0.7777    1.2940   -2.1951
    16          H      -1.9821    1.2479   -0.4181
    17          O      -1.6447    2.0365   -0.9091
    18          H      -2.4380    2.5180   -1.1829
    19          H       0.2129   -0.0612    1.1181
    20          O      -2.4645   -0.1141    0.4537
    21          H      -3.2349   -0.4684   -0.0171
    22          H       3.0425   -0.7649    2.4326
    23          O       2.3793   -0.6121    3.1234
    24          H       2.8079    0.0144    3.7259


    FIRST DERIVATIVES WILL BE USED IN THE CALCULATION OF SECOND DERIVATIVES

          ESTIMATED TIME TO COMPLETE CALCULATION =       14.62 SECONDS

    FOR POINT-GROUP C1   THERE ARE   1 UNIQUE SYMMETRY FUNCTIONS.

 STEP:   1 TIME =     0.04 SECS, INTEGRAL =      0.04 TIME LEFT:1209599.86
 STEP:   2 TIME =     0.03 SECS, INTEGRAL =      0.07 TIME LEFT:1209599.83
 STEP:   3 TIME =     0.03 SECS, INTEGRAL =      0.10 TIME LEFT:1209599.80
 STEP:   4 TIME =     0.03 SECS, INTEGRAL =      0.13 TIME LEFT:1209599.77
 STEP:   5 TIME =     0.03 SECS, INTEGRAL =      0.16 TIME LEFT:1209599.74
 STEP:   6 TIME =     0.03 SECS, INTEGRAL =      0.19 TIME LEFT:1209599.71
 STEP:   7 TIME =     0.03 SECS, INTEGRAL =      0.21 TIME LEFT:1209599.68
 STEP:   8 TIME =     0.03 SECS, INTEGRAL =      0.25 TIME LEFT:1209599.65
 STEP:   9 TIME =     0.03 SECS, INTEGRAL =      0.27 TIME LEFT:1209599.62
 STEP:  10 TIME =     0.03 SECS, INTEGRAL =      0.30 TIME LEFT:1209599.59
 STEP:  11 TIME =     0.03 SECS, INTEGRAL =      0.33 TIME LEFT:1209599.57
 STEP:  12 TIME =     0.03 SECS, INTEGRAL =      0.36 TIME LEFT:1209599.54
 STEP:  13 TIME =     0.03 SECS, INTEGRAL =      0.39 TIME LEFT:1209599.51
 STEP:  14 TIME =     0.03 SECS, INTEGRAL =      0.42 TIME LEFT:1209599.48
 STEP:  15 TIME =     0.03 SECS, INTEGRAL =      0.45 TIME LEFT:1209599.45
 STEP:  16 TIME =     0.03 SECS, INTEGRAL =      0.48 TIME LEFT:1209599.42
 STEP:  17 TIME =     0.03 SECS, INTEGRAL =      0.51 TIME LEFT:1209599.39
 STEP:  18 TIME =     0.03 SECS, INTEGRAL =      0.54 TIME LEFT:1209599.36
 STEP:  19 TIME =     0.03 SECS, INTEGRAL =      0.57 TIME LEFT:1209599.33
 STEP:  20 TIME =     0.03 SECS, INTEGRAL =      0.60 TIME LEFT:1209599.30
 STEP:  21 TIME =     0.03 SECS, INTEGRAL =      0.62 TIME LEFT:1209599.27
 STEP:  22 TIME =     0.03 SECS, INTEGRAL =      0.65 TIME LEFT:1209599.25
 STEP:  23 TIME =     0.03 SECS, INTEGRAL =      0.68 TIME LEFT:1209599.21
 STEP:  24 TIME =     0.03 SECS, INTEGRAL =      0.71 TIME LEFT:1209599.19
 STEP:  25 TIME =     0.03 SECS, INTEGRAL =      0.74 TIME LEFT:1209599.16
 STEP:  26 TIME =     0.03 SECS, INTEGRAL =      0.77 TIME LEFT:1209599.13
 STEP:  27 TIME =     0.03 SECS, INTEGRAL =      0.80 TIME LEFT:1209599.10
 STEP:  28 TIME =     0.03 SECS, INTEGRAL =      0.83 TIME LEFT:1209599.07
 STEP:  29 TIME =     0.03 SECS, INTEGRAL =      0.86 TIME LEFT:1209599.04
 STEP:  30 TIME =     0.03 SECS, INTEGRAL =      0.88 TIME LEFT:1209599.02
 STEP:  31 TIME =     0.03 SECS, INTEGRAL =      0.91 TIME LEFT:1209598.98
 STEP:  32 TIME =     0.03 SECS, INTEGRAL =      0.94 TIME LEFT:1209598.96
 STEP:  33 TIME =     0.03 SECS, INTEGRAL =      0.97 TIME LEFT:1209598.93
 STEP:  34 TIME =     0.03 SECS, INTEGRAL =      1.00 TIME LEFT:1209598.90
 STEP:  35 TIME =     0.02 SECS, INTEGRAL =      1.02 TIME LEFT:1209598.88
 STEP:  36 TIME =     0.03 SECS, INTEGRAL =      1.05 TIME LEFT:1209598.85
 STEP:  37 TIME =     0.03 SECS, INTEGRAL =      1.07 TIME LEFT:1209598.82
 STEP:  38 TIME =     0.03 SECS, INTEGRAL =      1.10 TIME LEFT:1209598.80
 STEP:  39 TIME =     0.03 SECS, INTEGRAL =      1.13 TIME LEFT:1209598.77
 STEP:  40 TIME =     0.03 SECS, INTEGRAL =      1.16 TIME LEFT:1209598.74
 STEP:  41 TIME =     0.03 SECS, INTEGRAL =      1.19 TIME LEFT:1209598.71
 STEP:  42 TIME =     0.03 SECS, INTEGRAL =      1.21 TIME LEFT:1209598.68
 STEP:  43 TIME =     0.03 SECS, INTEGRAL =      1.24 TIME LEFT:1209598.66
 STEP:  44 TIME =     0.03 SECS, INTEGRAL =      1.27 TIME LEFT:1209598.62
 STEP:  45 TIME =     0.03 SECS, INTEGRAL =      1.30 TIME LEFT:1209598.60
 STEP:  46 TIME =     0.02 SECS, INTEGRAL =      1.32 TIME LEFT:1209598.57
 STEP:  47 TIME =     0.03 SECS, INTEGRAL =      1.35 TIME LEFT:1209598.55
 STEP:  48 TIME =     0.03 SECS, INTEGRAL =      1.38 TIME LEFT:1209598.52
 STEP:  49 TIME =     0.03 SECS, INTEGRAL =      1.41 TIME LEFT:1209598.49
 STEP:  50 TIME =     0.03 SECS, INTEGRAL =      1.44 TIME LEFT:1209598.46
 STEP:  51 TIME =     0.03 SECS, INTEGRAL =      1.47 TIME LEFT:1209598.43
 STEP:  52 TIME =     0.03 SECS, INTEGRAL =      1.50 TIME LEFT:1209598.40
 STEP:  53 TIME =     0.03 SECS, INTEGRAL =      1.53 TIME LEFT:1209598.37
 STEP:  54 TIME =     0.03 SECS, INTEGRAL =      1.56 TIME LEFT:1209598.34
 STEP:  55 TIME =     0.02 SECS, INTEGRAL =      1.58 TIME LEFT:1209598.32
 STEP:  56 TIME =     0.03 SECS, INTEGRAL =      1.61 TIME LEFT:1209598.29
 STEP:  57 TIME =     0.03 SECS, INTEGRAL =      1.64 TIME LEFT:1209598.26
 STEP:  58 TIME =     0.03 SECS, INTEGRAL =      1.67 TIME LEFT:1209598.23
 STEP:  59 TIME =     0.03 SECS, INTEGRAL =      1.70 TIME LEFT:1209598.20
