
                                 *****************
                                 * O   R   C   A *
                                 *****************

                                            #,                                       
                                            ###                                      
                                            ####                                     
                                            #####                                    
                                            ######                                   
                                           ########,                                 
                                     ,,################,,,,,                         
                               ,,#################################,,                 
                          ,,##########################################,,             
                       ,#########################################, ''#####,          
                    ,#############################################,,   '####,        
                  ,##################################################,,,,####,       
                ,###########''''           ''''###############################       
              ,#####''   ,,,,##########,,,,          '''####'''          '####       
            ,##' ,,,,###########################,,,                        '##       
           ' ,,###''''                  '''############,,,                           
         ,,##''                                '''############,,,,        ,,,,,,###''
      ,#''                                            '''#######################'''  
     '                                                          ''''####''''         
             ,#######,   #######,   ,#######,      ##                                
            ,#'     '#,  ##    ##  ,#'     '#,    #''#        ######   ,####,        
            ##       ##  ##   ,#'  ##            #'  '#       #        #'  '#        
            ##       ##  #######   ##           ,######,      #####,   #    #        
            '#,     ,#'  ##    ##  '#,     ,#' ,#      #,         ##   #,  ,#        
             '#######'   ##     ##  '#######'  #'      '#     #####' # '####'        



                  #######################################################
                  #                        -***-                        #
                  #          Department of theory and spectroscopy      #
                  #    Directorship and core code : Frank Neese         #
                  #        Max Planck Institute fuer Kohlenforschung    #
                  #                Kaiser Wilhelm Platz 1               #
                  #                 D-45470 Muelheim/Ruhr               #
                  #                      Germany                        #
                  #                                                     #
                  #                  All rights reserved                #
                  #                        -***-                        #
                  #######################################################


                         Program Version 5.0.4 -  RELEASE  -


 With contributions from (in alphabetic order):
   Daniel Aravena         : Magnetic Suceptibility
   Michael Atanasov       : Ab Initio Ligand Field Theory (pilot matlab implementation)
   Alexander A. Auer      : GIAO ZORA, VPT2 properties, NMR spectrum
   Ute Becker             : Parallelization
   Giovanni Bistoni       : ED, misc. LED, open-shell LED, HFLD
   Martin Brehm           : Molecular dynamics
   Dmytro Bykov           : SCF Hessian
   Vijay G. Chilkuri      : MRCI spin determinant printing, contributions to CSF-ICE
   Dipayan Datta          : RHF DLPNO-CCSD density
   Achintya Kumar Dutta   : EOM-CC, STEOM-CC
   Dmitry Ganyushin       : Spin-Orbit,Spin-Spin,Magnetic field MRCI
   Miquel Garcia          : C-PCM and meta-GGA Hessian, CC/C-PCM, Gaussian charge scheme
   Yang Guo               : DLPNO-NEVPT2, F12-NEVPT2, CIM, IAO-localization
   Andreas Hansen         : Spin unrestricted coupled pair/coupled cluster methods
   Benjamin Helmich-Paris : MC-RPA, TRAH-SCF, COSX integrals
   Lee Huntington         : MR-EOM, pCC
   Robert Izsak           : Overlap fitted RIJCOSX, COSX-SCS-MP3, EOM
   Marcus Kettner         : VPT2
   Christian Kollmar      : KDIIS, OOCD, Brueckner-CCSD(T), CCSD density, CASPT2, CASPT2-K
   Simone Kossmann        : Meta GGA functionals, TD-DFT gradient, OOMP2, MP2 Hessian
   Martin Krupicka        : Initial AUTO-CI
   Lucas Lang             : DCDCAS
   Marvin Lechner         : AUTO-CI (C++ implementation), FIC-MRCC
   Dagmar Lenk            : GEPOL surface, SMD
   Dimitrios Liakos       : Extrapolation schemes; Compound Job, initial MDCI parallelization
   Dimitrios Manganas     : Further ROCIS development; embedding schemes
   Dimitrios Pantazis     : SARC Basis sets
   Anastasios Papadopoulos: AUTO-CI, single reference methods and gradients
   Taras Petrenko         : DFT Hessian,TD-DFT gradient, ASA, ECA, R-Raman, ABS, FL, XAS/XES, NRVS
   Peter Pinski           : DLPNO-MP2, DLPNO-MP2 Gradient
   Christoph Reimann      : Effective Core Potentials
   Marius Retegan         : Local ZFS, SOC
   Christoph Riplinger    : Optimizer, TS searches, QM/MM, DLPNO-CCSD(T), (RO)-DLPNO pert. Triples
   Tobias Risthaus        : Range-separated hybrids, TD-DFT gradient, RPA, STAB
   Michael Roemelt        : Original ROCIS implementation
   Masaaki Saitow         : Open-shell DLPNO-CCSD energy and density
   Barbara Sandhoefer     : DKH picture change effects
   Avijit Sen             : IP-ROCIS
   Kantharuban Sivalingam : CASSCF convergence, NEVPT2, FIC-MRCI
   Bernardo de Souza      : ESD, SOC TD-DFT
   Georgi Stoychev        : AutoAux, RI-MP2 NMR, DLPNO-MP2 response
   Willem Van den Heuvel  : Paramagnetic NMR
   Boris Wezisla          : Elementary symmetry handling
   Frank Wennmohs         : Technical directorship


 We gratefully acknowledge several colleagues who have allowed us to
 interface, adapt or use parts of their codes:
   Stefan Grimme, W. Hujo, H. Kruse, P. Pracht,  : VdW corrections, initial TS optimization,
                  C. Bannwarth, S. Ehlert          DFT functionals, gCP, sTDA/sTD-DF
   Ed Valeev, F. Pavosevic, A. Kumar             : LibInt (2-el integral package), F12 methods
   Garnet Chan, S. Sharma, J. Yang, R. Olivares  : DMRG
   Ulf Ekstrom                                   : XCFun DFT Library
   Mihaly Kallay                                 : mrcc  (arbitrary order and MRCC methods)
   Jiri Pittner, Ondrej Demel                    : Mk-CCSD
   Frank Weinhold                                : gennbo (NPA and NBO analysis)
   Christopher J. Cramer and Donald G. Truhlar   : smd solvation model
   Lars Goerigk                                  : TD-DFT with DH, B97 family of functionals
   V. Asgeirsson, H. Jonsson                     : NEB implementation
   FAccTs GmbH                                   : IRC, NEB, NEB-TS, DLPNO-Multilevel, CI-OPT
                                                   MM, QMMM, 2- and 3-layer-ONIOM, Crystal-QMMM,
                                                   LR-CPCM, SF, NACMEs, symmetry and pop. for TD-DFT,
                                                   nearIR, NL-DFT gradient (VV10), updates on ESD,
                                                   ML-optimized integration grids
   S Lehtola, MJT Oliveira, MAL Marques          : LibXC Library
   Liviu Ungur et al                             : ANISO software


 Your calculation uses the libint2 library for the computation of 2-el integrals
 For citations please refer to: http://libint.valeyev.net

 Your ORCA version has been built with support for libXC version: 5.1.0
 For citations please refer to: https://tddft.org/programs/libxc/

 This ORCA versions uses:
   CBLAS   interface :  Fast vector & matrix operations
   LAPACKE interface :  Fast linear algebra routines
   SCALAPACK package :  Parallel linear algebra routines
   Shared memory     :  Shared parallel matrices
   BLAS/LAPACK       :  OpenBLAS 0.3.15  USE64BITINT DYNAMIC_ARCH NO_AFFINITY Prescott SINGLE_THREADED
        Core in use  :  Prescott
   Copyright (c) 2011-2014, The OpenBLAS Project


Your calculation utilizes the atom-pairwise dispersion correction
with the Becke-Johnson damping scheme (D3BJ)
Cite in your paper:
S.Grimme, S.Ehrlich, L.Goerigk, J Comput Chem, (2011), 32, 1456–1465 
S.Grimme, J.Antony, S.Ehrlich and H.Krieg, J.Chem.Phys., 132, (2010), 154104 
   

================================================================================

----- Orbital basis set information -----
Your calculation utilizes the basis: def2-TZVP
   F. Weigend and R. Ahlrichs, Phys. Chem. Chem. Phys. 7, 3297 (2005).

----- AuxJ basis set information -----
Your calculation utilizes the auxiliary basis: def2/J
   F. Weigend, Phys. Chem. Chem. Phys. 8, 1057 (2006).

================================================================================
                                        WARNINGS
                       Please study these warnings very carefully!
================================================================================

WARNING: Gradients needed for Numerical Frequencies
  ===> : Setting RunTyp to EnGrad

INFO   : the flag for use of the SHARK integral package has been found!

================================================================================
                                       INPUT FILE
================================================================================
NAME = /home/rudenko/mop_saddle_orca_4_serv/for_orca/ch32chno2_pyridine_new/orca/freq_D/f_D.inp
|  1> !  NUMFREQ B3LYP def2-TZVP CPCM D3 
|  2> %pal nprocs 102 end
|  3> %cpcm epsilon 78.4 end 
|  4> *xyz 0 1 
|  5> C   -2.88713784779296 1.49341042856727 -0.12818430668032
|  6> H   -2.24843421332541 1.85710167599494 -0.93155646667585
|  7> N   -1.85169183058806 -0.72952349090272 -0.1294353766209
|  8> O   -1.65131451785669 -0.5865675036724 -1.35559001285016
|  9> O   -1.61365014354756 -1.82974666464259 0.42295876274797
| 10> H   -3.08329573335866 0.92252702133326 2.53039343213586
| 11> C   -2.2292617073707 0.37851625600954 0.65597001896322
| 12> H   -0.98105550725575 0.83865838500076 0.9908590169927 M = 2
| 13> H   -3.84028060354559 1.1801649976627 -0.56985842730479
| 14> C   -2.88310073714213 0.00798272253027 1.97077751615724
| 15> H   -3.83622510957202 -0.51278885493113 1.82376815135073
| 16> C   2.8884992831793 0.70345907974867 -0.66311706056157
| 17> C   3.78499799092626 0.07121603060711 -1.50239223163684
| 18> C   3.55969021141451 -1.25865984742168 -1.84218602715692
| 19> C   2.4456395606611 -1.91845830727106 -1.33560612744289
| 20> C   1.58521606327797 -1.23185733913873 -0.50038978834767
| 21> N   1.82291042558996 0.04813369093161 -0.18683764842733
| 22> H   4.64068099953356 0.61188574475283 -1.88012972754201
| 23> H   4.24695699211955 -1.77656784038995 -2.49803908106325
| 24> H   2.24201568401384 -2.95030610839497 -1.58277714666159
| 25> H   -3.08752010294713 2.3249063977824 0.54857971434479
| 26> H   -2.2417035180461 -0.62789301003723 2.57851917838011
| 27> H   0.69456195810936 -1.67411348741254 -0.07491011883953
| 28> H   2.99497020121991 1.73398001639061 -0.35458074119306
| 29> H   0.27144987409546 1.05619452305505 2.22665403008156
| 30> H   1.10574865777187 0.58626136599003 0.49179359250203
| 31> O   0.1513336704361 1.28208411785795 1.29531687534846
| 32> *
| 33> 
| 34>                          ****END OF INPUT****
================================================================================

                     *******************************
                     * Energy+Gradient Calculation *
                     *******************************

---------------------------------
CARTESIAN COORDINATES (ANGSTROEM)
---------------------------------
  C     -2.887138    1.493410   -0.128184
  H     -2.248434    1.857102   -0.931556
  N     -1.851692   -0.729523   -0.129435
  O     -1.651315   -0.586568   -1.355590
  O     -1.613650   -1.829747    0.422959
  H     -3.083296    0.922527    2.530393
  C     -2.229262    0.378516    0.655970
  H     -0.981056    0.838658    0.990859
  H     -3.840281    1.180165   -0.569858
  C     -2.883101    0.007983    1.970778
  H     -3.836225   -0.512789    1.823768
  C      2.888499    0.703459   -0.663117
  C      3.784998    0.071216   -1.502392
  C      3.559690   -1.258660   -1.842186
  C      2.445640   -1.918458   -1.335606
  C      1.585216   -1.231857   -0.500390
  N      1.822910    0.048134   -0.186838
  H      4.640681    0.611886   -1.880130
  H      4.246957   -1.776568   -2.498039
  H      2.242016   -2.950306   -1.582777
  H     -3.087520    2.324906    0.548580
  H     -2.241704   -0.627893    2.578519
  H      0.694562   -1.674113   -0.074910
  H      2.994970    1.733980   -0.354581
  H      0.271450    1.056195    2.226654
  H      1.105749    0.586261    0.491794
  O      0.151334    1.282084    1.295317

----------------------------
CARTESIAN COORDINATES (A.U.)
----------------------------
  NO LB      ZA    FRAG     MASS         X           Y           Z
   0 C     6.0000    0    12.011   -5.455900    2.822137   -0.242233
   1 H     1.0000    0     1.008   -4.248925    3.509414   -1.760387
   2 N     7.0000    0    14.007   -3.499190   -1.378600   -0.244597
   3 O     8.0000    0    15.999   -3.120532   -1.108452   -2.561694
   4 O     8.0000    0    15.999   -3.049357   -3.457720    0.799276
   5 H     1.0000    0     1.008   -5.826585    1.743323    4.781751
   6 C     6.0000    0    12.011   -4.212694    0.715292    1.239604
   7 H     1.0000    0     2.000   -1.853926    1.584835    1.872452
   8 H     1.0000    0     1.008   -7.257079    2.230189   -1.076876
   9 C     6.0000    0    12.011   -5.448271    0.015085    3.724230
  10 H     1.0000    0     1.008   -7.249415   -0.969031    3.446422
  11 C     6.0000    0    12.011    5.458473    1.329345   -1.253110
  12 C     6.0000    0    12.011    7.152610    0.134579   -2.839110
  13 C     6.0000    0    12.011    6.726840   -2.378522   -3.481227
  14 C     6.0000    0    12.011    4.621589   -3.625361   -2.523930
  15 C     6.0000    0    12.011    2.995624   -2.327873   -0.945600
  16 N     7.0000    0    14.007    3.444801    0.090959   -0.353072
  17 H     1.0000    0     1.008    8.769616    1.156296   -3.552930
  18 H     1.0000    0     1.008    8.025586   -3.357227   -4.720610
  19 H     1.0000    0     1.008    4.236796   -5.575271   -2.991015
  20 H     1.0000    0     1.008   -5.834567    4.393436    1.036665
  21 H     1.0000    0     1.008   -4.236206   -1.186546    4.872695
  22 H     1.0000    0     1.008    1.312532   -3.163616   -0.141560
  23 H     1.0000    0     1.008    5.659673    3.276747   -0.670060
  24 H     1.0000    0     1.008    0.512966    1.995918    4.207766
  25 H     1.0000    0     1.008    2.089562    1.107873    0.929355
  26 O     8.0000    0    15.999    0.285979    2.422788    2.447794

--------------------------------
INTERNAL COORDINATES (ANGSTROEM)
--------------------------------
 C      0   0   0     0.000000000000     0.00000000     0.00000000
 H      1   0   0     1.088862013110     0.00000000     0.00000000
 N      1   2   0     2.452261248328    93.13682345     0.00000000
 O      3   1   2     1.250616917241    87.96753490   328.80606762
 O      3   1   2     1.253911544732   151.08186124   161.86494549
 H      1   2   3     2.726246755900   146.26794526    78.19524108
 C      3   1   2     1.409671141793    34.32026823   128.54917030
 H      7   3   1     1.371823654075    98.97234932   247.97873190
 H      1   2   3     1.096211586171   107.95063696   262.45276194
 C      6   1   2     1.090705865208    70.24698113   261.75884814
 H     10   6   1     1.096020464477   107.91519014   261.31483109
 C      8   7   3     4.210388342355   136.84980803    26.59829191
 C     12   8   7     1.381240029453   148.20133523   336.85062365
 C     13  12   8     1.390968464756   118.74632725   338.87586379
 C     14  13  12     1.390347458320   119.63656379     0.06234394
 C     15  14  13     1.381787182377   118.90599730   359.93194674
 N     12   8   7     1.338571274557    31.16548097   300.08341029
 H     13  12   8     1.080371587384   119.83093819   158.88051378
 H     14  13  12     1.081992396165   120.18713301   179.99199649
 H     15  14  13     1.080400888822   121.39202202   179.85556708
 H      1   2   3     1.090664079887   108.11606511   145.91677981
 H     10   6   1     1.088613001913   108.14851100   144.66722904
 H     16  15  14     1.081613694858   123.18569476   179.44064214
 H     12   8   7     1.080973689604    87.00699987   139.21881403
 H      8   7   3     1.772930065188   148.66224137   251.57410398
 H     17  12   8     1.124474435925   119.21953211   338.72743576
 O     25   8   7     0.965837930094    43.00462349   182.02002259

---------------------------
INTERNAL COORDINATES (A.U.)
---------------------------
 C      0   0   0     0.000000000000     0.00000000     0.00000000
 H      1   0   0     2.057651002408     0.00000000     0.00000000
 N      1   2   0     4.634102168168    93.13682345     0.00000000
 O      3   1   2     2.363323472034    87.96753490   328.80606762
 O      3   1   2     2.369549415706   151.08186124   161.86494549
 H      1   2   3     5.151859742142   146.26794526    78.19524108
 C      3   1   2     2.663892396881    34.32026823   128.54917030
 H      7   3   1     2.592371010237    98.97234932   247.97873190
 H      1   2   3     2.071539682695   107.95063696   262.45276194
 C      6   1   2     2.061135377905    70.24698113   261.75884814
 H     10   6   1     2.071178515035   107.91519014   261.31483109
 C      8   7   3     7.956480884506   136.84980803    26.59829191
 C     12   8   7     2.610165380875   148.20133523   336.85062365
 C     13  12   8     2.628549459309   118.74632725   338.87586379
 C     14  13  12     2.627375927219   119.63656379     0.06234394
 C     15  14  13     2.611199350055   118.90599730   359.93194674
 N     12   8   7     2.529533119647    31.16548097   300.08341029
 H     13  12   8     2.041606423025   119.83093819   158.88051378
 H     14  13  12     2.044669307737   120.18713301   179.99199649
 H     15  14  13     2.041661794718   121.39202202   179.85556708
 H      1   2   3     2.061056415092   108.11606511   145.91677981
 H     10   6   1     2.057180439441   108.14851100   144.66722904
 H     16  15  14     2.043953665980   123.18569476   179.44064214
 H     12   8   7     2.042744231325    87.00699987   139.21881403
 H      8   7   3     3.350352277801   148.66224137   251.57410398
 H     17  12   8     2.124948728494   119.21953211   338.72743576
 O     25   8   7     1.825169177631    43.00462349   182.02002259

---------------------
BASIS SET INFORMATION
---------------------
There are 4 groups of distinct atoms

 Group   1 Type C   : 11s6p2d1f contracted to 5s3p2d1f pattern {62111/411/11/1}
 Group   2 Type H   : 5s1p contracted to 3s1p pattern {311/1}
 Group   3 Type N   : 11s6p2d1f contracted to 5s3p2d1f pattern {62111/411/11/1}
 Group   4 Type O   : 11s6p2d1f contracted to 5s3p2d1f pattern {62111/411/11/1}

Atom   0C    basis set group =>   1
Atom   1H    basis set group =>   2
Atom   2N    basis set group =>   3
Atom   3O    basis set group =>   4
Atom   4O    basis set group =>   4
Atom   5H    basis set group =>   2
Atom   6C    basis set group =>   1
Atom   7H    basis set group =>   2
Atom   8H    basis set group =>   2
Atom   9C    basis set group =>   1
Atom  10H    basis set group =>   2
Atom  11C    basis set group =>   1
Atom  12C    basis set group =>   1
Atom  13C    basis set group =>   1
Atom  14C    basis set group =>   1
Atom  15C    basis set group =>   1
Atom  16N    basis set group =>   3
Atom  17H    basis set group =>   2
Atom  18H    basis set group =>   2
Atom  19H    basis set group =>   2
Atom  20H    basis set group =>   2
Atom  21H    basis set group =>   2
Atom  22H    basis set group =>   2
Atom  23H    basis set group =>   2
Atom  24H    basis set group =>   2
Atom  25H    basis set group =>   2
Atom  26O    basis set group =>   4
---------------------------------
AUXILIARY/J BASIS SET INFORMATION
---------------------------------
There are 4 groups of distinct atoms

 Group   1 Type C   : 12s5p4d2f1g contracted to 6s4p3d1f1g pattern {711111/2111/211/2/1}
 Group   2 Type H   : 5s2p1d contracted to 3s1p1d pattern {311/2/1}
 Group   3 Type N   : 12s5p4d2f1g contracted to 6s4p3d1f1g pattern {711111/2111/211/2/1}
 Group   4 Type O   : 12s5p4d2f1g contracted to 6s4p3d1f1g pattern {711111/2111/211/2/1}

Atom   0C    basis set group =>   1
Atom   1H    basis set group =>   2
Atom   2N    basis set group =>   3
Atom   3O    basis set group =>   4
Atom   4O    basis set group =>   4
Atom   5H    basis set group =>   2
Atom   6C    basis set group =>   1
Atom   7H    basis set group =>   2
Atom   8H    basis set group =>   2
Atom   9C    basis set group =>   1
Atom  10H    basis set group =>   2
Atom  11C    basis set group =>   1
Atom  12C    basis set group =>   1
Atom  13C    basis set group =>   1
Atom  14C    basis set group =>   1
Atom  15C    basis set group =>   1
Atom  16N    basis set group =>   3
Atom  17H    basis set group =>   2
Atom  18H    basis set group =>   2
Atom  19H    basis set group =>   2
Atom  20H    basis set group =>   2
Atom  21H    basis set group =>   2
Atom  22H    basis set group =>   2
Atom  23H    basis set group =>   2
Atom  24H    basis set group =>   2
Atom  25H    basis set group =>   2
Atom  26O    basis set group =>   4


           ************************************************************
           *        Program running with 102 parallel MPI-processes   *
           *              working on a common directory               *
           ************************************************************
------------------------------------------------------------------------------
                           ORCA GTO INTEGRAL CALCULATION
                           -- RI-GTO INTEGRALS CHOSEN --
------------------------------------------------------------------------------
------------------------------------------------------------------------------
                   ___                                                        
                  /   \      - P O W E R E D   B Y -                         
                 /     \                                                     
                 |  |  |   _    _      __       _____    __    __             
                 |  |  |  | |  | |    /  \     |  _  \  |  |  /  |          
                  \  \/   | |  | |   /    \    | | | |  |  | /  /          
                 / \  \   | |__| |  /  /\  \   | |_| |  |  |/  /          
                |  |  |   |  __  | /  /__\  \  |    /   |      \           
                |  |  |   | |  | | |   __   |  |    \   |  |\   \          
                \     /   | |  | | |  |  |  |  | |\  \  |  | \   \       
                 \___/    |_|  |_| |__|  |__|  |_| \__\ |__|  \__/        
                                                                              
                      - O R C A' S   B I G   F R I E N D -                    
                                      &                                       
                       - I N T E G R A L  F E E D E R -                       
                                                                              
 v1 FN, 2020, v2 2021                                                         
------------------------------------------------------------------------------


Reading SHARK input file /home/rudenko/mop_saddle_orca_4_serv/for_orca/ch32chno2_pyridine_new/orca/freq_D/f_D.SHARKINP.tmp ... ok
----------------------
SHARK INTEGRAL PACKAGE
----------------------

Number of atoms                             ...     27
Number of basis functions                   ...    487
Number of shells                            ...    199
Maximum angular momentum                    ...      3
Integral batch strategy                     ... SHARK/LIBINT Hybrid
RI-J (if used) integral strategy            ... SPLIT-RIJ (Revised 2003 algorithm where possible)
Printlevel                                  ...      1
Contraction scheme used                     ... SEGMENTED contraction
Coulomb Range Separation                    ... NOT USED
Exchange Range Separation                   ... NOT USED
Finite Nucleus Model                        ... NOT USED
Auxiliary Coulomb fitting basis             ... AVAILABLE
   # of basis functions in Aux-J            ...    791
   # of shells in Aux-J                     ...    265
   Maximum angular momentum in Aux-J        ...      4
Auxiliary J/K fitting basis                 ... NOT available
Auxiliary Correlation fitting basis         ... NOT available
Auxiliary 'external' fitting basis          ... NOT available
Integral threshold                          ...     2.500000e-11
Primitive cut-off                           ...     2.500000e-12
Primitive pair pre-selection threshold      ...     2.500000e-12

Calculating pre-screening integrals         ... done (  0.1 sec) Dimension = 199
Organizing shell pair data                  ... done (  0.4 sec)
Shell pair information
Total number of shell pairs                 ...     19900
Shell pairs after pre-screening             ...     15553
Total number of primitive shell pairs       ...     59668
Primitive shell pairs kept                  ...     32452
          la=0 lb=0:   4421 shell pairs
          la=1 lb=0:   4538 shell pairs
          la=1 lb=1:   1211 shell pairs
          la=2 lb=0:   2118 shell pairs
          la=2 lb=1:   1126 shell pairs
          la=2 lb=2:    281 shell pairs
          la=3 lb=0:   1014 shell pairs
          la=3 lb=1:    532 shell pairs
          la=3 lb=2:    249 shell pairs
          la=3 lb=3:     63 shell pairs

Calculating one electron integrals          ... done (  0.1 sec)
Calculating RI/J V-Matrix + Cholesky decomp.... done (  0.0 sec)
Calculating Nuclear repulsion               ... done (  0.0 sec) ENN=    814.513096581660 Eh

SHARK setup successfully completed in   1.0 seconds

Maximum memory used throughout the entire GTOINT-calculation: 27.8 MB


           ************************************************************
           *        Program running with 102 parallel MPI-processes   *
           *              working on a common directory               *
           ************************************************************
-------------------------------------------------------------------------------
                                 ORCA SCF
-------------------------------------------------------------------------------

------------
SCF SETTINGS
------------
Hamiltonian:
 Density Functional     Method          .... DFT(GTOs)
 Exchange Functional    Exchange        .... B88
   X-Alpha parameter    XAlpha          ....  0.666667
   Becke's b parameter  XBeta           ....  0.004200
 Correlation Functional Correlation     .... LYP
 LDA part of GGA corr.  LDAOpt          .... VWN-5
 Gradients option       PostSCFGGA      .... off
 Hybrid DFT is turned on
   Fraction HF Exchange ScalHFX         ....  0.200000
   Scaling of DF-GGA-X  ScalDFX         ....  0.720000
   Scaling of DF-GGA-C  ScalDFC         ....  0.810000
   Scaling of DF-LDA-C  ScalLDAC        ....  1.000000
   Perturbative correction              ....  0.000000
   Density functional embedding theory  .... OFF
   NL short-range parameter             ....  4.800000
 RI-approximation to the Coulomb term is turned on
   Number of AuxJ basis functions       .... 791
   RIJ-COSX (HFX calculated with COS-X)).... on


General Settings:
 Integral files         IntName         .... /home/rudenko/mop_saddle_orca_4_serv/for_orca/ch32chno2_pyridine_new/orca/freq_D/f_D
 Hartree-Fock type      HFTyp           .... RHF
 Total Charge           Charge          ....    0
 Multiplicity           Mult            ....    1
 Number of Electrons    NEL             ....  100
 Basis Dimension        Dim             ....  487
 Nuclear Repulsion      ENuc            ....    814.5130965817 Eh

Convergence Acceleration:
 DIIS                   CNVDIIS         .... on
   Start iteration      DIISMaxIt       ....    12
   Startup error        DIISStart       ....  0.200000
   # of expansion vecs  DIISMaxEq       ....     5
   Bias factor          DIISBfac        ....   1.050
   Max. coefficient     DIISMaxC        ....  10.000
 Trust-Rad. Augm. Hess. CNVTRAH         .... auto
   Auto Start mean grad. ratio tolernc. ....  1.125000
   Auto Start start iteration           ....    20
   Auto Start num. interpolation iter.  ....    10
   Max. Number of Micro iterations      ....    16
   Max. Number of Macro iterations      .... Maxiter - #DIIS iter
   Number of Davidson start vectors     ....     2
   Converg. threshold I  (grad. norm)   ....   1.000e-05
   Converg. threshold II (energy diff.) ....   1.000e-08
   Grad. Scal. Fac. for Micro threshold ....   0.100
   Minimum threshold for Micro iter.    ....   0.010
   NR start threshold (gradient norm)   ....   0.001
   Initial trust radius                 ....   0.400
   Minimum AH scaling param. (alpha)    ....   1.000
   Maximum AH scaling param. (alpha)    .... 1000.000
   Orbital update algorithm             .... Taylor
   White noise on init. David. guess    .... on
   Maximum white noise                  ....   0.010
   Quad. conv. algorithm                .... NR
 SOSCF                  CNVSOSCF        .... on
   Start iteration      SOSCFMaxIt      ....   150
   Startup grad/error   SOSCFStart      ....  0.003300
 Level Shifting         CNVShift        .... on
   Level shift para.    LevelShift      ....    0.2500
   Turn off err/grad.   ShiftErr        ....    0.0010
 Zerner damping         CNVZerner       .... off
 Static damping         CNVDamp         .... on
   Fraction old density DampFac         ....    0.7000
   Max. Damping (<1)    DampMax         ....    0.9800
   Min. Damping (>=0)   DampMin         ....    0.0000
   Turn off err/grad.   DampErr         ....    0.1000
 Fernandez-Rico         CNVRico         .... off

SCF Procedure:
 Maximum # iterations   MaxIter         ....   125
 SCF integral mode      SCFMode         .... Direct
   Integral package                     .... SHARK and LIBINT hybrid scheme
 Reset frequency        DirectResetFreq ....    20
 Integral Threshold     Thresh          ....  2.500e-11 Eh
 Primitive CutOff       TCut            ....  2.500e-12 Eh

Convergence Tolerance:
 Convergence Check Mode ConvCheckMode   .... Total+1el-Energy
 Convergence forced     ConvForced      .... 0
 Energy Change          TolE            ....  1.000e-08 Eh
 1-El. energy change                    ....  1.000e-05 Eh
 Orbital Gradient       TolG            ....  1.000e-05
 Orbital Rotation angle TolX            ....  1.000e-05
 DIIS Error             TolErr          ....  5.000e-07


Diagonalization of the overlap matrix:
Smallest eigenvalue                        ... 5.245e-05
Time for diagonalization                   ...    0.120 sec
Threshold for overlap eigenvalues          ... 1.000e-08
Number of eigenvalues below threshold      ... 0
Time for construction of square roots      ...    0.158 sec
Total time needed                          ...    0.282 sec

Time for model grid setup =    0.184 sec

------------------------------
INITIAL GUESS: MODEL POTENTIAL
------------------------------
Loading Hartree-Fock densities                     ... done
Calculating cut-offs                               ... done
Initializing the effective Hamiltonian             ... done
Setting up the integral package (SHARK)            ... done
Starting the Coulomb interaction                   ... done (   0.0 sec)
Reading the grid                                   ... done
Mapping shells                                     ... done
Starting the XC term evaluation                    ... done (   0.0 sec)
  promolecular density results
     # of electrons  =     99.989673442
     EX              =    -83.019300176
     EC              =     -3.396640679
     EX+EC           =    -86.415940855
Transforming the Hamiltonian                       ... done (   0.1 sec)
Diagonalizing the Hamiltonian                      ... done (   0.1 sec)
Back transforming the eigenvectors                 ... done (   0.1 sec)
Now organizing SCF variables                       ... done
                      ------------------
                      INITIAL GUESS DONE (   0.6 sec)
                      ------------------
-------------------
DFT GRID GENERATION
-------------------

General Integration Accuracy     IntAcc      ... 4.388
Radial Grid Type                 RadialGrid  ... OptM3 with GC (2021)
Angular Grid (max. ang.)         AngularGrid ... 4 (Lebedev-302)
Angular grid pruning method      GridPruning ... 4 (adaptive)
Weight generation scheme         WeightScheme... Becke
Basis function cutoff            BFCut       ... 1.0000e-11
Integration weight cutoff        WCut        ... 1.0000e-14
Angular grids for H and He will be reduced by one unit
Partially contracted basis set               ... off
Rotationally invariant grid construction     ... off

Total number of grid points                  ...   123215
Total number of batches                      ...     1939
Average number of points per batch           ...       63
Average number of grid points per atom       ...     4564
Time for grid setup =    0.982 sec

--------------------
COSX GRID GENERATION
--------------------

GRIDX 1
-------
General Integration Accuracy     IntAcc      ... 3.816
Radial Grid Type                 RadialGrid  ... OptM3 with GC (2021)
Angular Grid (max. ang.)         AngularGrid ... 1 (Lebedev-50)
Angular grid pruning method      GridPruning ... 4 (adaptive)
Weight generation scheme         WeightScheme... Becke
Basis function cutoff            BFCut       ... 1.0000e-11
Integration weight cutoff        WCut        ... 1.0000e-14
Angular grids for H and He will be reduced by one unit
Partially contracted basis set               ... on
Rotationally invariant grid construction     ... off

Total number of grid points                  ...    15693
Total number of batches                      ...      257
Average number of points per batch           ...       61
Average number of grid points per atom       ...      581
UseSFitting                                  ... on

GRIDX 2
-------
General Integration Accuracy     IntAcc      ... 4.020
Radial Grid Type                 RadialGrid  ... OptM3 with GC (2021)
Angular Grid (max. ang.)         AngularGrid ... 2 (Lebedev-110)
Angular grid pruning method      GridPruning ... 4 (adaptive)
Weight generation scheme         WeightScheme... Becke
Basis function cutoff            BFCut       ... 1.0000e-11
Integration weight cutoff        WCut        ... 1.0000e-14
Angular grids for H and He will be reduced by one unit
Partially contracted basis set               ... on
Rotationally invariant grid construction     ... off

Total number of grid points                  ...    33731
Total number of batches                      ...      539
Average number of points per batch           ...       62
Average number of grid points per atom       ...     1249
UseSFitting                                  ... on

GRIDX 3
-------
General Integration Accuracy     IntAcc      ... 4.338
Radial Grid Type                 RadialGrid  ... OptM3 with GC (2021)
Angular Grid (max. ang.)         AngularGrid ... 3 (Lebedev-194)
Angular grid pruning method      GridPruning ... 4 (adaptive)
Weight generation scheme         WeightScheme... Becke
Basis function cutoff            BFCut       ... 1.0000e-11
Integration weight cutoff        WCut        ... 1.0000e-14
Angular grids for H and He will be reduced by one unit
Partially contracted basis set               ... on
Rotationally invariant grid construction     ... off

Total number of grid points                  ...    73835
Total number of batches                      ...     1170
Average number of points per batch           ...       63
Average number of grid points per atom       ...     2735
UseSFitting                                  ... on

Time for X-Grid setup             =    1.336 sec


--------------------
CPCM SOLVATION MODEL
--------------------
CPCM parameters:
  Epsilon                                         ...      78.4000
  Refrac                                          ...       1.3300
  Rsolv                                           ...       1.3000
  Surface type                                    ... GAUSSIAN VDW
  Epsilon function type                           ...         CPCM
Radii:
 Radius for C  used is    3.8550 Bohr (=   2.0400 Ang.)
 Radius for H  used is    2.4944 Bohr (=   1.3200 Ang.)
 Radius for N  used is    3.5149 Bohr (=   1.8600 Ang.)
 Radius for O  used is    3.4469 Bohr (=   1.8240 Ang.)
Calculating surface                               ...        done! (  0.0s)
GEPOL surface points                              ...         1509
GEPOL Volume                                      ...    1597.9542
GEPOL Surface-area                                ...     895.7167
Calculating surface distance matrix               ...        done! (  0.1s)
Performing Cholesky decomposition & store         ...        done! (  0.5s)
Overall time for CPCM initialization              ...                 0.6s
--------------
SCF ITERATIONS
--------------
ITER       Energy         Delta-E        Max-DP      RMS-DP      [F,P]     Damp
               ***  Starting incremental Fock matrix formation  ***
  0   -647.7944053178   0.000000000000 0.17149999  0.00119114  0.3543108 0.7000
  1   -648.0133793168  -0.218973999051 0.14854103  0.00095759  0.1305984 0.7000
                               ***Turning on DIIS***
  2   -648.0918034082  -0.078424091378 0.15218738  0.00141032  0.0375965 0.0000
  3   -648.2250057473  -0.133202339135 0.14557520  0.00076268  0.0713632 0.0000
  4   -648.2500991013  -0.025093353968 0.03801551  0.00023421  0.0179785 0.0000
  5   -648.2521011232  -0.002002021919 0.01039484  0.00008781  0.0059984 0.0000
                      *** Initiating the SOSCF procedure ***
                           *** Shutting down DIIS ***
                      *** Re-Reading the Fockian *** 
                      *** Removing any level shift *** 
ITER      Energy       Delta-E        Grad      Rot      Max-DP    RMS-DP
  6   -648.25222853  -0.0001274109  0.000402  0.000402  0.005217  0.000046
               *** Restarting incremental Fock matrix formation ***
  7   -648.25220961   0.0000189269  0.000576  0.003397  0.003128  0.000037
  8   -648.25218542   0.0000241881  0.001221  0.002379  0.002310  0.000025
  9   -648.25221778  -0.0000323601  0.000062  0.000173  0.000425  0.000003
 10   -648.25221760   0.0000001835  0.000108  0.000112  0.000194  0.000002
 11   -648.25221790  -0.0000003092  0.000007  0.000029  0.000073  0.000001
 12   -648.25221791  -0.0000000078  0.000017  0.000023  0.000026  0.000000
 13   -648.25221791   0.0000000021  0.000003  0.000008  0.000013  0.000000
 14   -648.25221789   0.0000000186  0.000004  0.000005  0.000009  0.000000
                  ***Gradient check signals convergence***
              ***Rediagonalizing the Fockian in SOSCF/NRSCF***

               *****************************************************
               *                     SUCCESS                       *
               *           SCF CONVERGED AFTER  15 CYCLES          *
               *****************************************************

Old exchange energy                            =    -16.842277172 Eh
New exchange energy                            =    -16.842280320 Eh
Exchange energy change after final integration =     -0.000003148 Eh
Total energy after final integration           =   -648.252221045 Eh
Final COS-X integration done in                =     1.453 sec

----------------
TOTAL SCF ENERGY
----------------

Total Energy       :         -648.25222105 Eh          -17639.83973 eV

Components:
Nuclear Repulsion  :          814.51309658 Eh           22164.02816 eV
Electronic Energy  :        -1462.76531763 Eh          -39803.86788 eV
One Electron Energy:        -2499.72016197 Eh          -68020.84372 eV
Two Electron Energy:         1036.95484434 Eh           28216.97584 eV
Max COSX asymmetry :            0.00000090 Eh               0.00002 eV
CPCM Dielectric    :           -0.03585528 Eh              -0.97567 eV

Virial components:
Potential Energy   :        -1293.74477414 Eh          -35204.58507 eV
Kinetic Energy     :          645.49255310 Eh           17564.74534 eV
Virial Ratio       :            2.00427529


DFT components:
N(Alpha)           :       50.000084111508 electrons
N(Beta)            :       50.000084111508 electrons
N(Total)           :      100.000168223016 electrons
E(X)               :      -67.047980492353 Eh       
E(C)               :       -4.010556647810 Eh       
E(XC)              :      -71.058537140163 Eh       
DFET-embed. en.    :        0.000000000000 Eh       
CPCM Solvation Model Properties:
Surface-charge          :           -0.02774276
Charge-correction       :           -0.00037663 Eh              -0.01025 eV
Free-energy (cav+disp)  :  This term is not implemented in the current solvation scheme

---------------
SCF CONVERGENCE
---------------

  Last Energy change         ...   -4.9624e-09  Tolerance :   1.0000e-08
  Last MAX-Density change    ...    2.8866e-15  Tolerance :   1.0000e-07
  Last RMS-Density change    ...    1.8403e-17  Tolerance :   5.0000e-09
  Last Orbital Gradient      ...    5.8514e-07  Tolerance :   1.0000e-05
  Last Orbital Rotation      ...    1.9776e-06  Tolerance :   1.0000e-05

             **** THE GBW FILE WAS UPDATED (/home/rudenko/mop_saddle_orca_4_serv/for_orca/ch32chno2_pyridine_new/orca/freq_D/f_D.gbw) ****
             **** DENSITY /home/rudenko/mop_saddle_orca_4_serv/for_orca/ch32chno2_pyridine_new/orca/freq_D/f_D.scfp WAS UPDATED ****
             **** ENERGY FILE WAS UPDATED (/home/rudenko/mop_saddle_orca_4_serv/for_orca/ch32chno2_pyridine_new/orca/freq_D/f_D.en.tmp) ****
             **** THE GBW FILE WAS UPDATED (/home/rudenko/mop_saddle_orca_4_serv/for_orca/ch32chno2_pyridine_new/orca/freq_D/f_D.gbw) ****
             **** DENSITY /home/rudenko/mop_saddle_orca_4_serv/for_orca/ch32chno2_pyridine_new/orca/freq_D/f_D.scfp WAS UPDATED ****
----------------
ORBITAL ENERGIES
----------------

  NO   OCC          E(Eh)            E(eV) 
   0   2.0000     -19.121382      -520.3193 
   1   2.0000     -19.120894      -520.3060 
   2   2.0000     -19.091411      -519.5037 
   3   2.0000     -14.507880      -394.7795 
   4   2.0000     -14.388246      -391.5241 
   5   2.0000     -10.243368      -278.7362 
   6   2.0000     -10.240999      -278.6718 
   7   2.0000     -10.214358      -277.9468 
   8   2.0000     -10.204146      -277.6689 
   9   2.0000     -10.203490      -277.6511 
  10   2.0000     -10.182353      -277.0759 
  11   2.0000     -10.155180      -276.3365 
  12   2.0000     -10.154806      -276.3263 
  13   2.0000      -1.182311       -32.1723 
  14   2.0000      -1.007204       -27.4074 
  15   2.0000      -1.004848       -27.3433 
  16   2.0000      -0.953092       -25.9349 
  17   2.0000      -0.837411       -22.7871 
  18   2.0000      -0.820025       -22.3140 
  19   2.0000      -0.800032       -21.7700 
  20   2.0000      -0.690914       -18.8007 
  21   2.0000      -0.683843       -18.6083 
  22   2.0000      -0.669084       -18.2067 
  23   2.0000      -0.665154       -18.0998 
  24   2.0000      -0.586927       -15.9711 
  25   2.0000      -0.550025       -14.9670 
  26   2.0000      -0.521878       -14.2010 
  27   2.0000      -0.518453       -14.1078 
  28   2.0000      -0.506309       -13.7774 
  29   2.0000      -0.491508       -13.3746 
  30   2.0000      -0.487162       -13.2564 
  31   2.0000      -0.483864       -13.1666 
  32   2.0000      -0.461086       -12.5468 
  33   2.0000      -0.451162       -12.2767 
  34   2.0000      -0.446038       -12.1373 
  35   2.0000      -0.416219       -11.3259 
  36   2.0000      -0.399384       -10.8678 
  37   2.0000      -0.394644       -10.7388 
  38   2.0000      -0.392512       -10.6808 
  39   2.0000      -0.385396       -10.4872 
  40   2.0000      -0.382262       -10.4019 
  41   2.0000      -0.353242        -9.6122 
  42   2.0000      -0.345911        -9.4127 
  43   2.0000      -0.326335        -8.8800 
  44   2.0000      -0.298044        -8.1102 
  45   2.0000      -0.295184        -8.0324 
  46   2.0000      -0.291177        -7.9233 
  47   2.0000      -0.288909        -7.8616 
  48   2.0000      -0.264325        -7.1926 
  49   2.0000      -0.213883        -5.8200 
  50   0.0000      -0.070554        -1.9199 
  51   0.0000      -0.044649        -1.2150 
  52   0.0000      -0.041417        -1.1270 
  53   0.0000       0.038796         1.0557 
  54   0.0000       0.057897         1.5755 
  55   0.0000       0.073831         2.0090 
  56   0.0000       0.082492         2.2447 
  57   0.0000       0.088514         2.4086 
  58   0.0000       0.098537         2.6813 
  59   0.0000       0.100687         2.7398 
  60   0.0000       0.103225         2.8089 
  61   0.0000       0.111554         3.0355 
  62   0.0000       0.116718         3.1761 
  63   0.0000       0.119660         3.2561 
  64   0.0000       0.133155         3.6233 
  65   0.0000       0.139469         3.7951 
  66   0.0000       0.156342         4.2543 
  67   0.0000       0.156877         4.2688 
  68   0.0000       0.167852         4.5675 
  69   0.0000       0.173548         4.7225 
  70   0.0000       0.187676         5.1069 
  71   0.0000       0.189525         5.1572 
  72   0.0000       0.192348         5.2341 
  73   0.0000       0.204827         5.5736 
  74   0.0000       0.209515         5.7012 
  75   0.0000       0.213028         5.7968 
  76   0.0000       0.218559         5.9473 
  77   0.0000       0.220086         5.9889 
  78   0.0000       0.233438         6.3522 
  79   0.0000       0.234784         6.3888 
  80   0.0000       0.239332         6.5126 
  81   0.0000       0.253571         6.9000 
  82   0.0000       0.257662         7.0113 
  83   0.0000       0.263533         7.1711 
  84   0.0000       0.267207         7.2711 
  85   0.0000       0.287520         7.8238 
  86   0.0000       0.290612         7.9080 
  87   0.0000       0.301763         8.2114 
  88   0.0000       0.317589         8.6420 
  89   0.0000       0.319334         8.6895 
  90   0.0000       0.325425         8.8553 
  91   0.0000       0.329000         8.9525 
  92   0.0000       0.339495         9.2381 
  93   0.0000       0.344657         9.3786 
  94   0.0000       0.350663         9.5420 
  95   0.0000       0.372418        10.1340 
  96   0.0000       0.380161        10.3447 
  97   0.0000       0.390089        10.6149 
  98   0.0000       0.396877        10.7996 
  99   0.0000       0.405469        11.0334 
 100   0.0000       0.407448        11.0872 
 101   0.0000       0.417035        11.3481 
 102   0.0000       0.421573        11.4716 
 103   0.0000       0.423661        11.5284 
 104   0.0000       0.433759        11.8032 
 105   0.0000       0.436313        11.8727 
 106   0.0000       0.446417        12.1476 
 107   0.0000       0.453230        12.3330 
 108   0.0000       0.456340        12.4177 
 109   0.0000       0.460880        12.5412 
 110   0.0000       0.463836        12.6216 
 111   0.0000       0.470658        12.8072 
 112   0.0000       0.473518        12.8851 
 113   0.0000       0.475848        12.9485 
 114   0.0000       0.481262        13.0958 
 115   0.0000       0.487462        13.2645 
 116   0.0000       0.494042        13.4436 
 117   0.0000       0.505126        13.7452 
 118   0.0000       0.511212        13.9108 
 119   0.0000       0.515185        14.0189 
 120   0.0000       0.528932        14.3930 
 121   0.0000       0.535130        14.5616 
 122   0.0000       0.552700        15.0397 
 123   0.0000       0.567269        15.4362 
 124   0.0000       0.576663        15.6918 
 125   0.0000       0.585027        15.9194 
 126   0.0000       0.598489        16.2857 
 127   0.0000       0.601357        16.3637 
 128   0.0000       0.611888        16.6503 
 129   0.0000       0.622547        16.9404 
 130   0.0000       0.635253        17.2861 
 131   0.0000       0.636759        17.3271 
 132   0.0000       0.642176        17.4745 
 133   0.0000       0.655944        17.8491 
 134   0.0000       0.659203        17.9378 
 135   0.0000       0.675774        18.3887 
 136   0.0000       0.695949        18.9377 
 137   0.0000       0.714566        19.4443 
 138   0.0000       0.724609        19.7176 
 139   0.0000       0.729408        19.8482 
 140   0.0000       0.739415        20.1205 
 141   0.0000       0.745343        20.2818 
 142   0.0000       0.754421        20.5288 
 143   0.0000       0.764294        20.7975 
 144   0.0000       0.784907        21.3584 
 145   0.0000       0.808673        22.0051 
 146   0.0000       0.819420        22.2976 
 147   0.0000       0.822182        22.3727 
 148   0.0000       0.842330        22.9210 
 149   0.0000       0.848206        23.0809 
 150   0.0000       0.857726        23.3399 
 151   0.0000       0.865686        23.5565 
 152   0.0000       0.881874        23.9970 
 153   0.0000       0.884097        24.0575 
 154   0.0000       0.899533        24.4775 
 155   0.0000       0.937720        25.5166 
 156   0.0000       0.945896        25.7391 
 157   0.0000       0.969929        26.3931 
 158   0.0000       0.982103        26.7244 
 159   0.0000       0.993893        27.0452 
 160   0.0000       1.000269        27.2187 
 161   0.0000       1.015173        27.6243 
 162   0.0000       1.027824        27.9685 
 163   0.0000       1.033737        28.1294 
 164   0.0000       1.044184        28.4137 
 165   0.0000       1.060286        28.8519 
 166   0.0000       1.078860        29.3573 
 167   0.0000       1.091269        29.6949 
 168   0.0000       1.111239        30.2384 
 169   0.0000       1.129866        30.7452 
 170   0.0000       1.146233        31.1906 
 171   0.0000       1.172133        31.8954 
 172   0.0000       1.179201        32.0877 
 173   0.0000       1.187752        32.3204 
 174   0.0000       1.200707        32.6729 
 175   0.0000       1.209630        32.9157 
 176   0.0000       1.224857        33.3301 
 177   0.0000       1.243223        33.8298 
 178   0.0000       1.251597        34.0577 
 179   0.0000       1.260214        34.2922 
 180   0.0000       1.267359        34.4866 
 181   0.0000       1.283673        34.9305 
 182   0.0000       1.289270        35.0828 
 183   0.0000       1.296469        35.2787 
 184   0.0000       1.311039        35.6752 
 185   0.0000       1.327222        36.1155 
 186   0.0000       1.369966        37.2787 
 187   0.0000       1.376060        37.4445 
 188   0.0000       1.387050        37.7435 
 189   0.0000       1.397942        38.0399 
 190   0.0000       1.412160        38.4268 
 191   0.0000       1.426357        38.8131 
 192   0.0000       1.449805        39.4512 
 193   0.0000       1.456731        39.6397 
 194   0.0000       1.465508        39.8785 
 195   0.0000       1.472805        40.0771 
 196   0.0000       1.503802        40.9205 
 197   0.0000       1.510084        41.0915 
 198   0.0000       1.529090        41.6087 
 199   0.0000       1.537244        41.8305 
 200   0.0000       1.546054        42.0703 
 201   0.0000       1.553637        42.2766 
 202   0.0000       1.561335        42.4861 
 203   0.0000       1.566239        42.6195 
 204   0.0000       1.568772        42.6885 
 205   0.0000       1.575798        42.8796 
 206   0.0000       1.584406        43.1139 
 207   0.0000       1.605715        43.6937 
 208   0.0000       1.618027        44.0288 
 209   0.0000       1.631503        44.3955 
 210   0.0000       1.642642        44.6986 
 211   0.0000       1.646378        44.8002 
 212   0.0000       1.663253        45.2594 
 213   0.0000       1.669350        45.4253 
 214   0.0000       1.676257        45.6133 
 215   0.0000       1.685323        45.8600 
 216   0.0000       1.689783        45.9813 
 217   0.0000       1.697229        46.1840 
 218   0.0000       1.700243        46.2660 
 219   0.0000       1.720333        46.8126 
 220   0.0000       1.727259        47.0011 
 221   0.0000       1.739763        47.3414 
 222   0.0000       1.749545        47.6075 
 223   0.0000       1.757199        47.8158 
 224   0.0000       1.772218        48.2245 
 225   0.0000       1.778194        48.3871 
 226   0.0000       1.784516        48.5591 
 227   0.0000       1.805017        49.1170 
 228   0.0000       1.829503        49.7833 
 229   0.0000       1.836658        49.9780 
 230   0.0000       1.877625        51.0928 
 231   0.0000       1.902714        51.7755 
 232   0.0000       1.927447        52.4485 
 233   0.0000       1.943983        52.8985 
 234   0.0000       1.963058        53.4175 
 235   0.0000       1.974394        53.7260 
 236   0.0000       1.976364        53.7796 
 237   0.0000       2.001568        54.4654 
 238   0.0000       2.026063        55.1320 
 239   0.0000       2.042676        55.5840 
 240   0.0000       2.049291        55.7640 
 241   0.0000       2.062987        56.1367 
 242   0.0000       2.063972        56.1635 
 243   0.0000       2.080257        56.6067 
 244   0.0000       2.097484        57.0754 
 245   0.0000       2.110359        57.4258 
 246   0.0000       2.140421        58.2438 
 247   0.0000       2.145139        58.3722 
 248   0.0000       2.149423        58.4888 
 249   0.0000       2.157565        58.7103 
 250   0.0000       2.171964        59.1021 
 251   0.0000       2.188210        59.5442 
 252   0.0000       2.201726        59.9120 
 253   0.0000       2.215581        60.2890 
 254   0.0000       2.223790        60.5124 
 255   0.0000       2.235298        60.8255 
 256   0.0000       2.259048        61.4718 
 257   0.0000       2.276192        61.9383 
 258   0.0000       2.300346        62.5956 
 259   0.0000       2.303876        62.6916 
 260   0.0000       2.332586        63.4729 
 261   0.0000       2.337343        63.6023 
 262   0.0000       2.368003        64.4366 
 263   0.0000       2.374814        64.6220 
 264   0.0000       2.379890        64.7601 
 265   0.0000       2.387802        64.9754 
 266   0.0000       2.401160        65.3389 
 267   0.0000       2.405017        65.4439 
 268   0.0000       2.414632        65.7055 
 269   0.0000       2.430882        66.1477 
 270   0.0000       2.437515        66.3282 
 271   0.0000       2.455482        66.8171 
 272   0.0000       2.481547        67.5263 
 273   0.0000       2.496404        67.9306 
 274   0.0000       2.511032        68.3287 
 275   0.0000       2.531691        68.8908 
 276   0.0000       2.544932        69.2511 
 277   0.0000       2.562411        69.7268 
 278   0.0000       2.576786        70.1179 
 279   0.0000       2.582561        70.2751 
 280   0.0000       2.586888        70.3928 
 281   0.0000       2.591121        70.5080 
 282   0.0000       2.597388        70.6785 
 283   0.0000       2.617807        71.2341 
 284   0.0000       2.624255        71.4096 
 285   0.0000       2.630370        71.5760 
 286   0.0000       2.647738        72.0486 
 287   0.0000       2.651097        72.1400 
 288   0.0000       2.661527        72.4238 
 289   0.0000       2.666377        72.5558 
 290   0.0000       2.675680        72.8090 
 291   0.0000       2.693020        73.2808 
 292   0.0000       2.703646        73.5700 
 293   0.0000       2.709989        73.7425 
 294   0.0000       2.733427        74.3803 
 295   0.0000       2.741924        74.6115 
 296   0.0000       2.751054        74.8600 
 297   0.0000       2.765971        75.2659 
 298   0.0000       2.778369        75.6033 
 299   0.0000       2.784112        75.7595 
 300   0.0000       2.789785        75.9139 
 301   0.0000       2.798917        76.1624 
 302   0.0000       2.802137        76.2500 
 303   0.0000       2.813439        76.5576 
 304   0.0000       2.824619        76.8618 
 305   0.0000       2.840536        77.2949 
 306   0.0000       2.861281        77.8594 
 307   0.0000       2.895347        78.7864 
 308   0.0000       2.901027        78.9410 
 309   0.0000       2.905308        79.0574 
 310   0.0000       2.910293        79.1931 
 311   0.0000       2.921100        79.4872 
 312   0.0000       2.935567        79.8808 
 313   0.0000       2.947291        80.1999 
 314   0.0000       2.965217        80.6877 
 315   0.0000       2.979102        81.0655 
 316   0.0000       2.998304        81.5880 
 317   0.0000       3.016354        82.0792 
 318   0.0000       3.034079        82.5615 
 319   0.0000       3.061573        83.3096 
 320   0.0000       3.071181        83.5711 
 321   0.0000       3.080032        83.8119 
 322   0.0000       3.092745        84.1579 
 323   0.0000       3.107392        84.5564 
 324   0.0000       3.116763        84.8114 
 325   0.0000       3.119134        84.8760 
 326   0.0000       3.132391        85.2367 
 327   0.0000       3.138022        85.3899 
 328   0.0000       3.145087        85.5822 
 329   0.0000       3.158958        85.9596 
 330   0.0000       3.168233        86.2120 
 331   0.0000       3.183948        86.6396 
 332   0.0000       3.186253        86.7024 
 333   0.0000       3.200609        87.0930 
 334   0.0000       3.212916        87.4279 
 335   0.0000       3.220568        87.6361 
 336   0.0000       3.227190        87.8163 
 337   0.0000       3.240106        88.1678 
 338   0.0000       3.248778        88.4038 
 339   0.0000       3.260438        88.7210 
 340   0.0000       3.267468        88.9123 
 341   0.0000       3.292268        89.5872 
 342   0.0000       3.317214        90.2660 
 343   0.0000       3.337533        90.8189 
 344   0.0000       3.338960        90.8577 
 345   0.0000       3.352409        91.2237 
 346   0.0000       3.353831        91.2624 
 347   0.0000       3.362947        91.5104 
 348   0.0000       3.372216        91.7627 
 349   0.0000       3.383758        92.0767 
 350   0.0000       3.406158        92.6863 
 351   0.0000       3.411828        92.8406 
 352   0.0000       3.441327        93.6433 
 353   0.0000       3.462374        94.2160 
 354   0.0000       3.464598        94.2765 
 355   0.0000       3.470883        94.4475 
 356   0.0000       3.513117        95.5968 
 357   0.0000       3.521673        95.8296 
 358   0.0000       3.527903        95.9991 
 359   0.0000       3.531552        96.0984 
 360   0.0000       3.562311        96.9354 
 361   0.0000       3.564880        97.0053 
 362   0.0000       3.628825        98.7453 
 363   0.0000       3.648514        99.2811 
 364   0.0000       3.652910        99.4007 
 365   0.0000       3.674070        99.9765 
 366   0.0000       3.692656       100.4823 
 367   0.0000       3.712701       101.0277 
 368   0.0000       3.755832       102.2014 
 369   0.0000       3.762827       102.3917 
 370   0.0000       3.766284       102.4858 
 371   0.0000       3.779618       102.8486 
 372   0.0000       3.842385       104.5566 
 373   0.0000       3.854554       104.8878 
 374   0.0000       3.874857       105.4402 
 375   0.0000       3.896034       106.0165 
 376   0.0000       3.902736       106.1988 
 377   0.0000       3.940598       107.2291 
 378   0.0000       3.941849       107.2632 
 379   0.0000       3.986447       108.4767 
 380   0.0000       3.997228       108.7701 
 381   0.0000       4.011905       109.1695 
 382   0.0000       4.022489       109.4575 
 383   0.0000       4.059112       110.4541 
 384   0.0000       4.070305       110.7586 
 385   0.0000       4.086072       111.1877 
 386   0.0000       4.093550       111.3912 
 387   0.0000       4.135754       112.5396 
 388   0.0000       4.164992       113.3352 
 389   0.0000       4.172429       113.5376 
 390   0.0000       4.188653       113.9790 
 391   0.0000       4.197510       114.2200 
 392   0.0000       4.208306       114.5138 
 393   0.0000       4.272368       116.2571 
 394   0.0000       4.275719       116.3482 
 395   0.0000       4.285701       116.6198 
 396   0.0000       4.335432       117.9731 
 397   0.0000       4.342501       118.1655 
 398   0.0000       4.376734       119.0970 
 399   0.0000       4.387247       119.3831 
 400   0.0000       4.395133       119.5976 
 401   0.0000       4.421052       120.3029 
 402   0.0000       4.484203       122.0214 
 403   0.0000       4.495013       122.3155 
 404   0.0000       4.540250       123.5465 
 405   0.0000       4.550125       123.8152 
 406   0.0000       4.572257       124.4174 
 407   0.0000       4.644714       126.3891 
 408   0.0000       4.651718       126.5797 
 409   0.0000       4.713285       128.2550 
 410   0.0000       4.732816       128.7865 
 411   0.0000       4.749590       129.2429 
 412   0.0000       4.776865       129.9851 
 413   0.0000       4.777842       130.0117 
 414   0.0000       4.798662       130.5782 
 415   0.0000       4.820373       131.1690 
 416   0.0000       4.844915       131.8368 
 417   0.0000       4.894600       133.1888 
 418   0.0000       4.900185       133.3408 
 419   0.0000       4.909632       133.5979 
 420   0.0000       4.928392       134.1084 
 421   0.0000       4.932272       134.2139 
 422   0.0000       5.001878       136.1080 
 423   0.0000       5.046377       137.3189 
 424   0.0000       5.051453       137.4570 
 425   0.0000       5.119645       139.3126 
 426   0.0000       5.139791       139.8608 
 427   0.0000       5.156675       140.3203 
 428   0.0000       5.165372       140.5569 
 429   0.0000       5.167310       140.6097 
 430   0.0000       5.186045       141.1195 
 431   0.0000       5.188453       141.1850 
 432   0.0000       5.194129       141.3394 
 433   0.0000       5.213041       141.8540 
 434   0.0000       5.272714       143.4778 
 435   0.0000       5.296996       144.1386 
 436   0.0000       5.323197       144.8516 
 437   0.0000       5.376362       146.2982 
 438   0.0000       5.400010       146.9417 
 439   0.0000       5.403004       147.0232 
 440   0.0000       5.441561       148.0724 
 441   0.0000       5.462362       148.6384 
 442   0.0000       5.492069       149.4468 
 443   0.0000       5.620814       152.9501 
 444   0.0000       5.648686       153.7086 
 445   0.0000       5.651504       153.7852 
 446   0.0000       5.679394       154.5442 
 447   0.0000       5.740257       156.2003 
 448   0.0000       5.774719       157.1381 
 449   0.0000       5.908874       160.7886 
 450   0.0000       5.932070       161.4198 
 451   0.0000       5.965198       162.3213 
 452   0.0000       6.056078       164.7942 
 453   0.0000       6.270944       170.6411 
 454   0.0000       6.277656       170.8237 
 455   0.0000       6.313256       171.7924 
 456   0.0000       6.349053       172.7665 
 457   0.0000       6.406260       174.3232 
 458   0.0000       6.422091       174.7540 
 459   0.0000       6.431458       175.0089 
 460   0.0000       6.460207       175.7912 
 461   0.0000       6.498775       176.8407 
 462   0.0000       6.673344       181.5909 
 463   0.0000       6.702701       182.3898 
 464   0.0000       6.864611       186.7956 
 465   0.0000       6.877855       187.1559 
 466   0.0000       6.909088       188.0059 
 467   0.0000       7.007787       190.6916 
 468   0.0000       7.058861       192.0814 
 469   0.0000       7.119732       193.7378 
 470   0.0000       7.243573       197.1076 
 471   0.0000       7.246738       197.1938 
 472   0.0000       7.475461       203.4176 
 473   0.0000       7.586062       206.4272 
 474   0.0000      22.209315       604.3462 
 475   0.0000      22.366066       608.6116 
 476   0.0000      22.411137       609.8380 
 477   0.0000      22.511057       612.5570 
 478   0.0000      22.579545       614.4207 
 479   0.0000      22.755327       619.2039 
 480   0.0000      22.795861       620.3069 
 481   0.0000      23.001944       625.9147 
 482   0.0000      32.386865       881.2914 
 483   0.0000      32.472042       883.6092 
 484   0.0000      43.744547      1190.3496 
 485   0.0000      43.965299      1196.3566 
 486   0.0000      44.093670      1199.8498 

                    ********************************
                    * MULLIKEN POPULATION ANALYSIS *
                    ********************************

-----------------------
MULLIKEN ATOMIC CHARGES
-----------------------
   0 C :   -0.336824
   1 H :    0.118207
   2 N :    0.439907
   3 O :   -0.472077
   4 O :   -0.480993
   5 H :    0.119411
   6 C :   -0.124211
   7 H :    0.294846
   8 H :    0.109623
   9 C :   -0.343459
  10 H :    0.111122
  11 C :    0.003744
  12 C :   -0.118652
  13 C :   -0.088596
  14 C :   -0.122908
  15 C :    0.007444
  16 N :   -0.112855
  17 H :    0.176362
  18 H :    0.176401
  19 H :    0.175557
  20 H :    0.117304
  21 H :    0.117989
  22 H :    0.179917
  23 H :    0.190235
  24 H :    0.336906
  25 H :    0.305600
  26 O :   -0.779999
Sum of atomic charges:   -0.0000000

--------------------------------
MULLIKEN REDUCED ORBITAL CHARGES
--------------------------------
  0 C s       :     3.276702  s :     3.276702
      pz      :     1.014014  p :     3.005367
      px      :     1.013866
      py      :     0.977486
      dz2     :     0.005595  d :     0.050819
      dxz     :     0.012421
      dyz     :     0.010768
      dx2y2   :     0.015942
      dxy     :     0.006093
      f0      :     0.000035  f :     0.003936
      f+1     :     0.000241
      f-1     :     0.000633
      f+2     :     0.001133
      f-2     :     0.000993
      f+3     :     0.000225
      f-3     :     0.000676
  1 H s       :     0.860106  s :     0.860106
      pz      :     0.009203  p :     0.021687
      px      :     0.007070
      py      :     0.005415
  2 N s       :     3.310921  s :     3.310921
      pz      :     0.890839  p :     3.001657
      px      :     1.147088
      py      :     0.963730
      dz2     :     0.051756  d :     0.233762
      dxz     :     0.046971
      dyz     :     0.075175
      dx2y2   :     0.023357
      dxy     :     0.036503
      f0      :     0.002069  f :     0.013753
      f+1     :     0.002052
      f-1     :     0.004360
      f+2     :     0.001338
      f-2     :     0.001391
      f+3     :     0.001340
      f-3     :     0.001202
  3 O s       :     3.884528  s :     3.884528
      pz      :     1.150255  p :     4.546800
      px      :     1.559594
      py      :     1.836951
      dz2     :     0.018268  d :     0.037708
      dxz     :     0.010481
      dyz     :     0.007737
      dx2y2   :     0.000662
      dxy     :     0.000560
      f0      :     0.001374  f :     0.003041
      f+1     :     0.000800
      f-1     :     0.000681
      f+2     :     0.000088
      f-2     :     0.000081
      f+3     :     0.000008
      f-3     :     0.000010
  4 O s       :     3.897381  s :     3.897381
      pz      :     1.717332  p :     4.543076
      px      :     1.552772
      py      :     1.272972
      dz2     :     0.004687  d :     0.037527
      dxz     :     0.002615
      dyz     :     0.011403
      dx2y2   :     0.010257
      dxy     :     0.008564
      f0      :     0.000370  f :     0.003009
      f+1     :     0.000033
      f-1     :     0.000530
      f+2     :     0.000695
      f-2     :     0.000411
      f+3     :     0.000460
      f-3     :     0.000509
  5 H s       :     0.859031  s :     0.859031
      pz      :     0.006977  p :     0.021558
      px      :     0.004676
      py      :     0.009906
  6 C s       :     3.191329  s :     3.191329
      pz      :     0.872013  p :     2.765049
      px      :     1.080804
      py      :     0.812233
      dz2     :     0.031227  d :     0.156381
      dxz     :     0.024310
      dyz     :     0.044978
      dx2y2   :     0.030959
      dxy     :     0.024907
      f0      :     0.001503  f :     0.011453
      f+1     :     0.001089
      f-1     :     0.002329
      f+2     :     0.002224
      f-2     :     0.001779
      f+3     :     0.001100
      f-3     :     0.001428
  7 H s       :     0.642768  s :     0.642768
      pz      :     0.007676  p :     0.062385
      px      :     0.043052
      py      :     0.011658
  8 H s       :     0.869179  s :     0.869179
      pz      :     0.005829  p :     0.021198
      px      :     0.010668
      py      :     0.004701
  9 C s       :     3.283503  s :     3.283503
      pz      :     0.946018  p :     3.004727
      px      :     1.012822
      py      :     1.045886
      dz2     :     0.013515  d :     0.051303
      dxz     :     0.008828
      dyz     :     0.012962
      dx2y2   :     0.006076
      dxy     :     0.009922
      f0      :     0.001089  f :     0.003926
      f+1     :     0.000633
      f-1     :     0.000388
      f+2     :     0.000570
      f-2     :     0.000770
      f+3     :     0.000044
      f-3     :     0.000432
 10 H s       :     0.867678  s :     0.867678
      pz      :     0.004286  p :     0.021201
      px      :     0.010677
      py      :     0.006238
 11 C s       :     3.190457  s :     3.190457
      pz      :     0.884024  p :     2.691896
      px      :     0.818540
      py      :     0.989332
      dz2     :     0.019437  d :     0.103186
      dxz     :     0.018630
      dyz     :     0.015231
      dx2y2   :     0.030559
      dxy     :     0.019329
      f0      :     0.000865  f :     0.010718
      f+1     :     0.001931
      f-1     :     0.001009
      f+2     :     0.001640
      f-2     :     0.001633
      f+3     :     0.001941
      f-3     :     0.001699
 12 C s       :     3.208058  s :     3.208058
      pz      :     0.937626  p :     2.826831
      px      :     0.971894
      py      :     0.917310
      dz2     :     0.011658  d :     0.076435
      dxz     :     0.008707
      dyz     :     0.017985
      dx2y2   :     0.015953
      dxy     :     0.022131
      f0      :     0.000698  f :     0.007328
      f+1     :     0.001048
      f-1     :     0.000947
      f+2     :     0.001384
      f-2     :     0.000945
      f+3     :     0.001240
      f-3     :     0.001066
 13 C s       :     3.227190  s :     3.227190
      pz      :     0.915435  p :     2.772409
      px      :     0.936340
      py      :     0.920634
      dz2     :     0.009370  d :     0.081710
      dxz     :     0.011334
      dyz     :     0.017780
      dx2y2   :     0.019433
      dxy     :     0.023793
      f0      :     0.000516  f :     0.007288
      f+1     :     0.001040
      f-1     :     0.000867
      f+2     :     0.001089
      f-2     :     0.001172
      f+3     :     0.001654
      f-3     :     0.000949
 14 C s       :     3.212015  s :     3.212015
      pz      :     0.931167  p :     2.827258
      px      :     0.903815
      py      :     0.992276
      dz2     :     0.013604  d :     0.076328
      dxz     :     0.014604
      dyz     :     0.010441
      dx2y2   :     0.023472
      dxy     :     0.014207
      f0      :     0.000525  f :     0.007308
      f+1     :     0.001493
      f-1     :     0.000803
      f+2     :     0.001232
      f-2     :     0.000998
      f+3     :     0.001331
      f-3     :     0.000926
 15 C s       :     3.193938  s :     3.193938
      pz      :     0.915226  p :     2.685892
      px      :     0.978942
      py      :     0.791723
      dz2     :     0.015842  d :     0.102017
      dxz     :     0.010490
      dyz     :     0.024762
      dx2y2   :     0.024949
      dxy     :     0.025975
      f0      :     0.001069  f :     0.010710
      f+1     :     0.001079
      f-1     :     0.001481
      f+2     :     0.002055
      f-2     :     0.001104
      f+3     :     0.002018
      f-3     :     0.001903
 16 N s       :     3.496051  s :     3.496051
      pz      :     1.258152  p :     3.543266
      px      :     1.187508
      py      :     1.097605
      dz2     :     0.006643  d :     0.069176
      dxz     :     0.011745
      dyz     :     0.015613
      dx2y2   :     0.015913
      dxy     :     0.019263
      f0      :     0.000405  f :     0.004362
      f+1     :     0.000572
      f-1     :     0.000537
      f+2     :     0.000591
      f-2     :     0.000689
      f+3     :     0.000931
      f-3     :     0.000638
 17 H s       :     0.801156  s :     0.801156
      pz      :     0.005424  p :     0.022483
      px      :     0.010772
      py      :     0.006287
 18 H s       :     0.801499  s :     0.801499
      pz      :     0.007859  p :     0.022101
      px      :     0.008138
      py      :     0.006103
 19 H s       :     0.801963  s :     0.801963
      pz      :     0.004629  p :     0.022480
      px      :     0.004078
      py      :     0.013773
 20 H s       :     0.861139  s :     0.861139
      pz      :     0.007221  p :     0.021557
      px      :     0.004673
      py      :     0.009663
 21 H s       :     0.860307  s :     0.860307
      pz      :     0.007112  p :     0.021704
      px      :     0.007104
      py      :     0.007488
 22 H s       :     0.796442  s :     0.796442
      pz      :     0.005592  p :     0.023641
      px      :     0.012929
      py      :     0.005119
 23 H s       :     0.787807  s :     0.787807
      pz      :     0.004575  p :     0.021958
      px      :     0.003284
      py      :     0.014099
 24 H s       :     0.617315  s :     0.617315
      pz      :     0.018738  p :     0.045780
      px      :     0.012713
      py      :     0.014329
 25 H s       :     0.626619  s :     0.626619
      pz      :     0.024080  p :     0.067780
      px      :     0.026933
      py      :     0.016768
 26 O s       :     3.816452  s :     3.816452
      pz      :     1.416659  p :     4.945271
      px      :     1.643367
      py      :     1.885245
      dz2     :     0.006516  d :     0.017339
      dxz     :     0.001848
      dyz     :     0.003331
      dx2y2   :     0.002060
      dxy     :     0.003584
      f0      :     0.000414  f :     0.000937
      f+1     :     0.000081
      f-1     :     0.000190
      f+2     :     0.000032
      f-2     :     0.000065
      f+3     :     0.000034
      f-3     :     0.000120


                     *******************************
                     * LOEWDIN POPULATION ANALYSIS *
                     *******************************

----------------------
LOEWDIN ATOMIC CHARGES
----------------------
   0 C :   -0.301565
   1 H :    0.120429
   2 N :   -0.044519
   3 O :   -0.163813
   4 O :   -0.170983
   5 H :    0.128388
   6 C :   -0.369450
   7 H :    0.181168
   8 H :    0.120499
   9 C :   -0.301771
  10 H :    0.120800
  11 C :   -0.122155
  12 C :   -0.108284
  13 C :   -0.066901
  14 C :   -0.108321
  15 C :   -0.128864
  16 N :    0.247284
  17 H :    0.164534
  18 H :    0.164566
  19 H :    0.164543
  20 H :    0.128083
  21 H :    0.119762
  22 H :    0.152266
  23 H :    0.161041
  24 H :    0.142467
  25 H :    0.182204
  26 O :   -0.411407

-------------------------------
LOEWDIN REDUCED ORBITAL CHARGES
-------------------------------
  0 C s       :     2.830404  s :     2.830404
      pz      :     1.061693  p :     3.170933
      px      :     1.063032
      py      :     1.046208
      dz2     :     0.026033  d :     0.273716
      dxz     :     0.067097
      dyz     :     0.073040
      dx2y2   :     0.066396
      dxy     :     0.041149
      f0      :     0.003201  f :     0.026512
      f+1     :     0.002728
      f-1     :     0.004217
      f+2     :     0.004140
      f-2     :     0.003697
      f+3     :     0.002736
      f-3     :     0.005793
  1 H s       :     0.817929  s :     0.817929
      pz      :     0.025304  p :     0.061642
      px      :     0.021326
      py      :     0.015012
  2 N s       :     2.934231  s :     2.934231
      pz      :     1.107134  p :     3.301147
      px      :     1.064403
      py      :     1.129610
      dz2     :     0.185500  d :     0.739657
      dxz     :     0.126494
      dyz     :     0.239079
      dx2y2   :     0.087117
      dxy     :     0.101466
      f0      :     0.010739  f :     0.069484
      f+1     :     0.009831
      f-1     :     0.024271
      f+2     :     0.006991
      f-2     :     0.006584
      f+3     :     0.005730
      f-3     :     0.005337
  3 O s       :     3.514554  s :     3.514554
      pz      :     1.297310  p :     4.546135
      px      :     1.510902
      py      :     1.737923
      dz2     :     0.046501  d :     0.093111
      dxz     :     0.023713
      dyz     :     0.020366
      dx2y2   :     0.001385
      dxy     :     0.001145
      f0      :     0.004499  f :     0.010013
      f+1     :     0.002582
      f-1     :     0.002396
      f+2     :     0.000272
      f-2     :     0.000241
      f+3     :     0.000012
      f-3     :     0.000011
  4 O s       :     3.515923  s :     3.515923
      pz      :     1.673095  p :     4.552599
      px      :     1.510691
      py      :     1.368812
      dz2     :     0.012335  d :     0.092581
      dxz     :     0.005716
      dyz     :     0.029458
      dx2y2   :     0.025370
      dxy     :     0.019703
      f0      :     0.001105  f :     0.009881
      f+1     :     0.000092
      f-1     :     0.001827
      f+2     :     0.002348
      f-2     :     0.001238
      f+3     :     0.001608
      f-3     :     0.001663
  5 H s       :     0.811049  s :     0.811049
      pz      :     0.017802  p :     0.060563
      px      :     0.013850
      py      :     0.028911
  6 C s       :     2.774236  s :     2.774236
      pz      :     0.986477  p :     2.972755
      px      :     1.049160
      py      :     0.937118
      dz2     :     0.111597  d :     0.554230
      dxz     :     0.093058
      dyz     :     0.156335
      dx2y2   :     0.103239
      dxy     :     0.090002
      f0      :     0.009581  f :     0.068229
      f+1     :     0.006554
      f-1     :     0.014282
      f+2     :     0.013043
      f-2     :     0.009327
      f+3     :     0.007262
      f-3     :     0.008180
  7 H s       :     0.623625  s :     0.623625
      pz      :     0.020820  p :     0.195207
      px      :     0.140609
      py      :     0.033778
  8 H s       :     0.818721  s :     0.818721
      pz      :     0.016546  p :     0.060780
      px      :     0.029625
      py      :     0.014609
  9 C s       :     2.830546  s :     2.830546
      pz      :     1.036072  p :     3.171229
      px      :     1.063583
      py      :     1.071574
      dz2     :     0.060674  d :     0.273490
      dxz     :     0.057279
      dyz     :     0.072061
      dx2y2   :     0.032302
      dxy     :     0.051174
      f0      :     0.007305  f :     0.026506
      f+1     :     0.004280
      f-1     :     0.002921
      f+2     :     0.004221
      f-2     :     0.003528
      f+3     :     0.001329
      f-3     :     0.002924
 10 H s       :     0.818405  s :     0.818405
      pz      :     0.013067  p :     0.060796
      px      :     0.029639
      py      :     0.018089
 11 C s       :     2.773801  s :     2.773801
      pz      :     0.911134  p :     2.826907
      px      :     0.935178
      py      :     0.980594
      dz2     :     0.071433  d :     0.458695
      dxz     :     0.094570
      dyz     :     0.059738
      dx2y2   :     0.143303
      dxy     :     0.089651
      f0      :     0.005783  f :     0.062753
      f+1     :     0.007609
      f-1     :     0.006154
[...]
     68      -0.000488   0.000274   0.000679   0.142451  -0.345604   0.046079
     69      -0.000027  -0.000004  -0.000003   0.006519   0.010885   0.073487
     70      -0.000029   0.000016  -0.000036   0.059862   0.100307   0.682126
     71      -0.000007   0.000002  -0.000002   0.017566   0.029536   0.202202
     72       0.000290  -0.000158  -0.000019  -0.000029   0.000134  -0.000163
     73       0.000101  -0.000124   0.000385   0.000064  -0.000401   0.000169
     74       0.000226  -0.000129  -0.000795   0.000123   0.000801  -0.000158
     75      -0.000377  -0.000003   0.000068   0.001821  -0.003993   0.001612
     76       0.000447   0.000085  -0.000155   0.001002  -0.004194  -0.004374
     77       0.000493   0.000023  -0.000116  -0.000771   0.001032  -0.002647
     78       0.000169  -0.000005   0.000040  -0.000027   0.000017  -0.000096
     79       0.000061   0.000001   0.000015   0.000004   0.000031   0.000072
     80       0.000038  -0.000022   0.000087   0.000034  -0.000101   0.000107
                 78         79         80    
      0      -0.000001  -0.000000  -0.000024
      1      -0.000011  -0.000010   0.000010
      2       0.000007   0.000006  -0.000012
      3       0.000110   0.000060  -0.000083
      4       0.000058   0.000031  -0.000020
      5      -0.000107  -0.000061   0.000153
      6       0.000122   0.000030   0.000161
      7      -0.000315  -0.000090  -0.000294
      8       0.000204   0.000071  -0.000208
      9       0.000028   0.000007  -0.000042
     10       0.000041   0.000007   0.000007
     11      -0.000105  -0.000037   0.000184
     12      -0.000100  -0.000029  -0.000046
     13       0.000156   0.000040   0.000165
     14      -0.000086  -0.000023  -0.000071
     15      -0.000106  -0.000024   0.000289
     16       0.000443   0.000099  -0.000492
     17       0.000282   0.000066  -0.000365
     18       0.000032  -0.000002   0.000313
     19       0.000071   0.000007   0.000280
     20       0.000027  -0.000000   0.000281
     21      -0.000374   0.000063  -0.002781
     22       0.000025   0.000143   0.000489
     23      -0.000024   0.000060  -0.003954
     24      -0.000234  -0.000120   0.000539
     25       0.000003  -0.000012   0.000221
     26      -0.000113  -0.000054   0.000071
     27       0.000031   0.000008  -0.000115
     28      -0.000029  -0.000005   0.000010
     29      -0.000026  -0.000011  -0.000032
     30      -0.000376  -0.000133   0.000737
     31      -0.000234  -0.000082   0.000344
     32       0.000015   0.000013   0.000479
     33       0.001331  -0.003250   0.000043
     34       0.019702  -0.055610   0.000088
     35       0.006386  -0.018317   0.000003
     36       0.012148  -0.050512   0.000005
     37       0.005657  -0.029743  -0.000028
     38      -0.006102   0.023096  -0.000008
     39      -0.013082  -0.011077   0.000009
     40       0.005792   0.010392  -0.000009
     41       0.010994   0.011333   0.000002
     42       0.013997   0.004498  -0.000001
     43       0.076276   0.020413  -0.000002
     44       0.018922   0.004559  -0.000009
     45       0.021796   0.006418   0.000070
     46       0.007780   0.003009  -0.000016
     47      -0.011664  -0.003182  -0.000052
     48      -0.000686   0.000784  -0.000384
     49      -0.001420   0.000701   0.000181
     50      -0.000070  -0.000276   0.000327
     51      -0.133795   0.551215  -0.000442
     52      -0.082211   0.344759  -0.000202
     53       0.059930  -0.244660   0.000224
     54       0.121364   0.122801  -0.000441
     55      -0.087533  -0.094786   0.000323
     56      -0.114412  -0.118029   0.000433
     57      -0.166508  -0.044279   0.000025
     58      -0.855046  -0.223279   0.000436
     59      -0.206142  -0.053440   0.000130
     60      -0.000042  -0.000010   0.000178
     61       0.000161   0.000040  -0.000537
     62       0.000108   0.000021  -0.000374
     63      -0.000055   0.000013   0.000266
     64       0.000050  -0.000007  -0.000220
     65      -0.000076   0.000001   0.000363
     66      -0.221537  -0.060373  -0.000529
     67      -0.106874  -0.029168  -0.000411
     68       0.107937   0.029378   0.000138
     69      -0.022997   0.061654  -0.000262
     70      -0.223037   0.611066  -0.000245
     71      -0.066991   0.184069  -0.000170
     72      -0.000002  -0.000124   0.125968
     73       0.000018  -0.000036  -0.226205
     74       0.000162   0.000839   0.963843
     75       0.001860   0.002607   0.003484
     76       0.002458  -0.005375   0.000230
     77      -0.000322  -0.003716  -0.007344
     78       0.000003  -0.000123  -0.007769
     79      -0.000030   0.000091   0.013904
     80      -0.000002   0.000059  -0.060184


-----------
IR SPECTRUM
-----------

 Mode   freq       eps      Int      T**2         TX        TY        TZ
       cm**-1   L/(mol*cm) km/mol    a.u.
----------------------------------------------------------------------------
  7:     24.12   0.000426    2.16  0.005517  ( 0.064972 -0.006896  0.035326)
  8:     31.76   0.001386    7.00  0.013620  ( 0.012290 -0.058806  0.100056)
  9:     61.24   0.002219   11.22  0.011309  ( 0.102948  0.023551 -0.012481)
 10:     71.42   0.003322   16.79  0.014515  (-0.094801 -0.068874 -0.028001)
 11:     84.67   0.000304    1.53  0.001119  (-0.003647 -0.005112 -0.032863)
 12:    101.76   0.001630    8.23  0.004997  (-0.007589 -0.036140 -0.060278)
 13:    108.20   0.000547    2.77  0.001579  (-0.038593 -0.008535 -0.004073)
 14:    143.88   0.000329    1.66  0.000713  (-0.019538 -0.010485 -0.014892)
 15:    170.89   0.000127    0.64  0.000232  ( 0.005728  0.012066 -0.007290)
 16:    187.45   0.000088    0.45  0.000147  ( 0.004988  0.001816  0.010909)
 17:    240.40   0.026534  134.09  0.034445  (-0.106987  0.106401  0.108060)
 18:    296.97   0.040230  203.30  0.042274  ( 0.071662 -0.125050 -0.146633)
 19:    312.49   0.000336    1.70  0.000336  ( 0.001702 -0.007217  0.016765)
 20:    373.05   0.000905    4.57  0.000757  (-0.017418  0.017253  0.012474)
 21:    388.28   0.013792   69.70  0.011085  ( 0.016849 -0.097522 -0.035925)
 22:    407.89   0.000684    3.46  0.000524  ( 0.012061 -0.017630 -0.008206)
 23:    437.86   0.009372   47.36  0.006679  (-0.014242 -0.069698 -0.040231)
 24:    504.97   0.006219   31.43  0.003843  (-0.053785  0.016048  0.026316)
 25:    560.44   0.003287   16.61  0.001830  ( 0.024124 -0.024236  0.025712)
 26:    602.66   0.035894  181.39  0.018586  (-0.050122  0.083500  0.095404)
 27:    633.09   0.014201   71.77  0.007000  ( 0.080168  0.021962 -0.009533)
 28:    645.73   0.009364   47.32  0.004526  ( 0.053358 -0.019249 -0.036166)
 29:    659.71   0.000340    1.72  0.000161  ( 0.009769 -0.007364 -0.003320)
 30:    706.52   0.020637  104.29  0.009115  ( 0.057072 -0.028598  0.070995)
 31:    776.33   0.013792   69.70  0.005544  ( 0.045048 -0.024962  0.053773)
 32:    786.67   0.001538    7.77  0.000610  ( 0.022273 -0.010502  0.001936)
 33:    841.11   0.001953    9.87  0.000724  ( 0.017240 -0.016194 -0.012846)
 34:    897.77   0.000093    0.47  0.000032  (-0.004900  0.002608 -0.001202)
 35:    936.71   0.002466   12.46  0.000822  (-0.026825 -0.005191  0.008668)
 36:    968.23   0.001185    5.99  0.000382  ( 0.000283  0.011889 -0.015504)
 37:    980.54   0.005787   29.25  0.001842  ( 0.032453 -0.026823 -0.008316)
 38:    986.61   0.044952  227.17  0.014218  (-0.055978  0.059665  0.086747)
 39:    988.48   0.013182   66.62  0.004162  ( 0.043850 -0.032887 -0.034016)
 40:   1018.41   0.000813    4.11  0.000249  ( 0.011714 -0.009525  0.004608)
 41:   1020.33   0.000286    1.45  0.000088  (-0.007127  0.005239 -0.003045)
 42:   1046.31   0.000241    1.22  0.000072  ( 0.003257  0.003531  0.006985)
 43:   1048.15   0.000020    0.10  0.000006  (-0.002087  0.001023  0.000660)
 44:   1088.35   0.000153    0.77  0.000044  (-0.002345 -0.004854  0.003834)
 45:   1093.61   0.001797    9.08  0.000513  ( 0.009218  0.019744 -0.006160)
 46:   1114.26   0.026510  133.97  0.007425  ( 0.048009 -0.062696 -0.034480)
 47:   1158.83   0.012042   60.86  0.003243  ( 0.033011  0.007329 -0.045820)
 48:   1179.07   0.001124    5.68  0.000298  (-0.008980 -0.014720 -0.000494)
 49:   1224.62   0.005471   27.65  0.001394  (-0.023634  0.023103  0.017372)
 50:   1229.56   0.011881   60.04  0.003015  (-0.021432  0.047961  0.015990)
 51:   1262.65   0.009921   50.14  0.002452  (-0.005520  0.021844 -0.044095)
 52:   1303.86   0.003020   15.26  0.000723  (-0.018633 -0.018608  0.005423)
 53:   1362.98   0.048567  245.44  0.011120  (-0.056974  0.087493  0.014784)
 54:   1364.62   0.012922   65.30  0.002955  (-0.018629 -0.026851 -0.043440)
 55:   1376.98   0.003922   19.82  0.000889  (-0.013576 -0.006503  0.025736)
 56:   1387.69   0.066858  337.87  0.015035  ( 0.003032 -0.061772  0.105878)
 57:   1408.27   0.039364  198.93  0.008723  ( 0.008760 -0.054248  0.075520)
 58:   1434.11   0.022920  115.83  0.004987  (-0.037572  0.039523  0.044874)
 59:   1445.91   0.004820   24.36  0.001040  ( 0.013393  0.029322 -0.001069)
 60:   1467.47   0.000441    2.23  0.000094  (-0.000042 -0.006608  0.007078)
 61:   1476.58   0.003186   16.10  0.000673  (-0.018851 -0.012848  0.012368)
 62:   1477.23   0.003662   18.51  0.000774  ( 0.025590 -0.004318  0.010010)
 63:   1491.21   0.008382   42.36  0.001754  ( 0.010497 -0.032307 -0.024499)
 64:   1524.39   0.041912  211.80  0.008580  (-0.062077  0.037890  0.057365)
 65:   1598.38   0.002822   14.26  0.000551  (-0.019390 -0.010187  0.008433)
 66:   1646.35   0.100563  508.20  0.019062  ( 0.093038 -0.056942 -0.084636)
 67:   1689.85   0.020690  104.56  0.003821  (-0.051179 -0.026097  0.022812)
 68:   1758.40   0.831668  4202.91  0.147596  ( 0.252962 -0.173376 -0.231403)
 69:   3001.90   0.007508   37.94  0.000781  (-0.012128  0.015317 -0.019971)
 70:   3004.59   0.018474   93.36  0.001919  ( 0.042973  0.000521 -0.008468)
 71:   3077.73   0.001052    5.32  0.000107  ( 0.001687  0.007071 -0.007337)
 72:   3081.56   0.011985   60.57  0.001214  (-0.015613 -0.025447 -0.017956)
 73:   3112.26   0.005350   27.04  0.000536  ( 0.006548  0.006541 -0.021231)
 74:   3115.09   0.005412   27.35  0.000542  (-0.015892  0.017005  0.000674)
 75:   3196.69   0.002087   10.54  0.000204  (-0.012848  0.002539  0.005673)
 76:   3201.77   0.005345   27.01  0.000521  ( 0.022298  0.001105 -0.004748)
 77:   3212.99   0.000234    1.18  0.000023  (-0.003683  0.002383  0.001861)
 78:   3219.40   0.000398    2.01  0.000039  (-0.006110  0.000256  0.001093)
 79:   3223.55   0.000054    0.27  0.000005  (-0.001924  0.000944  0.000820)
 80:   3784.77   0.012438   62.85  0.001026  ( 0.007712  0.001944  0.031020)

* The epsilon (eps) is given for a Dirac delta lineshape.
** The dipole moment derivative (T) already includes vibrational overlap.

The first frequency considered to be a vibration is 7
The total number of vibrations considered is 74


--------------------------
THERMOCHEMISTRY AT 298.15K
--------------------------

Temperature         ... 298.15 K
Pressure            ... 1.00 atm
Total Mass          ... 187.20 AMU

Throughout the following assumptions are being made:
  (1) The electronic state is orbitally nondegenerate
  (2) There are no thermally accessible electronically excited states
  (3) Hindered rotations indicated by low frequency modes are not
      treated as such but are treated as vibrations and this may
      cause some error
  (4) All equations used are the standard statistical mechanics
      equations for an ideal gas
  (5) All vibrations are strictly harmonic

freq.      24.12  E(vib)   ...       0.56 
freq.      31.76  E(vib)   ...       0.55 
freq.      61.24  E(vib)   ...       0.51 
freq.      71.42  E(vib)   ...       0.50 
freq.      84.67  E(vib)   ...       0.48 
freq.     101.76  E(vib)   ...       0.46 
freq.     108.20  E(vib)   ...       0.45 
freq.     143.88  E(vib)   ...       0.41 
freq.     170.89  E(vib)   ...       0.38 
freq.     187.45  E(vib)   ...       0.36 
freq.     240.40  E(vib)   ...       0.31 
freq.     296.97  E(vib)   ...       0.27 
freq.     312.49  E(vib)   ...       0.25 
freq.     373.05  E(vib)   ...       0.21 
freq.     388.28  E(vib)   ...       0.20 
freq.     407.89  E(vib)   ...       0.19 
freq.     437.86  E(vib)   ...       0.17 
freq.     504.97  E(vib)   ...       0.14 
freq.     560.44  E(vib)   ...       0.11 
freq.     602.66  E(vib)   ...       0.10 
freq.     633.09  E(vib)   ...       0.09 
freq.     645.73  E(vib)   ...       0.09 
freq.     659.71  E(vib)   ...       0.08 
freq.     706.52  E(vib)   ...       0.07 
freq.     776.33  E(vib)   ...       0.05 
freq.     786.67  E(vib)   ...       0.05 
freq.     841.11  E(vib)   ...       0.04 
freq.     897.77  E(vib)   ...       0.03 
freq.     936.71  E(vib)   ...       0.03 
freq.     968.23  E(vib)   ...       0.03 
freq.     980.54  E(vib)   ...       0.02 
freq.     986.61  E(vib)   ...       0.02 
freq.     988.48  E(vib)   ...       0.02 
freq.    1018.41  E(vib)   ...       0.02 
freq.    1020.33  E(vib)   ...       0.02 
freq.    1046.31  E(vib)   ...       0.02 
freq.    1048.15  E(vib)   ...       0.02 
freq.    1088.35  E(vib)   ...       0.02 
freq.    1093.61  E(vib)   ...       0.02 
freq.    1114.26  E(vib)   ...       0.01 
freq.    1158.83  E(vib)   ...       0.01 
freq.    1179.07  E(vib)   ...       0.01 
freq.    1224.62  E(vib)   ...       0.01 
freq.    1229.56  E(vib)   ...       0.01 
freq.    1262.65  E(vib)   ...       0.01 
freq.    1303.86  E(vib)   ...       0.01 
freq.    1362.98  E(vib)   ...       0.01 
freq.    1364.62  E(vib)   ...       0.01 
freq.    1376.98  E(vib)   ...       0.01 
freq.    1387.69  E(vib)   ...       0.00 
freq.    1408.27  E(vib)   ...       0.00 
freq.    1434.11  E(vib)   ...       0.00 
freq.    1445.91  E(vib)   ...       0.00 
freq.    1467.47  E(vib)   ...       0.00 
freq.    1476.58  E(vib)   ...       0.00 
freq.    1477.23  E(vib)   ...       0.00 
freq.    1491.21  E(vib)   ...       0.00 
freq.    1524.39  E(vib)   ...       0.00 
freq.    1598.38  E(vib)   ...       0.00 
freq.    1646.35  E(vib)   ...       0.00 
freq.    1689.85  E(vib)   ...       0.00 
freq.    1758.40  E(vib)   ...       0.00 
freq.    3001.90  E(vib)   ...       0.00 
freq.    3004.59  E(vib)   ...       0.00 
freq.    3077.73  E(vib)   ...       0.00 
freq.    3081.56  E(vib)   ...       0.00 
freq.    3112.26  E(vib)   ...       0.00 
freq.    3115.09  E(vib)   ...       0.00 
freq.    3196.69  E(vib)   ...       0.00 
freq.    3201.77  E(vib)   ...       0.00 
freq.    3212.99  E(vib)   ...       0.00 
freq.    3219.40  E(vib)   ...       0.00 
freq.    3223.55  E(vib)   ...       0.00 
freq.    3784.77  E(vib)   ...       0.00 

------------
INNER ENERGY
------------

The inner energy is: U= E(el) + E(ZPE) + E(vib) + E(rot) + E(trans)
    E(el)   - is the total energy from the electronic structure calculation
              = E(kin-el) + E(nuc-el) + E(el-el) + E(nuc-nuc)
    E(ZPE)  - the the zero temperature vibrational energy from the frequency calculation
    E(vib)  - the the finite temperature correction to E(ZPE) due to population
              of excited vibrational states
    E(rot)  - is the rotational thermal energy
    E(trans)- is the translational thermal energy

Summary of contributions to the inner energy U:
Electronic energy                ...   -648.29576005 Eh
Zero point energy                ...      0.21152468 Eh     132.73 kcal/mol
Thermal vibrational correction   ...      0.01194869 Eh       7.50 kcal/mol
Thermal rotational correction    ...      0.00141627 Eh       0.89 kcal/mol
Thermal translational correction ...      0.00141627 Eh       0.89 kcal/mol
-----------------------------------------------------------------------
Total thermal energy                   -648.06945414 Eh


Summary of corrections to the electronic energy:
(perhaps to be used in another calculation)
Total thermal correction                  0.01478123 Eh       9.28 kcal/mol
Non-thermal (ZPE) correction              0.21152468 Eh     132.73 kcal/mol
-----------------------------------------------------------------------
Total correction                          0.22630590 Eh     142.01 kcal/mol


--------
ENTHALPY
--------

The enthalpy is H = U + kB*T
                kB is Boltzmann's constant
Total free energy                 ...   -648.06945414 Eh 
Thermal Enthalpy correction       ...      0.00094421 Eh       0.59 kcal/mol
-----------------------------------------------------------------------
Total Enthalpy                    ...   -648.06850993 Eh


Note: Only C1 symmetry has been detected, increase convergence thresholds 
      if your molecule has a higher symmetry. Symmetry factor of 1.0 is   
      used for the rotational entropy correction. 
 

Note: Rotational entropy computed according to Herzberg 
Infrared and Raman Spectra, Chapter V,1, Van Nostrand Reinhold, 1945 
Point Group:  C1, Symmetry Number:   1  
Rotational constants in cm-1:     0.047835     0.012866     0.011681 

Vibrational entropy computed according to the QRRHO of S. Grimme
Chem.Eur.J. 2012 18 9955


-------
ENTROPY
-------

The entropy contributions are T*S = T*(S(el)+S(vib)+S(rot)+S(trans))
     S(el)   - electronic entropy
     S(vib)  - vibrational entropy
     S(rot)  - rotational entropy
     S(trans)- translational entropy
The entropies will be listed as multiplied by the temperature to get
units of energy

Electronic entropy                ...      0.00000000 Eh      0.00 kcal/mol
Vibrational entropy               ...      0.02173614 Eh     13.64 kcal/mol
Rotational entropy                ...      0.01510172 Eh      9.48 kcal/mol
Translational entropy             ...      0.01975928 Eh     12.40 kcal/mol
-----------------------------------------------------------------------
Final entropy term                ...      0.05659714 Eh     35.52 kcal/mol

In case the symmetry of your molecule has not been determined correctly
or in case you have a reason to use a different symmetry number we print 
out the resulting rotational entropy values for sn=1,12 :
 --------------------------------------------------------
|  sn= 1 | S(rot)=       0.01510172 Eh      9.48 kcal/mol|
|  sn= 2 | S(rot)=       0.01444726 Eh      9.07 kcal/mol|
|  sn= 3 | S(rot)=       0.01406443 Eh      8.83 kcal/mol|
|  sn= 4 | S(rot)=       0.01379281 Eh      8.66 kcal/mol|
|  sn= 5 | S(rot)=       0.01358212 Eh      8.52 kcal/mol|
|  sn= 6 | S(rot)=       0.01340997 Eh      8.41 kcal/mol|
|  sn= 7 | S(rot)=       0.01326443 Eh      8.32 kcal/mol|
|  sn= 8 | S(rot)=       0.01313835 Eh      8.24 kcal/mol|
|  sn= 9 | S(rot)=       0.01302714 Eh      8.17 kcal/mol|
|  sn=10 | S(rot)=       0.01292766 Eh      8.11 kcal/mol|
|  sn=11 | S(rot)=       0.01283767 Eh      8.06 kcal/mol|
|  sn=12 | S(rot)=       0.01275552 Eh      8.00 kcal/mol|
 --------------------------------------------------------


-------------------
GIBBS FREE ENERGY
-------------------

The Gibbs free energy is G = H - T*S

Total enthalpy                    ...   -648.06850993 Eh 
Total entropy correction          ...     -0.05659714 Eh    -35.52 kcal/mol
-----------------------------------------------------------------------
Final Gibbs free energy         ...   -648.12510707 Eh

For completeness - the Gibbs free energy minus the electronic energy
G-E(el)                           ...      0.17065297 Eh    107.09 kcal/mol



Timings for individual modules:

Sum of individual times         ...     1356.759 sec (=  22.613 min)
GTO integral calculation        ...        9.276 sec (=   0.155 min)   0.7 %
SCF iterations                  ...       85.329 sec (=   1.422 min)   6.3 %
SCF Gradient evaluation         ...       20.427 sec (=   0.340 min)   1.5 %
Numerical frequency calculation ...     1241.727 sec (=  20.695 min)  91.5 %
                             ****ORCA TERMINATED NORMALLY****
TOTAL RUN TIME: 0 days 0 hours 21 minutes 43 seconds 259 msec
