 *******************************************************************************
 **                                                                           **
 **                              MOPAC v22.0.6                                **
 **                                                                           **
 *******************************************************************************
 **          Digital Object Identifier (DOI): 10.5281/zenodo.6511958          **
 **    Visit the DOI location for information on how to cite this program.    **
 *******************************************************************************

                              PM7 CALCULATION RESULTS

 *******************************************************************************
 *  CALCULATION DONE:                                Tue Mar 26 11:17:20 2024  *
 *  PM7        - The PM7 Hamiltonian to be used
 *  DOUBLET    - SPIN STATE DEFINED AS A DOUBLET
 *
 *
 *
 *                 CHARGE ON SYSTEM = 0
 *
 *
 *
 *  EPS=78.4   - USE ANDREAS KLAMT'S COSMO IMPLICIT SOLVATION MODEL
 *  T=         - A TIME OF 14.0 DAYS REQUESTED
 *  DUMP=N     - RESTART FILE WRITTEN EVERY 30.0 MINUTES REQUESTED
 *  RELSCF     - DEFAULT SCF CRITERION MULTIPLIED BY 1.0000
 *              (DEFAULT SCF CRITERION = 0.00010)
 *  ITRY=      - DO A MAXIMUM OF 15000 ITERATIONS FOR SCF
 *  AUX        - OUTPUT AUXILIARY INFORMATION
 *  BONDS      - FINAL BOND-ORDER MATRIX TO BE PRINTED
 *******************************************************************************
PM7 BONDS AUX DUMP=30M ITRY=15000 T=14D CHARGE=0 DOUBLET eps=78.4 RELSCF=1
 Title: ASE calculation

   ATOM   CHEMICAL          X               Y               Z
  NUMBER   SYMBOL      (ANGSTROMS)     (ANGSTROMS)     (ANGSTROMS)

     1       C          0.87969000  *   0.79295000  *  -0.59930000  *
     2       C          0.98938000  *  -0.49260000  *  -1.12484000  *
     3       C         -0.07737000  *  -1.38998000  *  -1.01964000  *
     4       C         -1.26225000  *  -0.99826000  *  -0.39104000  *
     5       C         -1.36190000  *   0.30150000  *   0.10972000  *
     6       C         -0.29861000  *   1.20494000  *   0.01659000  *
     7       H          1.72318000  *   1.48303000  *  -0.67081000  *
     8       H          1.91289000  *  -0.79513000  *  -1.62142000  *
     9       H         -2.08903000  *  -1.70698000  *  -0.30126000  *
    10       H         -0.38209000  *   2.21631000  *   0.41842000  *
    11       N         -2.61885000  *   0.74452000  *   0.65422000  *
    12       O         -2.61836000  *   1.82982000  *   1.37111000  *
    13       O         -3.43365000  *  -0.16560000  *   1.10652000  *
    14       C          0.02921000  *  -2.74619000  *  -1.56009000  *
    15       C          0.13888000  *  -3.87949000  *  -0.59887000  *
    16       H          0.47093000  *  -4.81213000  *  -1.07993000  *
    17       H         -0.82902000  *  -4.09787000  *  -0.11931000  *
    18       H          0.85215000  *  -3.65917000  *   0.20891000  *
    19       N         -0.31931000  *  -2.96863000  *  -2.84616000  *
    20       O         -0.33150000  *  -4.12550000  *  -3.32968000  *
    21       O         -0.56043000  *  -2.01224000  *  -3.62192000  *
    22       H          1.86075000  *  -2.87560000  *  -2.02706000  *
    23       C          5.02114000  *  -6.29655000  *  -5.06659000  *
    24       N          4.00504000  *  -6.73634000  *  -5.85350000  *
    25       C          2.63493000  *  -6.24712000  *  -5.64345000  *
    26       C          2.47272000  *  -5.49816000  *  -4.31377000  *
    27       N          3.56923000  *  -4.47506000  *  -4.18559000  *
    28       C          4.89865000  *  -5.18432000  *  -4.09125000  *
    29       H          5.98466000  *  -6.77942000  *  -5.14802000  *
    30       H          4.07714000  *  -7.66859000  *  -6.25464000  *
    31       H          1.90984000  *  -7.09520000  *  -5.68925000  *
    32       H          2.37688000  *  -5.57626000  *  -6.50288000  *
    33       H          1.47834000  *  -4.98813000  *  -4.27249000  *
    34       H          2.51117000  *  -6.19797000  *  -3.44714000  *
    35       H          3.56616000  *  -3.84753000  *  -5.01928000  *
    36       H          5.71302000  *  -4.43128000  *  -4.24342000  *
    37       H          5.02864000  *  -5.57005000  *  -3.04710000  *
    38       H          3.38047000  *  -3.37105000  *  -1.29375000  *
    39       H          3.41121000  *  -3.84528000  *  -3.29784000  *
    40       O          3.18084000  *  -2.91102000  *  -2.11050000  *



          CARTESIAN COORDINATES 

    NO.       ATOM           X           Y           Z

     1         C          0.8797      0.7930     -0.5993
     2         C          0.9894     -0.4926     -1.1248
     3         C         -0.0774     -1.3900     -1.0196
     4         C         -1.2622     -0.9983     -0.3910
     5         C         -1.3619      0.3015      0.1097
     6         C         -0.2986      1.2049      0.0166
     7         H          1.7232      1.4830     -0.6708
     8         H          1.9129     -0.7951     -1.6214
     9         H         -2.0890     -1.7070     -0.3013
    10         H         -0.3821      2.2163      0.4184
    11         N         -2.6189      0.7445      0.6542
    12         O         -2.6184      1.8298      1.3711
    13         O         -3.4337     -0.1656      1.1065
    14         C          0.0292     -2.7462     -1.5601
    15         C          0.1389     -3.8795     -0.5989
    16         H          0.4709     -4.8121     -1.0799
    17         H         -0.8290     -4.0979     -0.1193
    18         H          0.8522     -3.6592      0.2089
    19         N         -0.3193     -2.9686     -2.8462
    20         O         -0.3315     -4.1255     -3.3297
    21         O         -0.5604     -2.0122     -3.6219
    22         H          1.8608     -2.8756     -2.0271
    23         C          5.0211     -6.2965     -5.0666
    24         N          4.0050     -6.7363     -5.8535
    25         C          2.6349     -6.2471     -5.6434
    26         C          2.4727     -5.4982     -4.3138
    27         N          3.5692     -4.4751     -4.1856
    28         C          4.8986     -5.1843     -4.0912
    29         H          5.9847     -6.7794     -5.1480
    30         H          4.0771     -7.6686     -6.2546
    31         H          1.9098     -7.0952     -5.6893
    32         H          2.3769     -5.5763     -6.5029
    33         H          1.4783     -4.9881     -4.2725
    34         H          2.5112     -6.1980     -3.4471
    35         H          3.5662     -3.8475     -5.0193
    36         H          5.7130     -4.4313     -4.2434
    37         H          5.0286     -5.5701     -3.0471
    38         H          3.3805     -3.3710     -1.2937
    39         H          3.4112     -3.8453     -3.2978
    40         O          3.1808     -2.9110     -2.1105

 General Reference for PM7:
 "Optimization of Parameters for Semiempirical Methods VI: More Modifications to the 
 NDDO Approximations and Re-optimization of Parameters", J. J. P. Stewart, J. Mol. Mod., 1:32, 19 (2013)
 https://link.springer.com/article/10.1007/s00894-012-1667-x

           Empirical Formula: C12 H19 N4 O5  =    40 atoms



      MOLECULAR POINT GROUP   :   C1  


 DOUBLET STATE CALCULATION


          UHF CALCULATION, NO. OF ALPHA ELECTRONS =   59
                           NO. OF BETA  ELECTRONS =   58

          Geometry optimization using L-BFGS
  SCF CRITERION =    0.1000E-03
 CYCLE:     1 TIME:   1.609 TIME LEFT:  2.00W  GRAD.:   268.417 HEAT: -27.79333
 CYCLE:     2 TIME:   0.078 TIME LEFT:  2.00W  GRAD.:   265.254 HEAT: -28.51637
 CYCLE:     3 TIME:   0.109 TIME LEFT:  2.00W  GRAD.:   209.133 HEAT: -65.17872
 CYCLE:     4 TIME:   0.102 TIME LEFT:  2.00W  GRAD.:   265.508 HEAT: -28.51880
 CYCLE:     5 TIME:   0.098 TIME LEFT:  2.00W  GRAD.:   209.508 HEAT: -65.15855
 CYCLE:     6 TIME:   0.090 TIME LEFT:  2.00W  GRAD.:    41.445 HEAT: -71.98225
 CYCLE:     7 TIME:   0.121 TIME LEFT:  2.00W  GRAD.:    26.838 HEAT: -72.58220
 CYCLE:     8 TIME:   0.086 TIME LEFT:  2.00W  GRAD.:    22.229 HEAT: -73.05107
 CYCLE:     9 TIME:   0.105 TIME LEFT:  2.00W  GRAD.:    24.718 HEAT: -73.45037
 CYCLE:    10 TIME:   0.086 TIME LEFT:  2.00W  GRAD.:    35.218 HEAT: -73.20377
 CYCLE:    11 TIME:   0.078 TIME LEFT:  2.00W  GRAD.:    10.525 HEAT: -73.44204
 CYCLE:    12 TIME:   0.078 TIME LEFT:  2.00W  GRAD.:     8.875 HEAT: -73.48977
 CYCLE:    13 TIME:   0.078 TIME LEFT:  2.00W  GRAD.:    11.449 HEAT: -73.50382
 CYCLE:    14 TIME:   0.090 TIME LEFT:  2.00W  GRAD.:    12.267 HEAT: -73.72808
 CYCLE:    15 TIME:   0.086 TIME LEFT:  2.00W  GRAD.:    33.170 HEAT: -74.02481
 CYCLE:    16 TIME:   0.078 TIME LEFT:  2.00W  GRAD.:     7.840 HEAT: -74.14115
 CYCLE:    17 TIME:   0.078 TIME LEFT:  2.00W  GRAD.:     6.404 HEAT: -74.24192
 CYCLE:    18 TIME:   0.078 TIME LEFT:  2.00W  GRAD.:     8.204 HEAT: -74.32908
 CYCLE:    19 TIME:   0.094 TIME LEFT:  2.00W  GRAD.:    18.120 HEAT: -74.37808
 CYCLE:    20 TIME:   0.078 TIME LEFT:  2.00W  GRAD.:     7.311 HEAT: -74.45609
 CYCLE:    21 TIME:   0.082 TIME LEFT:  2.00W  GRAD.:     5.599 HEAT: -74.79105
 CYCLE:    22 TIME:   0.078 TIME LEFT:  2.00W  GRAD.:     6.860 HEAT: -74.81502
 CYCLE:    23 TIME:   0.078 TIME LEFT:  2.00W  GRAD.:     8.878 HEAT: -74.85916
 CYCLE:    24 TIME:   0.078 TIME LEFT:  2.00W  GRAD.:    10.682 HEAT: -74.91478
 CYCLE:    25 TIME:   0.078 TIME LEFT:  2.00W  GRAD.:     5.161 HEAT: -74.95379
 CYCLE:    26 TIME:   0.078 TIME LEFT:  2.00W  GRAD.:     4.931 HEAT: -74.99605
 CYCLE:    27 TIME:   0.082 TIME LEFT:  2.00W  GRAD.:     5.341 HEAT: -75.03038
 CYCLE:    28 TIME:   0.078 TIME LEFT:  2.00W  GRAD.:    14.855 HEAT: -75.02124
 CYCLE:    29 TIME:   0.078 TIME LEFT:  2.00W  GRAD.:     3.288 HEAT: -75.05678
 CYCLE:    30 TIME:   0.078 TIME LEFT:  2.00W  GRAD.:     2.726 HEAT: -75.07924
 CYCLE:    31 TIME:   0.129 TIME LEFT:  2.00W  GRAD.:     3.542 HEAT: -75.06772
 CYCLE:    32 TIME:   0.078 TIME LEFT:  2.00W  GRAD.:     4.815 HEAT: -75.07399
 CYCLE:    33 TIME:   0.105 TIME LEFT:  2.00W  GRAD.:     7.745 HEAT: -75.04279
 CYCLE:    34 TIME:   0.078 TIME LEFT:  2.00W  GRAD.:     4.079 HEAT: -74.88399
 CYCLE:    35 TIME:   0.078 TIME LEFT:  2.00W  GRAD.:     3.429 HEAT: -74.90964
 CYCLE:    36 TIME:   0.078 TIME LEFT:  2.00W  GRAD.:     3.531 HEAT: -74.92152
 CYCLE:    37 TIME:   0.078 TIME LEFT:  2.00W  GRAD.:     4.598 HEAT: -74.91278
 CYCLE:    38 TIME:   0.082 TIME LEFT:  2.00W  GRAD.:     2.215 HEAT: -74.91398
 CYCLE:    39 TIME:   0.078 TIME LEFT:  2.00W  GRAD.:     2.042 HEAT: -74.91681
 CYCLE:    40 TIME:   0.082 TIME LEFT:  2.00W  GRAD.:     2.403 HEAT: -74.91850
 CYCLE:    41 TIME:   0.086 TIME LEFT:  2.00W  GRAD.:     3.106 HEAT: -74.91478
 CYCLE:    42 TIME:   0.086 TIME LEFT:  2.00W  GRAD.:     9.225 HEAT: -74.89236
 CYCLE:    43 TIME:   0.102 TIME LEFT:  2.00W  GRAD.:     2.208 HEAT: -74.91808
 CYCLE:    44 TIME:   0.078 TIME LEFT:  2.00W  GRAD.:     1.815 HEAT: -74.92625
 CYCLE:    45 TIME:   0.082 TIME LEFT:  2.00W  GRAD.:     3.316 HEAT: -74.91445
 CYCLE:    46 TIME:   0.078 TIME LEFT:  2.00W  GRAD.:     5.509 HEAT: -74.65616
 CYCLE:    47 TIME:   0.082 TIME LEFT:  2.00W  GRAD.:     3.125 HEAT: -74.66330
 CYCLE:    48 TIME:   0.078 TIME LEFT:  2.00W  GRAD.:     2.421 HEAT: -74.70183
 CYCLE:    49 TIME:   0.082 TIME LEFT:  2.00W  GRAD.:     3.031 HEAT: -74.69205
 CYCLE:    50 TIME:   0.086 TIME LEFT:  2.00W  GRAD.:     5.233 HEAT: -74.65106
 CYCLE:    51 TIME:   0.078 TIME LEFT:  2.00W  GRAD.:     2.539 HEAT: -74.66265
 CYCLE:    52 TIME:   0.078 TIME LEFT:  2.00W  GRAD.:     2.575 HEAT: -74.67057
 CYCLE:    53 TIME:   0.078 TIME LEFT:  2.00W  GRAD.:     4.054 HEAT: -74.68544
 CYCLE:    54 TIME:   0.078 TIME LEFT:  2.00W  GRAD.:     4.734 HEAT: -74.76238
 CYCLE:    55 TIME:   0.125 TIME LEFT:  2.00W  GRAD.:     3.936 HEAT: -74.46841
 CYCLE:    56 TIME:   0.141 TIME LEFT:  2.00W  GRAD.:     4.576 HEAT: -74.50612
 CYCLE:    57 TIME:   0.094 TIME LEFT:  2.00W  GRAD.:     5.347 HEAT: -74.89055
 CYCLE:    58 TIME:   0.109 TIME LEFT:  2.00W  GRAD.:     4.410 HEAT: -74.89867
 CYCLE:    59 TIME:   0.102 TIME LEFT:  2.00W  GRAD.:     4.463 HEAT: -74.93281
 CYCLE:    60 TIME:   0.113 TIME LEFT:  2.00W  GRAD.:     9.016 HEAT: -75.12828
 CYCLE:    61 TIME:   0.113 TIME LEFT:  2.00W  GRAD.:     5.309 HEAT: -75.12442
 CYCLE:    62 TIME:   0.086 TIME LEFT:  2.00W  GRAD.:     4.958 HEAT: -74.87547
 CYCLE:    63 TIME:   0.105 TIME LEFT:  2.00W  GRAD.:     7.446 HEAT: -74.88559
 CYCLE:    64 TIME:   0.145 TIME LEFT:  2.00W  GRAD.:     8.055 HEAT: -74.94785
 CYCLE:    65 TIME:   0.102 TIME LEFT:  2.00W  GRAD.:     8.067 HEAT: -74.82209
 CYCLE:    66 TIME:   0.102 TIME LEFT:  2.00W  GRAD.:    11.779 HEAT: -74.82914
 CYCLE:    67 TIME:   0.094 TIME LEFT:  2.00W  GRAD.:     5.297 HEAT: -74.86169
 CYCLE:    68 TIME:   0.078 TIME LEFT:  2.00W  GRAD.:     3.600 HEAT: -75.20074
 CYCLE:    69 TIME:   0.090 TIME LEFT:  2.00W  GRAD.:     2.992 HEAT: -75.21660
 CYCLE:    70 TIME:   0.094 TIME LEFT:  2.00W  GRAD.:     4.429 HEAT: -75.18649
 CYCLE:    71 TIME:   0.094 TIME LEFT:  2.00W  GRAD.:    37.716 HEAT: -74.87841
 CYCLE:    72 TIME:   0.090 TIME LEFT:  2.00W  GRAD.:     3.085 HEAT: -75.23591
 CYCLE:    73 TIME:   0.098 TIME LEFT:  2.00W  GRAD.:     4.749 HEAT: -75.24974
 CYCLE:    74 TIME:   0.141 TIME LEFT:  2.00W  GRAD.:     5.510 HEAT: -75.27583
 CYCLE:    75 TIME:   0.078 TIME LEFT:  2.00W  GRAD.:     6.393 HEAT: -75.20926
 CYCLE:    76 TIME:   0.094 TIME LEFT:  2.00W  GRAD.:     3.069 HEAT: -75.26697
 CYCLE:    77 TIME:   0.098 TIME LEFT:  2.00W  GRAD.:     9.949 HEAT: -75.35776
 CYCLE:    78 TIME:   0.090 TIME LEFT:  2.00W  GRAD.:     2.868 HEAT: -75.27681
 CYCLE:    79 TIME:   0.082 TIME LEFT:  2.00W  GRAD.:     2.140 HEAT: -75.27552
 CYCLE:    80 TIME:   0.098 TIME LEFT:  2.00W  GRAD.:     3.781 HEAT: -75.20768
 CYCLE:    81 TIME:   0.090 TIME LEFT:  2.00W  GRAD.:     6.631 HEAT: -75.20330
 CYCLE:    82 TIME:   0.090 TIME LEFT:  2.00W  GRAD.:     6.248 HEAT: -75.22407
 CYCLE:    83 TIME:   0.098 TIME LEFT:  2.00W  GRAD.:     7.351 HEAT: -75.19661
 CYCLE:    84 TIME:   0.090 TIME LEFT:  2.00W  GRAD.:    35.948 HEAT: -74.90567
 CYCLE:    85 TIME:   0.086 TIME LEFT:  2.00W  GRAD.:     3.587 HEAT: -75.18791
 CYCLE:    86 TIME:   0.094 TIME LEFT:  2.00W  GRAD.:     4.405 HEAT: -75.19967
 CYCLE:    87 TIME:   0.105 TIME LEFT:  2.00W  GRAD.:     6.915 HEAT: -75.09658
 CYCLE:    88 TIME:   0.090 TIME LEFT:  2.00W  GRAD.:     5.837 HEAT: -74.97500
 CYCLE:    89 TIME:   0.094 TIME LEFT:  2.00W  GRAD.:     7.705 HEAT: -74.96988
 CYCLE:    90 TIME:   0.090 TIME LEFT:  2.00W  GRAD.:    25.324 HEAT: -74.79544
 CYCLE:    91 TIME:   0.086 TIME LEFT:  2.00W  GRAD.:     3.946 HEAT: -75.04568
 CYCLE:    92 TIME:   0.094 TIME LEFT:  2.00W  GRAD.:     3.107 HEAT: -75.02719
 CYCLE:    93 TIME:   0.098 TIME LEFT:  2.00W  GRAD.:     8.280 HEAT: -74.85883
 CYCLE:    94 TIME:   0.102 TIME LEFT:  2.00W  GRAD.:     9.148 HEAT: -74.99469
 CYCLE:    95 TIME:   0.090 TIME LEFT:  2.00W  GRAD.:    54.765 HEAT: -74.43975
 CYCLE:    96 TIME:   0.086 TIME LEFT:  2.00W  GRAD.:     5.116 HEAT: -74.96634
 CYCLE:    97 TIME:   0.086 TIME LEFT:  2.00W  GRAD.:     3.778 HEAT: -75.04696
 CYCLE:    98 TIME:   0.086 TIME LEFT:  2.00W  GRAD.:     5.779 HEAT: -75.00709
 CYCLE:    99 TIME:   0.086 TIME LEFT:  2.00W  GRAD.:     3.194 HEAT: -75.02022
 CYCLE:   100 TIME:   0.098 TIME LEFT:  2.00W  GRAD.:    11.850 HEAT: -74.57488
 CYCLE:   101 TIME:   0.094 TIME LEFT:  2.00W  GRAD.:     9.667 HEAT: -75.11862
 CYCLE:   102 TIME:   0.086 TIME LEFT:  2.00W  GRAD.:     9.123 HEAT: -75.09686
 CYCLE:   103 TIME:   0.078 TIME LEFT:  2.00W  GRAD.:     2.995 HEAT: -75.07780
 CYCLE:   104 TIME:   0.090 TIME LEFT:  2.00W  GRAD.:     3.608 HEAT: -75.09592
 CYCLE:   105 TIME:   0.086 TIME LEFT:  2.00W  GRAD.:     4.332 HEAT: -74.79985
 CYCLE:   106 TIME:   0.098 TIME LEFT:  2.00W  GRAD.:     7.745 HEAT: -74.56898
 CYCLE:   107 TIME:   0.125 TIME LEFT:  2.00W  GRAD.:     2.965 HEAT: -74.78601


           HEAT OF FORMATION IS ESSENTIALLY STATIONARY


          CURRENT BEST VALUE OF HEAT OF FORMATION =    -75.356999

 PM7 BONDS AUX DUMP=30M ITRY=15000 T=14D CHARGE=0 DOUBLET eps=78.4 RELSCF=1
 Title: ASE calculation

  C     0.63945149 +1   0.99302873 +1  -0.73394264 +1
  C     0.75412755 +1  -0.28601012 +1  -1.27370177 +1
  C    -0.21331345 +1  -1.26483411 +1  -1.00464920 +1
  C    -1.31129008 +1  -0.94998894 +1  -0.19724460 +1
  C    -1.41714247 +1   0.34334302 +1   0.32406471 +1
  C    -0.44916917 +1   1.32201552 +1   0.06833698 +1
  H     1.40964669 +1   1.74134599 +1  -0.93841433 +1
  H     1.60582278 +1  -0.52983677 +1  -1.91328868 +1
  H    -2.07528974 +1  -1.70695917 +1   0.01179701 +1
  H    -0.54447230 +1   2.32682093 +1   0.49099037 +1
  N    -2.55661519 +1   0.67106916 +1   1.14562988 +1
  O    -2.65995883 +1   1.80485528 +1   1.59802424 +1
  O    -3.39874606 +1  -0.18658001 +1   1.37765755 +1
  C    -0.09437958 +1  -2.61201871 +1  -1.54237301 +1
  C    -0.07681666 +1  -3.74551384 +1  -0.57611385 +1
  H     0.13839554 +1  -4.71052325 +1  -1.05946984 +1
  H    -1.04538038 +1  -3.85443642 +1  -0.06119597 +1
  H     0.68976045 +1  -3.59877467 +1   0.20001129 +1
  N    -0.05473391 +1  -2.81267261 +1  -2.85992584 +1
  O     0.02930051 +1  -3.96990061 +1  -3.35812160 +1
  O    -0.10485068 +1  -1.84224533 +1  -3.66657516 +1
  H     2.21469504 +1  -2.90189429 +1  -1.92848409 +1
  C     5.09894266 +1  -6.45053007 +1  -5.06054057 +1
  N     4.12139023 +1  -6.90349298 +1  -5.88149658 +1
  C     2.74316051 +1  -6.40609739 +1  -5.75356018 +1
  C     2.51603120 +1  -5.61984058 +1  -4.45645609 +1
  N     3.61994168 +1  -4.60317362 +1  -4.30155514 +1
  C     4.93247268 +1  -5.33015663 +1  -4.10072245 +1
  H     6.06812358 +1  -6.92990399 +1  -5.09695282 +1
  H     4.21098007 +1  -7.84133129 +1  -6.26727725 +1
  H     2.01759956 +1  -7.25287956 +1  -5.81406902 +1
  H     2.52785610 +1  -5.76103252 +1  -6.64412751 +1
  H     1.52703630 +1  -5.09507923 +1  -4.48367010 +1
  H     2.49932805 +1  -6.29160445 +1  -3.56740737 +1
  H     3.67411076 +1  -4.00778030 +1  -5.15859011 +1
  H     5.76731542 +1  -4.59000366 +1  -4.19959140 +1
  H     4.98095883 +1  -5.70894538 +1  -3.04617157 +1
  H     3.51112679 +1  -3.36681421 +1  -1.23808856 +1
  H     3.42897493 +1  -3.96602386 +1  -3.48050760 +1
  O     3.17005583 +1  -2.97765819 +1  -2.05879457 +1



 -------------------------------------------------------------------------------
 PM7 BONDS AUX DUMP=30M ITRY=15000 T=14D CHARGE=0 DOUBLET eps=78.4 RELSCF=1
 Title: ASE calculation



     HERBERTS TEST WAS SATISFIED IN BFGS                      
     SCF FIELD WAS ACHIEVED                                   


                              PM7 CALCULATION
                                                       MOPAC v22.0.6 Linux
                                                       Tue Mar 26 11:17:32 2024




          FINAL HEAT OF FORMATION =        -75.35700 KCAL/MOL =    -315.29368 KJ/MOL
          VAN DER WAALS AREA      =        324.29 SQUARE ANGSTROMS



          DIELECTRIC ENERGY       =         -2.44088 EV
          COSMO AREA              =        324.29 SQUARE ANGSTROMS
          COSMO VOLUME            =        360.35 CUBIC ANGSTROMS

          GRADIENT NORM           =          9.94871          =       1.57303 PER ATOM
          IONIZATION POTENTIAL    =          7.931940 EV
          ALPHA SOMO LUMO (EV)    =         -7.932 -1.358
          BETA  SOMO LUMO (EV)    =         -8.562 -1.357
          NO. OF ALPHA ELECTRONS  =         59
          NO. OF BETA  ELECTRONS  =         58
          MOLECULAR WEIGHT        =        299.3059         POINT GROUP:  C1  

          MOLECULAR DIMENSIONS (Angstroms)

            Atom       Atom       Distance
            H    30    O    12    14.21695
            H    17    H     7     5.79604
            H    38    O    21     4.37947


          SCF CALCULATIONS        =        110

          WALL-CLOCK TIME         =     11.437 SECONDS
          COMPUTATION TIME        =         16 MINUTES AND 24.864 SECONDS



       FINAL  POINT  AND  DERIVATIVES

   PARAMETER     ATOM    TYPE            VALUE        GRADIENT
      1          1  C    CARTESIAN X     0.639451      1.002740  KCAL/ANGSTROM
      2          1  C    CARTESIAN Y     0.993029     -0.471473  KCAL/ANGSTROM
      3          1  C    CARTESIAN Z    -0.733943     -0.487316  KCAL/ANGSTROM
      4          2  C    CARTESIAN X     0.754128      0.380323  KCAL/ANGSTROM
      5          2  C    CARTESIAN Y    -0.286010      0.753103  KCAL/ANGSTROM
      6          2  C    CARTESIAN Z    -1.273702     -0.246187  KCAL/ANGSTROM
      7          3  C    CARTESIAN X    -0.213313      1.064417  KCAL/ANGSTROM
      8          3  C    CARTESIAN Y    -1.264834     -1.523618  KCAL/ANGSTROM
      9          3  C    CARTESIAN Z    -1.004649     -1.123379  KCAL/ANGSTROM
     10          4  C    CARTESIAN X    -1.311290     -1.874635  KCAL/ANGSTROM
     11          4  C    CARTESIAN Y    -0.949989     -1.338774  KCAL/ANGSTROM
     12          4  C    CARTESIAN Z    -0.197245      0.768221  KCAL/ANGSTROM
     13          5  C    CARTESIAN X    -1.417142     -0.154928  KCAL/ANGSTROM
     14          5  C    CARTESIAN Y     0.343343      0.638397  KCAL/ANGSTROM
     15          5  C    CARTESIAN Z     0.324065      0.036780  KCAL/ANGSTROM
     16          6  C    CARTESIAN X    -0.449169      0.603096  KCAL/ANGSTROM
     17          6  C    CARTESIAN Y     1.322016      0.843580  KCAL/ANGSTROM
     18          6  C    CARTESIAN Z     0.068337     -0.279625  KCAL/ANGSTROM
     19          7  H    CARTESIAN X     1.409647      0.434810  KCAL/ANGSTROM
     20          7  H    CARTESIAN Y     1.741346      0.206035  KCAL/ANGSTROM
     21          7  H    CARTESIAN Z    -0.938414      0.261541  KCAL/ANGSTROM
     22          8  H    CARTESIAN X     1.605823      0.518142  KCAL/ANGSTROM
     23          8  H    CARTESIAN Y    -0.529837      0.444828  KCAL/ANGSTROM
     24          8  H    CARTESIAN Z    -1.913289     -0.051829  KCAL/ANGSTROM
     25          9  H    CARTESIAN X    -2.075290     -0.376991  KCAL/ANGSTROM
     26          9  H    CARTESIAN Y    -1.706959     -0.294987  KCAL/ANGSTROM
     27          9  H    CARTESIAN Z     0.011797      0.075965  KCAL/ANGSTROM
     28         10  H    CARTESIAN X    -0.544472     -0.281140  KCAL/ANGSTROM
     29         10  H    CARTESIAN Y     2.326821     -0.008608  KCAL/ANGSTROM
     30         10  H    CARTESIAN Z     0.490990      0.166372  KCAL/ANGSTROM
     31         11  N    CARTESIAN X    -2.556615     -2.249515  KCAL/ANGSTROM
     32         11  N    CARTESIAN Y     0.671069     -0.769476  KCAL/ANGSTROM
     33         11  N    CARTESIAN Z     1.145630      0.573555  KCAL/ANGSTROM
     34         12  O    CARTESIAN X    -2.659959      0.506745  KCAL/ANGSTROM
     35         12  O    CARTESIAN Y     1.804855     -0.927335  KCAL/ANGSTROM
     36         12  O    CARTESIAN Z     1.598024     -0.496929  KCAL/ANGSTROM
     37         13  O    CARTESIAN X    -3.398746      0.740856  KCAL/ANGSTROM
     38         13  O    CARTESIAN Y    -0.186580      0.882245  KCAL/ANGSTROM
     39         13  O    CARTESIAN Z     1.377658     -0.164274  KCAL/ANGSTROM
     40         14  C    CARTESIAN X    -0.094380      0.583396  KCAL/ANGSTROM
     41         14  C    CARTESIAN Y    -2.612019      1.433760  KCAL/ANGSTROM
     42         14  C    CARTESIAN Z    -1.542373      0.345242  KCAL/ANGSTROM
     43         15  C    CARTESIAN X    -0.076817     -0.102856  KCAL/ANGSTROM
     44         15  C    CARTESIAN Y    -3.745514     -0.115564  KCAL/ANGSTROM
     45         15  C    CARTESIAN Z    -0.576114      0.877104  KCAL/ANGSTROM
     46         16  H    CARTESIAN X     0.138396     -0.266265  KCAL/ANGSTROM
     47         16  H    CARTESIAN Y    -4.710523     -0.370796  KCAL/ANGSTROM
     48         16  H    CARTESIAN Z    -1.059470      0.153372  KCAL/ANGSTROM
     49         17  H    CARTESIAN X    -1.045380     -0.591301  KCAL/ANGSTROM
     50         17  H    CARTESIAN Y    -3.854436      0.134799  KCAL/ANGSTROM
     51         17  H    CARTESIAN Z    -0.061196      0.444447  KCAL/ANGSTROM
     52         18  H    CARTESIAN X     0.689760      0.111034  KCAL/ANGSTROM
     53         18  H    CARTESIAN Y    -3.598775      0.216507  KCAL/ANGSTROM
     54         18  H    CARTESIAN Z     0.200011      0.256470  KCAL/ANGSTROM
     55         19  N    CARTESIAN X    -0.054734     -0.373865  KCAL/ANGSTROM
     56         19  N    CARTESIAN Y    -2.812673      3.315685  KCAL/ANGSTROM
     57         19  N    CARTESIAN Z    -2.859926      0.529581  KCAL/ANGSTROM
     58         20  O    CARTESIAN X     0.029301     -0.155552  KCAL/ANGSTROM
     59         20  O    CARTESIAN Y    -3.969901     -2.666585  KCAL/ANGSTROM
     60         20  O    CARTESIAN Z    -3.358122     -1.239579  KCAL/ANGSTROM
     61         21  O    CARTESIAN X    -0.104851     -0.242484  KCAL/ANGSTROM
     62         21  O    CARTESIAN Y    -1.842245     -0.004690  KCAL/ANGSTROM
     63         21  O    CARTESIAN Z    -3.666575     -0.076193  KCAL/ANGSTROM
     64         22  H    CARTESIAN X     2.214695     -0.218884  KCAL/ANGSTROM
     65         22  H    CARTESIAN Y    -2.901894     -0.194539  KCAL/ANGSTROM
     66         22  H    CARTESIAN Z    -1.928484      0.601175  KCAL/ANGSTROM
     67         23  C    CARTESIAN X     5.098943     -3.331474  KCAL/ANGSTROM
     68         23  C    CARTESIAN Y    -6.450530     -1.605508  KCAL/ANGSTROM
     69         23  C    CARTESIAN Z    -5.060541     -2.790245  KCAL/ANGSTROM
     70         24  N    CARTESIAN X     4.121390      4.009100  KCAL/ANGSTROM
     71         24  N    CARTESIAN Y    -6.903493      1.654637  KCAL/ANGSTROM
     72         24  N    CARTESIAN Z    -5.881497      2.247225  KCAL/ANGSTROM
     73         25  C    CARTESIAN X     2.743161     -0.743185  KCAL/ANGSTROM
     74         25  C    CARTESIAN Y    -6.406097      0.086522  KCAL/ANGSTROM
     75         25  C    CARTESIAN Z    -5.753560      0.069474  KCAL/ANGSTROM
     76         26  C    CARTESIAN X     2.516031     -0.110618  KCAL/ANGSTROM
     77         26  C    CARTESIAN Y    -5.619841      0.005015  KCAL/ANGSTROM
     78         26  C    CARTESIAN Z    -4.456456      0.177828  KCAL/ANGSTROM
     79         27  N    CARTESIAN X     3.619942     -0.078005  KCAL/ANGSTROM
     80         27  N    CARTESIAN Y    -4.603174      0.083327  KCAL/ANGSTROM
     81         27  N    CARTESIAN Z    -4.301555     -0.511198  KCAL/ANGSTROM
     82         28  C    CARTESIAN X     4.932473      0.158999  KCAL/ANGSTROM
     83         28  C    CARTESIAN Y    -5.330157      0.395126  KCAL/ANGSTROM
     84         28  C    CARTESIAN Z    -4.100722      0.517183  KCAL/ANGSTROM
     85         29  H    CARTESIAN X     6.068124      0.083595  KCAL/ANGSTROM
     86         29  H    CARTESIAN Y    -6.929904     -0.199178  KCAL/ANGSTROM
     87         29  H    CARTESIAN Z    -5.096953     -0.324863  KCAL/ANGSTROM
     88         30  H    CARTESIAN X     4.210980     -0.006900  KCAL/ANGSTROM
     89         30  H    CARTESIAN Y    -7.841331     -0.373802  KCAL/ANGSTROM
     90         30  H    CARTESIAN Z    -6.267277      0.185763  KCAL/ANGSTROM
     91         31  H    CARTESIAN X     2.017600      0.032893  KCAL/ANGSTROM
     92         31  H    CARTESIAN Y    -7.252880      0.251745  KCAL/ANGSTROM
     93         31  H    CARTESIAN Z    -5.814069     -0.365372  KCAL/ANGSTROM
     94         32  H    CARTESIAN X     2.527856     -0.427711  KCAL/ANGSTROM
     95         32  H    CARTESIAN Y    -5.761033     -0.131786  KCAL/ANGSTROM
     96         32  H    CARTESIAN Z    -6.644128      0.077131  KCAL/ANGSTROM
     97         33  H    CARTESIAN X     1.527036      0.009931  KCAL/ANGSTROM
     98         33  H    CARTESIAN Y    -5.095079      0.047082  KCAL/ANGSTROM
     99         33  H    CARTESIAN Z    -4.483670     -0.225442  KCAL/ANGSTROM
    100         34  H    CARTESIAN X     2.499328      0.183565  KCAL/ANGSTROM
    101         34  H    CARTESIAN Y    -6.291604     -0.035166  KCAL/ANGSTROM
    102         34  H    CARTESIAN Z    -3.567407      0.095773  KCAL/ANGSTROM
    103         35  H    CARTESIAN X     3.674111     -0.267537  KCAL/ANGSTROM
    104         35  H    CARTESIAN Y    -4.007780     -0.257298  KCAL/ANGSTROM
    105         35  H    CARTESIAN Z    -5.158590     -0.210689  KCAL/ANGSTROM
    106         36  H    CARTESIAN X     5.767315      0.132525  KCAL/ANGSTROM
    107         36  H    CARTESIAN Y    -4.590004      0.258002  KCAL/ANGSTROM
    108         36  H    CARTESIAN Z    -4.199591      0.114475  KCAL/ANGSTROM
    109         37  H    CARTESIAN X     4.980959      0.054362  KCAL/ANGSTROM
    110         37  H    CARTESIAN Y    -5.708945     -0.074869  KCAL/ANGSTROM
    111         37  H    CARTESIAN Z    -3.046172      0.525996  KCAL/ANGSTROM
    112         38  H    CARTESIAN X     3.511127      0.502251  KCAL/ANGSTROM
    113         38  H    CARTESIAN Y    -3.366814      0.142282  KCAL/ANGSTROM
    114         38  H    CARTESIAN Z    -1.238089      0.278679  KCAL/ANGSTROM
    115         39  H    CARTESIAN X     3.428975      0.887849  KCAL/ANGSTROM
    116         39  H    CARTESIAN Y    -3.966024      0.059282  KCAL/ANGSTROM
    117         39  H    CARTESIAN Z    -3.480508     -0.124287  KCAL/ANGSTROM
    118         40  O    CARTESIAN X     3.170056     -0.146645  KCAL/ANGSTROM
    119         40  O    CARTESIAN Y    -2.977658     -0.487743  KCAL/ANGSTROM
    120         40  O    CARTESIAN Z    -2.058795     -0.661848  KCAL/ANGSTROM




   ATOM   CHEMICAL          X               Y               Z
  NUMBER   SYMBOL      (ANGSTROMS)     (ANGSTROMS)     (ANGSTROMS)

     1       C          0.63945149  *   0.99302873  *  -0.73394264  *
     2       C          0.75412755  *  -0.28601012  *  -1.27370177  *
     3       C         -0.21331345  *  -1.26483411  *  -1.00464920  *
     4       C         -1.31129008  *  -0.94998894  *  -0.19724460  *
     5       C         -1.41714247  *   0.34334302  *   0.32406471  *
     6       C         -0.44916917  *   1.32201552  *   0.06833698  *
     7       H          1.40964669  *   1.74134599  *  -0.93841433  *
     8       H          1.60582278  *  -0.52983677  *  -1.91328868  *
     9       H         -2.07528974  *  -1.70695917  *   0.01179701  *
    10       H         -0.54447230  *   2.32682093  *   0.49099037  *
    11       N         -2.55661519  *   0.67106916  *   1.14562988  *
    12       O         -2.65995883  *   1.80485528  *   1.59802424  *
    13       O         -3.39874606  *  -0.18658001  *   1.37765755  *
    14       C         -0.09437958  *  -2.61201871  *  -1.54237301  *
    15       C         -0.07681666  *  -3.74551384  *  -0.57611385  *
    16       H          0.13839554  *  -4.71052325  *  -1.05946984  *
    17       H         -1.04538038  *  -3.85443642  *  -0.06119597  *
    18       H          0.68976045  *  -3.59877467  *   0.20001129  *
    19       N         -0.05473391  *  -2.81267261  *  -2.85992584  *
    20       O          0.02930051  *  -3.96990061  *  -3.35812160  *
    21       O         -0.10485068  *  -1.84224533  *  -3.66657516  *
    22       H          2.21469504  *  -2.90189429  *  -1.92848409  *
    23       C          5.09894266  *  -6.45053007  *  -5.06054057  *
    24       N          4.12139023  *  -6.90349298  *  -5.88149658  *
    25       C          2.74316051  *  -6.40609739  *  -5.75356018  *
    26       C          2.51603120  *  -5.61984058  *  -4.45645609  *
    27       N          3.61994168  *  -4.60317362  *  -4.30155514  *
    28       C          4.93247268  *  -5.33015663  *  -4.10072245  *
    29       H          6.06812358  *  -6.92990399  *  -5.09695282  *
    30       H          4.21098007  *  -7.84133129  *  -6.26727725  *
    31       H          2.01759956  *  -7.25287956  *  -5.81406902  *
    32       H          2.52785610  *  -5.76103252  *  -6.64412751  *
    33       H          1.52703630  *  -5.09507923  *  -4.48367010  *
    34       H          2.49932805  *  -6.29160445  *  -3.56740737  *
    35       H          3.67411076  *  -4.00778030  *  -5.15859011  *
    36       H          5.76731542  *  -4.59000366  *  -4.19959140  *
    37       H          4.98095883  *  -5.70894538  *  -3.04617157  *
    38       H          3.51112679  *  -3.36681421  *  -1.23808856  *
    39       H          3.42897493  *  -3.96602386  *  -3.48050760  *
    40       O          3.17005583  *  -2.97765819  *  -2.05879457  *

                             CARTESIAN COORDINATES

   1    C        0.639451493     0.993028733    -0.733942635
   2    C        0.754127551    -0.286010119    -1.273701773
   3    C       -0.213313452    -1.264834110    -1.004649204
   4    C       -1.311290075    -0.949988939    -0.197244604
   5    C       -1.417142469     0.343343020     0.324064706
   6    C       -0.449169173     1.322015518     0.068336983
   7    H        1.409646689     1.741345991    -0.938414334
   8    H        1.605822784    -0.529836771    -1.913288675
   9    H       -2.075289737    -1.706959169     0.011797014
  10    H       -0.544472304     2.326820927     0.490990374
  11    N       -2.556615194     0.671069157     1.145629882
  12    O       -2.659958826     1.804855276     1.598024236
  13    O       -3.398746065    -0.186580011     1.377657551
  14    C       -0.094379578    -2.612018709    -1.542373012
  15    C       -0.076816663    -3.745513842    -0.576113853
  16    H        0.138395543    -4.710523247    -1.059469844
  17    H       -1.045380380    -3.854436420    -0.061195970
  18    H        0.689760452    -3.598774674     0.200011287
  19    N       -0.054733905    -2.812672613    -2.859925836
  20    O        0.029300514    -3.969900608    -3.358121598
  21    O       -0.104850677    -1.842245333    -3.666575156
  22    H        2.214695042    -2.901894288    -1.928484095
  23    C        5.098942661    -6.450530067    -5.060540573
  24    N        4.121390233    -6.903492977    -5.881496580
  25    C        2.743160512    -6.406097390    -5.753560176
  26    C        2.516031197    -5.619840583    -4.456456094
  27    N        3.619941680    -4.603173621    -4.301555138
  28    C        4.932472678    -5.330156631    -4.100722447
  29    H        6.068123575    -6.929903988    -5.096952823
  30    H        4.210980073    -7.841331289    -6.267277250
  31    H        2.017599562    -7.252879561    -5.814069025
  32    H        2.527856102    -5.761032519    -6.644127509
  33    H        1.527036302    -5.095079230    -4.483670101
  34    H        2.499328045    -6.291604452    -3.567407371
  35    H        3.674110758    -4.007780303    -5.158590114
  36    H        5.767315417    -4.590003661    -4.199591396
  37    H        4.980958834    -5.708945384    -3.046171571
  38    H        3.511126787    -3.366814214    -1.238088561
  39    H        3.428974934    -3.966023858    -3.480507595
  40    O        3.170055827    -2.977658193    -2.058794574


           Empirical Formula: C12 H19 N4 O5  =    40 atoms



      MOLECULAR POINT GROUP   :   C1  


          ALPHA EIGENVALUES  
 -38.58681 -37.45114 -36.31758 -35.81971 -31.26288 -30.77752 -29.61631 -28.20620
 -28.00504 -27.39629 -27.01021 -25.72691 -25.56048 -24.68350 -24.22737 -22.77252
 -21.86358 -21.30552 -20.48551 -19.83597 -19.33582 -18.78953 -18.19672 -18.11438
 -17.75731 -17.59260 -17.11716 -17.04477 -16.83036 -16.70527 -16.37648 -16.31368
 -15.94313 -15.40201 -15.00468 -14.96383 -14.79251 -14.17366 -14.12672 -13.70432
 -13.64873 -13.47805 -13.27825 -13.25132 -12.92966 -12.86193 -12.42432 -12.30887
 -11.94566 -11.83360 -11.66035 -11.59211 -10.89121 -10.75791 -10.65370 -10.50039
 -10.31207  -8.56244  -7.93194  -1.35769  -0.31885   0.32663   0.51607   0.90134
   1.20107   1.89914   2.24105   2.30154   2.64982   3.03342   3.25657   3.48060
   3.60460   3.82951   3.87233   4.22408   4.32083   4.33248   4.40231   4.51729
   4.68630   4.79289   4.82071   4.85116   4.91297   5.03824   5.11071   5.22146
   5.40959   5.44861   5.56598   5.65534   5.69529   5.80190   5.82754   5.91656
   5.94258   5.94828   6.09924   6.20939   6.27984   6.55408   7.04107


           BETA EIGENVALUES 
 -38.52466 -37.45114 -35.84478 -35.81670 -31.26288 -30.77756 -29.61611 -28.20624
 -28.00508 -27.39629 -26.95289 -25.72682 -25.43142 -24.68350 -24.22734 -22.68145
 -21.86347 -21.30552 -20.37025 -19.83580 -19.24825 -18.78897 -18.19645 -18.11345
 -17.66487 -17.59263 -17.06818 -17.00900 -16.82463 -16.58173 -16.37513 -16.31336
 -15.77703 -15.40008 -15.00466 -14.78852 -14.69402 -14.15089 -14.06143 -13.70205
 -13.64852 -13.34565 -13.25278 -13.22264 -12.91564 -12.81759 -12.36647 -12.30880
 -11.94573 -11.83361 -11.66037 -10.89142 -10.75786 -10.65373 -10.50041 -10.33581
 -10.31203  -8.56234  -1.35745  -0.31885   0.32656   0.51604   0.78191   1.15234
   1.20107   1.89947   2.29148   2.52277   2.65483   3.07877   3.25661   3.56693
   3.61190   3.86729   3.95781   4.22415   4.32223   4.34913   4.40472   4.51790
   4.76602   4.79316   4.82213   4.91910   5.05919   5.08355   5.11107   5.23525
   5.41703   5.49217   5.56609   5.69531   5.74280   5.80198   5.82756   5.91657
   5.94261   5.94840   6.20936   6.27977   6.36015   6.80787   7.04107


              NET ATOMIC CHARGES AND DIPOLE CONTRIBUTIONS

  ATOM NO.   TYPE          CHARGE      No. of ELECS.   s-Pop       p-Pop       
    1          C          -0.159370        4.1594     1.08568     3.07369
    2          C          -0.109745        4.1097     1.09806     3.01168
    3          C           0.060931        3.9391     1.05824     2.88083
    4          C          -0.111422        4.1114     1.09465     3.01677
    5          C          -0.075426        4.0754     1.06878     3.00664
    6          C          -0.096479        4.0965     1.09140     3.00508
    7          H           0.177684        0.8223     0.82232
    8          H           0.168078        0.8319     0.83192
    9          H           0.198493        0.8015     0.80151
   10          H           0.189823        0.8102     0.81018
   11          N           0.676642        4.3234     1.44826     2.87510
   12          O          -0.471226        6.4712     1.94078     4.53044
   13          O          -0.463542        6.4635     1.94057     4.52297
   14          C          -0.324998        4.3250     1.02736     3.29764
   15          C          -0.401297        4.4013     1.04300     3.35829
   16          H           0.159999        0.8400     0.84000
   17          H           0.159481        0.8405     0.84052
   18          H           0.151947        0.8481     0.84805
   19          N           0.688521        4.3115     1.41930     2.89217
   20          O          -0.695661        6.6957     1.94576     4.74990
   21          O          -0.712487        6.7125     1.94550     4.76699
   22          H           0.372443        0.6276     0.62756
   23          C          -0.280653        4.2807     1.05981     3.22084
   24          N          -0.406661        5.4067     1.54191     3.86476
   25          C          -0.122039        4.1220     1.07351     3.04853
   26          C          -0.199709        4.1997     1.09336     3.10635
   27          N          -0.171623        5.1716     1.50707     3.66455
   28          C          -0.147973        4.1480     1.07971     3.06826
   29          H           0.172492        0.8275     0.82751
   30          H           0.325937        0.6741     0.67406
   31          H           0.178429        0.8216     0.82157
   32          H           0.176237        0.8238     0.82376
   33          H           0.210553        0.7894     0.78945
   34          H           0.191753        0.8082     0.80825
   35          H           0.334004        0.6660     0.66600
   36          H           0.190143        0.8099     0.80986
   37          H           0.188895        0.8111     0.81111
   38          H           0.391867        0.6081     0.60813
   39          H           0.332733        0.6673     0.66727
   40          O          -0.746774        6.7468     1.81038     4.93640
 DIPOLE           X         Y         Z       TOTAL
 POINT-CHG.    20.222   -12.915    -5.715    24.666
 HYBRID        -0.624    -0.118     0.147     0.652
 SUM           19.598   -13.033    -5.568    24.185


          ATOMIC ORBITAL ELECTRON POPULATIONS

     Atom    s        px        py        pz   
    1  C   1.08568   1.03901   1.03715   0.99754
    2  C   1.09806   1.03818   0.98443   0.98907
    3  C   1.05824   0.95602   0.95837   0.96644
    4  C   1.09465   1.03625   1.00479   0.97573
    5  C   1.06878   0.93674   1.01898   1.05093
    6  C   1.09140   0.96177   1.06473   0.97859
    7  H   0.82232
    8  H   0.83192
    9  H   0.80151
   10  H   0.81018
   11  N   1.44826   0.98205   0.94953   0.94352
   12  O   1.94078   1.83869   1.11138   1.58038
   13  O   1.94057   1.42108   1.43465   1.66724
   14  C   1.02736   1.44584   0.99640   0.85539
   15  C   1.04300   1.17962   1.07770   1.10097
   16  H   0.84000
   17  H   0.84052
   18  H   0.84805
   19  N   1.41930   0.97463   0.92320   0.99435
   20  O   1.94576   1.76551   1.16537   1.81902
   21  O   1.94550   1.77502   1.39012   1.60185
   22  H   0.62756
   23  C   1.05981   1.01070   1.11891   1.09123
   24  N   1.54191   1.11312   1.31248   1.43915
   25  C   1.07351   0.88649   1.11734   1.04471
   26  C   1.09336   0.99145   1.01136   1.10354
   27  N   1.50707   1.16187   1.20696   1.29572
   28  C   1.07971   0.89634   1.04618   1.12574
   29  H   0.82751
   30  H   0.67406
   31  H   0.82157
   32  H   0.82376
   33  H   0.78945
   34  H   0.80825
   35  H   0.66600
   36  H   0.80986
   37  H   0.81111
   38  H   0.60813
   39  H   0.66727
   40  O   1.81038   1.45322   1.90118   1.58200


                    (SZ)    =    0.500000
                    (S**2)  =    0.752498


          ATOMIC ORBITAL SPIN POPULATIONS

    Atom   Total    s     px     py     pz   
         Atomic
    1  C -0.0002 -0.000 -0.000 -0.000 -0.000
    2  C  0.0002  0.000  0.000  0.000  0.000
    3  C -0.0002 -0.000 -0.000 -0.000 -0.000
    4  C  0.0002  0.000  0.000  0.000  0.000
    5  C -0.0002 -0.000 -0.000 -0.000 -0.000
    6  C  0.0002  0.000  0.000  0.000  0.000
    7  H  0.0000  0.000
    8  H -0.0000 -0.000
    9  H -0.0000 -0.000
   10  H -0.0000 -0.000
   11  N  0.0000  0.000 -0.000 -0.000  0.000
   12  O -0.0000 -0.000 -0.000 -0.000  0.000
   13  O -0.0000 -0.000 -0.000 -0.000  0.000
   14  C  0.0001  0.000  0.000  0.000  0.000
   15  C -0.0000 -0.000 -0.000 -0.000 -0.000
   16  H -0.0000 -0.000
   17  H -0.0000 -0.000
   18  H  0.0000  0.000
   19  N -0.0000 -0.000 -0.000 -0.000 -0.000
   20  O -0.0000 -0.000 -0.000  0.000  0.000
   21  O -0.0000 -0.000 -0.000 -0.000  0.000
   22  H -0.0000 -0.000
   23  C  0.7106  0.017  0.047  0.270  0.376
   24  N  0.3013  0.026  0.019  0.094  0.162
   25  C -0.0098  0.000 -0.002 -0.005 -0.002
   26  C  0.0030  0.000 -0.000  0.001  0.002
   27  N  0.0038  0.001  0.001  0.001  0.000
   28  C -0.0313 -0.005  0.001 -0.015 -0.013
   29  H -0.0203 -0.020
   30  H  0.0018  0.002
   31  H  0.0042  0.004
   32  H  0.0064  0.006
   33  H -0.0003 -0.000
   34  H -0.0002 -0.000
   35  H  0.0006  0.001
   36  H  0.0119  0.012
   37  H  0.0189  0.019
   38  H -0.0000 -0.000
   39  H -0.0005 -0.001
   40  O -0.0000 -0.000  0.000 -0.000 -0.000

          BONDING CONTRIBUTION OF EACH ALPHA M.O.

  0.7299  0.6730  0.6710  0.7097  0.9445  0.4987  0.5672  0.7057  0.6388  0.7591
  0.9629  0.7884  0.9271  0.7045  0.6476  0.9750  0.8466  0.7719  0.9258  0.7399
  0.9731  0.6813  0.6812  0.7519  0.9247  0.7672  0.9390  0.7236  0.9005  0.8902
  0.8786  0.8203  0.8712  0.8624  0.9777  0.8020  0.3744  0.9681  0.9580  0.9060
  0.9422  0.9129  0.7954  0.9586  0.7802  0.7281  0.6297  0.9883  0.4219  0.1459
  0.3476  0.4547  0.2327  0.2904  0.4126  0.7356  0.8491  0.5837  0.1337 -1.0998
 -0.9812 -1.0983 -1.0587 -0.9479 -1.2446 -1.0321 -0.9576 -1.0303 -0.9316 -0.9881
 -0.9775 -0.9455 -0.9731 -0.9406 -0.9797 -1.0177 -0.9768 -0.9306 -0.9897 -0.9789
 -0.9525 -0.9916 -0.9887 -0.9424 -0.9405 -0.9668 -0.9976 -0.9431 -0.9437 -0.9568
 -0.9720 -0.9645 -0.9775 -0.9819 -0.9783 -0.9819 -0.9748 -0.9764 -0.9708 -0.9284
 -0.9015 -0.9161 -0.9541

          BONDING CONTRIBUTION OF EACH BETA  M.O.

  0.7351  0.6730  0.7060  0.7090  0.9445  0.4987  0.5672  0.7056  0.6388  0.7591
  0.9672  0.7884  0.9367  0.7045  0.6476  0.9798  0.8466  0.7719  0.9394  0.7398
  0.9793  0.6815  0.6801  0.7527  0.9305  0.7672  0.7612  0.9059  0.8923  0.9507
  0.8805  0.8197  0.9572  0.8628  0.9778  0.3742  0.9737  0.9553  0.9812  0.9066
  0.9421  0.9484  0.9476  0.7777  0.8813  0.6294  0.7133  0.9882  0.4219  0.1459
  0.3476  0.2332  0.2906  0.4125  0.7357  0.8844  0.8492  0.5838 -1.0996 -0.9812
 -1.0983 -1.0587 -0.9119 -0.8950 -1.2441 -1.0321 -1.0417 -0.9466 -0.9309 -0.9834
 -0.9775 -0.9244 -0.9648 -0.9862 -0.9574 -1.0177 -0.9865 -0.9226 -0.9835 -0.9784
 -0.9528 -0.9910 -0.9890 -0.9352 -0.9642 -0.9293 -0.9974 -0.9417 -0.9414 -0.9483
 -0.9719 -0.9775 -0.9545 -0.9818 -0.9783 -0.9819 -0.9748 -0.9764 -0.9285 -0.9015
 -0.9793 -0.9086 -0.9540





            (VALENCIES)   BOND ORDERS

     1  C     (3.968)     6  C 1.454     2  C 1.437     7  H 0.956     4  C 0.099

     2  C     (3.966)     1  C 1.437     3  C 1.395     8  H 0.958     5  C 0.104     4  C 0.013

     3  C     (3.992)     4  C 1.427     2  C 1.395    14  C 1.026     6  C 0.100    20  O 0.012

     4  C     (3.956)     3  C 1.427     5  C 1.381     9  H 0.945     1  C 0.099    12  O 0.019     6  C 0.014
                          2  C 0.013    13  O 0.012    19  N 0.011

     5  C     (3.929)     4  C 1.381     6  C 1.379    11  N 0.908     2  C 0.104    13  O 0.068    12  O 0.067

     6  C     (3.959)     1  C 1.454     5  C 1.379    10  H 0.950     3  C 0.100    13  O 0.019     4  C 0.014
                         12  O 0.012

     7  H     (0.968)     1  C 0.956

     8  H     (0.972)     2  C 0.958

     9  H     (0.961)     4  C 0.945

    10  H     (0.964)     6  C 0.950

    11  N     (3.780)    13  O 1.421    12  O 1.417     5  C 0.908

    12  O     (1.808)    11  N 1.417    13  O 0.283     5  C 0.067     4  C 0.019     6  C 0.012

    13  O     (1.813)    11  N 1.421    12  O 0.283     5  C 0.068     6  C 0.019     4  C 0.012

    14  C     (3.757)    19  N 1.386     3  C 1.026    15  C 0.997    20  O 0.153    21  O 0.151

    15  C     (3.921)    14  C 0.997    18  H 0.965    16  H 0.963    17  H 0.961    21  O 0.012

    16  H     (0.974)    15  C 0.963

    17  H     (0.975)    15  C 0.961

    18  H     (0.977)    15  C 0.965

    19  N     (3.814)    14  C 1.386    20  O 1.192    21  O 1.185     4  C 0.011

    20  O     (1.527)    19  N 1.192    14  C 0.153    21  O 0.150     3  C 0.012

    21  O     (1.511)    19  N 1.185    14  C 0.151    20  O 0.150    15  C 0.012

    22  H     (0.861)    40  O 0.847

    23  C     (3.838)    24  N 1.158    28  C 1.013    29  H 0.950    25  C 0.020

    24  N     (3.245)    23  C 1.158    25  C 0.928    30  H 0.847

    25  C     (3.898)    26  C 1.001    31  H 0.951    32  H 0.950    24  N 0.928    23  C 0.020    30  H 0.012
                         29  H 0.011

    26  C     (3.866)    25  C 1.001    34  H 0.952    33  H 0.938    27  N 0.925    28  C 0.011

    27  N     (3.584)    26  C 0.925    28  C 0.922    35  H 0.864    39  H 0.827    40  O 0.017

    28  C     (3.877)    23  C 1.013    36  H 0.944    37  H 0.944    27  N 0.922    26  C 0.011

    29  H     (0.970)    23  C 0.950    25  C 0.011

    30  H     (0.894)    24  N 0.847    25  C 0.012

    31  H     (0.968)    25  C 0.951

    32  H     (0.969)    25  C 0.950

    33  H     (0.956)    26  C 0.938

    34  H     (0.963)    26  C 0.952

    35  H     (0.888)    27  N 0.864

    36  H     (0.964)    28  C 0.944

    37  H     (0.964)    28  C 0.944

    38  H     (0.846)    40  O 0.843

    39  H     (0.889)    27  N 0.827    40  O 0.038

    40  O     (1.754)    22  H 0.847    38  H 0.843    39  H 0.038    27  N 0.017


 **********************
 *                    *
 * JOB ENDED NORMALLY *
 *                    *
 **********************



 TOTAL JOB TIME:            11.47 SECONDS

 == MOPAC DONE ==
