 *******************************************************************************
 **                                                                           **
 **                              MOPAC v22.0.6                                **
 **                                                                           **
 *******************************************************************************
 **          Digital Object Identifier (DOI): 10.5281/zenodo.6511958          **
 **    Visit the DOI location for information on how to cite this program.    **
 *******************************************************************************

                              PM7 CALCULATION RESULTS

 *******************************************************************************
 *  CALCULATION DONE:                                Tue Mar 26 11:02:33 2024  *
 *  PM7        - The PM7 Hamiltonian to be used
 *  DOUBLET    - SPIN STATE DEFINED AS A DOUBLET
 *
 *
 *
 *                 CHARGE ON SYSTEM = 0
 *
 *
 *
 *  EPS=78.4   - USE ANDREAS KLAMT'S COSMO IMPLICIT SOLVATION MODEL
 *  T=         - A TIME OF 14.0 DAYS REQUESTED
 *  DUMP=N     - RESTART FILE WRITTEN EVERY 30.0 MINUTES REQUESTED
 *  RELSCF     - DEFAULT SCF CRITERION MULTIPLIED BY 1.0000
 *              (DEFAULT SCF CRITERION = 0.00010)
 *  ITRY=      - DO A MAXIMUM OF 15000 ITERATIONS FOR SCF
 *  AUX        - OUTPUT AUXILIARY INFORMATION
 *  BONDS      - FINAL BOND-ORDER MATRIX TO BE PRINTED
 *******************************************************************************
PM7 BONDS AUX DUMP=30M ITRY=15000 T=14D CHARGE=0 DOUBLET eps=78.4 RELSCF=1
 Title: ASE calculation

   ATOM   CHEMICAL          X               Y               Z
  NUMBER   SYMBOL      (ANGSTROMS)     (ANGSTROMS)     (ANGSTROMS)

     1       C          0.87151000  *  -0.17489000  *   0.77511000  *
     2       C          0.84386000  *  -0.97882000  *  -0.36189000  *
     3       C         -0.33829000  *  -1.13806000  *  -1.09715000  *
     4       C         -1.49816000  *  -0.47622000  *  -0.68783000  *
     5       C         -1.45574000  *   0.31949000  *   0.46122000  *
     6       C         -0.27963000  *   0.48005000  *   1.20116000  *
     7       H          1.80249000  *  -0.05826000  *   1.33493000  *
     8       H          1.75486000  *  -1.48298000  *  -0.68488000  *
     9       H         -2.42459000  *  -0.58881000  *  -1.26140000  *
    10       H         -0.25859000  *   1.10728000  *   2.09758000  *
    11       N         -2.66053000  *   0.97957000  *   0.90173000  *
    12       O         -2.63996000  *   1.63695000  *   1.93489000  *
    13       O         -3.68297000  *   0.86574000  *   0.23763000  *
    14       C         -0.37085000  *  -2.02026000  *  -2.25675000  *
    15       C         -0.23361000  *  -3.48694000  *  -2.03606000  *
    16       H          0.44800000  *  -3.95794000  *  -2.76002000  *
    17       H         -1.20291000  *  -4.00187000  *  -2.14087000  *
    18       H          0.13650000  *  -3.71682000  *  -1.02819000  *
    19       N         -0.63141000  *  -1.54905000  *  -3.47620000  *
    20       O         -0.72286000  *  -2.31681000  *  -4.47323000  *
    21       O         -0.74099000  *  -0.31143000  *  -3.69235000  *
    22       H          1.74230000  *  -1.91645000  *  -2.96236000  *
    23       C          3.50956000  *  -5.43523000  *   0.55260000  *
    24       C          4.50677000  *  -6.33734000  *  -0.03652000  *
    25       C          5.43941000  *  -5.63669000  *  -1.03304000  *
    26       C          4.64837000  *  -4.71942000  *  -1.96088000  *
    27       N          3.94464000  *  -3.66509000  *  -1.13625000  *
    28       C          2.93762000  *  -4.30761000  *  -0.20467000  *
    29       H          3.11781000  *  -5.64370000  *   1.53384000  *
    30       H          5.11222000  *  -6.83820000  *   0.75198000  *
    31       H          3.97447000  *  -7.18084000  *  -0.54580000  *
    32       H          5.99967000  *  -6.38623000  *  -1.62971000  *
    33       H          6.22120000  *  -5.06648000  *  -0.48966000  *
    34       H          5.32061000  *  -4.20937000  *  -2.69137000  *
    35       H          3.89705000  *  -5.29078000  *  -2.55348000  *
    36       H          4.64914000  *  -3.13429000  *  -0.57831000  *
    37       H          2.54183000  *  -3.51500000  *   0.48125000  *
    38       H          2.06391000  *  -4.67697000  *  -0.81052000  *
    39       H          3.45798000  *  -2.97233000  *  -1.77462000  *
    40       H          3.04827000  *  -1.08447000  *  -2.96841000  *
    41       O          2.72041000  *  -1.99680000  *  -2.93922000  *



          CARTESIAN COORDINATES 

    NO.       ATOM           X           Y           Z

     1         C          0.8715     -0.1749      0.7751
     2         C          0.8439     -0.9788     -0.3619
     3         C         -0.3383     -1.1381     -1.0972
     4         C         -1.4982     -0.4762     -0.6878
     5         C         -1.4557      0.3195      0.4612
     6         C         -0.2796      0.4801      1.2012
     7         H          1.8025     -0.0583      1.3349
     8         H          1.7549     -1.4830     -0.6849
     9         H         -2.4246     -0.5888     -1.2614
    10         H         -0.2586      1.1073      2.0976
    11         N         -2.6605      0.9796      0.9017
    12         O         -2.6400      1.6370      1.9349
    13         O         -3.6830      0.8657      0.2376
    14         C         -0.3709     -2.0203     -2.2567
    15         C         -0.2336     -3.4869     -2.0361
    16         H          0.4480     -3.9579     -2.7600
    17         H         -1.2029     -4.0019     -2.1409
    18         H          0.1365     -3.7168     -1.0282
    19         N         -0.6314     -1.5491     -3.4762
    20         O         -0.7229     -2.3168     -4.4732
    21         O         -0.7410     -0.3114     -3.6924
    22         H          1.7423     -1.9164     -2.9624
    23         C          3.5096     -5.4352      0.5526
    24         C          4.5068     -6.3373     -0.0365
    25         C          5.4394     -5.6367     -1.0330
    26         C          4.6484     -4.7194     -1.9609
    27         N          3.9446     -3.6651     -1.1362
    28         C          2.9376     -4.3076     -0.2047
    29         H          3.1178     -5.6437      1.5338
    30         H          5.1122     -6.8382      0.7520
    31         H          3.9745     -7.1808     -0.5458
    32         H          5.9997     -6.3862     -1.6297
    33         H          6.2212     -5.0665     -0.4897
    34         H          5.3206     -4.2094     -2.6914
    35         H          3.8971     -5.2908     -2.5535
    36         H          4.6491     -3.1343     -0.5783
    37         H          2.5418     -3.5150      0.4813
    38         H          2.0639     -4.6770     -0.8105
    39         H          3.4580     -2.9723     -1.7746
    40         H          3.0483     -1.0845     -2.9684
    41         O          2.7204     -1.9968     -2.9392

 General Reference for PM7:
 "Optimization of Parameters for Semiempirical Methods VI: More Modifications to the 
 NDDO Approximations and Re-optimization of Parameters", J. J. P. Stewart, J. Mol. Mod., 1:32, 19 (2013)
 https://link.springer.com/article/10.1007/s00894-012-1667-x

           Empirical Formula: C13 H20 N3 O5  =    41 atoms



      MOLECULAR POINT GROUP   :   C1  


 DOUBLET STATE CALCULATION


          UHF CALCULATION, NO. OF ALPHA ELECTRONS =   59
                           NO. OF BETA  ELECTRONS =   58

          Geometry optimization using L-BFGS
  SCF CRITERION =    0.1000E-03
 CYCLE:     1 TIME:   0.836 TIME LEFT:  2.00W  GRAD.:    13.448 HEAT: -81.51162
 CYCLE:     2 TIME:   0.160 TIME LEFT:  2.00W  GRAD.:    13.295 HEAT: -81.51351
 CYCLE:     3 TIME:   0.164 TIME LEFT:  2.00W  GRAD.:     4.952 HEAT: -81.53843
 CYCLE:     4 TIME:   0.160 TIME LEFT:  2.00W  GRAD.:    13.288 HEAT: -81.51349
 CYCLE:     5 TIME:   0.184 TIME LEFT:  2.00W  GRAD.:  2496.056 HEAT:  35.42970
 CYCLE:     6 TIME:   0.109 TIME LEFT:  2.00W  GRAD.:    15.028 HEAT: -81.50547
 CYCLE:     7 TIME:   0.133 TIME LEFT:  2.00W  GRAD.:    66.685 HEAT: -80.82496
 CYCLE:     8 TIME:   0.137 TIME LEFT:  2.00W  GRAD.:     8.658 HEAT: -81.51332
 CYCLE:     9 TIME:   0.086 TIME LEFT:  2.00W  GRAD.:     5.640 HEAT: -81.53745
 CYCLE:    10 TIME:   0.098 TIME LEFT:  2.00W  GRAD.:     4.474 HEAT: -81.55571
 CYCLE:    11 TIME:   0.160 TIME LEFT:  2.00W  GRAD.:     3.872 HEAT: -81.56241
 CYCLE:    12 TIME:   0.160 TIME LEFT:  2.00W  GRAD.:     3.828 HEAT: -81.56797
 CYCLE:    13 TIME:   0.090 TIME LEFT:  2.00W  GRAD.:     8.784 HEAT: -81.48377
 CYCLE:    14 TIME:   0.086 TIME LEFT:  2.00W  GRAD.:    11.304 HEAT: -81.17409
 CYCLE:    15 TIME:   0.109 TIME LEFT:  2.00W  GRAD.:     7.061 HEAT: -81.16215
 CYCLE:    16 TIME:   0.133 TIME LEFT:  2.00W  GRAD.:     6.586 HEAT: -81.20646
 CYCLE:    17 TIME:   0.082 TIME LEFT:  2.00W  GRAD.:     5.210 HEAT: -81.21507
 CYCLE:    18 TIME:   0.082 TIME LEFT:  2.00W  GRAD.:     4.792 HEAT: -81.26383
 CYCLE:    19 TIME:   0.086 TIME LEFT:  2.00W  GRAD.:     6.578 HEAT: -81.10708
 CYCLE:    20 TIME:   0.105 TIME LEFT:  2.00W  GRAD.:     6.383 HEAT: -81.19729
 CYCLE:    21 TIME:   0.090 TIME LEFT:  2.00W  GRAD.:     3.259 HEAT: -81.16071
 CYCLE:    22 TIME:   0.082 TIME LEFT:  2.00W  GRAD.:     2.616 HEAT: -81.17907
 CYCLE:    23 TIME:   0.137 TIME LEFT:  2.00W  GRAD.:     3.726 HEAT: -81.18361
 CYCLE:    24 TIME:   0.156 TIME LEFT:  2.00W  GRAD.:     3.343 HEAT: -81.21766
 CYCLE:    25 TIME:   0.137 TIME LEFT:  2.00W  GRAD.:     3.536 HEAT: -81.23876
 CYCLE:    26 TIME:   0.082 TIME LEFT:  2.00W  GRAD.:     2.441 HEAT: -81.29824
 CYCLE:    27 TIME:   0.082 TIME LEFT:  2.00W  GRAD.:     3.367 HEAT: -81.22493
 CYCLE:    28 TIME:   0.160 TIME LEFT:  2.00W  GRAD.:     2.921 HEAT: -81.23436
 CYCLE:    29 TIME:   0.156 TIME LEFT:  2.00W  GRAD.:     2.927 HEAT: -81.23490
 CYCLE:    30 TIME:   0.090 TIME LEFT:  2.00W  GRAD.:     4.358 HEAT: -81.23736
 CYCLE:    31 TIME:   0.164 TIME LEFT:  2.00W  GRAD.:     3.032 HEAT: -81.32584
 CYCLE:    32 TIME:   0.172 TIME LEFT:  2.00W  GRAD.:     3.198 HEAT: -81.25462
 CYCLE:    33 TIME:   0.082 TIME LEFT:  2.00W  GRAD.:     3.987 HEAT: -81.21939
 CYCLE:    34 TIME:   0.082 TIME LEFT:  2.00W  GRAD.:     5.859 HEAT: -81.34570
 CYCLE:    35 TIME:   0.152 TIME LEFT:  2.00W  GRAD.:     4.238 HEAT: -81.34419
 CYCLE:    36 TIME:   0.082 TIME LEFT:  2.00W  GRAD.:     2.083 HEAT: -81.22909
 CYCLE:    37 TIME:   0.082 TIME LEFT:  2.00W  GRAD.:     4.423 HEAT: -81.34304
 CYCLE:    38 TIME:   0.148 TIME LEFT:  2.00W  GRAD.:     1.165 HEAT: -81.34533
 CYCLE:    39 TIME:   0.082 TIME LEFT:  2.00W  GRAD.:     1.104 HEAT: -81.34901
 CYCLE:    40 TIME:   0.094 TIME LEFT:  2.00W  GRAD.:     2.835 HEAT: -81.22975
 CYCLE:    41 TIME:   0.148 TIME LEFT:  2.00W  GRAD.:     1.105 HEAT: -81.35071
 CYCLE:    42 TIME:   0.152 TIME LEFT:  2.00W  GRAD.:     0.971 HEAT: -81.35186


          CURRENT BEST VALUE OF HEAT OF FORMATION =    -81.568626

 PM7 BONDS AUX DUMP=30M ITRY=15000 T=14D CHARGE=0 DOUBLET eps=78.4 RELSCF=1
 Title: ASE calculation

  C     0.87162042 +1  -0.17522690 +1   0.77489859 +1
  C     0.84300040 +1  -0.97984025 +1  -0.36224367 +1
  C    -0.33907082 +1  -1.13926296 +1  -1.09609560 +1
  C    -1.49843982 +1  -0.47595324 +1  -0.68753279 +1
  C    -1.45561556 +1   0.32007733 +1   0.46149119 +1
  C    -0.27941652 +1   0.48012996 +1   1.20109312 +1
  H     1.80235576 +1  -0.05843414 +1   1.33491636 +1
  H     1.75426164 +1  -1.48391080 +1  -0.68448265 +1
  H    -2.42455052 +1  -0.58848181 +1  -1.26155212 +1
  H    -0.25832086 +1   1.10743922 +1   2.09740429 +1
  N    -2.66035208 +1   0.98012644 +1   0.90140863 +1
  O    -2.63979836 +1   1.63762629 +1   1.93495473 +1
  O    -3.68276302 +1   0.86681976 +1   0.23728751 +1
  C    -0.37975422 +1  -2.02324286 +1  -2.25471730 +1
  C    -0.23555025 +1  -3.48863630 +1  -2.03560339 +1
  H     0.44843137 +1  -3.95706020 +1  -2.75936481 +1
  H    -1.20398242 +1  -4.00430274 +1  -2.14167728 +1
  H     0.13539208 +1  -3.71725052 +1  -1.02763518 +1
  N    -0.63148472 +1  -1.55000738 +1  -3.47475583 +1
  O    -0.72235288 +1  -2.31671761 +1  -4.47348390 +1
  O    -0.73992358 +1  -0.31219685 +1  -3.69141402 +1
  H     1.75348390 +1  -1.90678408 +1  -2.96973959 +1
  C     3.50968726 +1  -5.43534798 +1   0.55297111 +1
  C     4.50672170 +1  -6.33762337 +1  -0.03623180 +1
  C     5.43936152 +1  -5.63701425 +1  -1.03276010 +1
  C     4.64841271 +1  -4.71954168 +1  -1.96054609 +1
  N     3.94492730 +1  -3.66483239 +1  -1.13594692 +1
  C     2.93791290 +1  -4.30748241 +1  -0.20419744 +1
  H     3.11792545 +1  -5.64392025 +1   1.53428200 +1
  H     5.11221618 +1  -6.83852438 +1   0.75220292 +1
  H     3.97449942 +1  -7.18118076 +1  -0.54550325 +1
  H     5.99948532 +1  -6.38663321 +1  -1.62957589 +1
  H     6.22141897 +1  -5.06698046 +1  -0.48960526 +1
  H     5.32071810 +1  -4.20971914 +1  -2.69116377 +1
  H     3.89698417 +1  -5.29082089 +1  -2.55305514 +1
  H     4.64998944 +1  -3.13503046 +1  -0.57773520 +1
  H     2.54212872 +1  -3.51506559 +1   0.48179995 +1
  H     2.06405819 +1  -4.67673614 +1  -0.80985790 +1
  H     3.45849150 +1  -2.97233536 +1  -1.77436144 +1
  H     3.05520992 +1  -1.08714508 +1  -2.96687659 +1
  O     2.71239186 +1  -1.99234834 +1  -2.94471722 +1



 -------------------------------------------------------------------------------
 PM7 BONDS AUX DUMP=30M ITRY=15000 T=14D CHARGE=0 DOUBLET eps=78.4 RELSCF=1
 Title: ASE calculation



     HERBERTS TEST WAS SATISFIED IN BFGS                      
     SCF FIELD WAS ACHIEVED                                   


                              PM7 CALCULATION
                                                       MOPAC v22.0.6 Linux
                                                       Tue Mar 26 11:02:39 2024




          FINAL HEAT OF FORMATION =        -81.56863 KCAL/MOL =    -341.28313 KJ/MOL
          VAN DER WAALS AREA      =        322.02 SQUARE ANGSTROMS



          DIELECTRIC ENERGY       =         -3.19067 EV
          COSMO AREA              =        322.02 SQUARE ANGSTROMS
          COSMO VOLUME            =        366.29 CUBIC ANGSTROMS

          GRADIENT NORM           =          3.82784          =       0.59781 PER ATOM
          IONIZATION POTENTIAL    =          8.715538 EV
          ALPHA SOMO LUMO (EV)    =         -8.716 -1.401
          BETA  SOMO LUMO (EV)    =         -8.716 -1.401
          NO. OF ALPHA ELECTRONS  =         59
          NO. OF BETA  ELECTRONS  =         58
          MOLECULAR WEIGHT        =        298.3181         POINT GROUP:  C1  

          MOLECULAR DIMENSIONS (Angstroms)

            Atom       Atom       Distance
            H    32    O    12    12.31795
            O    20    H    29     7.22235
            H    17    H    40     5.04572


          SCF CALCULATIONS        =         44

          WALL-CLOCK TIME         =      5.922 SECONDS
          COMPUTATION TIME        =          8 MINUTES AND 28.795 SECONDS



       FINAL  POINT  AND  DERIVATIVES

   PARAMETER     ATOM    TYPE            VALUE        GRADIENT
      1          1  C    CARTESIAN X     0.871620      0.301715  KCAL/ANGSTROM
      2          1  C    CARTESIAN Y    -0.175227     -0.107868  KCAL/ANGSTROM
      3          1  C    CARTESIAN Z     0.774899     -0.039810  KCAL/ANGSTROM
      4          2  C    CARTESIAN X     0.843000     -0.417527  KCAL/ANGSTROM
      5          2  C    CARTESIAN Y    -0.979840      0.159089  KCAL/ANGSTROM
      6          2  C    CARTESIAN Z    -0.362244     -0.207889  KCAL/ANGSTROM
      7          3  C    CARTESIAN X    -0.339071      0.521479  KCAL/ANGSTROM
      8          3  C    CARTESIAN Y    -1.139263      0.555689  KCAL/ANGSTROM
      9          3  C    CARTESIAN Z    -1.096096      0.502648  KCAL/ANGSTROM
     10          4  C    CARTESIAN X    -1.498440      0.335923  KCAL/ANGSTROM
     11          4  C    CARTESIAN Y    -0.475953     -0.555582  KCAL/ANGSTROM
     12          4  C    CARTESIAN Z    -0.687533     -0.775105  KCAL/ANGSTROM
     13          5  C    CARTESIAN X    -1.455616      0.221488  KCAL/ANGSTROM
     14          5  C    CARTESIAN Y     0.320077      0.394054  KCAL/ANGSTROM
     15          5  C    CARTESIAN Z     0.461491      0.750778  KCAL/ANGSTROM
     16          6  C    CARTESIAN X    -0.279417     -0.437996  KCAL/ANGSTROM
     17          6  C    CARTESIAN Y     0.480130      0.055689  KCAL/ANGSTROM
     18          6  C    CARTESIAN Z     1.201093     -0.054632  KCAL/ANGSTROM
     19          7  H    CARTESIAN X     1.802356      0.017047  KCAL/ANGSTROM
     20          7  H    CARTESIAN Y    -0.058434      0.066281  KCAL/ANGSTROM
     21          7  H    CARTESIAN Z     1.334916      0.095000  KCAL/ANGSTROM
     22          8  H    CARTESIAN X     1.754262      0.210135  KCAL/ANGSTROM
     23          8  H    CARTESIAN Y    -1.483911      0.113921  KCAL/ANGSTROM
     24          8  H    CARTESIAN Z    -0.684483      0.016517  KCAL/ANGSTROM
     25          9  H    CARTESIAN X    -2.424551      0.077647  KCAL/ANGSTROM
     26          9  H    CARTESIAN Y    -0.588482     -0.081215  KCAL/ANGSTROM
     27          9  H    CARTESIAN Z    -1.261552     -0.009347  KCAL/ANGSTROM
     28         10  H    CARTESIAN X    -0.258321     -0.094975  KCAL/ANGSTROM
     29         10  H    CARTESIAN Y     1.107439     -0.028529  KCAL/ANGSTROM
     30         10  H    CARTESIAN Z     2.097404     -0.024136  KCAL/ANGSTROM
     31         11  N    CARTESIAN X    -2.660352      0.010052  KCAL/ANGSTROM
     32         11  N    CARTESIAN Y     0.980126     -0.388957  KCAL/ANGSTROM
     33         11  N    CARTESIAN Z     0.901409     -0.400686  KCAL/ANGSTROM
     34         12  O    CARTESIAN X    -2.639798     -0.021051  KCAL/ANGSTROM
     35         12  O    CARTESIAN Y     1.637626      0.051884  KCAL/ANGSTROM
     36         12  O    CARTESIAN Z     1.934955      0.181486  KCAL/ANGSTROM
     37         13  O    CARTESIAN X    -3.682763      0.024339  KCAL/ANGSTROM
     38         13  O    CARTESIAN Y     0.866820     -0.064777  KCAL/ANGSTROM
     39         13  O    CARTESIAN Z     0.237288      0.144344  KCAL/ANGSTROM
     40         14  C    CARTESIAN X    -0.379754     -0.367763  KCAL/ANGSTROM
     41         14  C    CARTESIAN Y    -2.023243      0.083143  KCAL/ANGSTROM
     42         14  C    CARTESIAN Z    -2.254717     -0.890858  KCAL/ANGSTROM
     43         15  C    CARTESIAN X    -0.235550      0.380241  KCAL/ANGSTROM
     44         15  C    CARTESIAN Y    -3.488636      0.189767  KCAL/ANGSTROM
     45         15  C    CARTESIAN Z    -2.035603     -0.079323  KCAL/ANGSTROM
     46         16  H    CARTESIAN X     0.448431      0.066192  KCAL/ANGSTROM
     47         16  H    CARTESIAN Y    -3.957060     -0.176713  KCAL/ANGSTROM
     48         16  H    CARTESIAN Z    -2.759365     -0.129006  KCAL/ANGSTROM
     49         17  H    CARTESIAN X    -1.203982      0.077683  KCAL/ANGSTROM
     50         17  H    CARTESIAN Y    -4.004303      0.552036  KCAL/ANGSTROM
     51         17  H    CARTESIAN Z    -2.141677      0.035801  KCAL/ANGSTROM
     52         18  H    CARTESIAN X     0.135392      0.208250  KCAL/ANGSTROM
     53         18  H    CARTESIAN Y    -3.717251      0.096586  KCAL/ANGSTROM
     54         18  H    CARTESIAN Z    -1.027635     -0.019348  KCAL/ANGSTROM
     55         19  N    CARTESIAN X    -0.631485      0.597361  KCAL/ANGSTROM
     56         19  N    CARTESIAN Y    -1.550007     -0.026128  KCAL/ANGSTROM
     57         19  N    CARTESIAN Z    -3.474756      1.276415  KCAL/ANGSTROM
     58         20  O    CARTESIAN X    -0.722353     -0.168778  KCAL/ANGSTROM
     59         20  O    CARTESIAN Y    -2.316718     -0.180908  KCAL/ANGSTROM
     60         20  O    CARTESIAN Z    -4.473484     -0.604312  KCAL/ANGSTROM
     61         21  O    CARTESIAN X    -0.739924     -0.225344  KCAL/ANGSTROM
     62         21  O    CARTESIAN Y    -0.312197      0.220812  KCAL/ANGSTROM
     63         21  O    CARTESIAN Z    -3.691414     -0.377113  KCAL/ANGSTROM
     64         22  H    CARTESIAN X     1.753484      1.007553  KCAL/ANGSTROM
     65         22  H    CARTESIAN Y    -1.906784     -1.244397  KCAL/ANGSTROM
     66         22  H    CARTESIAN Z    -2.969740      0.860257  KCAL/ANGSTROM
     67         23  C    CARTESIAN X     3.509687     -0.034008  KCAL/ANGSTROM
     68         23  C    CARTESIAN Y    -5.435348      0.005610  KCAL/ANGSTROM
     69         23  C    CARTESIAN Z     0.552971     -0.011417  KCAL/ANGSTROM
     70         24  C    CARTESIAN X     4.506722      0.010716  KCAL/ANGSTROM
     71         24  C    CARTESIAN Y    -6.337623      0.006298  KCAL/ANGSTROM
     72         24  C    CARTESIAN Z    -0.036232     -0.027095  KCAL/ANGSTROM
     73         25  C    CARTESIAN X     5.439362      0.008496  KCAL/ANGSTROM
     74         25  C    CARTESIAN Y    -5.637014      0.029355  KCAL/ANGSTROM
     75         25  C    CARTESIAN Z    -1.032760     -0.019228  KCAL/ANGSTROM
     76         26  C    CARTESIAN X     4.648413     -0.040831  KCAL/ANGSTROM
     77         26  C    CARTESIAN Y    -4.719542      0.067402  KCAL/ANGSTROM
     78         26  C    CARTESIAN Z    -1.960546     -0.002994  KCAL/ANGSTROM
     79         27  N    CARTESIAN X     3.944927      0.005921  KCAL/ANGSTROM
     80         27  N    CARTESIAN Y    -3.664832     -0.079691  KCAL/ANGSTROM
     81         27  N    CARTESIAN Z    -1.135947      0.000205  KCAL/ANGSTROM
     82         28  C    CARTESIAN X     2.937913      0.016250  KCAL/ANGSTROM
     83         28  C    CARTESIAN Y    -4.307482      0.023058  KCAL/ANGSTROM
     84         28  C    CARTESIAN Z    -0.204197     -0.073120  KCAL/ANGSTROM
     85         29  H    CARTESIAN X     3.117925     -0.016123  KCAL/ANGSTROM
     86         29  H    CARTESIAN Y    -5.643920      0.005327  KCAL/ANGSTROM
     87         29  H    CARTESIAN Z     1.534282     -0.020725  KCAL/ANGSTROM
     88         30  H    CARTESIAN X     5.112216      0.002335  KCAL/ANGSTROM
     89         30  H    CARTESIAN Y    -6.838524      0.031563  KCAL/ANGSTROM
     90         30  H    CARTESIAN Z     0.752203     -0.027181  KCAL/ANGSTROM
     91         31  H    CARTESIAN X     3.974499      0.004071  KCAL/ANGSTROM
     92         31  H    CARTESIAN Y    -7.181181      0.021059  KCAL/ANGSTROM
     93         31  H    CARTESIAN Z    -0.545503     -0.043322  KCAL/ANGSTROM
     94         32  H    CARTESIAN X     5.999485      0.031265  KCAL/ANGSTROM
     95         32  H    CARTESIAN Y    -6.386633      0.033762  KCAL/ANGSTROM
     96         32  H    CARTESIAN Z    -1.629576     -0.014252  KCAL/ANGSTROM
     97         33  H    CARTESIAN X     6.221419     -0.014677  KCAL/ANGSTROM
     98         33  H    CARTESIAN Y    -5.066980      0.055042  KCAL/ANGSTROM
     99         33  H    CARTESIAN Z    -0.489605     -0.012797  KCAL/ANGSTROM
    100         34  H    CARTESIAN X     5.320718     -0.016321  KCAL/ANGSTROM
    101         34  H    CARTESIAN Y    -4.209719      0.031725  KCAL/ANGSTROM
    102         34  H    CARTESIAN Z    -2.691164     -0.019785  KCAL/ANGSTROM
    103         35  H    CARTESIAN X     3.896984      0.025637  KCAL/ANGSTROM
    104         35  H    CARTESIAN Y    -5.290821      0.018812  KCAL/ANGSTROM
    105         35  H    CARTESIAN Z    -2.553055     -0.030761  KCAL/ANGSTROM
    106         36  H    CARTESIAN X     4.649989     -0.029064  KCAL/ANGSTROM
    107         36  H    CARTESIAN Y    -3.135030      0.033847  KCAL/ANGSTROM
    108         36  H    CARTESIAN Z    -0.577735     -0.014502  KCAL/ANGSTROM
    109         37  H    CARTESIAN X     2.542129     -0.057145  KCAL/ANGSTROM
    110         37  H    CARTESIAN Y    -3.515066     -0.016466  KCAL/ANGSTROM
    111         37  H    CARTESIAN Z     0.481800     -0.060301  KCAL/ANGSTROM
    112         38  H    CARTESIAN X     2.064058     -0.010586  KCAL/ANGSTROM
    113         38  H    CARTESIAN Y    -4.676736     -0.024233  KCAL/ANGSTROM
    114         38  H    CARTESIAN Z    -0.809858     -0.057022  KCAL/ANGSTROM
    115         39  H    CARTESIAN X     3.458491     -0.098247  KCAL/ANGSTROM
    116         39  H    CARTESIAN Y    -2.972335      0.088876  KCAL/ANGSTROM
    117         39  H    CARTESIAN Z    -1.774361     -0.097138  KCAL/ANGSTROM
    118         40  H    CARTESIAN X     3.055210     -1.204485  KCAL/ANGSTROM
    119         40  H    CARTESIAN Y    -1.087145     -0.719443  KCAL/ANGSTROM
    120         40  H    CARTESIAN Z    -2.966877     -0.099194  KCAL/ANGSTROM
    121         41  O    CARTESIAN X     2.712392     -0.906710  KCAL/ANGSTROM
    122         41  O    CARTESIAN Y    -1.992348      0.704423  KCAL/ANGSTROM
    123         41  O    CARTESIAN Z    -2.944717      0.379149  KCAL/ANGSTROM




   ATOM   CHEMICAL          X               Y               Z
  NUMBER   SYMBOL      (ANGSTROMS)     (ANGSTROMS)     (ANGSTROMS)

     1       C          0.87162042  *  -0.17522690  *   0.77489859  *
     2       C          0.84300040  *  -0.97984025  *  -0.36224367  *
     3       C         -0.33907082  *  -1.13926296  *  -1.09609560  *
     4       C         -1.49843982  *  -0.47595324  *  -0.68753279  *
     5       C         -1.45561556  *   0.32007733  *   0.46149119  *
     6       C         -0.27941652  *   0.48012996  *   1.20109312  *
     7       H          1.80235576  *  -0.05843414  *   1.33491636  *
     8       H          1.75426164  *  -1.48391080  *  -0.68448265  *
     9       H         -2.42455052  *  -0.58848181  *  -1.26155212  *
    10       H         -0.25832086  *   1.10743922  *   2.09740429  *
    11       N         -2.66035208  *   0.98012644  *   0.90140863  *
    12       O         -2.63979836  *   1.63762629  *   1.93495473  *
    13       O         -3.68276302  *   0.86681976  *   0.23728751  *
    14       C         -0.37975422  *  -2.02324286  *  -2.25471730  *
    15       C         -0.23555025  *  -3.48863630  *  -2.03560339  *
    16       H          0.44843137  *  -3.95706020  *  -2.75936481  *
    17       H         -1.20398242  *  -4.00430274  *  -2.14167728  *
    18       H          0.13539208  *  -3.71725052  *  -1.02763518  *
    19       N         -0.63148472  *  -1.55000738  *  -3.47475583  *
    20       O         -0.72235288  *  -2.31671761  *  -4.47348390  *
    21       O         -0.73992358  *  -0.31219685  *  -3.69141402  *
    22       H          1.75348390  *  -1.90678408  *  -2.96973959  *
    23       C          3.50968726  *  -5.43534798  *   0.55297111  *
    24       C          4.50672170  *  -6.33762337  *  -0.03623180  *
    25       C          5.43936152  *  -5.63701425  *  -1.03276010  *
    26       C          4.64841271  *  -4.71954168  *  -1.96054609  *
    27       N          3.94492730  *  -3.66483239  *  -1.13594692  *
    28       C          2.93791290  *  -4.30748241  *  -0.20419744  *
    29       H          3.11792545  *  -5.64392025  *   1.53428200  *
    30       H          5.11221618  *  -6.83852438  *   0.75220292  *
    31       H          3.97449942  *  -7.18118076  *  -0.54550325  *
    32       H          5.99948532  *  -6.38663321  *  -1.62957589  *
    33       H          6.22141897  *  -5.06698046  *  -0.48960526  *
    34       H          5.32071810  *  -4.20971914  *  -2.69116377  *
    35       H          3.89698417  *  -5.29082089  *  -2.55305514  *
    36       H          4.64998944  *  -3.13503046  *  -0.57773520  *
    37       H          2.54212872  *  -3.51506559  *   0.48179995  *
    38       H          2.06405819  *  -4.67673614  *  -0.80985790  *
    39       H          3.45849150  *  -2.97233536  *  -1.77436144  *
    40       H          3.05520992  *  -1.08714508  *  -2.96687659  *
    41       O          2.71239186  *  -1.99234834  *  -2.94471722  *

                             CARTESIAN COORDINATES

   1    C        0.871620418    -0.175226902     0.774898585
   2    C        0.843000402    -0.979840249    -0.362243669
   3    C       -0.339070820    -1.139262959    -1.096095605
   4    C       -1.498439825    -0.475953236    -0.687532786
   5    C       -1.455615559     0.320077328     0.461491186
   6    C       -0.279416522     0.480129956     1.201093124
   7    H        1.802355758    -0.058434144     1.334916357
   8    H        1.754261642    -1.483910804    -0.684482653
   9    H       -2.424550521    -0.588481810    -1.261552117
  10    H       -0.258320856     1.107439220     2.097404292
  11    N       -2.660352081     0.980126441     0.901408635
  12    O       -2.639798357     1.637626289     1.934954730
  13    O       -3.682763017     0.866819761     0.237287509
  14    C       -0.379754215    -2.023242864    -2.254717297
  15    C       -0.235550254    -3.488636300    -2.035603394
  16    H        0.448431370    -3.957060203    -2.759364806
  17    H       -1.203982416    -4.004302739    -2.141677278
  18    H        0.135392083    -3.717250519    -1.027635177
  19    N       -0.631484716    -1.550007382    -3.474755832
  20    O       -0.722352881    -2.316717608    -4.473483904
  21    O       -0.739923578    -0.312196854    -3.691414024
  22    H        1.753483902    -1.906784080    -2.969739590
  23    C        3.509687256    -5.435347976     0.552971113
  24    C        4.506721697    -6.337623375    -0.036231803
  25    C        5.439361525    -5.637014252    -1.032760099
  26    C        4.648412706    -4.719541682    -1.960546085
  27    N        3.944927301    -3.664832393    -1.135946924
  28    C        2.937912896    -4.307482410    -0.204197440
  29    H        3.117925455    -5.643920252     1.534281997
  30    H        5.112216184    -6.838524384     0.752202920
  31    H        3.974499419    -7.181180759    -0.545503248
  32    H        5.999485315    -6.386633207    -1.629575891
  33    H        6.221418970    -5.066980455    -0.489605259
  34    H        5.320718098    -4.209719135    -2.691163773
  35    H        3.896984171    -5.290820889    -2.553055144
  36    H        4.649989440    -3.135030462    -0.577735202
  37    H        2.542128720    -3.515065590     0.481799953
  38    H        2.064058193    -4.676736137    -0.809857897
  39    H        3.458491497    -2.972335364    -1.774361443
  40    H        3.055209917    -1.087145078    -2.966876591
  41    O        2.712391855    -1.992348342    -2.944717218


           Empirical Formula: C13 H20 N3 O5  =    41 atoms



      MOLECULAR POINT GROUP   :   C1  


          ALPHA EIGENVALUES  
 -38.37736 -37.47055 -35.96360 -31.34768 -30.79187 -29.74777 -28.93203 -28.26623
 -28.16629 -27.39991 -26.88798 -25.86349 -24.78131 -24.34115 -23.73543 -21.97720
 -21.91375 -21.40501 -20.21978 -19.94353 -19.01260 -18.77507 -18.31533 -18.18151
 -17.60302 -17.31498 -17.11454 -16.98694 -16.48633 -16.45237 -16.36544 -15.95267
 -15.52873 -15.27578 -15.06289 -15.02067 -14.62161 -14.37380 -14.19391 -13.81675
 -13.78424 -13.62910 -13.36372 -13.04582 -12.85495 -12.47584 -12.46162 -12.29287
 -12.06681 -11.94355 -11.83652 -11.66600 -11.01544 -10.88302 -10.70880 -10.59431
 -10.32438  -9.39018  -8.71554  -1.40104  -0.34120   0.27997   0.48332   0.90921
   1.08592   1.81310   2.20130   2.62813   3.07507   3.19199   3.46015   3.52151
   3.63310   3.77077   3.82349   4.15495   4.17640   4.22489   4.35629   4.38261
   4.48732   4.62891   4.67994   4.77360   4.91709   4.98144   5.05160   5.13303
   5.23692   5.39888   5.49821   5.50372   5.66267   5.68468   5.71898   5.72288
   5.77332   5.89387   5.91196   6.08802   6.11636   6.24815   6.25791   6.90718


           BETA EIGENVALUES 
 -38.34540 -37.47055 -35.96344 -31.34767 -30.79187 -29.74635 -28.83505 -28.26598
 -28.16596 -27.39987 -26.77632 -25.86254 -24.77995 -24.33867 -23.67616 -21.94450
 -21.84275 -21.40442 -20.09380 -19.94130 -18.95722 -18.77056 -18.31490 -18.18123
 -17.60301 -17.24659 -17.11392 -16.98306 -16.48075 -16.41746 -16.32197 -15.77485
 -15.52758 -15.18173 -15.02065 -14.88465 -14.55157 -14.30639 -14.18534 -13.79720
 -13.76898 -13.58147 -13.33146 -13.04123 -12.84394 -12.46998 -12.37483 -12.17592
 -11.99138 -11.94355 -11.83652 -11.66598 -11.01520 -10.88295 -10.70870 -10.59430
 -10.32434  -8.71590  -1.40107  -0.34118   0.05186   0.28003   0.48333   1.04112
   1.08814   1.81312   2.20138   2.66641   3.12717   3.19253   3.50547   3.58693
   3.68982   3.82345   3.90782   4.17637   4.22459   4.24578   4.35709   4.48714
   4.60590   4.65636   4.68922   4.77378   4.96200   5.01146   5.05562   5.19519
   5.25450   5.41020   5.50089   5.53426   5.66271   5.68607   5.71937   5.72355
   5.77373   5.91189   6.07048   6.08831   6.16468   6.25793   6.28608   6.90796


              NET ATOMIC CHARGES AND DIPOLE CONTRIBUTIONS

  ATOM NO.   TYPE          CHARGE      No. of ELECS.   s-Pop       p-Pop       
    1          C          -0.154480        4.1545     1.08681     3.06767
    2          C          -0.118172        4.1182     1.09406     3.02411
    3          C           0.061238        3.9388     1.05684     2.88192
    4          C          -0.099374        4.0994     1.09466     3.00471
    5          C          -0.074910        4.0749     1.06884     3.00607
    6          C          -0.098746        4.0987     1.09204     3.00671
    7          H           0.174309        0.8257     0.82569
    8          H           0.152331        0.8477     0.84767
    9          H           0.200659        0.7993     0.79934
   10          H           0.189863        0.8101     0.81014
   11          N           0.678037        4.3220     1.44734     2.87462
   12          O          -0.467803        6.4678     1.94097     4.52684
   13          O          -0.456726        6.4567     1.94063     4.51609
   14          C          -0.321276        4.3213     1.02635     3.29492
   15          C          -0.397220        4.3972     1.04231     3.35491
   16          H           0.150699        0.8493     0.84930
   17          H           0.162512        0.8375     0.83749
   18          H           0.146098        0.8539     0.85390
   19          N           0.692885        4.3071     1.41746     2.88965
   20          O          -0.707036        6.7070     1.94550     4.76153
   21          O          -0.700647        6.7006     1.94526     4.75539
   22          H           0.376712        0.6233     0.62329
   23          C          -0.202939        4.2029     1.11017     3.09277
   24          C          -0.288076        4.2881     1.04990     3.23818
   25          C          -0.297510        4.2975     1.06194     3.23557
   26          C          -0.164078        4.1641     1.08802     3.07606
   27          N          -0.184453        5.1845     1.51243     3.67203
   28          C          -0.169173        4.1692     1.08001     3.08916
   29          H           0.164007        0.8360     0.83599
   30          H           0.166070        0.8339     0.83393
   31          H           0.181059        0.8189     0.81894
   32          H           0.170987        0.8290     0.82901
   33          H           0.162052        0.8379     0.83795
   34          H           0.187395        0.8126     0.81260
   35          H           0.188772        0.8112     0.81123
   36          H           0.330379        0.6696     0.66962
   37          H           0.189149        0.8109     0.81085
   38          H           0.200078        0.7999     0.79992
   39          H           0.336664        0.6633     0.66334
   40          H           0.397259        0.6027     0.60274
   41          O          -0.756596        6.7566     1.80415     4.95245
 DIPOLE           X         Y         Z       TOTAL
 POINT-CHG.    26.588   -14.992    11.428    32.592
 HYBRID        -0.477     1.085    -0.213     1.204
 SUM           26.111   -13.908    11.214    31.638


          ATOMIC ORBITAL ELECTRON POPULATIONS

     Atom    s        px        py        pz   
    1  C   1.08681   1.06570   0.98624   1.01572
    2  C   1.09406   1.05280   0.98385   0.98746
    3  C   1.05684   0.95813   0.95730   0.96649
    4  C   1.09466   1.07469   0.95391   0.97611
    5  C   1.06884   0.89427   1.06694   1.04486
    6  C   1.09204   0.96221   1.00056   1.04393
    7  H   0.82569
    8  H   0.84767
    9  H   0.79934
   10  H   0.81014
   11  N   1.44734   0.99436   0.93507   0.94520
   12  O   1.94097   1.90962   1.43877   1.17845
   13  O   1.94063   1.28243   1.68449   1.54918
   14  C   1.02635   1.42647   0.98821   0.88024
   15  C   1.04231   1.18565   1.00255   1.16671
   16  H   0.84930
   17  H   0.83749
   18  H   0.85390
   19  N   1.41746   0.97446   0.93090   0.98429
   20  O   1.94550   1.77385   1.59440   1.39328
   21  O   1.94526   1.77153   1.06054   1.92331
   22  H   0.62329
   23  C   1.11017   1.03606   0.99252   1.06419
   24  C   1.04990   1.06294   1.07401   1.10122
   25  C   1.06194   1.06615   1.10359   1.06582
   26  C   1.08802   1.09054   0.97898   1.00654
   27  N   1.51243   1.23029   1.21522   1.22652
   28  C   1.08001   0.98484   1.07356   1.03077
   29  H   0.83599
   30  H   0.83393
   31  H   0.81894
   32  H   0.82901
   33  H   0.83795
   34  H   0.81260
   35  H   0.81123
   36  H   0.66962
   37  H   0.81085
   38  H   0.79992
   39  H   0.66334
   40  H   0.60274
   41  O   1.80415   1.45048   1.52028   1.98169


                    (SZ)    =    0.500000
                    (S**2)  =    0.753657


          ATOMIC ORBITAL SPIN POPULATIONS

    Atom   Total    s     px     py     pz   
         Atomic
    1  C  0.0000  0.000  0.000  0.000  0.000
    2  C -0.0000 -0.000  0.000 -0.000 -0.000
    3  C  0.0000  0.000  0.000  0.000  0.000
    4  C -0.0000 -0.000 -0.000 -0.000 -0.000
    5  C  0.0000  0.000 -0.000  0.000  0.000
    6  C -0.0000 -0.000 -0.000 -0.000 -0.000
    7  H  0.0000  0.000
    8  H  0.0000  0.000
    9  H  0.0000  0.000
   10  H  0.0000  0.000
   11  N -0.0000 -0.000 -0.000  0.000 -0.000
   12  O -0.0000 -0.000 -0.000  0.000 -0.000
   13  O  0.0000  0.000 -0.000  0.000  0.000
   14  C -0.0001 -0.000 -0.000 -0.000 -0.000
   15  C  0.0002  0.000  0.000  0.000  0.000
   16  H -0.0000 -0.000
   17  H -0.0000 -0.000
   18  H -0.0001 -0.000
   19  N  0.0001  0.000  0.000  0.000  0.000
   20  O  0.0000  0.000  0.000  0.000 -0.000
   21  O  0.0000  0.000  0.000 -0.000  0.000
   22  H  0.0000  0.000
   23  C  0.9960  0.026  0.472  0.327  0.171
   24  C -0.0413 -0.006 -0.014 -0.016 -0.005
   25  C  0.0131  0.002  0.004  0.003  0.004
   26  C -0.0019 -0.000 -0.000 -0.001 -0.001
   27  N  0.0161  0.003  0.005  0.003  0.005
   28  C -0.0447 -0.006 -0.017 -0.019 -0.002
   29  H -0.0280 -0.028
   30  H  0.0107  0.011
   31  H  0.0396  0.040
   32  H -0.0009 -0.001
   33  H -0.0005 -0.001
   34  H  0.0007  0.001
   35  H  0.0001  0.000
   36  H  0.0005  0.001
   37  H  0.0100  0.010
   38  H  0.0308  0.031
   39  H -0.0005 -0.000
   40  H -0.0000 -0.000
   41  O  0.0000  0.000 -0.000  0.000  0.000

          BONDING CONTRIBUTION OF EACH ALPHA M.O.

  0.7234  0.6733  0.7111  0.9448  0.4983  0.5862  0.9652  0.7602  0.5710  0.7679
  0.9654  0.8307  0.6250  0.7047  0.9614  0.9285  0.9131  0.7546  0.9230  0.7106
  0.9386  0.7284  0.7159  0.7110  0.7693  0.9443  0.6155  0.9067  0.8142  0.9553
  0.8959  0.8955  0.8738  0.8280  0.8497  0.9740  0.5925  0.9882  0.9557  0.9041
  0.9259  0.9313  0.9507  0.6079  0.5590  0.9535  0.9383  0.9063  0.9573  0.4235
  0.1440  0.3512  0.2289  0.2948  0.1707  0.9076  0.9228  0.2419  0.5698 -1.0985
 -0.9716 -1.1027 -1.0607 -0.9417 -1.2529 -1.0288 -1.0450 -0.9308 -0.9526 -0.9778
 -0.9849 -0.9755 -0.9506 -0.9620 -0.9855 -0.9505 -1.0259 -0.9825 -0.9841 -0.9802
 -0.9913 -0.9571 -0.9891 -0.9843 -0.9634 -0.9591 -0.9965 -0.9820 -0.9408 -0.9350
 -0.9765 -0.9816 -0.9767 -0.9805 -0.9829 -0.9833 -0.9795 -0.9689 -0.9763 -0.9602
 -0.9669 -0.9649 -0.8652 -0.9539

          BONDING CONTRIBUTION OF EACH BETA  M.O.

  0.7282  0.6733  0.7111  0.9448  0.4983  0.5852  0.9748  0.7598  0.5713  0.7679
  0.9717  0.8306  0.6250  0.7040  0.9711  0.8748  0.9725  0.7553  0.9299  0.7178
  0.9368  0.7380  0.7156  0.7116  0.7693  0.9467  0.6154  0.9089  0.8098  0.9133
  0.9508  0.9612  0.8749  0.8272  0.9708  0.8467  0.7113  0.9862  0.9621  0.8852
  0.9459  0.9343  0.9540  0.6278  0.5152  0.9863  0.9407  0.9465  0.9807  0.4235
  0.1440  0.3512  0.2290  0.2948  0.1707  0.9076  0.9229  0.5698 -1.0985 -0.9715
 -0.3449 -1.1025 -1.0607 -0.8592 -1.2308 -1.0288 -1.0450 -0.9155 -0.9485 -0.9776
 -0.9601 -0.9497 -0.9865 -0.9855 -0.9605 -1.0260 -0.9797 -0.9147 -0.9847 -0.9912
 -0.9706 -0.9724 -0.9720 -0.9842 -0.9533 -0.9612 -0.9929 -0.9638 -0.9358 -0.9336
 -0.9709 -0.9728 -0.9767 -0.9797 -0.9829 -0.9829 -0.9794 -0.9764 -0.9720 -0.9601
 -0.9717 -0.8649 -0.9483 -0.9535





            (VALENCIES)   BOND ORDERS

     1  C     (3.969)     6  C 1.454     2  C 1.437     7  H 0.957     4  C 0.101

     2  C     (3.973)     1  C 1.437     3  C 1.401     8  H 0.961     5  C 0.105     4  C 0.010

     3  C     (3.992)     4  C 1.429     2  C 1.401    14  C 1.019     6  C 0.102    20  O 0.012

     4  C     (3.954)     3  C 1.429     5  C 1.382     9  H 0.945     1  C 0.101    12  O 0.019     6  C 0.013
                         13  O 0.012     2  C 0.010

     5  C     (3.934)     4  C 1.382     6  C 1.381    11  N 0.908     2  C 0.105    13  O 0.068    12  O 0.067

     6  C     (3.959)     1  C 1.454     5  C 1.381    10  H 0.950     3  C 0.102    13  O 0.019     4  C 0.013
                         12  O 0.012

     7  H     (0.970)     1  C 0.957

     8  H     (0.977)     2  C 0.961

     9  H     (0.960)     4  C 0.945

    10  H     (0.964)     6  C 0.950

    11  N     (3.782)    13  O 1.423    12  O 1.418     5  C 0.908

    12  O     (1.810)    11  N 1.418    13  O 0.284     5  C 0.067     4  C 0.019     6  C 0.012

    13  O     (1.816)    11  N 1.423    12  O 0.284     5  C 0.068     6  C 0.019     4  C 0.012

    14  C     (3.757)    19  N 1.391     3  C 1.019    15  C 0.996    21  O 0.155    20  O 0.152    22  H 0.010

    15  C     (3.926)    14  C 0.996    18  H 0.966    16  H 0.965    17  H 0.960    21  O 0.012

    16  H     (0.977)    15  C 0.965

    17  H     (0.974)    15  C 0.960

    18  H     (0.979)    15  C 0.966

    19  N     (3.816)    14  C 1.391    21  O 1.190    20  O 1.187

    20  O     (1.515)    19  N 1.187    14  C 0.152    21  O 0.150     3  C 0.012

    21  O     (1.519)    19  N 1.190    14  C 0.155    20  O 0.150    15  C 0.012

    22  H     (0.858)    41  O 0.838    14  C 0.010

    23  C     (3.965)    24  C 1.037    28  C 1.034    29  H 0.959

    24  C     (3.951)    23  C 1.037    25  C 0.994    30  H 0.953    31  H 0.931

    25  C     (3.945)    26  C 1.008    24  C 0.994    33  H 0.962    32  H 0.955

    26  C     (3.872)    25  C 1.008    35  H 0.953    34  H 0.951    27  N 0.919    28  C 0.011

    27  N     (3.575)    26  C 0.919    28  C 0.916    36  H 0.867    39  H 0.819    41  O 0.018

    28  C     (3.882)    23  C 1.034    37  H 0.945    38  H 0.929    27  N 0.916    26  C 0.011

    29  H     (0.973)    23  C 0.959

    30  H     (0.972)    24  C 0.953

    31  H     (0.967)    24  C 0.931

    32  H     (0.971)    25  C 0.955

    33  H     (0.974)    25  C 0.962

    34  H     (0.965)    26  C 0.951

    35  H     (0.964)    26  C 0.953

    36  H     (0.891)    27  N 0.867

    37  H     (0.964)    28  C 0.945

    38  H     (0.960)    28  C 0.929

    39  H     (0.887)    27  N 0.819    41  O 0.043

    40  H     (0.842)    41  O 0.838

    41  O     (1.749)    22  H 0.838    40  H 0.838    39  H 0.043    27  N 0.018


 **********************
 *                    *
 * JOB ENDED NORMALLY *
 *                    *
 **********************



 TOTAL JOB TIME:             5.96 SECONDS

 == MOPAC DONE ==
