 *******************************************************************************
 **                                                                           **
 **                              MOPAC v22.0.6                                **
 **                                                                           **
 *******************************************************************************
 **          Digital Object Identifier (DOI): 10.5281/zenodo.6511958          **
 **    Visit the DOI location for information on how to cite this program.    **
 *******************************************************************************

                              PM7 CALCULATION RESULTS

 *******************************************************************************
 *  CALCULATION DONE:                                Mon Mar 25 22:38:00 2024  *
 *  PM7        - The PM7 Hamiltonian to be used
 *  SINGLET    - SPIN STATE DEFINED AS A SINGLET
 *
 *
 *
 *                 CHARGE ON SYSTEM = -1
 *
 *
 *
 *  EPS=78.4   - USE ANDREAS KLAMT'S COSMO IMPLICIT SOLVATION MODEL
 *  LET        - OVERRIDE SOME SAFETY CHECKS
 *  THREADS    - USE A MAXIMUM OF 30 THREADS
 *  T=         - A TIME OF 14.0 DAYS REQUESTED
 *  DUMP=N     - RESTART FILE WRITTEN EVERY 30.0 MINUTES REQUESTED
 *  RELSCF     - DEFAULT SCF CRITERION MULTIPLIED BY 1.0000
 *              (DEFAULT SCF CRITERION = 0.00010)
 *  ITRY=      - DO A MAXIMUM OF 15000 ITERATIONS FOR SCF
 *  AUX        - OUTPUT AUXILIARY INFORMATION
 *  ISOTOPE    - SAVE THE FORCE MATRIX FOR USE LATER
 *  BONDS      - FINAL BOND-ORDER MATRIX TO BE PRINTED
 *  LARGE      - EXPANDED OUTPUT TO BE PRINTED
 *  THERMO     - THERMODYNAMIC QUANTITIES TO BE CALCULATED
 *******************************************************************************
PM7 AUX LARGE THERMO(298,298) LET ISOTOPE BONDS DUMP=30M ITRY=15000 T=14D THREADS=30 CHARGE=-1 SINGLET eps=78.4 RELSCF=1
 Title: ASE calculation

   ATOM   CHEMICAL          X               Y               Z
  NUMBER   SYMBOL      (ANGSTROMS)     (ANGSTROMS)     (ANGSTROMS)

     1       C          0.94370881  *   1.44164572  *   0.37979937  *
     2       C          1.51094719  *   0.78821596  *  -0.72109168  *
     3       C          1.19892454  *  -0.55372755  *  -0.96835379  *
     4       C          0.34743349  *  -1.23271968  *  -0.09822305  *
     5       C         -0.18779284  *  -0.56533709  *   1.01271581  *
     6       C          0.09247345  *   0.77849084  *   1.26688289  *
     7       H          2.19233309  *   1.33471834  *  -1.39200395  *
     8       H          0.08547098  *  -2.28760673  *  -0.27077584  *
     9       H         -0.34319266  *   1.29774294  *   2.13540986  *
    10       N         -1.06401806  *  -1.27868694  *   1.91785631  *
    11       O         -1.53241732  *  -0.68441513  *   2.87610040  *
    12       O         -1.31231461  *  -2.45517505  *   1.69518435  *
    13       C          1.79347142  *  -1.22117290  *  -2.17488395  *
    14       D          2.98831498  *  -1.07190345  *  -2.15713162  *
    15       C          1.53187119  *  -2.71337890  *  -2.28457459  *
    16       H          2.01697730  *  -3.15354664  *  -3.17079234  *
    17       H          0.46298841  *  -2.95925679  *  -2.36282665  *
    18       H          1.93390525  *  -3.25236881  *  -1.41293336  *
    19       N          1.33349144  *  -0.54976102  *  -3.41675265  *
    20       O          1.60687782  *  -1.05141804  *  -4.49663197  *
    21       O          0.71914846  *   0.50757480  *  -3.34038243  *
    22       O          7.00117896  *  -0.62157172  *  -2.40913509  *
    23       H          7.35915801  *  -1.22841372  *  -1.78828742  *
    24       N          1.23388331  *   2.84231499  *   0.60039320  *
    25       O          0.76927195  *   3.39263588  *   1.58800291  *
    26       O          1.92831635  *   3.43538995  *  -0.21142685  *
    27       H          4.50592799  *  -0.30733785  *  -1.19885438  *
    28       H          5.90620626  *  -0.69290800  *  -2.24624652  *
    29       O          4.57113812  *  -0.77601281  *  -1.99375708  *


                                Isotopes Used

              Atom:   14  H  Default mass  1.0079,  mass used:  2.0140 amu


          CARTESIAN COORDINATES 

    NO.       ATOM           X           Y           Z

     1         C          0.9437      1.4416      0.3798
     2         C          1.5109      0.7882     -0.7211
     3         C          1.1989     -0.5537     -0.9684
     4         C          0.3474     -1.2327     -0.0982
     5         C         -0.1878     -0.5653      1.0127
     6         C          0.0925      0.7785      1.2669
     7         H          2.1923      1.3347     -1.3920
     8         H          0.0855     -2.2876     -0.2708
     9         H         -0.3432      1.2977      2.1354
    10         N         -1.0640     -1.2787      1.9179
    11         O         -1.5324     -0.6844      2.8761
    12         O         -1.3123     -2.4552      1.6952
    13         C          1.7935     -1.2212     -2.1749
    14         H          2.9883     -1.0719     -2.1571
    15         C          1.5319     -2.7134     -2.2846
    16         H          2.0170     -3.1535     -3.1708
    17         H          0.4630     -2.9593     -2.3628
    18         H          1.9339     -3.2524     -1.4129
    19         N          1.3335     -0.5498     -3.4168
    20         O          1.6069     -1.0514     -4.4966
    21         O          0.7191      0.5076     -3.3404
    22         O          7.0012     -0.6216     -2.4091
    23         H          7.3592     -1.2284     -1.7883
    24         N          1.2339      2.8423      0.6004
    25         O          0.7693      3.3926      1.5880
    26         O          1.9283      3.4354     -0.2114
    27         H          4.5059     -0.3073     -1.1989
    28         H          5.9062     -0.6929     -2.2462
    29         O          4.5711     -0.7760     -1.9938

 General Reference for PM7:
 "Optimization of Parameters for Semiempirical Methods VI: More Modifications to the 
 NDDO Approximations and Re-optimization of Parameters", J. J. P. Stewart, J. Mol. Mod., 1:32, 19 (2013)
 https://link.springer.com/article/10.1007/s00894-012-1667-x

           Empirical Formula: C8 H10 N3 O8  =    29 atoms



      MOLECULAR POINT GROUP   :   C1  


 SINGLET STATE CALCULATION


      RHF CALCULATION, NO. OF DOUBLY OCCUPIED LEVELS = 53

  SCF CRITERION =    0.1000E-03


          HEAT OF FORMATION =    -227.493657 KCALS/MOLE


          CARTESIAN COORDINATE DERIVATIVES

   NUMBER  ATOM         X            Y            Z

     1       C     -0.867532     0.155432    -0.066250
     2       C      0.338570    -0.322087    -0.130549
     3       C     -0.896778     0.706981    -0.165835
     4       C      0.569289    -0.662895     0.156474
     5       C      0.601375     0.257402     0.107678
     6       C     -0.428147    -0.129285     0.060891
     7       H     -0.226483     0.010315     0.058961
     8       H     -0.012015    -0.374959     0.005022
     9       H      0.061578    -0.034428    -0.036493
    10       N     -2.971181     0.574824    -0.432854
    11       O      2.035185    -0.411515     0.182105
    12       O     -0.163821    -0.002942     0.220221
    13       C     -0.217675     0.169283     0.043342
    14       H      0.367563    -0.314145    -0.137111
    15       C     -0.241771     0.086877    -0.283377
    16       H      0.218603     0.163146     0.406368
    17       H      0.093089    -0.125512     0.193006
    18       H      0.077823    -0.263851     0.280461
    19       N      2.834692     0.929442    -2.181133
    20       O     -1.043201     0.089912    -0.268692
    21       O     -2.163994    -0.786367     2.580246
    22       O     -0.947223    -0.027138    -1.211055
    23       H      0.402070    -0.680214     0.668699
    24       N      0.459243    -0.312018     0.261629
    25       O     -0.462727     0.229523     0.130863
    26       O     -0.372919     0.374791     0.228351
    27       H      0.136971     0.170166     0.629257
    28       H      0.583225    -0.144985    -0.868213
    29       O      2.237026     0.675262    -0.430811

 DIPOLE           X         Y         Z       TOTAL
 POINT-CHG.   -18.613     7.124     4.822    20.504
 HYBRID        -1.032     0.216     0.470     1.154
 SUM          -19.644     7.339     5.292    21.628


          GRADIENT NORM =   7.55621


                              **** WARNING ****

           GRADIENT IS VERY LARGE FOR A THERMO CALCULATION
           RESULTS ARE LIKELY TO BE INACCURATE IF THERE ARE
           ANY LOW-LYING VIBRATIONS (LESS THAN ABOUT 400CM-1)
           GRADIENT NORM SHOULD BE LESS THAN ABOUT 1.1 FOR THERMO
           TO GIVE ACCURATE RESULTS


          TIME FOR SCF CALCULATION =    0.09

          TIME FOR DERIVATIVES     =    0.04

          MOLECULAR WEIGHT =  277.19



          ROTATIONAL CONSTANTS IN CM(-1)

          A =    0.01255369   B =    0.00732631   C =    0.00594274



           PRINCIPAL MOMENTS OF INERTIA IN UNITS OF 10**(-40)*GRAM-CM**2

          A =     2229.8423   B =     3820.8503   C =     4710.4079


          ORIENTATION OF MOLECULE IN FORCE CALCULATION

    NO.       ATOM         X         Y         Z

     1          C      -1.6199   -0.8234    0.1221
     2          C      -0.2197   -0.8234    0.1221
     3          C       0.4746    0.3920    0.1221
     4          C      -0.2376    1.5900    0.0940
     5          C      -1.6393    1.5652    0.0675
     6          C      -2.3527    0.3653    0.0887
     7          H       0.3288   -1.7785    0.1311
     8          H       0.2842    2.5590    0.0945
     9          H      -3.4544    0.3564    0.0806
    10          N      -2.3730    2.8126    0.0289
    11          O      -3.5935    2.7789    0.0166
    12          O      -1.7495    3.8644    0.0127
    13          C       1.9755    0.3645    0.1569
    14          H       2.3759   -0.3394   -0.7344
    15          C       2.6521    1.7150   -0.0028
    16          H       3.7507    1.6292   -0.0004
    17          H       2.3953    2.4234    0.7981
    18          H       2.3812    2.1843   -0.9610
    19          N       2.4522   -0.2784    1.4076
    20          O       3.6460   -0.2569    1.6660
    21          O       1.6499   -0.8453    2.1397
    22          O       3.9895   -2.7370   -3.5658
    23          H       3.9295   -2.2510   -4.3671
    24          N      -2.3294   -2.0840    0.1708
    25          O      -3.5509   -2.0755    0.1264
    26          O      -1.6866   -3.1190    0.2629
    27          H       1.8805   -1.4850   -2.2337
    28          H       3.4511   -2.1028   -2.8320
    29          O       2.7506   -1.3196   -1.9666


    FIRST DERIVATIVES WILL BE USED IN THE CALCULATION OF SECOND DERIVATIVES

          ESTIMATED TIME TO COMPLETE CALCULATION =       23.11 SECONDS

    FOR POINT-GROUP C1   THERE ARE   1 UNIQUE SYMMETRY FUNCTIONS.

 STEP:   1 TIME =     0.09 SECS, INTEGRAL =      0.09 TIME LEFT:1209599.77
 STEP:   2 TIME =     0.09 SECS, INTEGRAL =      0.19 TIME LEFT:1209599.68
 STEP:   3 TIME =     0.10 SECS, INTEGRAL =      0.29 TIME LEFT:1209599.58
 STEP:   4 TIME =     0.10 SECS, INTEGRAL =      0.39 TIME LEFT:1209599.48
 STEP:   5 TIME =     0.09 SECS, INTEGRAL =      0.48 TIME LEFT:1209599.38
 STEP:   6 TIME =     0.09 SECS, INTEGRAL =      0.58 TIME LEFT:1209599.29
 STEP:   7 TIME =     0.09 SECS, INTEGRAL =      0.67 TIME LEFT:1209599.20
 STEP:   8 TIME =     0.09 SECS, INTEGRAL =      0.77 TIME LEFT:1209599.10
 STEP:   9 TIME =     0.09 SECS, INTEGRAL =      0.86 TIME LEFT:1209599.01
 STEP:  10 TIME =     0.09 SECS, INTEGRAL =      0.95 TIME LEFT:1209598.91
 STEP:  11 TIME =     0.09 SECS, INTEGRAL =      1.05 TIME LEFT:1209598.82
 STEP:  12 TIME =     0.09 SECS, INTEGRAL =      1.14 TIME LEFT:1209598.73
 STEP:  13 TIME =     0.09 SECS, INTEGRAL =      1.23 TIME LEFT:1209598.63
 STEP:  14 TIME =     0.09 SECS, INTEGRAL =      1.33 TIME LEFT:1209598.54
 STEP:  15 TIME =     0.10 SECS, INTEGRAL =      1.43 TIME LEFT:1209598.44
 STEP:  16 TIME =     0.09 SECS, INTEGRAL =      1.52 TIME LEFT:1209598.34
 STEP:  17 TIME =     0.10 SECS, INTEGRAL =      1.62 TIME LEFT:1209598.24
 STEP:  18 TIME =     0.10 SECS, INTEGRAL =      1.73 TIME LEFT:1209598.14
 STEP:  19 TIME =     0.09 SECS, INTEGRAL =      1.81 TIME LEFT:1209598.05
 STEP:  20 TIME =     0.09 SECS, INTEGRAL =      1.91 TIME LEFT:1209597.96
 STEP:  21 TIME =     0.11 SECS, INTEGRAL =      2.02 TIME LEFT:1209597.85
 STEP:  22 TIME =     0.10 SECS, INTEGRAL =      2.12 TIME LEFT:1209597.75
 STEP:  23 TIME =     0.09 SECS, INTEGRAL =      2.21 TIME LEFT:1209597.66
 STEP:  24 TIME =     0.09 SECS, INTEGRAL =      2.30 TIME LEFT:1209597.56
 STEP:  25 TIME =     0.09 SECS, INTEGRAL =      2.40 TIME LEFT:1209597.47
 STEP:  26 TIME =     0.09 SECS, INTEGRAL =      2.49 TIME LEFT:1209597.38
 STEP:  27 TIME =     0.09 SECS, INTEGRAL =      2.59 TIME LEFT:1209597.28
 STEP:  28 TIME =     0.09 SECS, INTEGRAL =      2.68 TIME LEFT:1209597.19
 STEP:  29 TIME =     0.09 SECS, INTEGRAL =      2.77 TIME LEFT:1209597.09
 STEP:  30 TIME =     0.09 SECS, INTEGRAL =      2.87 TIME LEFT:1209597.00
 STEP:  31 TIME =     0.09 SECS, INTEGRAL =      2.96 TIME LEFT:1209596.91
 STEP:  32 TIME =     0.11 SECS, INTEGRAL =      3.07 TIME LEFT:1209596.80
 STEP:  33 TIME =     0.09 SECS, INTEGRAL =      3.16 TIME LEFT:1209596.70
 STEP:  34 TIME =     0.09 SECS, INTEGRAL =      3.26 TIME LEFT:1209596.61
 STEP:  35 TIME =     0.09 SECS, INTEGRAL =      3.35 TIME LEFT:1209596.52
 STEP:  36 TIME =     0.09 SECS, INTEGRAL =      3.45 TIME LEFT:1209596.42
 STEP:  37 TIME =     0.09 SECS, INTEGRAL =      3.54 TIME LEFT:1209596.33
 STEP:  38 TIME =     0.09 SECS, INTEGRAL =      3.63 TIME LEFT:1209596.23
 STEP:  39 TIME =     0.09 SECS, INTEGRAL =      3.73 TIME LEFT:1209596.14
 STEP:  40 TIME =     0.13 SECS, INTEGRAL =      3.86 TIME LEFT:1209596.01
 STEP:  41 TIME =     0.09 SECS, INTEGRAL =      3.95 TIME LEFT:1209595.91
 STEP:  42 TIME =     0.10 SECS, INTEGRAL =      4.05 TIME LEFT:1209595.81
 STEP:  43 TIME =     0.09 SECS, INTEGRAL =      4.15 TIME LEFT:1209595.72
 STEP:  44 TIME =     0.09 SECS, INTEGRAL =      4.24 TIME LEFT:1209595.62
 STEP:  45 TIME =     0.09 SECS, INTEGRAL =      4.34 TIME LEFT:1209595.53
 STEP:  46 TIME =     0.41 SECS, INTEGRAL =      4.74 TIME LEFT:1209595.12
 STEP:  47 TIME =     0.87 SECS, INTEGRAL =      5.61 TIME LEFT:1209594.26
 STEP:  48 TIME =     1.65 SECS, INTEGRAL =      7.26 TIME LEFT:1209592.61
 STEP:  49 TIME =     1.13 SECS, INTEGRAL =      8.39 TIME LEFT:1209591.48
 STEP:  50 TIME =     0.48 SECS, INTEGRAL =      8.87 TIME LEFT:1209591.00
 STEP:  51 TIME =     0.62 SECS, INTEGRAL =      9.48 TIME LEFT:1209590.38
 STEP:  52 TIME =     1.08 SECS, INTEGRAL =     10.56 TIME LEFT:1209589.30
 STEP:  53 TIME =     0.13 SECS, INTEGRAL =     10.70 TIME LEFT:1209589.17
 STEP:  54 TIME =     0.10 SECS, INTEGRAL =     10.80 TIME LEFT:1209589.07
 STEP:  55 TIME =     0.09 SECS, INTEGRAL =     10.89 TIME LEFT:1209588.98
 STEP:  56 TIME =     0.09 SECS, INTEGRAL =     10.98 TIME LEFT:1209588.88
 STEP:  57 TIME =     0.09 SECS, INTEGRAL =     11.08 TIME LEFT:1209588.79
 STEP:  58 TIME =     0.09 SECS, INTEGRAL =     11.17 TIME LEFT:1209588.70
 STEP:  59 TIME =     0.09 SECS, INTEGRAL =     11.27 TIME LEFT:1209588.60
 STEP:  60 TIME =     0.09 SECS, INTEGRAL =     11.36 TIME LEFT:1209588.51
 STEP:  61 TIME =     0.09 SECS, INTEGRAL =     11.45 TIME LEFT:1209588.41
 STEP:  62 TIME =     0.09 SECS, INTEGRAL =     11.55 TIME LEFT:1209588.32
 STEP:  63 TIME =     0.09 SECS, INTEGRAL =     11.64 TIME LEFT:1209588.23
 STEP:  64 TIME =     0.09 SECS, INTEGRAL =     11.73 TIME LEFT:1209588.13
 STEP:  65 TIME =     0.09 SECS, INTEGRAL =     11.83 TIME LEFT:1209588.04
 STEP:  66 TIME =     0.09 SECS, INTEGRAL =     11.92 TIME LEFT:1209587.95
 STEP:  67 TIME =     0.09 SECS, INTEGRAL =     12.02 TIME LEFT:1209587.85
 STEP:  68 TIME =     0.09 SECS, INTEGRAL =     12.11 TIME LEFT:1209587.76
 STEP:  69 TIME =     0.09 SECS, INTEGRAL =     12.20 TIME LEFT:1209587.66
 STEP:  70 TIME =     0.10 SECS, INTEGRAL =     12.30 TIME LEFT:1209587.56
 STEP:  71 TIME =     0.09 SECS, INTEGRAL =     12.40 TIME LEFT:1209587.47
 STEP:  72 TIME =     0.09 SECS, INTEGRAL =     12.49 TIME LEFT:1209587.38
 STEP:  73 TIME =     0.09 SECS, INTEGRAL =     12.59 TIME LEFT:1209587.28
 STEP:  74 TIME =     0.09 SECS, INTEGRAL =     12.68 TIME LEFT:1209587.19
 STEP:  75 TIME =     0.09 SECS, INTEGRAL =     12.77 TIME LEFT:1209587.09
 STEP:  76 TIME =     0.09 SECS, INTEGRAL =     12.86 TIME LEFT:1209587.01
 STEP:  77 TIME =     0.09 SECS, INTEGRAL =     12.95 TIME LEFT:1209586.91
 STEP:  78 TIME =     0.10 SECS, INTEGRAL =     13.05 TIME LEFT:1209586.81
 STEP:  79 TIME =     0.09 SECS, INTEGRAL =     13.15 TIME LEFT:1209586.72
 STEP:  80 TIME =     0.09 SECS, INTEGRAL =     13.24 TIME LEFT:1209586.62
 STEP:  81 TIME =     0.09 SECS, INTEGRAL =     13.34 TIME LEFT:1209586.53
 STEP:  82 TIME =     0.09 SECS, INTEGRAL =     13.43 TIME LEFT:1209586.44
 STEP:  83 TIME =     0.09 SECS, INTEGRAL =     13.52 TIME LEFT:1209586.34
 STEP:  84 TIME =     0.09 SECS, INTEGRAL =     13.62 TIME LEFT:1209586.25
 STEP:  85 TIME =     0.09 SECS, INTEGRAL =     13.71 TIME LEFT:1209586.16
 STEP:  86 TIME =     0.09 SECS, INTEGRAL =     13.80 TIME LEFT:1209586.06
 STEP:  87 TIME =     0.09 SECS, INTEGRAL =     13.90 TIME LEFT:1209585.97

(To convert to Hartree/Bohr^2, multiply by (10^(-21) x N x a0^2)/(4.184 x 627.51) =  0.0642)


           FORCE MATRIX IN MILLIDYNES/ANGSTROM


                  C  1       C  2       C  3       C  4       C  5       C  6
 ------------------------------------------------------------------------------
     C    1  15.952357
     C    2   5.634455  14.861322
     C    3   1.830712   5.804804  15.669699
     C    4   1.154761   1.900308   5.996284  14.909761
     C    5   1.832726   1.049662   1.794514   5.594348  16.048355
     C    6   5.845093   1.793615   1.132207   1.802988   5.935027  15.291972
     H    7   0.727257   3.323755   0.690184   0.091008   0.034752   0.074969
     H    8   0.031689   0.094874   0.744082   3.314984   0.674065   0.072942
     H    9   0.704306   0.077545   0.005927   0.078441   0.707197   3.297622
     N   10   0.179488   0.017971   0.191975   1.138917   3.250639   1.158411
     O   11   0.026692   0.013059   0.065080   0.106423   1.469858   0.099647
     O   12   0.052949   0.011920   0.040998   0.090042   1.467855   0.115368
     C   13   0.088805   0.785330   3.314752   0.752035   0.094408   0.008725
     H   14   0.017724   0.032404   0.664908   0.028658   0.010643   0.008401
     C   15   0.020823   0.035784   0.643869   0.073594   0.014888   0.004449
     H   16   0.001868   0.007328   0.045517   0.005570   0.002682   0.000728
     H   17   0.003761   0.003078   0.010745   0.026777   0.005926   0.001322
     H   18   0.006825   0.004186   0.015875   0.026774   0.010474   0.002294
     N   19   0.046343   0.083950   0.886120   0.055508   0.029443   0.010998
     O   20   0.020197   0.015867   0.109210   0.009499   0.011191   0.004560
     O   21   0.027289   0.047047   0.121935   0.029956   0.022813   0.010248
     O   22   0.004724   0.003100   0.014230   0.003701   0.002142   0.002377
     H   23   0.001557   0.000847   0.003546   0.000696   0.000972   0.000738
     N   24   3.238138   1.158284   0.168127   0.017698   0.191712   1.152806
     O   25   1.470475   0.110069   0.045866   0.015141   0.032969   0.084420
     O   26   1.466186   0.092442   0.028083   0.014322   0.058976   0.113199
     H   27   0.007726   0.005023   0.016211   0.003186   0.004554   0.001851
     H   28   0.008273   0.006585   0.033021   0.004226   0.004757   0.003477
     O   29   0.019686   0.012350   0.091634   0.010464   0.010590   0.007171


                  H  7       H  8       H  9       N 10       O 11       O 12
 ------------------------------------------------------------------------------
     H    7   4.169652
     H    8   0.012820   4.213471
     H    9   0.010368   0.010499   4.129361
     N   10   0.041757   0.150219   0.128852  19.012687
     O   11   0.011292   0.046530   0.056910   9.362562  12.256004
     O   12   0.010939   0.070042   0.036224   9.237813   2.619935  12.088680
     C   13   0.038692   0.034625   0.010312   0.028114   0.010707   0.014490
     H   14   0.022848   0.011078   0.007694   0.028589   0.010490   0.009926
     C   15   0.009424   0.072566   0.005204   0.029370   0.011146   0.008942
     H   16   0.001788   0.002588   0.000889   0.005048   0.001829   0.002616
     H   17   0.001500   0.024429   0.001623   0.009337   0.003580   0.003484
     H   18   0.002664   0.034759   0.002567   0.015609   0.006325   0.005801
     N   19   0.062297   0.018826   0.010754   0.050516   0.017263   0.017275
     O   20   0.019297   0.010229   0.006318   0.026332   0.010278   0.008722
     O   21   0.027951   0.008584   0.006082   0.029916   0.009587   0.009161
     O   22   0.004754   0.001517   0.003020   0.005968   0.002937   0.002930
     H   23   0.000602   0.000673   0.000626   0.002076   0.000826   0.000889
     N   24   0.117838   0.041118   0.110442   0.160537   0.055511   0.057435
     O   25   0.027745   0.011937   0.045922   0.055276   0.018355   0.021403
     O   26   0.051220   0.010729   0.028138   0.055930   0.021199   0.020774
     H   27   0.008224   0.002266   0.002080   0.007096   0.002485   0.002325
     H   28   0.010783   0.001898   0.004514   0.010953   0.005038   0.004798
     O   29   0.020140   0.008301   0.007399   0.024893   0.009569   0.009381


                  C 13       H 14       C 15       H 16       H 17       H 18
 ------------------------------------------------------------------------------
     C   13  11.803963
     H   14   1.598975   2.355433
     C   15   2.992519   0.589799  11.078958
     H   16   0.688334   0.037189   3.322745   4.129700
     H   17   0.678065   0.043831   3.350427   0.458782   4.140119
     H   18   0.681099   0.037164   3.348859   0.454178   0.447520   4.159672
     N   19   2.657753   1.063889   0.792639   0.097945   0.053222   0.076073
     O   20   1.141573   0.135662   0.095884   0.026685   0.016368   0.014621
     O   21   1.101176   0.143439   0.106413   0.026774   0.017227   0.017090
     O   22   0.089248   0.153507   0.005757   0.004804   0.002273   0.003798
     H   23   0.020742   0.037827   0.001705   0.000816   0.000463   0.001174
     N   24   0.021423   0.040108   0.025510   0.002779   0.005740   0.010350
     O   25   0.006367   0.013725   0.010193   0.000856   0.002488   0.003993
     O   26   0.006019   0.015330   0.009195   0.001384   0.001958   0.003117
     H   27   0.075715   0.248412   0.004907   0.003390   0.002062   0.004168
     H   28   0.241282   0.441523   0.010490   0.010391   0.002943   0.008427
     O   29   0.913372   0.827934   0.019348   0.020900   0.012292   0.021400


                  N 19       O 20       O 21       O 22       H 23       N 24
 ------------------------------------------------------------------------------
     N   19  18.720464
     O   20   9.503172  12.204599
     O   21   9.266019   2.696709  11.910086
     O   22   0.043042   0.013396   0.012800   6.396234
     H   23   0.009253   0.002818   0.002473   4.032448   4.359474
     N   24   0.065404   0.034637   0.034624   0.004263   0.003054  19.014213
     O   25   0.022491   0.012939   0.011521   0.002411   0.000885   9.287755
     O   26   0.028536   0.011858   0.021240   0.003255   0.000802   9.279526
     H   27   0.058335   0.014305   0.017974   0.307055   0.052687   0.041441
     H   28   0.121729   0.032487   0.034339   1.574214   0.668695   0.010928
     O   29   0.367042   0.090049   0.106991   2.908905   0.184103   0.037472


                  O 25       O 26       H 27       H 28       O 29
 ------------------------------------------------------------------
     O   25  12.167764
     O   26   2.604933  12.125151
     H   27   0.005325   0.040436   4.393458
     H   28   0.004818   0.006566   0.638318   1.682794
     O   29   0.013000   0.015900   4.132922   0.828028   5.199118


          HEAT OF FORMATION =    -227.493657 KCALS/MOLE


          TRIVIAL VIBRATIONS, SHOULD BE ZERO

  -6.6029=TX  19.4929=TY -45.7551=TZ -49.4525=RX  10.0796=RY -27.7775=RZ


      MOLECULAR POINT GROUP   :   C1  


           EIGENVECTORS  


   Root No.       1         2         3         4         5         6         7         8

                 1 A       2 A       3 A       4 A       5 A       6 A       7 A       8 A   

                  -0.2      -0.1      -0.1      -0.0      -0.0      -0.0      -0.0      -0.0
  
           1   -0.0043   -0.0330    0.0046   -0.0490    0.0025   -0.0169   -0.0264   -0.0539
           2   -0.0009    0.0145    0.0034    0.0186   -0.0040    0.0142   -0.0063    0.0159
           3   -0.0577    0.0446    0.0079    0.0680    0.0178    0.0323   -0.0261    0.0601
           4   -0.0042   -0.0331    0.0042   -0.0484    0.0019   -0.0163   -0.0266   -0.0537
           5   -0.0014    0.0054    0.0123   -0.0069   -0.0088    0.0075   -0.0165    0.0008
           6   -0.0279    0.0371    0.0262    0.0284    0.0459   -0.0006    0.0404    0.0011
           7   -0.0031   -0.0287   -0.0121   -0.0234    0.0038   -0.0071   -0.0188   -0.0415
           8   -0.0024    0.0019    0.0201   -0.0212   -0.0085    0.0026   -0.0210   -0.0063
           9   -0.0330    0.0151    0.0303   -0.0210    0.0261   -0.0200    0.0706    0.0043
          10   -0.0008   -0.0187   -0.0134   -0.0056    0.0061   -0.0052   -0.0106   -0.0306
          11   -0.0019    0.0063    0.0159   -0.0092   -0.0081    0.0046   -0.0143    0.0021
          12   -0.0755    0.0050    0.0265   -0.0395    0.0169   -0.0352    0.1173    0.0672
          13    0.0005   -0.0190   -0.0125   -0.0067    0.0061   -0.0053   -0.0099   -0.0319
          14   -0.0022    0.0145    0.0054    0.0159   -0.0052    0.0114   -0.0026    0.0180
          15   -0.1182    0.0105    0.0176   -0.0109   -0.0007   -0.0215    0.0973    0.1347
          16   -0.0021   -0.0254   -0.0026   -0.0287    0.0035   -0.0121   -0.0173   -0.0431
          17   -0.0001    0.0183   -0.0008    0.0294   -0.0035    0.0159    0.0005    0.0234
          18   -0.0840    0.0281    0.0038    0.0463   -0.0221    0.0232   -0.0030    0.1182
          19   -0.0048   -0.0388    0.0078   -0.0646   -0.0007   -0.0258   -0.0323   -0.0625
          20   -0.0015    0.0011    0.0127   -0.0155   -0.0109    0.0029   -0.0197   -0.0047
          21    0.0008    0.0444    0.0340    0.0358    0.0716   -0.0087    0.0591   -0.0515
          22   -0.0055   -0.0126   -0.0163    0.0093    0.0071   -0.0024   -0.0033   -0.0195
          23    0.0008    0.0035    0.0186   -0.0177   -0.0082    0.0029   -0.0184   -0.0041
          24   -0.0491   -0.0095    0.0218   -0.0718    0.0193   -0.0561    0.1607    0.0597
          25   -0.0022   -0.0260   -0.0034   -0.0290    0.0042   -0.0122   -0.0168   -0.0436
          26    0.0003    0.0250   -0.0079    0.0491   -0.0056    0.0217    0.0067    0.0340
          27   -0.0733    0.0246   -0.0121    0.0711   -0.0695    0.0493   -0.0661    0.1416
          28    0.0060   -0.0114   -0.0176    0.0127    0.0093    0.0013   -0.0023   -0.0218
          29    0.0046    0.0184    0.0028    0.0265   -0.0035    0.0149    0.0013    0.0221
          30    0.0124   -0.0091    0.0063   -0.0289   -0.0004   -0.0303    0.0814    0.1019
          31   -0.0037   -0.0113   -0.0167    0.0119    0.0092    0.0011   -0.0022   -0.0213
          32    0.0217    0.0251   -0.0031    0.0448   -0.0011    0.0218    0.0073    0.0304
          33    0.8550    0.0048    0.0094   -0.0218   -0.0015   -0.0183    0.0491    0.0579
          34    0.0180   -0.0037   -0.0191    0.0283    0.0117    0.0074    0.0037   -0.0137
          35   -0.0104    0.0134    0.0030    0.0172   -0.0050    0.0114   -0.0024    0.0174
          36   -0.4604   -0.0368   -0.0079   -0.0456    0.0057   -0.0426    0.0692    0.0734
          37   -0.0055   -0.0211    0.0045   -0.0277    0.0071   -0.0104   -0.0215   -0.0399
          38    0.0005   -0.0121    0.0354   -0.0499   -0.0031    0.0048   -0.0263   -0.0211
          39    0.0019    0.0074    0.0216   -0.0355    0.0053   -0.0288    0.0046   -0.0432
          40    0.0111   -0.0367   -0.0114   -0.0326   -0.0108   -0.0031   -0.0546   -0.0608
          41   -0.0052    0.0107    0.1437   -0.1174    0.0206    0.0684   -0.0657   -0.0372
          42    0.0061    0.0910    0.1862   -0.0636    0.0072   -0.1401   -0.0195   -0.0399
          43   -0.0046   -0.0230   -0.0224   -0.0046    0.0000   -0.0092   -0.0124   -0.0325
          44    0.0005   -0.0037    0.0658   -0.0704    0.0038    0.0116   -0.0411   -0.0297
          45    0.0056    0.0287    0.0802   -0.0853    0.0179    0.0503   -0.1040   -0.0833
          46   -0.0048   -0.0215   -0.0176   -0.0072    0.0011   -0.0090   -0.0155   -0.0343
          47    0.0018    0.0013    0.0906   -0.0931    0.0104    0.0169   -0.0774   -0.0548
          48    0.0203    0.0538    0.1191   -0.1182    0.0199    0.1082   -0.2942   -0.2121
          49   -0.0158   -0.0417   -0.0665    0.0361   -0.0045   -0.0561    0.1362    0.0710
          50    0.0031   -0.0050    0.0486   -0.0512   -0.0037   -0.0160   -0.0334   -0.0444
          51   -0.0001    0.0236    0.0783   -0.0878    0.0230    0.0589   -0.0637   -0.0376
          52    0.0071   -0.0013    0.0104   -0.0267    0.0014    0.0425   -0.1571   -0.1272
          53   -0.0023   -0.0027    0.0713   -0.0781    0.0100    0.0372   -0.0335    0.0010
          54    0.0008    0.0222    0.0705   -0.0817    0.0205    0.0490   -0.0592   -0.0418
          55   -0.0231   -0.0411   -0.0150   -0.0244    0.0236    0.0005    0.0519   -0.0197
          56    0.0062    0.0180    0.0616   -0.0295   -0.0103   -0.0960    0.0600   -0.0120
          57    0.0092    0.0595    0.1047   -0.0424    0.0022   -0.0998    0.0098   -0.0457
          58   -0.0261   -0.0442   -0.0114   -0.0292    0.0207   -0.0166    0.1184   -0.0364
          59    0.0065    0.0022    0.0002    0.0081    0.0233    0.0051   -0.2365    0.1129
          60    0.0245    0.0586    0.0552   -0.0133    0.0082   -0.0212   -0.2638    0.0188
          61   -0.0323   -0.0690   -0.0611   -0.0115    0.0354    0.0320    0.0463    0.0098
          62    0.0091    0.0931    0.2057   -0.0699   -0.0478   -0.3048    0.4633   -0.1441
          63    0.0017    0.0806    0.1488   -0.0539   -0.0154   -0.2219    0.3159   -0.1140
          64    0.0311    0.0865   -0.1936   -0.0989    0.0060   -0.0533    0.1261    0.0692
          65   -0.0069    0.0026   -0.3249    0.1313    0.0470   -0.0227    0.0706   -0.2051
          66    0.0402   -0.2062   -0.3323   -0.1812   -0.0773    0.1376    0.1418    0.1475
          67    0.0429   -0.3730    0.4481    0.3612   -0.0758    0.1262    0.0935    0.4589
          68   -0.0102   -0.1058   -0.0415    0.6342    0.0008   -0.2023   -0.0645   -0.1865
          69    0.0358   -0.1795   -0.1770    0.0920   -0.0883    0.0210    0.0604    0.1416
          70   -0.0058   -0.0384    0.0089   -0.0668   -0.0139   -0.0174   -0.0463   -0.0654
          71    0.0010    0.0170   -0.0022    0.0305    0.0043    0.0155    0.0009    0.0206
          72   -0.0365    0.0389   -0.0089    0.1017    0.0313    0.0650   -0.1239    0.0275
          73   -0.0056   -0.0410    0.0091   -0.0673    0.0098   -0.0214   -0.0447   -0.0620
          74    0.0021    0.0255   -0.0030    0.0441   -0.0080    0.0180    0.0225    0.0276
          75   -0.0458    0.1201    0.0081    0.1143   -0.6291    0.1731   -0.1697   -0.0636
          76   -0.0080   -0.0373    0.0161   -0.0814   -0.0627   -0.0120   -0.0666   -0.0796
          77    0.0017    0.0079    0.0006    0.0212    0.0365    0.0109   -0.0148    0.0164
          78   -0.0143   -0.0739   -0.0410    0.1044    0.7155   -0.0185   -0.1678    0.0787
          79    0.0132    0.4041    0.0235    0.1043   -0.0073    0.0141   -0.0301    0.1811
          80   -0.0006   -0.3024   -0.1607   -0.3131   -0.1376   -0.4369   -0.2490    0.3065
          81    0.0132   -0.3992    0.0960    0.0571   -0.0206    0.2727    0.1325   -0.4453
          82    0.0227    0.2737   -0.1807    0.1369    0.0142    0.0800    0.0874    0.0863
          83   -0.0122    0.1992   -0.1130    0.0258    0.0930    0.2671    0.1239   -0.0274
          84    0.0239    0.2114   -0.2287    0.0759   -0.0268   -0.0174    0.0291    0.0706
          85    0.0097    0.2867    0.1563    0.0333   -0.0090    0.0067   -0.0483    0.1185
          86   -0.0017   -0.0933   -0.1605   -0.1533    0.0331    0.4914    0.1863    0.1284
          87    0.0244   -0.0958   -0.3442    0.2073   -0.1026   -0.2598   -0.0784   -0.1267


   Root No.       9        10        11        12        13        14        15        16

                 9 A      10 A      11 A      12 A      13 A      14 A      15 A      16 A   

                  -0.0       0.0       0.0       0.0       0.0       0.1       0.1       0.1
  
           1    0.0193    0.0079   -0.0012   -0.0216   -0.0277   -0.0355   -0.0417    0.0113
           2    0.0228   -0.0313    0.0146    0.0029    0.0188   -0.0151   -0.0369    0.0253
           3   -0.0948   -0.0082    0.0247    0.0324    0.0285    0.1537   -0.0884    0.0546
           4    0.0184    0.0080   -0.0019   -0.0209   -0.0286   -0.0310   -0.0364    0.0077
           5    0.0423   -0.0407    0.0253   -0.0106    0.0058   -0.0528   -0.0920    0.0574
           6   -0.1091    0.0774    0.0566    0.1844    0.0381    0.1214   -0.0325    0.2362
           7    0.0002    0.0174   -0.0102   -0.0071   -0.0218   -0.0030    0.0023   -0.0040
           8    0.0527   -0.0458    0.0305   -0.0189    0.0008   -0.0713   -0.1158    0.0661
           9   -0.0046    0.0803    0.0288    0.1991    0.0579    0.0585   -0.0965    0.0469
          10   -0.0135    0.0289   -0.0188   -0.0017   -0.0036    0.0177    0.0313   -0.0186
          11    0.0466   -0.0408    0.0234   -0.0135    0.0096   -0.0584   -0.0984    0.0505
          12    0.1260    0.0201   -0.0057    0.2026    0.0912   -0.0556   -0.1559   -0.1769
          13   -0.0135    0.0308   -0.0180    0.0016   -0.0025    0.0183    0.0351   -0.0246
          14    0.0296   -0.0327    0.0110    0.0019    0.0207   -0.0189   -0.0401    0.0218
          15    0.1372   -0.1047   -0.0885    0.0481    0.0129    0.0950   -0.1439   -0.0658
          16    0.0036    0.0201   -0.0096   -0.0101   -0.0138   -0.0120   -0.0045   -0.0060
          17    0.0163   -0.0259    0.0068    0.0075    0.0257    0.0022   -0.0130    0.0103
          18    0.0156   -0.1168   -0.0722   -0.0907   -0.0363    0.2702   -0.1726   -0.0415
          19    0.0345    0.0011    0.0043   -0.0300   -0.0346   -0.0612   -0.0767    0.0226
          20    0.0511   -0.0436    0.0287   -0.0141    0.0016   -0.0689   -0.1135    0.0687
          21   -0.1991    0.1377    0.0970    0.2496    0.0277    0.1081    0.0747    0.4883
          22   -0.0233    0.0351   -0.0304   -0.0074    0.0050    0.0390    0.0592   -0.0230
          23    0.0510   -0.0444    0.0276   -0.0084    0.0060   -0.0685   -0.1119    0.0512
          24    0.2122    0.0730    0.0305    0.2972    0.1701   -0.2869   -0.1853   -0.4506
          25    0.0036    0.0209   -0.0091   -0.0083   -0.0133   -0.0141   -0.0037   -0.0058
          26    0.0013   -0.0169   -0.0020    0.0164    0.0361    0.0324    0.0272   -0.0103
          27    0.0037   -0.2035   -0.1334   -0.3093   -0.1237    0.4606   -0.2301   -0.1040
          28   -0.0327    0.0434   -0.0244    0.0215    0.0142    0.0690    0.1165   -0.0729
          29    0.0181   -0.0246    0.0065    0.0111    0.0297    0.0047    0.0160   -0.0006
          30    0.1431   -0.1196   -0.1207   -0.0493   -0.0250   -0.0919    0.1272    0.1038
          31   -0.0314    0.0423   -0.0247    0.0207    0.0141    0.0689    0.1156   -0.0725
          32   -0.0017   -0.0114    0.0014    0.0299    0.0454    0.0563    0.1010   -0.0513
          33    0.0862   -0.0707   -0.0723   -0.0403   -0.0182   -0.1012    0.1366    0.1159
          34   -0.0492    0.0556   -0.0290    0.0390    0.0308    0.1199    0.1947   -0.1233
          35    0.0281   -0.0328    0.0084   -0.0010    0.0192   -0.0275   -0.0244    0.0318
          36    0.1451   -0.1383   -0.1673   -0.1478   -0.0643   -0.2879    0.4524    0.3188
          37    0.0042    0.0144   -0.0076   -0.0030   -0.0141    0.0017    0.0043   -0.0023
          38    0.0577   -0.0524    0.0398    0.0002   -0.0270   -0.0263   -0.0285    0.0250
          39   -0.0228    0.1253   -0.0200    0.0514    0.0117    0.0334   -0.0381    0.0175
          40   -0.0055    0.0284   -0.0459   -0.0875   -0.0976    0.0295    0.1205   -0.0941
          41    0.0282   -0.1323    0.1454    0.0276   -0.0200    0.0051    0.0030    0.0023
          42    0.0336    0.1730   -0.0808   -0.0228    0.0822    0.0539   -0.0091    0.0131
          43   -0.0037    0.0389   -0.0239   -0.0812   -0.0041   -0.0718   -0.1320    0.0718
          44    0.0521   -0.0845    0.0676    0.0332   -0.0322    0.0154    0.0488   -0.0159
          45   -0.0844   -0.0355    0.1336   -0.0197   -0.0186    0.0249   -0.0193    0.0047
          46   -0.0045    0.0337   -0.0261   -0.0748   -0.0031   -0.0682   -0.1262    0.0691
          47    0.0322   -0.1531    0.0329    0.1360   -0.0339    0.0777    0.1798   -0.0953
          48   -0.2620   -0.3161   -0.2396    0.1438    0.0225   -0.0426   -0.0585   -0.0108
          49    0.1334    0.2725    0.2354   -0.2469   -0.0251   -0.0656   -0.1903    0.1333
          50    0.0321   -0.0712   -0.1439    0.1098    0.0010   -0.0198   -0.0084   -0.0012
          51   -0.0233    0.0255    0.4041   -0.1395   -0.0546    0.0592    0.0161    0.0099
          52   -0.1455   -0.1684   -0.2959   -0.0001    0.0257   -0.1467   -0.2161    0.1043
          53    0.0879   -0.0685    0.3464   -0.1155   -0.0714    0.0264    0.0561    0.0063
          54   -0.0275    0.0297    0.3445   -0.1148   -0.0464    0.0494    0.0048    0.0074
          55   -0.0058   -0.0226    0.0612    0.2008   -0.0060    0.0642    0.0233    0.0206
          56    0.0826    0.0613   -0.0973   -0.0361   -0.0001    0.0091    0.0434    0.0039
          57    0.0016    0.1867   -0.1062   -0.0561    0.0499    0.0315   -0.0148    0.0068
          58   -0.0545   -0.0596    0.0860    0.2258   -0.0265    0.0640    0.0224    0.0118
          59    0.3640    0.2652   -0.1853    0.0945    0.1326    0.1238    0.1158    0.0858
          60    0.1914    0.3399   -0.2185   -0.1725    0.1143    0.0246   -0.0106    0.0352
          61    0.0246   -0.0168    0.0929    0.3567    0.0063    0.1233    0.0498    0.0511
          62   -0.2007   -0.0691   -0.1061   -0.2256   -0.0941   -0.0688    0.0374   -0.0952
          63   -0.1840    0.0955   -0.0819   -0.0338   -0.0152    0.0324    0.0081   -0.0368
          64    0.0109   -0.2397    0.0612   -0.1611    0.6139    0.1607    0.1145    0.0170
          65   -0.1082    0.0525   -0.0275   -0.0847    0.2665    0.0897   -0.0039   -0.0031
          66   -0.0095   -0.0964   -0.0189   -0.0311    0.0063   -0.0507   -0.0117    0.0395
          67   -0.1149   -0.0848   -0.0140   -0.0141    0.1382   -0.0551    0.0000    0.0489
          68   -0.0981    0.0741   -0.0022    0.0435   -0.0748   -0.0192   -0.0599   -0.0069
          69    0.0086   -0.0912    0.0039    0.0391   -0.1676   -0.1111   -0.0473    0.0440
          70    0.0387   -0.0037    0.0111   -0.0447   -0.0296   -0.0849   -0.1149    0.0456
          71    0.0084   -0.0227    0.0093    0.0120    0.0217    0.0009    0.0100   -0.0001
          72   -0.1600    0.0260    0.0758   -0.0589    0.0945   -0.1060    0.0555   -0.0988
          73    0.0403   -0.0063    0.0095   -0.0447   -0.0330   -0.0797   -0.1189    0.0483
          74   -0.0084   -0.0097   -0.0028    0.0382    0.0227    0.0554    0.0825   -0.0296
          75   -0.1962    0.1030    0.1273   -0.0486    0.2159   -0.2705    0.1460   -0.1571
          76    0.0553   -0.0099    0.0250   -0.0643   -0.0216   -0.1377   -0.1814    0.0773
          77    0.0182   -0.0310    0.0173   -0.0093    0.0230   -0.0427   -0.0268    0.0082
          78   -0.1647   -0.0169    0.0705   -0.1555    0.0615   -0.2420    0.1022   -0.2186
          79    0.0296   -0.0045    0.0012    0.0611   -0.2686   -0.0161    0.0906   -0.0897
          80   -0.3227    0.1561   -0.0056    0.0286   -0.1042    0.1088    0.1106   -0.1399
          81    0.2475    0.0202   -0.0455   -0.0716   -0.0936    0.1922    0.2024   -0.1776
          82    0.0291   -0.0978    0.0013   -0.0311    0.0484    0.0422    0.1044   -0.0615
          83   -0.1442    0.1922   -0.0968   -0.0364   -0.0018   -0.0151   -0.0507    0.0008
          84    0.0661   -0.0855    0.0240    0.0569   -0.2033   -0.1211   -0.0584    0.0487
          85    0.0523    0.0149    0.0018    0.0332   -0.2215    0.0641    0.1583   -0.1423
          86   -0.2392    0.2840   -0.1736   -0.0191   -0.2275   -0.0347   -0.0073   -0.0660
          87    0.1242   -0.1096    0.0503    0.0577   -0.2183   -0.0016    0.0470   -0.0527


   Root No.      17        18        19        20        21        22        23        24

                17 A      18 A      19 A      20 A      21 A      22 A      23 A      24 A   

                   0.1       0.2       0.2       0.2       0.3       0.3       0.3       0.5
  
           1   -0.0415   -0.0313   -0.1319   -0.0042    0.0229    0.0252   -0.0100    0.1654
           2    0.0460    0.0323   -0.0062   -0.1010   -0.0488   -0.0574   -0.0179   -0.0399
           3    0.0567    0.0439   -0.0686    0.0977   -0.0044    0.0734   -0.2361    0.0170
           4   -0.0451   -0.0338   -0.1230   -0.0022    0.0233    0.0251   -0.0067    0.1368
           5    0.0715    0.0450    0.0056   -0.0775   -0.0146   -0.0105    0.0038    0.0678
           6    0.0927    0.0770   -0.0873    0.1001   -0.0016    0.0190   -0.0766    0.0093
           7   -0.0491   -0.0399   -0.0947   -0.0141   -0.0063   -0.0187   -0.0105   -0.0051
           8    0.0774    0.0333   -0.0144   -0.0520    0.0129    0.0275    0.0087    0.1564
           9    0.0434    0.0195    0.0254   -0.0868    0.0366    0.1411   -0.0408    0.0143
          10   -0.0636   -0.0386   -0.1241   -0.0327   -0.0359   -0.0566   -0.0369   -0.0762
          11    0.0710    0.0208   -0.0351   -0.0803   -0.0163   -0.0123   -0.0095    0.0998
          12    0.0326    0.0270   -0.0333    0.0712   -0.0075    0.0453   -0.1366   -0.0190
          13   -0.0683   -0.0415   -0.1296   -0.0336   -0.0366   -0.0609   -0.0322   -0.0895
          14    0.0453    0.0209   -0.0282   -0.1004   -0.0497   -0.0577   -0.0306   -0.0198
          15    0.0256    0.0392   -0.0520    0.1070   -0.0261    0.1279   -0.4605   -0.0671
          16   -0.0529   -0.0582   -0.1586   -0.0209   -0.0079   -0.0198   -0.0286    0.0565
          17    0.0334    0.0220   -0.0167   -0.0984   -0.0586   -0.0740   -0.0249   -0.0829
          18   -0.0064    0.0236   -0.0322    0.0469   -0.0076    0.0445   -0.1614   -0.0150
          19   -0.0384   -0.0223   -0.1466    0.0067    0.0637    0.0754   -0.0074    0.4036
          20    0.0761    0.0499   -0.0085   -0.0714    0.0079    0.0150    0.0068    0.2241
          21    0.1566    0.1652   -0.2337    0.3036   -0.0510   -0.2810    0.2350   -0.0162
          22   -0.0736   -0.0499   -0.1308   -0.0422   -0.0713   -0.0976   -0.0800   -0.2724
          23    0.0748    0.0297   -0.0313   -0.0741    0.0028    0.0112    0.0131    0.2091
          24    0.0254    0.0266   -0.0990    0.2262   -0.0383   -0.2849    0.3449    0.0088
          25   -0.0535   -0.0533   -0.1620   -0.0201   -0.0080   -0.0188   -0.0367    0.0620
          26    0.0164    0.0127   -0.0204   -0.1338   -0.1104   -0.1550   -0.0357   -0.3352
          27   -0.0887   -0.0149    0.0138   -0.0587    0.0103   -0.1847    0.5019    0.0433
          28   -0.1408    0.1344    0.0088    0.0794    0.0271    0.0246   -0.0041   -0.0126
          29    0.0033    0.1245    0.0594   -0.0430   -0.0147   -0.0125   -0.0024    0.0312
          30    0.0189    0.0084   -0.0120    0.0252   -0.0108    0.0422   -0.1537   -0.0263
          31   -0.1407    0.1352    0.0087    0.0808    0.0281    0.0271   -0.0052   -0.0084
          32   -0.0775    0.3447    0.2462    0.1039    0.0818    0.1177    0.0489    0.2063
          33    0.0200   -0.0124    0.0051   -0.0252    0.0009    0.0010    0.0343    0.0034
          34   -0.2192    0.3359    0.1748    0.2222    0.1185    0.1507    0.0406    0.1455
          35    0.0478    0.0134   -0.0321   -0.1241   -0.0645   -0.0828   -0.0228   -0.0505
          36    0.0075   -0.0041    0.0404   -0.0630    0.0179   -0.0097    0.1499    0.0347
          37   -0.0487   -0.0522   -0.0953   -0.0069   -0.0065   -0.0041   -0.0037   -0.0332
          38    0.0061   -0.0162    0.0119    0.1000    0.0903    0.1122    0.0570   -0.0509
          39    0.0010   -0.0023    0.0178   -0.1813    0.0770    0.1429    0.0848   -0.0121
          40   -0.0551   -0.0604   -0.1632    0.0301   -0.0134   -0.0560    0.0064   -0.1797
          41    0.0030   -0.0224    0.0024    0.1792    0.1063    0.2492    0.1175   -0.2471
          42   -0.0033   -0.0068    0.0121   -0.2420    0.0670    0.1989    0.1300   -0.0468
          43    0.0738   -0.1040    0.0603    0.0977    0.0270    0.0332    0.0215   -0.0360
          44   -0.0659   -0.0060   -0.0491    0.0785    0.0678    0.0905    0.0436   -0.0851
          45   -0.0539   -0.0436    0.0599   -0.0414   -0.0000    0.0100    0.0017    0.0035
          46    0.0681   -0.1070    0.0569    0.0988    0.0269    0.0344    0.0224   -0.0432
          47   -0.1942    0.0605   -0.2825   -0.0677    0.0204    0.0291    0.0028   -0.0608
          48   -0.0397   -0.0849    0.1455    0.0556   -0.0434   -0.1019   -0.0456    0.0432
          49    0.1416   -0.1406    0.1623    0.1450    0.1149    0.1853    0.1105   -0.1542
          50    0.0139    0.0136   -0.0588    0.0383    0.1871    0.2995    0.1752   -0.2063
          51   -0.1100   -0.0725    0.0987    0.0070   -0.0818   -0.1378   -0.0930    0.0800
          52    0.1458   -0.1838    0.2401    0.2810    0.0178   -0.0103   -0.0014   -0.0699
          53   -0.1065   -0.0639    0.0495    0.2462   -0.0006   -0.0641   -0.0565   -0.0560
          54   -0.0947   -0.0583    0.0767   -0.0019   -0.0366   -0.0682   -0.0476    0.0348
          55   -0.0483   -0.1255    0.1065   -0.1140   -0.0086    0.0083    0.0232   -0.0143
          56   -0.0831   -0.0753    0.1086    0.1137   -0.0166   -0.0680   -0.0318    0.0051
          57   -0.0435   -0.0074   -0.0049   -0.1341    0.0143    0.0789    0.0395   -0.0012
          58   -0.0374   -0.1342    0.1463   -0.1571    0.0012    0.0219    0.0406   -0.0105
          59   -0.1771   -0.1982    0.3296    0.1335   -0.1330   -0.2353   -0.0988    0.0668
          60   -0.0858    0.0252   -0.1715    0.0366   -0.0242    0.0032   -0.0382   -0.0128
          61   -0.0559   -0.2017    0.3032   -0.2290   -0.0202   -0.0113    0.0511    0.0238
          62   -0.1042   -0.0492    0.0596    0.1910   -0.0713   -0.1590   -0.1151    0.0158
          63   -0.0681   -0.0636    0.1563   -0.1915   -0.0374   -0.0194   -0.0005    0.0533
          64    0.1418   -0.0029   -0.0097    0.0097   -0.1774    0.1257    0.0760   -0.0197
          65    0.0009   -0.0036   -0.0061   -0.0141    0.1451   -0.0328   -0.0235   -0.0379
          66   -0.1200   -0.0088   -0.0037    0.0021    0.0278    0.0048    0.0007   -0.0176
          67   -0.0310   -0.0035    0.0022   -0.0477    0.2552   -0.1214   -0.0346   -0.0040
          68   -0.0943   -0.0075   -0.0118    0.0564   -0.3373    0.1887    0.0672   -0.0062
          69   -0.1858   -0.0133   -0.0071    0.0386   -0.2427    0.1626    0.0700   -0.0273
          70   -0.0180    0.1918   -0.0078   -0.0790   -0.0317   -0.0426   -0.0220    0.0436
          71    0.0315   -0.0947   -0.0795   -0.0679   -0.0204   -0.0268   -0.0064    0.0363
          72    0.0449   -0.0095   -0.0020    0.0140    0.0001    0.0301   -0.0653    0.0085
          73   -0.0165    0.2000   -0.0060   -0.0810   -0.0353   -0.0462   -0.0268    0.0363
          74    0.0061   -0.3620   -0.2435    0.0294    0.0602    0.0772    0.0145    0.2765
          75    0.0152   -0.0575    0.0344   -0.0326    0.0061    0.0278    0.0036   -0.0079
          76    0.0036    0.4365    0.1335   -0.1783   -0.1114   -0.1420   -0.0428   -0.1648
          77    0.0453    0.0476    0.0081   -0.1342   -0.0668   -0.0846   -0.0096   -0.0821
          78    0.0488   -0.0161    0.0521   -0.0644    0.0000    0.0170    0.0198   -0.0021
          79    0.1939    0.0149    0.0301   -0.0044   -0.0006    0.0020    0.0068    0.0073
          80    0.2875    0.0210    0.0289    0.0237   -0.0042   -0.0020   -0.0148   -0.0054
          81    0.4229    0.0300    0.0430    0.0090   -0.0348    0.0175   -0.0099    0.0008
          82    0.1850    0.0128    0.0085    0.0139   -0.0877   -0.0945   -0.0437    0.1306
          83   -0.0664   -0.0038    0.0120   -0.0767    0.5004   -0.1426   -0.0654   -0.0944
          84   -0.1952   -0.0167    0.0019    0.0015   -0.0196    0.1385    0.0701   -0.0989
          85    0.3440    0.0233    0.0408    0.0019   -0.0679    0.0620    0.0343   -0.0177
          86    0.0118    0.0108    0.0024    0.0226   -0.2553    0.0594    0.0066    0.0652
          87    0.0828    0.0073    0.0246   -0.0191    0.4098   -0.2391   -0.1202    0.0156


   Root No.      25        26        27        28        29        30        31        32

                25 A      26 A      27 A      28 A      29 A      30 A      31 A      32 A   

                   0.6       0.6       0.7       0.8       0.8       0.8       0.9       1.0
  
           1   -0.0520   -0.0440   -0.0207    0.0517    0.0259   -0.1127   -0.0129   -0.0611
           2    0.0629    0.0413   -0.0045    0.0517    0.0020   -0.1142   -0.0537   -0.0973
           3   -0.1301    0.5431   -0.2322    0.1254    0.0766    0.0146    0.0896   -0.0024
           4   -0.0389   -0.0322   -0.0137    0.0420    0.0220   -0.0893   -0.0153   -0.0447
           5    0.0814    0.0396    0.0031   -0.0300   -0.0377    0.1198   -0.0239   -0.0350
           6   -0.0892    0.2135   -0.0467   -0.0027   -0.0078   -0.0144   -0.0540    0.0130
           7    0.0856    0.0435    0.0156    0.0031   -0.0190    0.0026   -0.0625   -0.0849
           8    0.0229    0.0066   -0.0101   -0.0270   -0.0230    0.0948    0.0058   -0.0125
           9   -0.1394    0.0601    0.1110   -0.1268   -0.0858   -0.0491   -0.1936    0.0312
          10   -0.0989   -0.0170   -0.0012   -0.0376   -0.0046    0.0808   -0.0081   -0.0557
          11   -0.0545   -0.0258   -0.0186   -0.0278   -0.0081    0.1175    0.0326    0.0091
          12    0.0124   -0.0994    0.0701   -0.0554   -0.0361   -0.0145   -0.0824    0.0098
          13   -0.1320   -0.0217   -0.0003   -0.0486   -0.0004    0.1051   -0.0111   -0.0682
          14   -0.0395   -0.0300   -0.0156    0.0499    0.0334   -0.1092    0.0494    0.0979
          15    0.2003   -0.3773    0.0976    0.0013    0.0188    0.0220    0.0356   -0.0169
          16   -0.1694   -0.0682   -0.0232    0.0030    0.0345   -0.0036    0.0446    0.0270
          17   -0.0082    0.0075   -0.0046    0.0234    0.0104   -0.0421   -0.0012    0.0009
          18    0.0172    0.0769   -0.0573    0.0539    0.0407    0.0157    0.0606   -0.0097
          19   -0.1477   -0.1252   -0.0384    0.0564    0.0481    0.1992    0.1028    0.3245
          20    0.0318   -0.0108   -0.0058   -0.0297   -0.0286    0.3165    0.0430    0.1803
          21    0.1454   -0.3017    0.0532    0.0176    0.0170    0.0109    0.0509   -0.0077
          22   -0.3210   -0.1020    0.0017   -0.0549    0.0659   -0.2055    0.2017    0.3249
          23    0.0530    0.0143   -0.0239   -0.0269   -0.0489    0.2921   -0.0718   -0.1920
          24   -0.0171    0.1540   -0.1022    0.0554    0.0406    0.0019    0.0666    0.0115
          25   -0.1881   -0.0765   -0.0254    0.0046    0.0414   -0.0074    0.0538    0.0310
          26   -0.1063    0.0249    0.0272   -0.1317   -0.0181    0.5328   -0.0261    0.0160
          27   -0.0347   -0.0865    0.0593   -0.0542   -0.0429   -0.0260   -0.0569    0.0089
          28   -0.0762   -0.0125    0.0050   -0.0481   -0.0083    0.0997   -0.0252   -0.0929
          29    0.0028   -0.0193   -0.0182    0.0694    0.0350   -0.1502    0.0587    0.1433
          30    0.0960   -0.1912    0.0496    0.0010    0.0095    0.0136    0.0236   -0.0104
          31   -0.0763   -0.0164    0.0046   -0.0496   -0.0090    0.1061   -0.0270   -0.1026
          32    0.1222   -0.0006   -0.0184    0.0997    0.0266   -0.2038    0.0779    0.2311
          33   -0.0415    0.0808   -0.0216   -0.0013   -0.0047    0.0001   -0.0104   -0.0013
          34    0.0185   -0.0069    0.0068   -0.0522   -0.0298    0.1292   -0.0406   -0.1261
          35   -0.0520   -0.0169   -0.0211    0.0746    0.0481   -0.1715    0.0692    0.1680
          36   -0.0859    0.1688   -0.0408   -0.0021   -0.0086    0.0040   -0.0201   -0.0052
          37    0.1545    0.0747    0.0162   -0.0276   -0.0660   -0.0093   -0.0677   -0.0614
          38   -0.0371    0.0067    0.0410   -0.0629    0.0511   -0.0114    0.0246    0.0304
          39   -0.0326    0.0169    0.1386   -0.0160    0.0233   -0.0098   -0.0739    0.0743
          40    0.5327    0.1056   -0.0818    0.4628    0.2583    0.1882   -0.0681    0.2083
          41   -0.2158   -0.0690    0.0771    0.4282   -0.2903    0.0513   -0.2892    0.1644
          42    0.1781   -0.0749   -0.3126   -0.1989    0.2730    0.0145    0.1873    0.0593
          43    0.1130    0.0613    0.0166   -0.0635   -0.1007   -0.0161    0.0102   -0.0205
          44   -0.0050    0.0198    0.0448   -0.0596    0.0697   -0.0103    0.0091    0.0212
          45   -0.0194    0.0010    0.1095    0.0700   -0.0088    0.0129    0.0061    0.0281
          46    0.1430    0.0767    0.0177   -0.0854   -0.1472   -0.0246    0.0309   -0.0146
          47    0.2831    0.1933    0.0984   -0.3544   -0.4106   -0.1131    0.2970    0.1239
          48   -0.0478   -0.0063    0.1394    0.1283    0.0858    0.0434    0.3491   -0.2749
          49    0.0430    0.0696    0.2265    0.0403   -0.0586   -0.0011    0.4401   -0.1146
          50   -0.1048    0.0279    0.2722    0.0049    0.3453    0.0056    0.0834   -0.1248
          51    0.0431   -0.0008   -0.0147    0.0271   -0.2235   -0.0005    0.0884    0.1294
          52    0.0850    0.0204   -0.1737   -0.2726   -0.0520   -0.0788   -0.2324    0.2984
          53   -0.0155   -0.0172   -0.1667   -0.3534    0.4242   -0.0611   -0.2380   -0.0404
          54   -0.0132   -0.0038    0.0644   -0.0147    0.1525    0.0070   -0.0446   -0.0915
          55    0.0876    0.0407    0.0089   -0.0352   -0.0623   -0.0178   -0.1076   -0.0630
          56   -0.0094    0.0093    0.0034   -0.0349    0.0492    0.0017    0.0622   -0.0053
          57    0.0189    0.0108    0.0396   -0.0189    0.0239   -0.0066   -0.0874    0.0609
          58    0.0913    0.0255   -0.0047   -0.0251   -0.0170   -0.0060   -0.0684   -0.0358
          59   -0.0950   -0.0438   -0.0122    0.1320   -0.0424    0.0323    0.1145   -0.0097
          60    0.0438    0.1031    0.1439   -0.0529   -0.1517   -0.0541   -0.2824   -0.0489
          61    0.0622   -0.0137   -0.0059    0.0408    0.0324    0.0158   -0.0324    0.0351
          62   -0.0377    0.0454    0.0397    0.0159   -0.1061   -0.0098   -0.0097   -0.0886
          63   -0.0323   -0.0094    0.0787    0.0932    0.0054    0.0160   -0.0757    0.1086
          64   -0.0092   -0.0421   -0.1220    0.0271   -0.0490    0.0043    0.0256   -0.0558
          65    0.0015   -0.0409   -0.0944    0.0197   -0.0412    0.0012    0.0151   -0.0428
          66   -0.0017   -0.0007   -0.0380   -0.0018   -0.0096   -0.0012    0.0030   -0.0056
          67    0.0023    0.0045    0.0026    0.0081   -0.0040    0.0006   -0.0020   -0.0056
          68    0.0001   -0.0257   -0.0223   -0.0045   -0.0042   -0.0010    0.0036    0.0017
          69   -0.0096   -0.0282   -0.0889   -0.0006   -0.0245   -0.0008    0.0089   -0.0068
          70   -0.0253   -0.0121   -0.0148    0.0482    0.0197   -0.1025   -0.0263   -0.0843
          71    0.0517    0.0054   -0.0011    0.0675    0.0076   -0.1578   -0.0723   -0.1372
          72   -0.0420    0.1773   -0.0820    0.0457    0.0274    0.0111    0.0432    0.0018
          73   -0.0299   -0.0003   -0.0212    0.0530    0.0224   -0.1079   -0.0255   -0.0908
          74    0.0223   -0.0410   -0.0243    0.0999    0.0198   -0.2146   -0.0872   -0.2205
          75    0.0439   -0.1663    0.0697   -0.0395   -0.0233    0.0010   -0.0241    0.0084
          76    0.0039    0.0149   -0.0004    0.0482    0.0137   -0.1263   -0.0520   -0.1096
          77    0.0779   -0.0080    0.0191    0.0622   -0.0015   -0.1763   -0.0967   -0.1590
          78    0.0286   -0.1546    0.0659   -0.0385   -0.0237    0.0035   -0.0233    0.0054
          79   -0.0329   -0.0269   -0.0531   -0.0035   -0.0464   -0.0050    0.0198   -0.0568
          80   -0.0356   -0.0383   -0.0551   -0.0185   -0.0414   -0.0108    0.0010   -0.0101
          81   -0.0510   -0.0493   -0.1229   -0.0260   -0.0617   -0.0117    0.0236   -0.0408
          82    0.0292    0.1652    0.4698   -0.0902    0.1940   -0.0117   -0.0836    0.1945
          83   -0.0153   -0.0996   -0.2280    0.0163   -0.0859   -0.0029    0.0188   -0.0344
          84   -0.0272   -0.1096   -0.2754    0.0437   -0.1058    0.0042    0.0266   -0.0618
          85   -0.0535   -0.0852   -0.1913    0.0049   -0.1039   -0.0063    0.0396   -0.0945
          86    0.0180    0.0450    0.1187   -0.0540    0.0658   -0.0056    0.0039    0.0216
          87   -0.0128    0.0537    0.1448   -0.0122    0.0243   -0.0078   -0.0344    0.0334


   Root No.      33        34        35        36        37        38        39        40

                33 A      34 A      35 A      36 A      37 A      38 A      39 A      40 A   

                   1.1       1.2       1.2       1.4       1.4       1.5       1.6       1.7
  
           1   -0.0777    0.0937    0.0866   -0.0122   -0.0007    0.0617    0.0270    0.0014
           2    0.0597   -0.0942    0.0940    0.0073   -0.0064   -0.0382   -0.0110   -0.0006
           3   -0.0195   -0.0187    0.0430    0.0973    0.0792   -0.0148   -0.0581    0.0078
           4   -0.0524    0.1140    0.0889   -0.0147    0.0001    0.0245    0.0055    0.0045
           5    0.0548   -0.2003   -0.1200    0.0151    0.0366    0.1583    0.0232   -0.0102
           6    0.0367    0.0065   -0.0252   -0.1793   -0.1668   -0.0189    0.1252   -0.0225
           7    0.0417    0.0084   -0.0265    0.0148    0.0327    0.0184   -0.0304    0.0020
           8   -0.0247   -0.1129   -0.0932   -0.0014    0.0206    0.1516    0.0380   -0.0066
           9    0.0695    0.0241   -0.0684   -0.3241   -0.2859   -0.0011    0.1827   -0.0326
          10   -0.0736   -0.0859   -0.0982    0.0145    0.0018   -0.0270   -0.0062    0.0013
          11   -0.1119   -0.1324   -0.1658    0.0056    0.0064    0.1394    0.0528   -0.0092
          12    0.0314    0.0087   -0.0383   -0.2147   -0.1967    0.0017    0.1467   -0.0303
          13   -0.0961   -0.0837   -0.0715    0.0072   -0.0154   -0.0687   -0.0120    0.0038
          14   -0.0528    0.0912   -0.1061    0.0051   -0.0042   -0.0377   -0.0102   -0.0007
          15   -0.0277   -0.0031    0.0186    0.0786    0.0589   -0.0007   -0.0420    0.0052
          16   -0.1945    0.1201   -0.1094   -0.0064   -0.0158   -0.0070    0.0168    0.0026
          17    0.0005   -0.0205   -0.0298    0.0109   -0.0076   -0.0695   -0.0200    0.0003
          18   -0.0292   -0.0132    0.0358    0.1340    0.1188   -0.0108   -0.0978    0.0189
          19    0.3620    0.1292    0.2487    0.0127   -0.0404   -0.3430   -0.0703    0.0191
          20    0.3201   -0.2716   -0.0767    0.0415    0.0278    0.0052   -0.0164   -0.0064
          21   -0.0233   -0.0005    0.0227    0.0896    0.0710    0.0060   -0.0594    0.0026
          22    0.2511   -0.3630   -0.0724   -0.0169    0.0501    0.3464    0.0701   -0.0135
          23   -0.3201   -0.0427   -0.2369    0.0237   -0.0167    0.0002    0.0307   -0.0062
          24   -0.0108   -0.0204    0.0301    0.1065    0.0926    0.0051   -0.0655    0.0117
          25   -0.2525    0.1532   -0.1443   -0.0060   -0.0229   -0.0101    0.0219    0.0025
          26    0.0450    0.4457    0.3942   -0.0335    0.0143    0.1651    0.0433   -0.0062
          27    0.0206    0.0025   -0.0340   -0.0961   -0.0819   -0.0006    0.0617   -0.0139
          28   -0.0789   -0.1261   -0.0484    0.0093   -0.0358   -0.2104   -0.0566    0.0114
          29   -0.0447    0.1706   -0.1450    0.0078   -0.0033   -0.1144   -0.0401    0.0036
          30   -0.0215    0.0025    0.0142    0.0725    0.0621    0.0028   -0.0438    0.0076
          31   -0.0880   -0.1368   -0.0511    0.0119   -0.0368   -0.2245   -0.0598    0.0125
          32    0.0598    0.3051   -0.0636   -0.0102    0.0468    0.2245    0.0482   -0.0148
          33    0.0062   -0.0072   -0.0024   -0.0260   -0.0168   -0.0071    0.0141   -0.0014
          34    0.0054   -0.1722    0.1125   -0.0028   -0.0039    0.0748    0.0349   -0.0016
          35   -0.1004    0.2058   -0.2526    0.0140   -0.0237   -0.2873   -0.0955    0.0112
          36    0.0087   -0.0102    0.0010   -0.0392   -0.0257    0.0017    0.0245   -0.0017
          37    0.1129    0.0605   -0.0901   -0.0074    0.0726    0.0238   -0.0581    0.0031
          38   -0.0666   -0.0364    0.0505   -0.0876   -0.0178    0.0651   -0.1017    0.0083
          39   -0.0587   -0.0257    0.0373    0.0544   -0.0342    0.0335   -0.0391    0.0052
          40   -0.0120   -0.0536   -0.0832   -0.1505   -0.2200    0.0278    0.1503   -0.0353
          41   -0.0795   -0.0540    0.0297   -0.0242    0.1447   -0.0327    0.1181    0.0451
          42   -0.1454   -0.0903    0.1098   -0.2469    0.0882    0.0256   -0.0982    0.0237
          43    0.0709    0.0357   -0.0644    0.0753    0.1316    0.0685    0.0969    0.0317
          44   -0.0534   -0.0269    0.0423   -0.0727   -0.0488    0.0253   -0.1503   -0.0120
          45   -0.0568   -0.0282    0.0395    0.1363   -0.0040    0.0839   -0.2392   -0.0464
          46    0.0826    0.0491   -0.0739    0.1001    0.1712    0.0790    0.1458    0.0449
          47   -0.0641    0.0165    0.0718    0.1598   -0.0443   -0.0955    0.1985    0.0059
          48    0.1524    0.0648   -0.0955   -0.1885    0.0087   -0.0719    0.2023    0.0376
          49   -0.0065    0.0394    0.0437   -0.0724   -0.1131   -0.1556    0.1111   -0.0030
          50    0.0369    0.0254   -0.0070    0.2154   -0.0393    0.0275   -0.2298   -0.0642
          51   -0.1787   -0.0868    0.1346   -0.1657   -0.1182    0.0450   -0.3031   -0.0349
          52   -0.1961   -0.0501    0.1562    0.1037   -0.1440   -0.0569   -0.1193   -0.0402
          53    0.1291    0.0726   -0.0872    0.0469   -0.0119   -0.1225    0.3063    0.0359
          54    0.1038    0.0480   -0.0847    0.2325    0.0942    0.0667    0.0062   -0.0147
          55    0.1662    0.1016   -0.1319   -0.1180    0.1079    0.0268   -0.2318    0.0063
          56   -0.0244   -0.0177    0.0190   -0.1403   -0.0347    0.0568   -0.1277    0.0040
          57   -0.0288   -0.0083    0.0213    0.1051    0.0256   -0.0228    0.0664    0.0109
          58    0.1108    0.0675   -0.0930   -0.0912    0.0901    0.0303   -0.1938    0.0082
          59   -0.0848   -0.0630    0.0608    0.0361   -0.0471    0.0070    0.0912   -0.0121
          60    0.2399    0.1604   -0.1865    0.0183    0.1068   -0.0183   -0.1517    0.0013
          61    0.0026    0.0082   -0.0158    0.1368    0.0610   -0.0193    0.0321    0.0104
          62    0.1076    0.0557   -0.0829   -0.1634    0.0090    0.0437   -0.1781   -0.0116
          63   -0.0997   -0.0474    0.0677    0.3891   -0.0104   -0.0890    0.3342    0.0024
          64    0.0551    0.0268   -0.0300    0.0588   -0.0861    0.0138   -0.0063   -0.1040
          65    0.0537    0.0275   -0.0361    0.1109   -0.2344    0.0724   -0.0565    0.1951
          66    0.0074    0.0052   -0.0056    0.0180   -0.0282    0.0038   -0.0049   -0.2028
          67    0.0108    0.0052   -0.0082    0.0252   -0.0699    0.0256   -0.0170    0.1755
          68   -0.0086   -0.0042    0.0077   -0.0248    0.0636   -0.0209    0.0153   -0.1167
          69   -0.0106   -0.0052    0.0114   -0.0707    0.1863   -0.0692    0.0544   -0.4259
          70   -0.0618    0.0724    0.1285   -0.0151    0.0137    0.2056    0.0687   -0.0080
          71    0.0703   -0.1114    0.1754    0.0008   -0.0340   -0.1239   -0.0194    0.0029
          72   -0.0119   -0.0023    0.0154    0.0672    0.0481    0.0100   -0.0393   -0.0025
          73   -0.0669    0.0743    0.1387   -0.0115    0.0165    0.2088    0.0697   -0.0080
          74   -0.0171   -0.0119    0.3239   -0.0193   -0.0089    0.1978    0.0890   -0.0146
          75    0.0052    0.0073   -0.0243   -0.0323   -0.0259    0.0015    0.0182   -0.0057
          76    0.0323   -0.0685    0.1729   -0.0062   -0.0282   -0.0948    0.0023    0.0084
          77    0.1349   -0.2073    0.2079   -0.0016   -0.0671   -0.3128   -0.0547    0.0126
          78    0.0015    0.0159   -0.0199   -0.0263   -0.0327    0.0199    0.0223   -0.0117
          79    0.0665    0.0352   -0.0396    0.1356   -0.2387    0.0611   -0.0483   -0.1882
          80   -0.0123   -0.0059    0.0145   -0.0718    0.1650   -0.0476    0.0346    0.1048
          81    0.0139    0.0080    0.0026   -0.0351    0.1151   -0.0359    0.0212    0.0981
          82   -0.1933   -0.0952    0.1153   -0.2409    0.3846   -0.0806    0.0544    0.1718
          83   -0.0040   -0.0038    0.0117   -0.1338    0.3303   -0.1138    0.0935   -0.2806
          84    0.0352    0.0144   -0.0171   -0.0302    0.0484   -0.0064    0.0113    0.6752
          85    0.0791    0.0402   -0.0401    0.0663   -0.0623    0.0008    0.0025   -0.1197
          86   -0.0030    0.0010   -0.0005    0.0837   -0.2148    0.0772   -0.0713    0.1429
          87   -0.0097   -0.0009   -0.0031    0.0759   -0.1765    0.0602   -0.0490   -0.0613


   Root No.      41        42        43        44        45        46        47        48

                41 A      42 A      43 A      44 A      45 A      46 A      47 A      48 A   

                   1.7       1.9       1.9       2.5       2.7       2.8       2.8       3.6
  
           1   -0.0020   -0.0217   -0.0018    0.0016    0.0006   -0.0213    0.0614    0.0602
           2    0.0001    0.0266   -0.0017   -0.0037    0.0280   -0.0262    0.0277    0.0615
           3   -0.0348   -0.0187   -0.0238   -0.0252    0.0037   -0.1949   -0.0969   -0.0188
           4    0.0120   -0.0526   -0.0245   -0.0047    0.0610   -0.0523    0.1292    0.0893
           5   -0.0545    0.0901    0.0386    0.0184   -0.1946    0.0199   -0.0182    0.0774
           6    0.1242   -0.0114    0.0913    0.5220    0.0019    0.1856    0.1580   -0.1935
           7   -0.0043    0.0286    0.0099    0.0204   -0.1325   -0.0508    0.1108    0.3235
           8   -0.0276   -0.0025    0.0019    0.0059   -0.0083   -0.0145    0.0435   -0.0702
           9    0.1531    0.0132    0.0728   -0.0283    0.0037    0.1525    0.0392    0.2419
          10   -0.0128   -0.0555    0.0284    0.0129    0.0833   -0.0178    0.0446    0.2535
          11   -0.0528   -0.0988    0.0327   -0.0218    0.2040   -0.0186    0.0352   -0.1384
          12    0.1409    0.0282    0.1193   -0.4506   -0.0628   -0.3636   -0.0715   -0.0817
          13    0.0036   -0.0245    0.0060    0.0002    0.0147   -0.0050    0.0080    0.1874
          14    0.0037   -0.0288   -0.0001   -0.0027   -0.0257    0.0120   -0.0390   -0.1205
          15   -0.0328    0.0054   -0.0253    0.0875    0.0024   -0.0051    0.0021   -0.1262
          16    0.0053   -0.2125    0.0045    0.0084   -0.1796    0.0338   -0.0950   -0.0349
          17    0.0057   -0.0035    0.0004   -0.0077    0.0018    0.0075   -0.0178    0.0048
          18   -0.0829   -0.0296   -0.0848   -0.3479   -0.0173    0.5404    0.2301    0.1055
          19    0.0770   -0.0534   -0.0230   -0.0169    0.2489   -0.0423    0.0792   -0.0392
          20   -0.0498    0.1576    0.0679    0.0209   -0.4086    0.0949   -0.1979    0.0849
          21   -0.0474    0.0001   -0.0409   -0.2076    0.0035   -0.0513   -0.0411    0.0494
          22   -0.0812   -0.0548    0.0346   -0.0130    0.2344   -0.0363    0.0821   -0.0617
          23   -0.0517   -0.1661    0.0601   -0.0246    0.4520   -0.0559    0.1193    0.0109
          24   -0.0599   -0.0108   -0.0425    0.1515    0.0161    0.1389    0.0391    0.0136
          25    0.0061   -0.3362    0.0045    0.0131   -0.4443    0.1023   -0.2432   -0.1561
          26   -0.0030    0.0012   -0.0102    0.0026   -0.0077   -0.0076    0.0179   -0.0229
          27    0.0523    0.0074    0.0448    0.1108   -0.0018   -0.1684   -0.0656   -0.0428
          28    0.0480    0.2616   -0.0541   -0.0013    0.0155    0.0035    0.0081   -0.0091
          29    0.0305    0.1528   -0.0223    0.0075   -0.0090    0.0001   -0.0086   -0.1254
          30   -0.0434   -0.0005   -0.0344    0.4998    0.0538   -0.1632   -0.1557    0.2161
          31    0.0505    0.2758   -0.0600    0.0050    0.0137    0.0046    0.0010   -0.0330
          32   -0.0479   -0.2268    0.0685    0.0005    0.0214   -0.0203    0.0586    0.2886
          33    0.0157    0.0056    0.0116   -0.1387   -0.0151    0.0400    0.0408   -0.0595
          34   -0.0201   -0.1096   -0.0008    0.0005   -0.0255    0.0137   -0.0546   -0.2208
          35    0.0721    0.3805   -0.0540   -0.0045    0.0222   -0.0016    0.0364   -0.0078
          36    0.0186   -0.0115    0.0178   -0.1877   -0.0194    0.0607    0.0549   -0.0710
          37    0.0093    0.0013    0.0205    0.0121   -0.0892   -0.0588    0.1250    0.2175
          38    0.0177    0.0014   -0.2149    0.0133   -0.0608   -0.0691    0.1181   -0.0957
          39   -0.0082    0.0015   -0.1720   -0.0061    0.0270    0.0594   -0.0824    0.1888
          40    0.0465   -0.0108    0.1237   -0.0117    0.0326    0.0381    0.0077   -0.0765
          41   -0.0585    0.0003   -0.2493   -0.0079    0.0865    0.0714   -0.2092    0.0407
          42    0.0827   -0.0006   -0.2428   -0.0040    0.0820    0.0585   -0.1964    0.0059
          43    0.2794   -0.0083   -0.2040    0.0061   -0.0464   -0.0593    0.1106   -0.0338
          44   -0.0758    0.0066   -0.0620    0.0242   -0.1524   -0.1467    0.2832   -0.0050
          45    0.2213   -0.0046    0.1906    0.0024    0.0175    0.0110   -0.0235   -0.0180
          46    0.3936   -0.0131   -0.2950    0.0069   -0.0680   -0.0978    0.1849   -0.1309
          47    0.0140   -0.0039    0.0854   -0.0154    0.0864    0.0787   -0.1485   -0.0239
          48   -0.1828    0.0035   -0.1374    0.0013   -0.0072   -0.0044    0.0071    0.0144
          49   -0.2732    0.0053    0.1433   -0.0109    0.0580    0.0655   -0.1256    0.0214
          50    0.1359   -0.0018    0.3339    0.0103   -0.0613   -0.0643    0.1366   -0.0238
          51   -0.1223    0.0091    0.0290    0.0279   -0.1492   -0.1400    0.2800   -0.0169
          52   -0.0895    0.0036    0.2312   -0.0109    0.0552    0.0669   -0.1217    0.0205
          53   -0.2204    0.0036   -0.0774   -0.0042   -0.0103   -0.0019    0.0171    0.0599
          54    0.3784   -0.0139    0.1461   -0.0220    0.1519    0.1333   -0.2687   -0.0425
          55   -0.1151   -0.0263    0.0225   -0.0126    0.0823    0.0481   -0.1265   -0.0320
          56    0.0404   -0.0026   -0.1807    0.0020   -0.0053   -0.0166    0.0174   -0.1117
          57   -0.1118    0.0059   -0.1111    0.0073   -0.0398   -0.0314    0.0386    0.0909
          58   -0.0901   -0.0209   -0.0213   -0.0107    0.0700    0.0449   -0.1187    0.0138
          59    0.1989    0.0148    0.0800   -0.0059    0.0006    0.0464   -0.0393    0.1800
          60   -0.3092   -0.0325    0.0550   -0.0005    0.0443   -0.0343   -0.0057   -0.2570
          61   -0.1523   -0.0100   -0.0010    0.0047   -0.0163   -0.0744    0.0764   -0.2516
          62    0.0685   -0.0122    0.0639   -0.0118    0.0725    0.0716   -0.1215    0.0074
          63   -0.1460    0.0171    0.0524    0.0157   -0.1033   -0.1116    0.1883   -0.0467
          64   -0.0025    0.0004    0.0087    0.0013   -0.0122   -0.0045    0.0276   -0.0012
          65   -0.0162   -0.0019   -0.0942   -0.0010    0.0202    0.0096   -0.0431    0.0013
          66   -0.0120   -0.0026   -0.0794   -0.0016    0.0174    0.0089   -0.0367    0.0027
          67   -0.0002    0.0002   -0.0016   -0.0006    0.0012    0.0001   -0.0027    0.0010
          68    0.0019    0.0004    0.0084    0.0020   -0.0019   -0.0006    0.0031   -0.0001
          69    0.0042    0.0001    0.0394    0.0012   -0.0081   -0.0036    0.0170    0.0002
          70   -0.0511    0.2633    0.0493    0.0025    0.0268    0.0374   -0.0239   -0.0073
          71    0.0270   -0.1471   -0.0212   -0.0027    0.0047   -0.0387    0.0136    0.0601
          72   -0.0354    0.0159   -0.0235   -0.0569    0.0163   -0.4006   -0.2436    0.1217
          73   -0.0541    0.2703    0.0502   -0.0017    0.0263    0.0242   -0.0453   -0.0107
          74   -0.0519    0.2354    0.0528   -0.0015   -0.0039    0.0810   -0.1221   -0.1245
          75    0.0153    0.0011    0.0075    0.0253   -0.0031    0.1466    0.0936   -0.0354
          76    0.0188   -0.0993    0.0005   -0.0007   -0.0184    0.0260   -0.0815   -0.0950
          77    0.0748   -0.3791   -0.0489    0.0027   -0.0329    0.0020    0.0048   -0.0054
          78    0.0092    0.0194    0.0067    0.0213   -0.0046    0.1491    0.0816   -0.0430
          79   -0.0228   -0.0034   -0.1526   -0.0019    0.0185    0.0137   -0.0389    0.0052
          80    0.0148    0.0029    0.1197    0.0025   -0.0159   -0.0114    0.0297   -0.0001
          81    0.0119    0.0026    0.1091    0.0031   -0.0160   -0.0138    0.0306   -0.0002
          82    0.0210    0.0013    0.0532   -0.0009    0.0098    0.0036   -0.0240    0.0025
          83    0.0242    0.0046    0.1998    0.0041   -0.0342   -0.0188    0.0700   -0.0024
          84    0.0287    0.0059    0.2242    0.0031   -0.0311   -0.0214    0.0622   -0.0015
          85    0.0001    0.0011    0.0490    0.0027   -0.0202   -0.0056    0.0450   -0.0021
          86   -0.0203   -0.0036   -0.1772   -0.0016    0.0327    0.0177   -0.0668    0.0001
          87   -0.0276   -0.0050   -0.1998   -0.0030    0.0374    0.0226   -0.0753    0.0035


   Root No.      49        50        51        52        53        54        55        56

                49 A      50 A      51 A      52 A      53 A      54 A      55 A      56 A   

                   3.7       3.7       3.8       4.0       4.2       4.7       5.1       5.8
  
           1    0.0475   -0.2167   -0.0314   -0.2109    0.0439   -0.0233    0.0470    0.0261
           2    0.0438   -0.2338   -0.0804    0.2240   -0.0674   -0.0359    0.1124    0.1481
           3   -0.0218   -0.0330    0.0488   -0.0799   -0.3169    0.4329    0.1597   -0.0275
           4    0.0685   -0.2720   -0.0431   -0.2651    0.0577   -0.0190    0.0184   -0.0601
           5    0.0159   -0.1402    0.0007   -0.1537    0.0314   -0.0136   -0.0033   -0.0567
           6   -0.1703   -0.1247    0.2184    0.0385    0.0588   -0.3126   -0.2199    0.0708
           7   -0.0643   -0.1839    0.1146   -0.0384   -0.0067   -0.0390   -0.0259   -0.2546
           8    0.0856   -0.1650   -0.0851   -0.2795    0.0737    0.0221   -0.0301   -0.0206
           9    0.2297    0.1896   -0.3221    0.0181    0.1793    0.1930    0.3224   -0.1542
          10   -0.1281    0.0923    0.1569    0.2348   -0.0637   -0.0560    0.1141   -0.1023
          11    0.0542   -0.0002   -0.0687   -0.1060    0.0312    0.0277   -0.0420    0.0494
          12   -0.0914   -0.0560    0.1086   -0.0639   -0.3348   -0.2395   -0.2044    0.0621
          13   -0.0897    0.0775    0.1161    0.1731   -0.0629   -0.0729    0.1401   -0.0152
          14    0.0690   -0.1291   -0.1346    0.2658   -0.0409    0.0309   -0.0744   -0.1593
          15   -0.1247   -0.1241    0.2126    0.1056    0.3908    0.2758    0.1387   -0.0148
          16    0.0048    0.0134   -0.0064    0.0001   -0.0004    0.0012    0.0034   -0.0752
          17    0.0198   -0.1142   -0.0785    0.4087   -0.0979   -0.0365    0.0408   -0.0274
          18    0.0983    0.1123   -0.1696   -0.0331   -0.0562   -0.3328   -0.1317    0.0172
          19    0.0046    0.0205   -0.0365    0.1368   -0.0239    0.0116   -0.0276   -0.0110
          20   -0.0759    0.1052    0.0933    0.0461   -0.0262   -0.0269    0.0596    0.0458
          21    0.0400    0.0279   -0.0574   -0.0141   -0.0289    0.0690    0.0464   -0.0147
          22    0.0183    0.0435   -0.0055   -0.1148    0.0308    0.0298   -0.0646    0.0182
          23   -0.0588    0.1820    0.0671    0.0736   -0.0104    0.0283   -0.0688    0.0090
          24    0.0175    0.0083   -0.0198    0.0147    0.0888    0.0485    0.0424   -0.0125
          25    0.0307    0.0740   -0.0498    0.0026    0.0109    0.0223   -0.0084    0.1984
          26    0.0163   -0.0214   -0.0049   -0.1437    0.0345    0.0126   -0.0165    0.0089
          27   -0.0387   -0.0380    0.0601    0.0086    0.0105    0.0771    0.0269   -0.0008
          28   -0.0072    0.0517    0.0418   -0.1713    0.0382   -0.0121    0.0700    0.1681
          29    0.0696   -0.0766   -0.1163    0.0281   -0.0010    0.0534   -0.1693   -0.2465
          30    0.2055    0.1787   -0.2998   -0.1186   -0.3718   -0.1530   -0.0567    0.0067
          31    0.0085    0.0466    0.0197   -0.1861    0.0373   -0.0117    0.0652    0.1872
          32   -0.1536    0.1686    0.2307   -0.0736   -0.0010   -0.0664    0.1656    0.1604
          33   -0.0501   -0.0476    0.0748    0.0277    0.0912    0.0409    0.0146   -0.0001
          34    0.1251   -0.1635   -0.2053    0.1589   -0.0198    0.0603   -0.1704   -0.2284
          35   -0.0125    0.0569    0.0379   -0.1868    0.0468    0.0204   -0.0452   -0.0377
          36   -0.0629   -0.0581    0.0921    0.0438    0.1121    0.0467    0.0185   -0.0015
          37   -0.0607   -0.0972    0.0552   -0.0026    0.0064    0.0215   -0.1414   -0.2855
          38    0.0895    0.0091    0.0144   -0.0489    0.0003   -0.0643    0.1581   -0.0522
          39    0.1600   -0.0045    0.0668    0.0440    0.0593    0.2434   -0.2822    0.2540
          40    0.1217    0.0701   -0.0679   -0.0151    0.0350    0.0477    0.0158    0.0703
          41   -0.1516   -0.0778    0.0317   -0.0056   -0.0332   -0.0608    0.0201   -0.0560
          42   -0.3386   -0.0767   -0.0987   -0.0298   -0.0332   -0.1035    0.1063   -0.0904
          43   -0.0211    0.0508   -0.0367    0.0195    0.0030    0.0070   -0.0060   -0.0633
          44   -0.0660    0.0783   -0.0695    0.0434    0.0033    0.0093    0.0070   -0.0815
          45   -0.0024   -0.0101    0.0051   -0.0095   -0.0013   -0.0052   -0.0032    0.0154
          46   -0.0528    0.1950   -0.1185    0.1122    0.0009    0.0630   -0.0372    0.2159
          47    0.0278   -0.0090    0.0153   -0.0093   -0.0027   -0.0042    0.0127    0.0264
          48    0.0013   -0.0018    0.0008    0.0013    0.0028    0.0050   -0.0053   -0.0023
          49    0.0130   -0.0497    0.0329   -0.0229   -0.0031   -0.0158    0.0141   -0.0245
          50   -0.0753    0.0702   -0.0718    0.0483   -0.0004    0.0296   -0.0524    0.0651
          51   -0.0611    0.0997   -0.0834    0.0642    0.0094    0.0497   -0.0623    0.0720
          52    0.0348   -0.0440    0.0388   -0.0200   -0.0027   -0.0160    0.0177   -0.0241
          53   -0.0430    0.0284   -0.0484    0.0345    0.0186    0.0842   -0.1129    0.0970
[...]
 REDUCED MASS        2.2272         C  1 -- C  2          +9.3% ( 53.6%)     15.4%
 EFFECTIVE MASS     13.4696
 FORCE CONSTANT      1.3907

 VIBRATION         48   48A           ATOM PAIR      ENERGY CONTRIBUTION    RADIAL
 FREQUENCY          1036.59         C  5 -- N 10         +11.2% ( 58.3%)     99.1%
 TRANSITION DIPOLE   2.7381         C  1 -- N 24          +9.4% ( 53.4%)     98.9%
 TRAVEL (Ang.)       0.2381         C  5 -- C  6          +8.4% ( 50.4%)     53.3%
 REDUCED MASS        1.1471         C  1 -- C  6          +8.2% ( 49.9%)     89.7%
 EFFECTIVE MASS     13.1430
 FORCE CONSTANT      0.7262

 VIBRATION         49   49A           ATOM PAIR      ENERGY CONTRIBUTION    RADIAL
 FREQUENCY          1080.41         C 15 -- H 17         +24.7% ( 66.7%)     27.0%
 TRANSITION DIPOLE   1.2920         C 15 -- H 18         +17.9% ( 56.8%)      5.1%
 TRAVEL (Ang.)       0.2589         C 13 -- C 15         +15.8% ( 53.3%)      3.5%
 REDUCED MASS        0.9308         C 15 -- H 16         +14.1% ( 50.5%)      1.6%
 EFFECTIVE MASS      5.5362
 FORCE CONSTANT      0.6401

 VIBRATION         50   50A           ATOM PAIR      ENERGY CONTRIBUTION    RADIAL
 FREQUENCY          1142.34         C 13 -- C 15         +22.8% ( 74.9%)     55.2%
 TRANSITION DIPOLE   2.7455         C 13 -- H 14         +15.1% ( 61.0%)      6.1%
 TRAVEL (Ang.)       0.1476         C 13 -- N 19         +14.8% ( 60.3%)     82.3%
 REDUCED MASS        2.7112         C  3 -- C 13         +13.1% ( 56.8%)      5.0%
 EFFECTIVE MASS      8.9399         C 15 -- H 16         +11.0% ( 51.9%)      0.7%
 FORCE CONSTANT      2.0845

 VIBRATION         51   51A           ATOM PAIR      ENERGY CONTRIBUTION    RADIAL
 FREQUENCY          1200.21         C 13 -- C 15         +19.4% ( 68.1%)     83.9%
 TRANSITION DIPOLE   0.9465         C 13 -- H 14         +12.3% ( 54.3%)      5.4%
 TRAVEL (Ang.)       0.1792         C 13 -- N 19         +11.7% ( 52.8%)      0.7%
 REDUCED MASS        1.7505         C  3 -- C 13         +10.7% ( 50.5%)     49.8%
 EFFECTIVE MASS      8.5487
 FORCE CONSTANT      1.4857

 VIBRATION         52   52A           ATOM PAIR      ENERGY CONTRIBUTION    RADIAL
 FREQUENCY          1225.76         C  6 -- H  9         +37.7% ( 73.4%)      0.1%
 TRANSITION DIPOLE   0.6499         C  2 -- H  7         +12.1% ( 41.5%)      8.4%
 TRAVEL (Ang.)       0.3708         C  4 -- H  8          +7.3% ( 32.2%)     15.6%
 REDUCED MASS        0.4001         C  4 -- C  5          +6.2% ( 29.7%)     94.3%
 EFFECTIVE MASS      3.6643
 FORCE CONSTANT      0.3542

 VIBRATION         53   53A           ATOM PAIR      ENERGY CONTRIBUTION    RADIAL
 FREQUENCY          1239.65         H 28 -- O 29         +32.7% ( 67.6%)      0.2%
 TRANSITION DIPOLE   0.5466         O 22 -- H 28         +32.2% ( 67.0%)      2.8%
 TRAVEL (Ang.)       0.3915         C  4 -- H  8          +4.8% ( 25.8%)      0.0%
 REDUCED MASS        0.3549         O 22 -- H 23          +3.8% ( 23.1%)     18.1%
 EFFECTIVE MASS      2.3022
 FORCE CONSTANT      0.3214

 VIBRATION         54   54A           ATOM PAIR      ENERGY CONTRIBUTION    RADIAL
 FREQUENCY          1240.44         C  4 -- H  8         +13.3% ( 46.5%)      0.0%
 TRANSITION DIPOLE   2.3792         H 28 -- O 29          +9.8% ( 40.0%)      0.9%
 TRAVEL (Ang.)       0.4195         O 22 -- H 28          +9.6% ( 39.7%)     14.6%
 REDUCED MASS        0.3089         C  2 -- H  7          +8.8% ( 37.8%)      0.1%
 EFFECTIVE MASS      4.3187
 FORCE CONSTANT      0.2800

 VIBRATION         55   55A           ATOM PAIR      ENERGY CONTRIBUTION    RADIAL
 FREQUENCY          1251.76         C 15 -- H 18         +29.7% ( 51.1%)      0.2%
 TRANSITION DIPOLE   1.0837         C 15 -- H 16         +26.1% ( 47.9%)      0.9%
 TRAVEL (Ang.)       0.4325         C 15 -- H 17         +14.1% ( 35.3%)     17.9%
 REDUCED MASS        0.2880         C 13 -- H 14          +9.3% ( 28.6%)     83.5%
 EFFECTIVE MASS      2.0727
 FORCE CONSTANT      0.2659

 VIBRATION         56   56A           ATOM PAIR      ENERGY CONTRIBUTION    RADIAL
 FREQUENCY          1257.74         C 15 -- H 17         +34.0% ( 55.8%)      0.0%
 TRANSITION DIPOLE   1.4154         C 15 -- H 18         +15.2% ( 37.3%)     10.5%
 TRAVEL (Ang.)       0.4427         C 15 -- H 16         +13.4% ( 35.0%)      3.5%
 REDUCED MASS        0.2735         C  4 -- H  8          +5.8% ( 23.1%)      1.4%
 EFFECTIVE MASS      2.1289
 FORCE CONSTANT      0.2549

 VIBRATION         57   57A           ATOM PAIR      ENERGY CONTRIBUTION    RADIAL
 FREQUENCY          1277.93         C 13 -- H 14         +28.3% ( 67.8%)     86.7%
 TRANSITION DIPOLE   6.3084         O 22 -- H 28         +18.1% ( 54.2%)     97.4%
 TRAVEL (Ang.)       0.2835         H 28 -- O 29         +13.2% ( 46.2%)     81.0%
 REDUCED MASS        0.6563         C  3 -- C 13          +6.2% ( 31.7%)     61.4%
 EFFECTIVE MASS      5.5729
 FORCE CONSTANT      0.6315

 VIBRATION         58   58A           ATOM PAIR      ENERGY CONTRIBUTION    RADIAL
 FREQUENCY          1295.36         C  2 -- H  7         +22.9% ( 63.5%)      0.0%
 TRANSITION DIPOLE   0.9812         C  4 -- H  8         +18.6% ( 57.2%)      0.0%
 TRAVEL (Ang.)       0.3146         C  6 -- H  9         +18.5% ( 57.0%)      0.0%
 REDUCED MASS        0.5261         C  4 -- C  5          +6.7% ( 34.3%)     79.2%
 EFFECTIVE MASS      4.3230
 FORCE CONSTANT      0.5201

 VIBRATION         59   59A           ATOM PAIR      ENERGY CONTRIBUTION    RADIAL
 FREQUENCY          1362.05         C 15 -- H 16         +22.1% ( 49.8%)      1.2%
 TRANSITION DIPOLE   1.0211         C 15 -- H 17         +19.7% ( 47.0%)      0.7%
 TRAVEL (Ang.)       0.4014         C 15 -- H 18         +18.9% ( 46.0%)      1.0%
 REDUCED MASS        0.3072         C  1 -- C  2          +4.0% ( 21.3%)     66.5%
 EFFECTIVE MASS      3.4513
 FORCE CONSTANT      0.3358

 VIBRATION         60   60A           ATOM PAIR      ENERGY CONTRIBUTION    RADIAL
 FREQUENCY          1391.08         C  3 -- C 13         +13.4% ( 52.9%)     91.9%
 TRANSITION DIPOLE   1.2138         C  4 -- C  5          +9.9% ( 45.5%)     68.0%
 TRAVEL (Ang.)       0.1768         C  1 -- C  6          +9.1% ( 43.6%)     76.6%
 REDUCED MASS        1.5502         C  2 -- C  3          +8.3% ( 41.6%)     81.4%
 EFFECTIVE MASS     10.4980
 FORCE CONSTANT      1.7674

 VIBRATION         61   61A           ATOM PAIR      ENERGY CONTRIBUTION    RADIAL
 FREQUENCY          1441.85         O 22 -- H 28         +16.4% ( 55.2%)     15.6%
 TRANSITION DIPOLE   1.4504         H 28 -- O 29         +14.6% ( 52.2%)      5.8%
 TRAVEL (Ang.)       0.3028         C  3 -- C  4          +8.8% ( 40.4%)     97.9%
 REDUCED MASS        0.5100         C  2 -- C  3          +8.5% ( 39.9%)     93.7%
 EFFECTIVE MASS      5.9904
 FORCE CONSTANT      0.6247

 VIBRATION         62   62A           ATOM PAIR      ENERGY CONTRIBUTION    RADIAL
 FREQUENCY          1443.47         O 22 -- H 28         +13.7% ( 51.0%)     14.0%
 TRANSITION DIPOLE   1.5167         H 28 -- O 29         +12.4% ( 48.4%)      5.1%
 TRAVEL (Ang.)       0.2956         C  2 -- C  3          +9.1% ( 41.6%)     94.0%
 REDUCED MASS        0.5345         C  3 -- C  4          +8.8% ( 40.8%)     97.5%
 EFFECTIVE MASS      6.7046
 FORCE CONSTANT      0.6562

 VIBRATION         63   63A           ATOM PAIR      ENERGY CONTRIBUTION    RADIAL
 FREQUENCY          1476.34         N 24 -- O 26         +20.4% ( 63.2%)     65.2%
 TRANSITION DIPOLE   8.9460         N 24 -- O 25         +20.4% ( 63.1%)     65.0%
 TRAVEL (Ang.)       0.1293         C  1 -- N 24         +12.4% ( 49.3%)    100.0%
 REDUCED MASS        2.7305         O 25 -- O 26         +11.6% ( 47.7%)    100.0%
 EFFECTIVE MASS     14.7993
 FORCE CONSTANT      3.5065

 VIBRATION         64   64A           ATOM PAIR      ENERGY CONTRIBUTION    RADIAL
 FREQUENCY          1492.48         N 10 -- O 12         +20.8% ( 63.0%)     67.2%
 TRANSITION DIPOLE   5.8091         N 10 -- O 11         +19.3% ( 60.6%)     61.2%
 TRAVEL (Ang.)       0.1326         C  5 -- N 10         +12.2% ( 48.2%)    100.0%
 REDUCED MASS        2.5678         O 11 -- O 12         +11.1% ( 46.0%)    100.0%
 EFFECTIVE MASS     14.7541
 FORCE CONSTANT      3.3701

 VIBRATION         65   65A           ATOM PAIR      ENERGY CONTRIBUTION    RADIAL
 FREQUENCY          1503.30         C  4 -- C  5         +14.4% ( 53.4%)     92.9%
 TRANSITION DIPOLE   0.6182         C  1 -- C  2         +10.9% ( 46.5%)     99.0%
 TRAVEL (Ang.)       0.1876         C  5 -- C  6         +10.7% ( 46.1%)     22.4%
 REDUCED MASS        1.2750         C  1 -- C  6          +8.8% ( 41.7%)      4.6%
 EFFECTIVE MASS     10.3387
 FORCE CONSTANT      1.6976

 VIBRATION         66   66A           ATOM PAIR      ENERGY CONTRIBUTION    RADIAL
 FREQUENCY          1508.48         N 19 -- O 21         +23.0% ( 63.7%)     70.3%
 TRANSITION DIPOLE   3.2604         N 19 -- O 20         +20.2% ( 59.8%)     60.2%
 TRAVEL (Ang.)       0.1400         O 20 -- O 21         +12.5% ( 47.0%)     99.9%
 REDUCED MASS        2.2809         C 13 -- N 19         +10.6% ( 43.3%)     98.8%
 EFFECTIVE MASS     11.9769
 FORCE CONSTANT      3.0580

 VIBRATION         67   67A           ATOM PAIR      ENERGY CONTRIBUTION    RADIAL
 FREQUENCY          1545.91         C  2 -- C  3         +14.1% ( 53.0%)     58.7%
 TRANSITION DIPOLE   2.1546         C  3 -- C  4         +13.3% ( 51.5%)     68.5%
 TRAVEL (Ang.)       0.1793         C  1 -- C  6          +9.9% ( 44.4%)     94.4%
 REDUCED MASS        1.3569         C  1 -- C  2          +9.1% ( 42.5%)      0.7%
 EFFECTIVE MASS     10.1565
 FORCE CONSTANT      1.9105

 VIBRATION         68   68A           ATOM PAIR      ENERGY CONTRIBUTION    RADIAL
 FREQUENCY          1630.42         O 22 -- H 28         +28.0% ( 56.6%)     92.5%
 TRANSITION DIPOLE   2.7535         H 28 -- O 29         +24.1% ( 52.5%)     85.4%
 TRAVEL (Ang.)       0.3019         C 13 -- H 14         +23.9% ( 52.3%)     99.6%
 REDUCED MASS        0.4538         N 19 -- O 21          +2.8% ( 17.9%)     61.7%
 EFFECTIVE MASS      3.1300
 FORCE CONSTANT      0.7107

 VIBRATION         69   69A           ATOM PAIR      ENERGY CONTRIBUTION    RADIAL
 FREQUENCY          1653.50         N 19 -- O 20         +36.8% ( 86.3%)     91.5%
 TRANSITION DIPOLE  12.1732         N 19 -- O 21         +33.0% ( 81.7%)     85.9%
 TRAVEL (Ang.)       0.0793         C 13 -- N 19         +20.8% ( 64.9%)      0.2%
 REDUCED MASS        6.4896         O 20 -- O 21          +6.3% ( 35.7%)      1.8%
 EFFECTIVE MASS     14.5612
 FORCE CONSTANT     10.4540

 VIBRATION         70   70A           ATOM PAIR      ENERGY CONTRIBUTION    RADIAL
 FREQUENCY          1663.85         N 24 -- O 25         +19.0% ( 62.0%)     93.5%
 TRANSITION DIPOLE  10.5590         N 24 -- O 26         +16.3% ( 57.3%)     83.9%
 TRAVEL (Ang.)       0.1368         C  1 -- N 24         +10.6% ( 46.2%)      0.7%
 REDUCED MASS        2.1641         N 10 -- O 11          +7.2% ( 38.2%)     90.7%
 EFFECTIVE MASS     13.8110
 FORCE CONSTANT      3.5298

 VIBRATION         71   71A           ATOM PAIR      ENERGY CONTRIBUTION    RADIAL
 FREQUENCY          1667.57         N 24 -- O 26         +16.4% ( 57.4%)     92.5%
 TRANSITION DIPOLE   5.8047         N 10 -- O 12         +15.4% ( 55.6%)     91.5%
 TRAVEL (Ang.)       0.1268         N 24 -- O 25         +14.7% ( 54.3%)     85.8%
 REDUCED MASS        2.5131         N 10 -- O 11         +14.5% ( 53.9%)     87.9%
 EFFECTIVE MASS     14.2097
 FORCE CONSTANT      4.1174

 VIBRATION         72   72A           ATOM PAIR      ENERGY CONTRIBUTION    RADIAL
 FREQUENCY          1671.31         C  5 -- N 10         +15.1% ( 55.8%)      0.3%
 TRANSITION DIPOLE   8.0135         N 10 -- O 11         +14.3% ( 54.4%)     91.5%
 TRAVEL (Ang.)       0.1440         C  5 -- C  6         +13.0% ( 51.7%)     99.0%
 REDUCED MASS        1.9457         N 10 -- O 12         +12.3% ( 50.5%)     82.8%
 EFFECTIVE MASS     13.1166
 FORCE CONSTANT      3.2021

 VIBRATION         73   73A           ATOM PAIR      ENERGY CONTRIBUTION    RADIAL
 FREQUENCY          1682.09         C  1 -- C  6         +16.3% ( 57.4%)     92.3%
 TRANSITION DIPOLE   4.1393         C  3 -- C  4         +15.0% ( 55.2%)     91.8%
 TRAVEL (Ang.)       0.1348         C  1 -- C  2         +14.0% ( 53.2%)     80.5%
 REDUCED MASS        2.2076         C  1 -- N 24         +10.5% ( 46.1%)      0.4%
 EFFECTIVE MASS     11.9508         C  4 -- C  5         +10.5% ( 46.1%)     83.1%
 FORCE CONSTANT      3.6802

 VIBRATION         74   74A           ATOM PAIR      ENERGY CONTRIBUTION    RADIAL
 FREQUENCY          2642.53         C 15 -- H 16         +60.4% ( 80.3%)     99.1%
 TRANSITION DIPOLE   0.9609         C 15 -- H 17         +34.0% ( 60.3%)     95.0%
 TRAVEL (Ang.)       0.2264         C 15 -- H 18          +4.6% ( 22.2%)     54.9%
 REDUCED MASS        0.4977         C 13 -- C 15          +0.9% (  9.7%)      0.0%
 EFFECTIVE MASS      1.4442
 FORCE CONSTANT      2.0475

 VIBRATION         75   75A           ATOM PAIR      ENERGY CONTRIBUTION    RADIAL
 FREQUENCY          2651.47         C 15 -- H 18         +59.5% ( 79.6%)     99.1%
 TRANSITION DIPOLE   0.9864         C 15 -- H 17         +33.3% ( 59.6%)     94.8%
 TRAVEL (Ang.)       0.2292         C 15 -- H 16          +6.2% ( 25.7%)     63.3%
 REDUCED MASS        0.4840         C 13 -- C 15          +0.9% (  9.7%)      0.1%
 EFFECTIVE MASS      1.4497
 FORCE CONSTANT      2.0049

 VIBRATION         76   76A           ATOM PAIR      ENERGY CONTRIBUTION    RADIAL
 FREQUENCY          2672.17         C  6 -- H  9         +90.2% ( 96.0%)    100.0%
 TRANSITION DIPOLE   1.7872         C  2 -- H  7          +4.8% ( 22.3%)    100.0%
 TRAVEL (Ang.)       0.1781         C  4 -- H  8          +2.6% ( 16.4%)     99.8%
 REDUCED MASS        0.7958         C  5 -- C  6          +1.0% ( 10.3%)     24.0%
 EFFECTIVE MASS      1.3885
 FORCE CONSTANT      3.3478

 VIBRATION         77   77A           ATOM PAIR      ENERGY CONTRIBUTION    RADIAL
 FREQUENCY          2682.47         C  2 -- H  7         +63.3% ( 80.4%)    100.0%
 TRANSITION DIPOLE   1.6689         C  4 -- H  8         +33.8% ( 58.7%)    100.0%
 TRAVEL (Ang.)       0.2243         C  6 -- H  9          +0.7% (  8.5%)     99.8%
 REDUCED MASS        0.4996         C  1 -- C  2          +0.7% (  8.4%)     22.5%
 EFFECTIVE MASS      1.3750
 FORCE CONSTANT      2.1180

 VIBRATION         78   78A           ATOM PAIR      ENERGY CONTRIBUTION    RADIAL
 FREQUENCY          2689.18         C  4 -- H  8         +61.1% ( 79.0%)    100.0%
 TRANSITION DIPOLE   0.4935         C  2 -- H  7         +29.6% ( 55.0%)    100.0%
 TRAVEL (Ang.)       0.2348         C  6 -- H  9          +6.7% ( 26.1%)    100.0%
 REDUCED MASS        0.4550         C  4 -- C  5          +0.7% (  8.7%)     23.6%
 EFFECTIVE MASS      1.4363
 FORCE CONSTANT      1.9386

 VIBRATION         79   79A           ATOM PAIR      ENERGY CONTRIBUTION    RADIAL
 FREQUENCY          2772.26         C 15 -- H 18         +35.5% ( 57.0%)     95.8%
 TRANSITION DIPOLE   0.6827         C 15 -- H 16         +32.3% ( 54.4%)     95.3%
 TRAVEL (Ang.)       0.2732         C 15 -- H 17         +31.7% ( 53.8%)     95.1%
 REDUCED MASS        0.3260         C 13 -- C 15          +0.3% (  4.9%)     99.5%
 EFFECTIVE MASS      1.1416
 FORCE CONSTANT      1.4761

 VIBRATION         80   80A           ATOM PAIR      ENERGY CONTRIBUTION    RADIAL
 FREQUENCY          2792.71         H 27 -- O 29         +75.3% ( 86.4%)    100.0%
 TRANSITION DIPOLE   1.1229         O 22 -- H 23         +24.2% ( 49.0%)     99.4%
 TRAVEL (Ang.)       0.2021         H 28 -- O 29          +0.3% (  5.5%)      7.0%
 REDUCED MASS        0.5912         O 22 -- H 28          +0.2% (  3.9%)     25.1%
 EFFECTIVE MASS      1.3588
 FORCE CONSTANT      2.7167

 VIBRATION         81   81A           ATOM PAIR      ENERGY CONTRIBUTION    RADIAL
 FREQUENCY          2803.88         O 22 -- H 23         +74.3% ( 85.0%)     99.8%
 TRANSITION DIPOLE   0.8148         H 27 -- O 29         +24.1% ( 48.4%)    100.0%
 TRAVEL (Ang.)       0.2054         O 22 -- H 28          +0.9% (  9.2%)     37.5%
 REDUCED MASS        0.5698         H 28 -- O 29          +0.8% (  8.6%)     55.9%
 EFFECTIVE MASS      1.3286
 FORCE CONSTANT      2.6392

      SYMMETRY NUMBER FOR POINT-GROUP C1  =  1


          SYSTEM IS A GROUND STATE



 Title: ASE calculation


          MOLECULE IS NOT LINEAR

          THERE ARE 81 GENUINE VIBRATIONS IN THIS SYSTEM
          THIS THERMODYNAMICS CALCULATION IS LIMITED TO
          MOLECULES WHICH HAVE NO INTERNAL ROTATIONS




                    CALCULATED THERMODYNAMIC PROPERTIES
                                          *
   TEMP. (K)   PARTITION FUNCTION   H.O.F.    ENTHALPY  HEAT CAPACITY ENTROPY
                                   KCAL/MOL   CAL/MOLE    CAL/K/MOL  CAL/K/MOL


 298.00  VIB.     0.2232D+10                 11618.7107    67.1299    81.7660
         ROT.     0.7146D+07                   888.2803     2.9808    34.3431
         INT.     0.1595D+17                 12506.9910    70.1107   116.1091
         TRA.     0.4462D+28                  1480.4672     4.9680    42.7548
         TOT.                     -227.494   13987.4582    75.0788   158.8639

   *: NOTE: HEATS OF FORMATION ARE RELATIVE TO THE
            ELEMENTS IN THEIR STANDARD STATE AT 298K
              (=  Standard Enthalpy of Formation).

            Hvib:  Zero-point energy is not included.
                   frequencies of less than zero cm-1 are not included.
            Hrot = (3/2)RT
            Htra = (3/2)RT + pV = (5/2)RT

            Heat capacity is Cp, not Cv

          For more information, see: HTTP://OpenMOPAC.net/Manual/thermochemistry.html


           FORCE CONSTANT IN CARTESIAN COORDINATES (Millidynes/A)

    ATOM   CHEMICAL       X               Y               Z
   NUMBER   SYMBOL  FORCE CONSTANT  FORCE CONSTANT  FORCE CONSTANT

      1       C       11.773153       10.808401        2.131322
      2       C       10.727943        9.892752        2.284264
      3       C       10.498111       11.409791        2.636452
      4       C       10.659463       10.050672        2.228596
      5       C       11.715886       10.974958        1.965729
      6       C        9.534388       11.560570        2.100652
      7       H        1.727618        3.246231        0.381393
      8       H        1.594614        3.379955        0.343937
      9       H        3.994340        0.935611        0.342617
     10       N       14.229774       12.004731        2.336120
     11       O       12.095240        1.656213        0.059416
     12       O        4.467674        9.153761        0.223327
     13       C        7.963902        6.973489        5.219666
     14       H        0.940030        1.154783        1.468470
     15       C        6.305690        6.659399        6.151064
     16       H        4.027319        0.753371        0.519705
     17       H        0.779876        2.176044        2.370876
     18       H        0.794610        1.330077        3.181026
     19       N       14.454475        5.631051        8.693653
     20       O       11.642637        0.780852        1.605332
     21       O        6.195508        2.814194        4.754935
     22       O        1.348867        3.192466        4.628522
     23       H        0.080823        1.159627        3.475103
     24       N       14.224779       11.828354        2.804753
     25       O       11.978634        1.624864        0.350929
     26       O        4.589155        8.953793        0.315181
     27       H        3.926808        0.245804        0.485571
     28       H        0.895273        0.753038        1.068219
     29       O        4.371510        1.244253        1.739298

 **********************
 *                    *
 * JOB ENDED NORMALLY *
 *                    *
 **********************



 TOTAL JOB TIME:            14.13 SECONDS

 == MOPAC DONE ==
