 *******************************************************************************
 **                                                                           **
 **                              MOPAC v22.0.6                                **
 **                                                                           **
 *******************************************************************************
 **          Digital Object Identifier (DOI): 10.5281/zenodo.6511958          **
 **    Visit the DOI location for information on how to cite this program.    **
 *******************************************************************************

                              PM7 CALCULATION RESULTS

 *******************************************************************************
 *  CALCULATION DONE:                                Mon Mar 25 22:38:29 2024  *
 *  PM7        - The PM7 Hamiltonian to be used
 *  SINGLET    - SPIN STATE DEFINED AS A SINGLET
 *
 *
 *
 *                 CHARGE ON SYSTEM = -1
 *
 *
 *
 *  EPS=78.4   - USE ANDREAS KLAMT'S COSMO IMPLICIT SOLVATION MODEL
 *  LET        - OVERRIDE SOME SAFETY CHECKS
 *  THREADS    - USE A MAXIMUM OF 30 THREADS
 *  T=         - A TIME OF 14.0 DAYS REQUESTED
 *  DUMP=N     - RESTART FILE WRITTEN EVERY 30.0 MINUTES REQUESTED
 *  RELSCF     - DEFAULT SCF CRITERION MULTIPLIED BY 1.0000
 *              (DEFAULT SCF CRITERION = 0.00010)
 *  ITRY=      - DO A MAXIMUM OF 15000 ITERATIONS FOR SCF
 *  AUX        - OUTPUT AUXILIARY INFORMATION
 *  ISOTOPE    - SAVE THE FORCE MATRIX FOR USE LATER
 *  BONDS      - FINAL BOND-ORDER MATRIX TO BE PRINTED
 *  LARGE      - EXPANDED OUTPUT TO BE PRINTED
 *  THERMO     - THERMODYNAMIC QUANTITIES TO BE CALCULATED
 *******************************************************************************
PM7 AUX LARGE THERMO(298,298) LET ISOTOPE BONDS DUMP=30M ITRY=15000 T=14D THREADS=30 CHARGE=-1 SINGLET eps=78.4 RELSCF=1
 Title: ASE calculation

   ATOM   CHEMICAL          X               Y               Z
  NUMBER   SYMBOL      (ANGSTROMS)     (ANGSTROMS)     (ANGSTROMS)

     1       C         -0.77463000  *   1.15981000  *  -0.03181000  *
     2       C          0.57960000  *   1.17834000  *   0.32139000  *
     3       C          1.31750000  *  -0.01022000  *   0.30630000  *
     4       C          0.69150000  *  -1.20409000  *  -0.04863000  *
     5       C         -0.67107000  *  -1.20107000  *  -0.38372000  *
     6       C         -1.42389000  *  -0.02537000  *  -0.38728000  *
     7       H          1.05198000  *   2.13250000  *   0.60762000  *
     8       H          1.24662000  *  -2.15508000  *  -0.06567000  *
     9       H         -2.49401000  *  -0.02996000  *  -0.65583000  *
    10       N         -1.31123000  *  -2.45023000  *  -0.73645000  *
    11       O         -2.49482000  *  -2.44517000  *  -1.04224000  *
    12       O         -0.64787000  *  -3.47722000  *  -0.71843000  *
    13       C          2.77024000  *   0.04019000  *   0.70776000  *
    14       D          2.84763000  *   0.52252000  *   1.73199000  *
    15       C          3.49427000  *  -1.29826000  *   0.74480000  *
    16       H          4.55145000  *  -1.18730000  *   1.04584000  *
    17       H          3.50459000  *  -1.80825000  *  -0.23040000  *
    18       H          3.04441000  *  -1.99109000  *   1.47332000  *
    19       N          3.54254000  *   0.93088000  *  -0.23578000  *
    20       O          4.73738000  *   1.07220000  *  -0.03253000  *
    21       O          2.95902000  *   1.47957000  *  -1.15142000  *
    22       O          2.58941000  *   3.45965000  *   7.41931000  *
    23       H          2.89024000  *   2.66993000  *   7.71263000  *
    24       N         -1.52429000  *   2.39881000  *  -0.02955000  *
    25       O         -2.70108000  *   2.37641000  *  -0.35677000  *
    26       O         -0.95515000  *   3.42987000  *   0.29670000  *
    27       H          2.39957000  *   1.76825000  *   4.27873000  *
    28       H          2.91304000  *   2.35123000  *   5.58678000  *
    29       O          3.20087000  *   1.84688000  *   4.80336000  *


                                Isotopes Used

              Atom:   14  H  Default mass  1.0079,  mass used:  2.0140 amu


          CARTESIAN COORDINATES 

    NO.       ATOM           X           Y           Z

     1         C         -0.7746      1.1598     -0.0318
     2         C          0.5796      1.1783      0.3214
     3         C          1.3175     -0.0102      0.3063
     4         C          0.6915     -1.2041     -0.0486
     5         C         -0.6711     -1.2011     -0.3837
     6         C         -1.4239     -0.0254     -0.3873
     7         H          1.0520      2.1325      0.6076
     8         H          1.2466     -2.1551     -0.0657
     9         H         -2.4940     -0.0300     -0.6558
    10         N         -1.3112     -2.4502     -0.7365
    11         O         -2.4948     -2.4452     -1.0422
    12         O         -0.6479     -3.4772     -0.7184
    13         C          2.7702      0.0402      0.7078
    14         H          2.8476      0.5225      1.7320
    15         C          3.4943     -1.2983      0.7448
    16         H          4.5514     -1.1873      1.0458
    17         H          3.5046     -1.8083     -0.2304
    18         H          3.0444     -1.9911      1.4733
    19         N          3.5425      0.9309     -0.2358
    20         O          4.7374      1.0722     -0.0325
    21         O          2.9590      1.4796     -1.1514
    22         O          2.5894      3.4596      7.4193
    23         H          2.8902      2.6699      7.7126
    24         N         -1.5243      2.3988     -0.0296
    25         O         -2.7011      2.3764     -0.3568
    26         O         -0.9552      3.4299      0.2967
    27         H          2.3996      1.7683      4.2787
    28         H          2.9130      2.3512      5.5868
    29         O          3.2009      1.8469      4.8034

 General Reference for PM7:
 "Optimization of Parameters for Semiempirical Methods VI: More Modifications to the 
 NDDO Approximations and Re-optimization of Parameters", J. J. P. Stewart, J. Mol. Mod., 1:32, 19 (2013)
 https://link.springer.com/article/10.1007/s00894-012-1667-x

           Empirical Formula: C8 H10 N3 O8  =    29 atoms



      MOLECULAR POINT GROUP   :   C1  


 SINGLET STATE CALCULATION


      RHF CALCULATION, NO. OF DOUBLY OCCUPIED LEVELS = 53

  SCF CRITERION =    0.1000E-03


          HEAT OF FORMATION =    -216.393161 KCALS/MOLE


          CARTESIAN COORDINATE DERIVATIVES

   NUMBER  ATOM         X            Y            Z

     1       C     -0.136349     0.046410     0.122796
     2       C      0.102348     0.225288    -0.067277
     3       C     -0.432588    -0.513132    -0.282059
     4       C     -0.049680     0.123376     0.011600
     5       C     -0.522593    -0.014963    -0.081691
     6       C     -0.151873    -0.135538    -0.033909
     7       H     -0.844371    -0.360663     0.066257
     8       H     -0.515479     0.085504    -0.204355
     9       H     -0.131881    -0.505108    -0.150599
    10       N      0.630907    -0.147695    -0.218149
    11       O     -1.201377     0.422600     0.004667
    12       O     -0.078671     0.175114     0.084050
    13       C     -0.224894     0.590107    -0.426864
    14       H     -0.469614     0.663846     0.939908
    15       C      0.736589    -0.875402    -1.086753
    16       H      0.841700    -0.081388     0.662142
    17       H      0.283469    -0.337875     0.573200
    18       H      0.843270     0.598352     0.384483
    19       N     -0.798140    -0.887748     2.368896
    20       O      0.829503     0.563026    -0.778998
    21       O      1.807824     0.883155    -1.482202
    22       O     -0.127390    -3.475353    -4.095114
    23       H     -0.232744    -0.645609     0.531683
    24       N     -0.746291     0.334050     0.177514
    25       O     -0.140075    -0.042840     0.129050
    26       O      0.075399    -0.575138     0.038221
    27       H      0.450912    -0.097525    -1.411435
    28       H     -0.294187     1.831801     1.063333
    29       O      0.496343     2.153401     3.161658

 DIPOLE           X         Y         Z       TOTAL
 POINT-CHG.   -21.091    18.333    22.339    35.776
 HYBRID        -0.681     0.028     0.326     0.755
 SUM          -21.771    18.360    22.665    36.397


          GRADIENT NORM =   8.90601


                              **** WARNING ****

           GRADIENT IS VERY LARGE FOR A THERMO CALCULATION
           RESULTS ARE LIKELY TO BE INACCURATE IF THERE ARE
           ANY LOW-LYING VIBRATIONS (LESS THAN ABOUT 400CM-1)
           GRADIENT NORM SHOULD BE LESS THAN ABOUT 1.1 FOR THERMO
           TO GIVE ACCURATE RESULTS


          TIME FOR SCF CALCULATION =    0.09

          TIME FOR DERIVATIVES     =    0.04

          MOLECULAR WEIGHT =  277.19



          ROTATIONAL CONSTANTS IN CM(-1)

          A =    0.01029116   B =    0.00588050   C =    0.00503739



           PRINCIPAL MOMENTS OF INERTIA IN UNITS OF 10**(-40)*GRAM-CM**2

          A =     2720.0769   B =     4760.2670   C =     5556.9978


          ORIENTATION OF MOLECULE IN FORCE CALCULATION

    NO.       ATOM         X         Y         Z

     1          C      -1.6504   -0.6894    0.3586
     2          C      -0.2508   -0.6894    0.3586
     3          C       0.4437    0.5252    0.3586
     4          C      -0.2674    1.7241    0.3457
     5          C      -1.6703    1.6996    0.3299
     6          C      -2.3840    0.4998    0.3419
     7          H       0.2912   -1.6495    0.3597
     8          H       0.2528    2.6948    0.3417
     9          H      -3.4872    0.4882    0.3335
    10          N      -2.3952    2.9519    0.3022
    11          O      -3.6175    2.9305    0.3029
    12          O      -1.7624    3.9979    0.2789
    13          C       1.9512    0.4915    0.3421
    14          H       2.2909   -0.1404   -0.5370
    15          C       2.6434    1.8450    0.2642
    16          H       3.7437    1.7459    0.2559
    17          H       2.4005    2.5013    1.1136
    18          H       2.3828    2.3896   -0.6570
    19          N       2.4721   -0.1970    1.5809
    20          O       3.6814   -0.3032    1.7051
    21          O       1.6838   -0.6263    2.4020
    22          O       3.5152   -3.9421   -5.5458
    23          H       3.8698   -3.1929   -5.8822
    24          N      -2.3588   -1.9523    0.3763
    25          O      -3.5802   -1.9429    0.3947
    26          O      -1.7121   -2.9893    0.3757
    27          H       2.5166   -1.7923   -2.8734
    28          H       3.3512   -2.5443   -3.8993
    29          O       3.4253   -1.9085   -3.1636


    FIRST DERIVATIVES WILL BE USED IN THE CALCULATION OF SECOND DERIVATIVES

          ESTIMATED TIME TO COMPLETE CALCULATION =       23.11 SECONDS

    FOR POINT-GROUP C1   THERE ARE   1 UNIQUE SYMMETRY FUNCTIONS.

 STEP:   1 TIME =     0.10 SECS, INTEGRAL =      0.10 TIME LEFT:1209599.77
 STEP:   2 TIME =     0.10 SECS, INTEGRAL =      0.20 TIME LEFT:1209599.66
 STEP:   3 TIME =     0.10 SECS, INTEGRAL =      0.30 TIME LEFT:1209599.56
 STEP:   4 TIME =     0.09 SECS, INTEGRAL =      0.40 TIME LEFT:1209599.47
 STEP:   5 TIME =     0.10 SECS, INTEGRAL =      0.50 TIME LEFT:1209599.37
 STEP:   6 TIME =     0.10 SECS, INTEGRAL =      0.60 TIME LEFT:1209599.27
 STEP:   7 TIME =     0.10 SECS, INTEGRAL =      0.70 TIME LEFT:1209599.16
 STEP:   8 TIME =     0.09 SECS, INTEGRAL =      0.80 TIME LEFT:1209599.07
 STEP:   9 TIME =     0.10 SECS, INTEGRAL =      0.90 TIME LEFT:1209598.97
 STEP:  10 TIME =     0.10 SECS, INTEGRAL =      1.00 TIME LEFT:1209598.87
 STEP:  11 TIME =     0.10 SECS, INTEGRAL =      1.10 TIME LEFT:1209598.77
 STEP:  12 TIME =     0.10 SECS, INTEGRAL =      1.20 TIME LEFT:1209598.66
 STEP:  13 TIME =     0.09 SECS, INTEGRAL =      1.30 TIME LEFT:1209598.57
 STEP:  14 TIME =     0.10 SECS, INTEGRAL =      1.40 TIME LEFT:1209598.47
 STEP:  15 TIME =     0.10 SECS, INTEGRAL =      1.50 TIME LEFT:1209598.37
 STEP:  16 TIME =     0.10 SECS, INTEGRAL =      1.60 TIME LEFT:1209598.27
 STEP:  17 TIME =     0.09 SECS, INTEGRAL =      1.70 TIME LEFT:1209598.17
 STEP:  18 TIME =     0.10 SECS, INTEGRAL =      1.80 TIME LEFT:1209598.07
 STEP:  19 TIME =     0.10 SECS, INTEGRAL =      1.90 TIME LEFT:1209597.97
 STEP:  20 TIME =     0.10 SECS, INTEGRAL =      2.00 TIME LEFT:1209597.87
 STEP:  21 TIME =     0.09 SECS, INTEGRAL =      2.09 TIME LEFT:1209597.77
 STEP:  22 TIME =     0.14 SECS, INTEGRAL =      2.23 TIME LEFT:1209597.63
 STEP:  23 TIME =     0.12 SECS, INTEGRAL =      2.36 TIME LEFT:1209597.51
 STEP:  24 TIME =     0.10 SECS, INTEGRAL =      2.46 TIME LEFT:1209597.41
 STEP:  25 TIME =     0.09 SECS, INTEGRAL =      2.55 TIME LEFT:1209597.31
 STEP:  26 TIME =     0.10 SECS, INTEGRAL =      2.66 TIME LEFT:1209597.21
 STEP:  27 TIME =     0.09 SECS, INTEGRAL =      2.75 TIME LEFT:1209597.12
 STEP:  28 TIME =     0.10 SECS, INTEGRAL =      2.85 TIME LEFT:1209597.02
 STEP:  29 TIME =     0.09 SECS, INTEGRAL =      2.95 TIME LEFT:1209596.92
 STEP:  30 TIME =     0.10 SECS, INTEGRAL =      3.05 TIME LEFT:1209596.82
 STEP:  31 TIME =     0.10 SECS, INTEGRAL =      3.15 TIME LEFT:1209596.72
 STEP:  32 TIME =     0.09 SECS, INTEGRAL =      3.24 TIME LEFT:1209596.62
 STEP:  33 TIME =     0.10 SECS, INTEGRAL =      3.34 TIME LEFT:1209596.52
 STEP:  34 TIME =     0.09 SECS, INTEGRAL =      3.44 TIME LEFT:1209596.43
 STEP:  35 TIME =     0.10 SECS, INTEGRAL =      3.54 TIME LEFT:1209596.33
 STEP:  36 TIME =     0.10 SECS, INTEGRAL =      3.64 TIME LEFT:1209596.23
 STEP:  37 TIME =     0.09 SECS, INTEGRAL =      3.73 TIME LEFT:1209596.13
 STEP:  38 TIME =     0.10 SECS, INTEGRAL =      3.84 TIME LEFT:1209596.03
 STEP:  39 TIME =     0.09 SECS, INTEGRAL =      3.93 TIME LEFT:1209595.94
 STEP:  40 TIME =     0.10 SECS, INTEGRAL =      4.03 TIME LEFT:1209595.84
 STEP:  41 TIME =     0.09 SECS, INTEGRAL =      4.12 TIME LEFT:1209595.74
 STEP:  42 TIME =     0.12 SECS, INTEGRAL =      4.25 TIME LEFT:1209595.62
 STEP:  43 TIME =     0.12 SECS, INTEGRAL =      4.37 TIME LEFT:1209595.50
 STEP:  44 TIME =     0.10 SECS, INTEGRAL =      4.47 TIME LEFT:1209595.40
 STEP:  45 TIME =     0.09 SECS, INTEGRAL =      4.56 TIME LEFT:1209595.30
 STEP:  46 TIME =     0.10 SECS, INTEGRAL =      4.66 TIME LEFT:1209595.20
 STEP:  47 TIME =     0.09 SECS, INTEGRAL =      4.76 TIME LEFT:1209595.11
 STEP:  48 TIME =     0.10 SECS, INTEGRAL =      4.86 TIME LEFT:1209595.01
 STEP:  49 TIME =     0.10 SECS, INTEGRAL =      4.96 TIME LEFT:1209594.91
 STEP:  50 TIME =     0.09 SECS, INTEGRAL =      5.05 TIME LEFT:1209594.81
 STEP:  51 TIME =     0.10 SECS, INTEGRAL =      5.16 TIME LEFT:1209594.71
 STEP:  52 TIME =     0.09 SECS, INTEGRAL =      5.25 TIME LEFT:1209594.62
 STEP:  53 TIME =     0.12 SECS, INTEGRAL =      5.38 TIME LEFT:1209594.49
 STEP:  54 TIME =     0.09 SECS, INTEGRAL =      5.47 TIME LEFT:1209594.40
 STEP:  55 TIME =     0.10 SECS, INTEGRAL =      5.57 TIME LEFT:1209594.30
 STEP:  56 TIME =     0.09 SECS, INTEGRAL =      5.66 TIME LEFT:1209594.20
 STEP:  57 TIME =     0.54 SECS, INTEGRAL =      6.20 TIME LEFT:1209593.66
 STEP:  58 TIME =     0.70 SECS, INTEGRAL =      6.90 TIME LEFT:1209592.97
 STEP:  59 TIME =     0.68 SECS, INTEGRAL =      7.58 TIME LEFT:1209592.29
 STEP:  60 TIME =     0.51 SECS, INTEGRAL =      8.09 TIME LEFT:1209591.78
 STEP:  61 TIME =     0.17 SECS, INTEGRAL =      8.26 TIME LEFT:1209591.61
 STEP:  62 TIME =     0.55 SECS, INTEGRAL =      8.81 TIME LEFT:1209591.05
 STEP:  63 TIME =     0.88 SECS, INTEGRAL =      9.70 TIME LEFT:1209590.17
 STEP:  64 TIME =     1.44 SECS, INTEGRAL =     11.13 TIME LEFT:1209588.73
 STEP:  65 TIME =     0.53 SECS, INTEGRAL =     11.66 TIME LEFT:1209588.20
 STEP:  66 TIME =     0.10 SECS, INTEGRAL =     11.77 TIME LEFT:1209588.10
 STEP:  67 TIME =     0.10 SECS, INTEGRAL =     11.87 TIME LEFT:1209588.00
 STEP:  68 TIME =     0.09 SECS, INTEGRAL =     11.96 TIME LEFT:1209587.91
 STEP:  69 TIME =     0.10 SECS, INTEGRAL =     12.06 TIME LEFT:1209587.80
 STEP:  70 TIME =     0.10 SECS, INTEGRAL =     12.16 TIME LEFT:1209587.70
 STEP:  71 TIME =     0.10 SECS, INTEGRAL =     12.27 TIME LEFT:1209587.60
 STEP:  72 TIME =     0.09 SECS, INTEGRAL =     12.36 TIME LEFT:1209587.51
 STEP:  73 TIME =     0.10 SECS, INTEGRAL =     12.46 TIME LEFT:1209587.41
 STEP:  74 TIME =     0.10 SECS, INTEGRAL =     12.56 TIME LEFT:1209587.30
 STEP:  75 TIME =     0.10 SECS, INTEGRAL =     12.66 TIME LEFT:1209587.20
 STEP:  76 TIME =     0.09 SECS, INTEGRAL =     12.76 TIME LEFT:1209587.11
 STEP:  77 TIME =     0.10 SECS, INTEGRAL =     12.86 TIME LEFT:1209587.01
 STEP:  78 TIME =     0.10 SECS, INTEGRAL =     12.96 TIME LEFT:1209586.91
 STEP:  79 TIME =     0.09 SECS, INTEGRAL =     13.05 TIME LEFT:1209586.81
 STEP:  80 TIME =     0.10 SECS, INTEGRAL =     13.16 TIME LEFT:1209586.71
 STEP:  81 TIME =     0.10 SECS, INTEGRAL =     13.26 TIME LEFT:1209586.61
 STEP:  82 TIME =     0.10 SECS, INTEGRAL =     13.36 TIME LEFT:1209586.51
 STEP:  83 TIME =     0.09 SECS, INTEGRAL =     13.45 TIME LEFT:1209586.41
 STEP:  84 TIME =     0.10 SECS, INTEGRAL =     13.55 TIME LEFT:1209586.31
 STEP:  85 TIME =     0.10 SECS, INTEGRAL =     13.66 TIME LEFT:1209586.21
 STEP:  86 TIME =     0.09 SECS, INTEGRAL =     13.75 TIME LEFT:1209586.12
 STEP:  87 TIME =     0.10 SECS, INTEGRAL =     13.85 TIME LEFT:1209586.02

(To convert to Hartree/Bohr^2, multiply by (10^(-21) x N x a0^2)/(4.184 x 627.51) =  0.0642)


           FORCE MATRIX IN MILLIDYNES/ANGSTROM


                  C  1       C  2       C  3       C  4       C  5       C  6
 ------------------------------------------------------------------------------
     C    1  15.989081
     C    2   5.714864  14.998387
     C    3   1.811297   5.898025  15.687713
     C    4   1.145608   1.893159   6.048476  14.979898
     C    5   1.830949   1.042105   1.767423   5.605045  16.060417
     C    6   5.849942   1.766269   1.095161   1.772856   5.958459  15.272988
     H    7   0.728861   3.314681   0.682758   0.085922   0.033661   0.075975
     H    8   0.028436   0.087786   0.748822   3.321181   0.651120   0.068099
     H    9   0.699320   0.076313   0.009067   0.076878   0.693269   3.256679
     N   10   0.177191   0.022881   0.193593   1.146650   3.286315   1.145911
     O   11   0.027027   0.012348   0.069959   0.106734   1.454837   0.094802
     O   12   0.053020   0.012426   0.044862   0.092306   1.479848   0.111138
     C   13   0.089522   0.776888   3.191041   0.727697   0.088283   0.006293
     H   14   0.012685   0.037648   0.713438   0.023810   0.018319   0.004299
     C   15   0.018803   0.037727   0.629703   0.059735   0.021152   0.003071
     H   16   0.002126   0.007564   0.044270   0.004712   0.004211   0.000793
     H   17   0.003643   0.002909   0.009626   0.022842   0.007411   0.001100
     H   18   0.004396   0.003291   0.013992   0.020446   0.016523   0.001406
     N   19   0.047575   0.082602   0.821618   0.048984   0.027422   0.009348
     O   20   0.023199   0.016233   0.106711   0.011736   0.016670   0.003733
     O   21   0.025488   0.038175   0.101034   0.023028   0.018062   0.006369
     O   22   0.001787   0.001276   0.001211   0.001419   0.001342   0.001663
     H   23   0.000670   0.000350   0.000374   0.000349   0.000511   0.000441
     N   24   3.166021   1.158762   0.166492   0.013899   0.191179   1.152724
     O   25   1.459215   0.108725   0.044928   0.013937   0.036003   0.085136
     O   26   1.458193   0.091153   0.026379   0.011210   0.060682   0.105902
     H   27   0.004876   0.005599   0.025964   0.005916   0.002646   0.002208
     H   28   0.001101   0.001243   0.001815   0.000813   0.000750   0.000764
     O   29   0.001094   0.003160   0.004323   0.002067   0.001789   0.001519


                  H  7       H  8       H  9       N 10       O 11       O 12
 ------------------------------------------------------------------------------
     H    7   4.153231
     H    8   0.012000   4.215178
     H    9   0.010812   0.010347   4.116913
     N   10   0.041513   0.159070   0.137763  18.955132
     O   11   0.011012   0.050124   0.067207   9.273934  12.151921
     O   12   0.011063   0.076409   0.038033   9.236521   2.616326  12.090093
     C   13   0.037625   0.032422   0.011201   0.031333   0.009016   0.018702
     H   14   0.014808   0.005722   0.003312   0.010897   0.003965   0.003473
     C   15   0.008870   0.068811   0.004828   0.025939   0.009471   0.008061
     H   16   0.001857   0.002025   0.000846   0.005186   0.001804   0.002772
     H   17   0.001511   0.022609   0.001559   0.009200   0.003476   0.003315
     H   18   0.001987   0.020649   0.001928   0.010497   0.004022   0.003758
     N   19   0.054628   0.017521   0.010038   0.046133   0.015085   0.015830
     O   20   0.015320   0.010166   0.006523   0.027095   0.009671   0.008994
     O   21   0.019770   0.008135   0.005571   0.025183   0.008200   0.007733
     O   22   0.001865   0.001052   0.000957   0.001263   0.000645   0.000798
     H   23   0.000584   0.000379   0.000152   0.000677   0.000220   0.000373
     N   24   0.114921   0.040349   0.110640   0.159304   0.054368   0.056556
     O   25   0.025617   0.011788   0.044734   0.053215   0.019058   0.019960
     O   26   0.048064   0.011020   0.026268   0.057155   0.020698   0.020836
     H   27   0.003283   0.001766   0.001645   0.003921   0.002107   0.002176
     H   28   0.000418   0.000434   0.000658   0.000869   0.000640   0.000416
     O   29   0.002345   0.000966   0.001155   0.001348   0.000980   0.001040


                  C 13       H 14       C 15       H 16       H 17       H 18
 ------------------------------------------------------------------------------
     C   13  11.882287
     H   14   2.962156   4.055298
     C   15   2.874671   0.670680  10.952805
     H   16   0.693171   0.022905   3.286040   4.089069
     H   17   0.684308   0.042215   3.341986   0.455468   4.129248
     H   18   0.680569   0.020692   3.319008   0.449297   0.446936   4.115861
     N   19   2.386535   0.865033   0.806480   0.102884   0.057958   0.074027
     O   20   1.057626   0.071395   0.096336   0.027957   0.015216   0.016168
     O   21   1.021567   0.085050   0.106195   0.025631   0.017735   0.018223
     O   22   0.003861   0.001320   0.002402   0.001390   0.001386   0.001401
     H   23   0.000383   0.000388   0.000769   0.000445   0.000285   0.000520
     N   24   0.022564   0.016044   0.023024   0.002608   0.005627   0.006823
     O   25   0.006972   0.005128   0.009287   0.000912   0.002417   0.002939
     O   26   0.007233   0.006193   0.008596   0.001302   0.002031   0.002300
     H   27   0.020157   0.017758   0.004008   0.001598   0.000769   0.002834
     H   28   0.001332   0.003579   0.001831   0.000490   0.000620   0.000501
     O   29   0.003830   0.003241   0.003403   0.001280   0.002128   0.000745


                  N 19       O 20       O 21       O 22       H 23       N 24
 ------------------------------------------------------------------------------
     N   19  18.996707
     O   20   9.554136  12.222655
     O   21   9.781982   2.671102  12.367216
     O   22   0.007036   0.001947   0.005563   4.321086
     H   23   0.001749   0.000750   0.000902   4.285663   4.279039
     N   24   0.062558   0.034859   0.030258   0.003582   0.002406  18.920071
     O   25   0.020570   0.012274   0.009010   0.001148   0.000589   9.289446
     O   26   0.021132   0.011752   0.009510   0.001820   0.001002   9.213185
     H   27   0.011555   0.006937   0.007227   0.099371   0.055523   0.016929
     H   28   0.003675   0.002661   0.001768   0.703778   0.197878   0.001728
     O   29   0.005409   0.005073   0.002696   0.582491   0.156223   0.005295


                  O 25       O 26       H 27       H 28       O 29
 ------------------------------------------------------------------
     O   25  12.189286
     O   26   2.594704  12.084780
     H   27   0.003711   0.016107   4.391164
     H   28   0.001134   0.000954   0.699595   4.228223
     O   29   0.002356   0.001704   4.021162   4.489920   6.886514


          HEAT OF FORMATION =    -216.393161 KCALS/MOLE


          TRIVIAL VIBRATIONS, SHOULD BE ZERO

 -44.9300=TX  12.0274=TY  14.0263=TZ -44.3313=RX -49.6804=RY  12.8906=RZ


      MOLECULAR POINT GROUP   :   C1  


           EIGENVECTORS  


   Root No.       1         2         3         4         5         6         7         8

                 1 A       2 A       3 A       4 A       5 A       6 A       7 A       8 A   

                  -0.5      -0.2      -0.1      -0.0      -0.0      -0.0      -0.0      -0.0
  
           1    0.0092   -0.0174   -0.0289    0.0027   -0.0094   -0.0031   -0.0495    0.0089
           2   -0.0098    0.0059    0.0215   -0.0246   -0.0025    0.0127    0.0188   -0.0363
           3   -0.0162    0.0156    0.0336   -0.0329    0.0049   -0.0550    0.0595   -0.0465
           4    0.0092   -0.0172   -0.0287    0.0022   -0.0096   -0.0033   -0.0491    0.0087
           5   -0.0087   -0.0010    0.0189   -0.0260   -0.0103    0.0167   -0.0026   -0.0404
           6   -0.0099    0.0131    0.0271   -0.0118    0.0102   -0.0597    0.0089   -0.0422
           7    0.0081   -0.0119   -0.0281    0.0039   -0.0035   -0.0062   -0.0321    0.0134
           8   -0.0082   -0.0044    0.0183   -0.0280   -0.0132    0.0189   -0.0132   -0.0429
           9   -0.0069    0.0052    0.0262    0.0026   -0.0115   -0.0522   -0.0062   -0.0499
          10    0.0073   -0.0061   -0.0265    0.0066    0.0033   -0.0102   -0.0140    0.0185
          11   -0.0086   -0.0010    0.0192   -0.0260   -0.0094    0.0168   -0.0015   -0.0401
          12   -0.0095   -0.0030    0.0256    0.0080   -0.0281   -0.0064    0.0137   -0.0524
          13    0.0073   -0.0061   -0.0265    0.0069    0.0035   -0.0112   -0.0140    0.0184
          14   -0.0097    0.0057    0.0213   -0.0235   -0.0016    0.0144    0.0193   -0.0356
          15   -0.0158   -0.0014    0.0352    0.0050   -0.0524    0.0243    0.0537   -0.0650
          16    0.0083   -0.0118   -0.0277    0.0050   -0.0013   -0.0056   -0.0319    0.0141
          17   -0.0102    0.0090    0.0216   -0.0222    0.0021    0.0112    0.0293   -0.0322
          18   -0.0170    0.0082    0.0382   -0.0176   -0.0589   -0.0283    0.0878   -0.0640
          19    0.0099   -0.0222   -0.0306    0.0012   -0.0146   -0.0012   -0.0633    0.0062
          20   -0.0084   -0.0034    0.0180   -0.0251   -0.0132    0.0180   -0.0107   -0.0420
          21   -0.0077    0.0171    0.0216   -0.0054    0.0323   -0.0649   -0.0205   -0.0319
          22    0.0061   -0.0013   -0.0251    0.0111    0.0094   -0.0049   -0.0016    0.0225
          23   -0.0079   -0.0036    0.0178   -0.0278   -0.0126    0.0129   -0.0082   -0.0414
          24   -0.0074   -0.0098    0.0179    0.0159   -0.0190    0.0067   -0.0023   -0.0429
          25    0.0084   -0.0117   -0.0273    0.0046   -0.0012   -0.0060   -0.0310    0.0135
          26   -0.0106    0.0138    0.0225   -0.0198    0.0073    0.0092    0.0444   -0.0276
          27   -0.0201    0.0094    0.0412   -0.0230   -0.0986   -0.0408    0.1324   -0.0733
          28    0.0066   -0.0000   -0.0254    0.0088    0.0084   -0.0224    0.0042    0.0236
          29   -0.0101    0.0089    0.0212   -0.0209    0.0019    0.0106    0.0287   -0.0318
          30   -0.0168   -0.0089    0.0265    0.0295   -0.0216    0.1631    0.0057   -0.0488
          31    0.0064   -0.0001   -0.0252    0.0090    0.0079   -0.0224    0.0044    0.0231
          32   -0.0103    0.0147    0.0217   -0.0198    0.0041   -0.0084    0.0479   -0.0263
          33   -0.0173   -0.0016    0.0207   -0.0186   -0.1056   -0.2961    0.1894   -0.0339
          34    0.0058    0.0051   -0.0249    0.0112    0.0111   -0.0353    0.0211    0.0278
          35   -0.0095    0.0056    0.0209   -0.0209    0.0031    0.0329    0.0127   -0.0344
          36   -0.0132   -0.0217    0.0147    0.1031    0.1270    0.8009   -0.2709   -0.0304
          37    0.0086   -0.0115   -0.0273    0.0038   -0.0029   -0.0047   -0.0334    0.0129
          38   -0.0062   -0.0100    0.0187   -0.0342   -0.0161    0.0208   -0.0337   -0.0483
          39   -0.0033   -0.0029    0.0113    0.0278    0.0033   -0.0687   -0.0554   -0.0368
          40    0.0110   -0.0220   -0.0401    0.0230    0.0049   -0.0143   -0.0708    0.0210
          41   -0.0055   -0.0146    0.0224   -0.0954   -0.0137    0.0120   -0.0489   -0.0641
          42   -0.0033   -0.0046    0.0035    0.0831    0.0053   -0.0657   -0.0583   -0.0206
          43    0.0074   -0.0048   -0.0244    0.0146    0.0011   -0.0074   -0.0136    0.0174
          44   -0.0059   -0.0140    0.0167   -0.0404   -0.0165    0.0200   -0.0451   -0.0511
          45   -0.0009   -0.0113    0.0105   -0.0363    0.0183   -0.0883   -0.0886   -0.0522
          46    0.0075   -0.0055   -0.0246    0.0132    0.0010   -0.0080   -0.0163    0.0165
          47   -0.0046   -0.0209    0.0136   -0.0523   -0.0182    0.0179   -0.0687   -0.0576
          48    0.0034   -0.0140    0.0079   -0.0535    0.0366   -0.1296   -0.1729   -0.0819
          49    0.0046    0.0014   -0.0210    0.0344   -0.0120    0.0240    0.0613    0.0430
          50   -0.0061   -0.0091    0.0171   -0.0072   -0.0188    0.0180   -0.0516   -0.0515
          51   -0.0017   -0.0133    0.0108   -0.0547    0.0167   -0.0778   -0.0618   -0.0442
          52    0.0098   -0.0045   -0.0251   -0.0008    0.0171   -0.0404   -0.0699   -0.0044
          53   -0.0054   -0.0177    0.0166   -0.0684   -0.0126    0.0231   -0.0258   -0.0455
          54   -0.0012   -0.0134    0.0107   -0.0481    0.0162   -0.0771   -0.0609   -0.0428
          55    0.0049   -0.0106   -0.0204   -0.0252   -0.0183    0.0044   -0.0047    0.0009
          56   -0.0061   -0.0086    0.0129    0.1118   -0.0099    0.0270   -0.0178   -0.0232
          57   -0.0012   -0.0027    0.0051    0.1235    0.0135   -0.0683   -0.0574   -0.0169
          58    0.0047   -0.0108   -0.0200   -0.0389   -0.0216    0.0064   -0.0033   -0.0011
          59   -0.0046   -0.0102    0.0111   -0.2887   -0.0731    0.0698   -0.0588   -0.0503
          60    0.0034   -0.0024    0.0008   -0.0679   -0.0062   -0.0527   -0.1057   -0.0210
          61    0.0027   -0.0107   -0.0173   -0.0321   -0.0269    0.0081    0.0142   -0.0066
          62   -0.0096   -0.0056    0.0124    0.7535    0.0773   -0.0200    0.0547    0.0300
          63   -0.0055   -0.0009    0.0083    0.4500    0.0508   -0.0893   -0.0015    0.0030
          64   -0.3974   -0.1782    0.2087   -0.0090    0.1002    0.0700    0.2243   -0.3043
          65    0.4550   -0.0720    0.0531    0.0145    0.0774   -0.0224    0.2651    0.0860
          66    0.6549   -0.2951    0.1112   -0.0500   -0.0773    0.0688   -0.0534    0.1303
          67    0.0731   -0.0721   -0.2383    0.0075    0.0906   -0.0415    0.0123   -0.4640
          68   -0.0831    0.0432    0.1698    0.0069    0.0671   -0.0168    0.2400    0.1690
          69   -0.0661    0.0591   -0.1149   -0.0487   -0.1099   -0.0344   -0.3250    0.1337
          70    0.0098   -0.0218   -0.0289   -0.0018   -0.0260   -0.0029   -0.0669    0.0008
          71   -0.0100    0.0084    0.0210   -0.0226    0.0079    0.0130    0.0277   -0.0303
          72   -0.0159    0.0189    0.0093   -0.0567    0.1138   -0.0432    0.0521   -0.0067
          73    0.0099   -0.0221   -0.0284   -0.0006   -0.0334   -0.0025   -0.0671   -0.0006
          74   -0.0107    0.0131    0.0197   -0.0176    0.0287    0.0133    0.0423   -0.0204
          75   -0.0183    0.0179    0.0594    0.0065   -0.3477   -0.0191    0.0263   -0.1030
          76    0.0108   -0.0262   -0.0299   -0.0057   -0.0392   -0.0031   -0.0815   -0.0061
          77   -0.0097    0.0060    0.0205   -0.0250    0.0007    0.0127    0.0187   -0.0346
          78   -0.0149    0.0227   -0.0972   -0.1730    0.8345   -0.0605    0.0761    0.1465
          79   -0.0330    0.0536    0.5038   -0.0231    0.0169   -0.0173   -0.0186    0.2135
          80   -0.2140   -0.3556   -0.0544    0.0006   -0.0432   -0.1529   -0.2436    0.5090
          81   -0.0168    0.1755    0.1749   -0.0482   -0.0505    0.0740    0.0802    0.0807
          82    0.2372    0.4147   -0.1428   -0.0108   -0.0458    0.1362    0.3088    0.0558
          83   -0.0336   -0.1451   -0.4342    0.0234   -0.0034   -0.0726    0.0296    0.0314
          84   -0.2332    0.3251   -0.1511   -0.0537   -0.1387    0.1390    0.1420    0.2722
          85   -0.0640    0.0322    0.3010   -0.0218   -0.0095    0.0249    0.0817    0.2065
          86    0.0722    0.5625   -0.1797    0.0255    0.0106   -0.1285   -0.2490    0.0826
          87   -0.1218   -0.2808   -0.3891   -0.0550   -0.1576    0.2015    0.4129    0.2407


   Root No.       9        10        11        12        13        14        15        16

                 9 A      10 A      11 A      12 A      13 A      14 A      15 A      16 A   

                  -0.0       0.0       0.0       0.0       0.0       0.0       0.1       0.1
  
           1    0.0627   -0.0267   -0.0195   -0.0195    0.0278   -0.0347   -0.0033    0.0131
           2   -0.0126    0.0097   -0.0065   -0.0001   -0.0091   -0.0093   -0.0172    0.0563
           3   -0.0695    0.0354    0.1121    0.1039   -0.0569    0.0074   -0.0185    0.0306
           4    0.0627   -0.0258   -0.0190   -0.0186    0.0274   -0.0327   -0.0025    0.0054
           5    0.0162   -0.0051   -0.0275   -0.0109    0.0034   -0.0385   -0.0350    0.1266
           6   -0.0479   -0.1156    0.1680    0.1154   -0.0587    0.1639   -0.0330    0.1065
           7    0.0381   -0.0144    0.0002   -0.0096    0.0165   -0.0117    0.0117   -0.0348
           8    0.0304   -0.0130   -0.0383   -0.0161    0.0096   -0.0500   -0.0438    0.1540
           9   -0.0333   -0.1358    0.0666   -0.0082   -0.0275    0.1760   -0.0478    0.0968
          10    0.0112   -0.0047    0.0161   -0.0053    0.0069    0.0046    0.0250   -0.0715
          11    0.0143   -0.0053   -0.0300   -0.0143    0.0039   -0.0385   -0.0355    0.1299
          12   -0.0519   -0.0735   -0.0624   -0.1105    0.0008    0.1793   -0.0407    0.1106
          13    0.0119   -0.0053    0.0159   -0.0053    0.0070    0.0074    0.0254   -0.0782
          14   -0.0142    0.0102   -0.0102   -0.0056   -0.0081   -0.0085   -0.0174    0.0572
          15   -0.0750    0.0693   -0.1053   -0.1262    0.0016    0.0765   -0.0215    0.0401
          16    0.0364   -0.0165   -0.0024   -0.0138    0.0174   -0.0128    0.0105   -0.0307
          17   -0.0280    0.0167    0.0013    0.0010   -0.0144    0.0046   -0.0080    0.0247
          18   -0.0815    0.1511   -0.0351   -0.0308   -0.0254   -0.0588   -0.0084   -0.0426
          19    0.0811   -0.0381   -0.0339   -0.0292    0.0365   -0.0508   -0.0160    0.0514
          20    0.0270   -0.0122   -0.0361   -0.0167    0.0088   -0.0481   -0.0422    0.1520
          21   -0.0369   -0.2039    0.2858    0.2151   -0.0816    0.2434   -0.0310    0.1615
          22   -0.0120    0.0042    0.0284    0.0009   -0.0012    0.0094    0.0361   -0.1066
          23    0.0269   -0.0099   -0.0362   -0.0179    0.0083   -0.0402   -0.0407    0.1454
          24   -0.0435   -0.1258   -0.1283   -0.1780    0.0239    0.2383   -0.0484    0.1654
          25    0.0359   -0.0156   -0.0038   -0.0150    0.0175   -0.0126    0.0104   -0.0312
          26   -0.0502    0.0263    0.0194    0.0102   -0.0242    0.0257    0.0060   -0.0247
          27   -0.0905    0.3090   -0.0970   -0.0618   -0.0200   -0.2338    0.0107   -0.1766
          28   -0.0087    0.0048    0.0352    0.0078   -0.0027    0.0396    0.0463   -0.1890
          29   -0.0254    0.0169   -0.0001    0.0010   -0.0131    0.0096   -0.0046   -0.0074
          30   -0.0545    0.1033   -0.1401   -0.1571    0.0219    0.0442   -0.0062    0.0042
          31   -0.0085    0.0056    0.0338    0.0068   -0.0025    0.0391    0.0461   -0.1895
          32   -0.0422    0.0267    0.0160    0.0129   -0.0210    0.0393    0.0167   -0.1229
          33   -0.0243    0.1272   -0.2903   -0.2794    0.0677    0.0708    0.0105   -0.0043
          34   -0.0252    0.0154    0.0493    0.0177   -0.0104    0.0676    0.0661   -0.2994
          35   -0.0152    0.0103   -0.0045   -0.0012   -0.0095   -0.0092   -0.0164    0.0565
          36   -0.0473    0.0640    0.0758    0.0298   -0.0235   -0.0307   -0.0056   -0.0385
          37    0.0408   -0.0136    0.0008   -0.0084    0.0172   -0.0103    0.0119   -0.0383
          38    0.0728   -0.0209   -0.0588   -0.0001    0.0198   -0.0102   -0.0426    0.0367
          39    0.0219   -0.1325    0.0755   -0.0608   -0.0152    0.0200   -0.0656   -0.0077
          40    0.0971    0.0092   -0.0113   -0.0364    0.0292   -0.1012    0.0054   -0.2039
          41    0.1569    0.0259   -0.1439    0.1339    0.0028    0.0387   -0.0304    0.0168
          42   -0.0155   -0.1515    0.1284   -0.1639    0.0014   -0.0509   -0.0749   -0.0651
          43   -0.0014   -0.0151    0.0076   -0.0274    0.0117   -0.1031    0.0020    0.1699
          44    0.1037   -0.0129   -0.0719    0.0247    0.0202    0.0398   -0.0352   -0.0808
          45    0.1712   -0.0228   -0.0636    0.1279   -0.0391   -0.0364   -0.0527   -0.0375
          46    0.0064   -0.0080    0.0108   -0.0278    0.0125   -0.0944    0.0028    0.1594
          47    0.1656    0.0258   -0.0579    0.0361    0.0253    0.1449   -0.0231   -0.2827
          48    0.4458    0.3811    0.1726    0.0039   -0.0089    0.0995   -0.0377    0.0396
          49   -0.2396   -0.3257   -0.1570    0.0378   -0.0107   -0.2563   -0.0166    0.2365
          50    0.1017    0.0605    0.0987   -0.1434    0.0458    0.1028   -0.0418    0.0156
          51    0.1046   -0.1679   -0.2430    0.2775   -0.0656   -0.1284   -0.0524   -0.0989
          52    0.1957    0.2918    0.1769   -0.1124    0.0308   -0.0492    0.0082    0.3349
          53    0.0748   -0.1108   -0.2651    0.2022   -0.0111   -0.0818   -0.0334   -0.0957
          54    0.0980   -0.1678   -0.2265    0.2574   -0.0630   -0.1248   -0.0534   -0.0908
          55    0.0094   -0.0516   -0.0012    0.0594    0.0024    0.2155    0.0284   -0.0285
          56    0.0013   -0.0686    0.0189   -0.1239    0.0440   -0.0104   -0.0410   -0.0938
          57   -0.0033   -0.1356    0.1161   -0.1577    0.0052   -0.0864   -0.0714   -0.0773
          58    0.0045   -0.0594    0.0025    0.0615    0.0012    0.2416    0.0294   -0.0339
          59   -0.0906   -0.1993    0.1547   -0.3037    0.0602    0.0130   -0.0680   -0.2350
          60   -0.0289   -0.1703    0.1963   -0.3291    0.0310   -0.3025   -0.1027   -0.1556
          61   -0.0063   -0.0773   -0.0043    0.1124   -0.0091    0.3793    0.0397   -0.0267
          62    0.0639    0.0661   -0.1130    0.0382    0.0381   -0.0143    0.0053   -0.0486
          63    0.0136   -0.0914    0.0455   -0.0235   -0.0090    0.0665   -0.0371   -0.0512
          64   -0.0975    0.0624   -0.0272   -0.0669   -0.3823   -0.0097    0.2787    0.0207
          65   -0.0713    0.0128    0.1969    0.0990    0.2150   -0.0425   -0.0093   -0.0071
          66   -0.0683    0.0864   -0.1639   -0.0709   -0.3001    0.0416    0.2463    0.0350
          67   -0.4386    0.2211    0.0110    0.1394    0.2186    0.0272   -0.0596    0.0052
          68   -0.0126   -0.0194    0.1804    0.0904    0.2736   -0.0433    0.0353   -0.0066
          69   -0.2935    0.1792   -0.1582    0.1256    0.4562    0.0776   -0.0058    0.0202
          70    0.0872   -0.0358   -0.0359   -0.0290    0.0393   -0.0850   -0.0202    0.1000
          71   -0.0257    0.0146    0.0032    0.0056   -0.0150    0.0168   -0.0073    0.0071
          72   -0.0397    0.0650    0.1313    0.1539   -0.0542   -0.1144   -0.0100   -0.0055
          73    0.0871   -0.0353   -0.0335   -0.0268    0.0385   -0.0880   -0.0202    0.1006
          74   -0.0473    0.0215    0.0180    0.0150   -0.0251    0.0683    0.0090   -0.0807
          75   -0.0416    0.0974    0.3094    0.3332   -0.1046   -0.2846   -0.0058   -0.0275
          76    0.1086   -0.0433   -0.0520   -0.0402    0.0497   -0.1328   -0.0350    0.1831
          77   -0.0127    0.0102   -0.0063   -0.0006   -0.0089   -0.0124   -0.0165    0.0581
          78    0.0032    0.0592   -0.0633   -0.0072    0.0080   -0.0777   -0.0167    0.0011
          79   -0.0940    0.0585    0.0141    0.0331    0.0568    0.0048   -0.0039    0.0020
          80   -0.2638    0.1536    0.0407    0.0317   -0.2517    0.0238   -0.1279    0.0070
          81    0.1161   -0.0933   -0.0064    0.0047    0.3005   -0.0363    0.6108    0.0388
          82    0.0193    0.0733   -0.0154   -0.0133   -0.2369    0.0336   -0.3689   -0.0163
          83    0.0087   -0.0738    0.1430   -0.0084   -0.0806   -0.0531    0.3714    0.0217
          84    0.0117    0.0775   -0.1040   -0.0044   -0.0601    0.0431   -0.0094    0.0160
          85   -0.0643    0.0659    0.0139    0.0283   -0.0091    0.0155   -0.1378   -0.0039
          86   -0.1525    0.0433    0.0150   -0.0391   -0.2872   -0.0172    0.2935    0.0204
          87    0.1609   -0.0175    0.0042    0.0213    0.0953    0.0177   -0.0218    0.0128


   Root No.      17        18        19        20        21        22        23        24

                17 A      18 A      19 A      20 A      21 A      22 A      23 A      24 A   

                   0.1       0.1       0.1       0.2       0.2       0.2       0.2       0.3
  
           1   -0.0053    0.0025   -0.0351   -0.0248   -0.0056   -0.1026   -0.0745    0.0290
           2   -0.0033   -0.0031    0.0111    0.0325    0.0013    0.0546   -0.0941   -0.0688
           3   -0.1436   -0.0539    0.0129    0.0423    0.0071   -0.1019    0.0249    0.0024
           4   -0.0057    0.0015   -0.0351   -0.0277   -0.0054   -0.0976   -0.0675    0.0296
           5   -0.0134   -0.0010    0.0043    0.0435   -0.0044    0.0527   -0.0689   -0.0053
           6   -0.1661    0.1095    0.0061    0.0724    0.0041   -0.1057    0.0216    0.0089
           7   -0.0023    0.0037   -0.0315   -0.0374    0.0001   -0.0665   -0.0674   -0.0177
           8   -0.0166   -0.0010    0.0022    0.0326   -0.0080    0.0222   -0.0559    0.0386
           9   -0.0448   -0.0912   -0.0033    0.0345   -0.0007    0.0515   -0.0377    0.1391
          10    0.0063    0.0036   -0.0254   -0.0311    0.0048   -0.0800   -0.0947   -0.0833
          11   -0.0121   -0.0053    0.0051    0.0238   -0.0052    0.0213   -0.0914   -0.0166
          12    0.1098   -0.2334    0.0157    0.0513   -0.0098   -0.1102    0.0421   -0.0107
          13    0.0086    0.0009   -0.0254   -0.0328    0.0047   -0.0859   -0.0974   -0.0880
          14   -0.0024   -0.0047    0.0119    0.0257    0.0008    0.0389   -0.1031   -0.0748
          15   -0.0540   -0.0954    0.0315    0.0357   -0.0082   -0.0873    0.0261   -0.0161
          16    0.0006    0.0010   -0.0298   -0.0466   -0.0010   -0.1137   -0.1010   -0.0351
          17    0.0008   -0.0039    0.0144    0.0249    0.0040    0.0454   -0.0952   -0.0929
          18   -0.2599   -0.1579    0.0011    0.0371    0.0023   -0.0591    0.0134   -0.0058
          19   -0.0067    0.0011   -0.0388   -0.0117   -0.0095   -0.1196   -0.0714    0.0925
          20   -0.0148   -0.0010    0.0021    0.0502   -0.0068    0.0405   -0.0717    0.0318
          21   -0.2624    0.4245    0.0124    0.1407    0.0051   -0.3077    0.0908   -0.1890
          22    0.0056    0.0079   -0.0204   -0.0386    0.0088   -0.0813   -0.1081   -0.1596
          23   -0.0106   -0.0079    0.0021    0.0305   -0.0073    0.0209   -0.0832    0.0239
          24    0.3683   -0.4260    0.0218    0.0834   -0.0179   -0.3165    0.1447   -0.2146
          25   -0.0016   -0.0000   -0.0295   -0.0412   -0.0011   -0.1157   -0.1015   -0.0357
          26    0.0098   -0.0052    0.0186    0.0157    0.0088    0.0583   -0.1295   -0.1992
          27   -0.5030   -0.2676   -0.0333    0.0406    0.0082    0.0104    0.0030   -0.0296
          28    0.0407    0.0106   -0.0155    0.1359    0.0135   -0.0369    0.0875    0.0260
          29    0.0187    0.0077    0.0179    0.1244    0.0060    0.0763    0.0014   -0.0102
          30    0.0551    0.2227    0.0714   -0.0185   -0.0125    0.0103   -0.0069    0.0012
          31    0.0404    0.0111   -0.0153    0.1387    0.0134   -0.0367    0.0907    0.0299
          32    0.0548    0.0200    0.0275    0.3339    0.0155    0.1444    0.2433    0.1663
          33    0.2003    0.5731    0.1109   -0.0771   -0.0113    0.0934   -0.0441    0.0324
          34    0.0724    0.0200   -0.0066    0.3270    0.0221    0.0166    0.3125    0.1903
          35   -0.0014    0.0008    0.0124    0.0174    0.0009    0.0474   -0.1266   -0.1013
          36   -0.0016    0.1523    0.0487   -0.0028   -0.0117    0.0603   -0.0064    0.0304
          37   -0.0043    0.0038   -0.0309   -0.0528   -0.0002   -0.0697   -0.0626   -0.0099
          38   -0.0113    0.0049    0.0040   -0.0226   -0.0146   -0.0529    0.1006    0.1572
          39   -0.0253   -0.0459   -0.0171   -0.0075   -0.0031    0.1182   -0.1104    0.2302
          40    0.0189    0.0409   -0.0374   -0.0897   -0.0074   -0.1401   -0.0856    0.0115
          41   -0.0080    0.0026    0.0125   -0.0264   -0.0203   -0.1289    0.1611    0.2405
          42   -0.0179   -0.0287   -0.0251   -0.0194   -0.0028    0.1427   -0.1570    0.1689
          43   -0.0336    0.0078   -0.0288   -0.1121    0.0082   -0.0062    0.1060    0.0397
          44    0.0034    0.0049    0.0035   -0.0064   -0.0191   -0.0865    0.0418    0.1323
          45   -0.0224   -0.0127   -0.0040   -0.0408   -0.0103    0.0791    0.0036    0.0404
          46   -0.0324    0.0074   -0.0291   -0.1143    0.0076   -0.0100    0.1025    0.0361
          47    0.0361   -0.0003    0.0013    0.0705   -0.0278   -0.1757   -0.2110    0.0573
          48   -0.0029   -0.0149   -0.0097   -0.0716   -0.0099    0.0997    0.0969   -0.0955
          49   -0.0674    0.0074   -0.0250   -0.1579    0.0124    0.0332    0.2112    0.2461
          50    0.0051   -0.0192   -0.0063    0.0048   -0.0131   -0.0811    0.0132    0.4321
          51   -0.0328    0.0064    0.0048   -0.0614   -0.0138    0.0879    0.0528   -0.1446
          52   -0.0411    0.0147   -0.0297   -0.1985    0.0128    0.0368    0.3568   -0.0367
          53   -0.0137    0.0361    0.0158   -0.0578   -0.0225   -0.0907    0.2153   -0.0758
          54   -0.0316    0.0040    0.0036   -0.0549   -0.0133    0.0763    0.0505   -0.0769
          55   -0.0279   -0.0566   -0.0385   -0.1120    0.0014    0.1497   -0.0347   -0.0098
          56   -0.0053    0.0142   -0.0018   -0.0793   -0.0102    0.0258    0.1722   -0.0754
          57   -0.0136   -0.0125   -0.0164   -0.0173   -0.0018    0.0708   -0.0797    0.0863
          58   -0.0310   -0.0645   -0.0407   -0.1279    0.0017    0.1978   -0.0275   -0.0168
          59   -0.0200    0.0170   -0.0148   -0.1962   -0.0079    0.2132    0.3416   -0.3368
          60    0.0027    0.0551   -0.0097   -0.0002   -0.0025   -0.1454   -0.0077   -0.0652
          61   -0.0470   -0.1039   -0.0481   -0.1738    0.0035    0.3839   -0.0280    0.0071
          62    0.0112    0.0196    0.0135   -0.0402   -0.0067   -0.0677    0.1764   -0.1902
          63   -0.0233   -0.0538   -0.0171   -0.0512    0.0023    0.2349   -0.0736    0.0476
          64    0.0671    0.0522   -0.2213   -0.0053    0.2647   -0.0049   -0.0047    0.0076
          65    0.0214    0.0058   -0.2355    0.0009   -0.1363   -0.0031    0.0021   -0.0006
          66    0.0324    0.0345   -0.1282    0.0007    0.1351   -0.0007   -0.0027    0.0070
          67    0.0466    0.0359    0.0285   -0.0021   -0.3922    0.0132   -0.0023    0.0090
          68    0.0225    0.0078   -0.3125   -0.0031    0.3604   -0.0133   -0.0018   -0.0018
          69    0.0110    0.0198   -0.0101   -0.0046    0.5325   -0.0036   -0.0091    0.0061
          70    0.0032    0.0076   -0.0401    0.1965   -0.0061    0.0418   -0.0687   -0.0496
          71   -0.0024   -0.0052    0.0142   -0.0922    0.0016   -0.0262   -0.1059   -0.0299
          72    0.1419   -0.0392    0.0332   -0.0223    0.0123   -0.0212    0.0053    0.0024
          73    0.0094    0.0077   -0.0399    0.2018   -0.0058    0.0472   -0.0709   -0.0546
          74   -0.0119   -0.0112    0.0185   -0.3609    0.0005   -0.2121   -0.1175    0.0923
          75    0.5230   -0.0449    0.0505   -0.0897    0.0235    0.0594   -0.0220    0.0215
          76    0.0120    0.0126   -0.0453    0.4445   -0.0056    0.2110   -0.0734   -0.1707
          77    0.0020   -0.0027    0.0110    0.0532    0.0017    0.0730   -0.1094   -0.0999
          78    0.1559   -0.0433    0.0378   -0.0071    0.0110    0.0523   -0.0133    0.0098
          79   -0.0156   -0.0246    0.3580   -0.0022   -0.1287    0.0174   -0.0100    0.0045
          80    0.0116    0.0023   -0.0855    0.0066   -0.2472    0.0011    0.0079    0.0019
          81   -0.0205   -0.0237    0.0979   -0.0010   -0.2916    0.0111   -0.0104    0.0044
          82    0.0059    0.0085    0.2062   -0.0018    0.2071    0.0042   -0.0060    0.0046
          83   -0.0594   -0.0673    0.4830   -0.0041    0.1934    0.0037   -0.0111    0.0031
          84    0.0433    0.0488   -0.3885    0.0051   -0.2651   -0.0022    0.0073    0.0042
          85   -0.0159   -0.0207    0.3703   -0.0020   -0.0182    0.0147   -0.0092    0.0045
          86    0.0092   -0.0048   -0.0503   -0.0018   -0.0373   -0.0017   -0.0005    0.0022
          87   -0.0180   -0.0056    0.1022    0.0035   -0.0572    0.0031   -0.0021    0.0051


   Root No.      25        26        27        28        29        30        31        32

                25 A      26 A      27 A      28 A      29 A      30 A      31 A      32 A   

                   0.4       0.5       0.6       0.8       0.8       0.8       0.8       0.9
  
           1   -0.0567    0.1699   -0.0529   -0.0584   -0.0288    0.0123   -0.1080   -0.0142
           2    0.0178   -0.0430    0.0735   -0.0183   -0.0417    0.0112   -0.1142   -0.0495
           3   -0.3843   -0.1040    0.1319    0.0451   -0.0444    0.5066    0.0066    0.0718
           4   -0.0469    0.1399   -0.0403   -0.0460   -0.0231    0.0120   -0.0846   -0.0159
           5    0.0051    0.0603    0.0868    0.0558    0.0069   -0.0057    0.1177   -0.0175
           6   -0.1595   -0.0425    0.0010    0.0821    0.0117    0.1735   -0.0263   -0.0611
           7    0.0033   -0.0050    0.0856    0.0289   -0.0148   -0.0047    0.0039   -0.0549
           8   -0.0250    0.1487    0.0270    0.0332    0.0131   -0.0005    0.0929    0.0075
           9   -0.1310   -0.0297   -0.1466    0.1526    0.0705   -0.0624   -0.0639   -0.1899
          10   -0.0220   -0.0672   -0.1035    0.0236    0.0289   -0.0002    0.0762   -0.0089
          11   -0.0276    0.0978   -0.0539    0.0141    0.0224    0.0033    0.1131    0.0273
          12   -0.1326   -0.0429   -0.0016   -0.0255    0.0176   -0.2226   -0.0077   -0.0606
          13   -0.0216   -0.0803   -0.1372    0.0255    0.0403    0.0047    0.1014   -0.0118
          14   -0.0025   -0.0156   -0.0370   -0.0643   -0.0233    0.0075   -0.1091    0.0418
          15   -0.3304   -0.0977    0.1266   -0.2262   -0.0298   -0.4934    0.0534    0.0693
          16   -0.0569    0.0670   -0.1723   -0.0454    0.0169    0.0153   -0.0027    0.0361
          17    0.0164   -0.0809   -0.0036   -0.0193   -0.0135    0.0043   -0.0439   -0.0033
          18   -0.2183   -0.0671    0.0932   -0.0773   -0.0314    0.0065    0.0310    0.0693
          19   -0.1124    0.4001   -0.1555   -0.0994   -0.0130    0.0252    0.2073    0.0920
          20   -0.0304    0.2117    0.0312    0.0378    0.0154   -0.0012    0.3159    0.0434
          21    0.3460    0.0770    0.0269   -0.1188   -0.0167   -0.2139    0.0299    0.0594
          22   -0.0325   -0.2515   -0.3470   -0.0612    0.0751   -0.0098   -0.2177    0.2017
          23   -0.0228    0.2019    0.0649    0.0633    0.0038    0.0104    0.2903   -0.0765
          24    0.3470    0.0702    0.0371    0.0189   -0.0168    0.2698   -0.0004    0.0584
          25   -0.0626    0.0734   -0.1898   -0.0545    0.0186    0.0137   -0.0074    0.0430
          26    0.0516   -0.3340   -0.1146    0.1004    0.1055   -0.0028    0.5326   -0.0324
          27    0.4590    0.1324   -0.1285    0.0798    0.0334   -0.0127   -0.0300   -0.0660
          28   -0.0278   -0.0109   -0.0761    0.0339    0.0344    0.0013    0.0983   -0.0228
          29    0.0039    0.0321    0.0099   -0.0729   -0.0387    0.0127   -0.1483    0.0491
          30   -0.0852   -0.0254    0.0423   -0.0922   -0.0129   -0.1985    0.0241    0.0348
          31   -0.0280   -0.0038   -0.0769    0.0350    0.0354   -0.0001    0.1046   -0.0252
          32   -0.0009    0.1943    0.1350   -0.0804   -0.0683    0.0017   -0.1967    0.0674
          33    0.0853    0.0241   -0.0490    0.0981    0.0123    0.2135   -0.0203   -0.0315
          34   -0.0381    0.1361    0.0208    0.0517    0.0269   -0.0176    0.1312   -0.0348
          35    0.0126   -0.0447   -0.0463   -0.0822   -0.0354    0.0303   -0.1717    0.0563
          36    0.0560    0.0261   -0.0316    0.0691    0.0093    0.1439   -0.0063   -0.0260
          37    0.0200   -0.0306    0.1595    0.0910   -0.0123   -0.0242   -0.0097   -0.0563
          38    0.0233   -0.0606   -0.0541   -0.0049    0.0707    0.0036   -0.0109    0.0250
          39    0.0604   -0.0431   -0.0839    0.0127    0.0193   -0.0065   -0.0136   -0.0766
          40    0.1694   -0.1995    0.5241   -0.4217   -0.2105    0.1137    0.1791   -0.0474
          41    0.0481   -0.2284   -0.2019   -0.0169   -0.4201   -0.0049    0.0395   -0.3928
          42    0.0906    0.0106    0.1541   -0.1625    0.3149    0.0472    0.0168    0.2060
          43    0.0226   -0.0350    0.1078    0.1314   -0.0014   -0.0364   -0.0177    0.0148
          44    0.0317   -0.0954   -0.0185   -0.0145    0.0785    0.0053   -0.0106    0.0152
          45    0.0174   -0.0172   -0.0529   -0.0038   -0.0961   -0.0044    0.0135   -0.0236
          46    0.0250   -0.0390    0.1420    0.1893   -0.0050   -0.0537   -0.0282    0.0386
          47    0.0213   -0.0600    0.2713    0.5691    0.1001   -0.1665   -0.1274    0.2492
          48   -0.0180    0.0320   -0.0698    0.0002   -0.1866   -0.0004    0.0378    0.3961
          49    0.0968   -0.1736   -0.0136    0.1420   -0.1884   -0.0416   -0.0034    0.4287
          50    0.1262   -0.2451   -0.1889   -0.1680    0.0639    0.0568    0.0043    0.1358
          51   -0.0397    0.0663    0.0377    0.1213   -0.1205   -0.0462    0.0016    0.0134
          52   -0.0036   -0.0576    0.1179    0.0686    0.3299   -0.0257   -0.0804   -0.2309
          53   -0.0439   -0.0476    0.0131   -0.1963    0.5788    0.0573   -0.0636   -0.0729
          54   -0.0224    0.0248   -0.0357   -0.0924    0.0972    0.0234    0.0031   -0.0016
          55    0.0286   -0.0031    0.0978    0.0840   -0.0012   -0.0255   -0.0197   -0.1072
          56   -0.0195   -0.0048   -0.0213   -0.0203    0.0322    0.0094    0.0027    0.0733
          57    0.0256   -0.0093   -0.0019   -0.0089    0.0460    0.0037   -0.0096   -0.0779
          58    0.0368    0.0051    0.0918    0.0558   -0.0109   -0.0171   -0.0095   -0.0844
          59   -0.0743    0.0714   -0.1030   -0.0388   -0.1640    0.0135    0.0365    0.0903
          60   -0.0600   -0.0277    0.0308    0.2073   -0.0584   -0.0585   -0.0608   -0.2928
          61    0.0747    0.0326    0.0510   -0.0529   -0.0076    0.0148    0.0181   -0.0352
          62   -0.0750    0.0065   -0.0203    0.0876   -0.1008   -0.0217   -0.0084   -0.0109
          63    0.0378    0.0280   -0.0528   -0.0725   -0.0287    0.0229    0.0163   -0.0663
          64    0.0071    0.0032   -0.0010    0.0023    0.0014    0.0042   -0.0008   -0.0007
          65   -0.0048   -0.0009    0.0005   -0.0034   -0.0008   -0.0106    0.0000    0.0004
          66   -0.0002   -0.0003   -0.0017    0.0042    0.0004    0.0070   -0.0014   -0.0014
          67    0.0114    0.0042   -0.0035    0.0040    0.0010    0.0051   -0.0009   -0.0016
          68   -0.0067   -0.0013    0.0026   -0.0052   -0.0002   -0.0118    0.0005    0.0016
          69    0.0006    0.0001    0.0001    0.0021    0.0011    0.0056   -0.0005    0.0003
          70   -0.0245    0.0434   -0.0200   -0.0444   -0.0298    0.0121   -0.0995   -0.0270
          71    0.0030    0.0378    0.0535   -0.0397   -0.0534    0.0071   -0.1560   -0.0646
          72   -0.0983   -0.0246    0.0494    0.0223   -0.0203    0.2411    0.0068    0.0437
          73   -0.0207    0.0374   -0.0234   -0.0472   -0.0300    0.0048   -0.1053   -0.0298
          74   -0.0511    0.2858    0.0171   -0.0791   -0.0705   -0.0000   -0.2070   -0.0834
          75    0.0959    0.0290   -0.0438   -0.0241    0.0163   -0.2073    0.0001   -0.0262
          76    0.0216   -0.1680    0.0139   -0.0344   -0.0357    0.0155   -0.1263   -0.0463
          77    0.0288   -0.0824    0.0777   -0.0342   -0.0591    0.0115   -0.1755   -0.0787
          78    0.0662    0.0130   -0.0292   -0.0152    0.0118   -0.1455    0.0006   -0.0200
          79    0.0133    0.0051    0.0003   -0.0011    0.0012   -0.0012    0.0008   -0.0001
          80   -0.0027   -0.0032   -0.0032    0.0009   -0.0011   -0.0084   -0.0018   -0.0018
          81    0.0006    0.0018    0.0037   -0.0045    0.0017    0.0001    0.0024    0.0026
          82    0.0106    0.0029    0.0009   -0.0010    0.0013    0.0037    0.0008    0.0009
          83    0.0008    0.0005    0.0014   -0.0025   -0.0003   -0.0067   -0.0004    0.0005
          84   -0.0066   -0.0026   -0.0032    0.0052   -0.0008    0.0041   -0.0019   -0.0025
          85    0.0131    0.0047   -0.0004    0.0003    0.0012   -0.0007    0.0001   -0.0005
          86   -0.0034   -0.0008    0.0009   -0.0012   -0.0004   -0.0053   -0.0006   -0.0001
          87   -0.0020   -0.0013   -0.0025    0.0032   -0.0004    0.0032   -0.0014   -0.0012


   Root No.      33        34        35        36        37        38        39        40

                33 A      34 A      35 A      36 A      37 A      38 A      39 A      40 A   

                   1.0       1.1       1.2       1.2       1.4       1.5       1.6       1.7
  
           1   -0.0475   -0.0896   -0.0939    0.0884    0.0013   -0.0671    0.0069   -0.0079
           2   -0.0962    0.0001    0.1223    0.0840   -0.0004    0.0393   -0.0012    0.0040
           3    0.0230   -0.0203    0.0061    0.0128   -0.0945   -0.0061   -0.0458   -0.0358
           4   -0.0372   -0.0599   -0.1064    0.0988    0.0037   -0.0286   -0.0006    0.0088
           5   -0.0373    0.0415    0.1904   -0.1483   -0.0042   -0.1586   -0.0042   -0.0559
           6    0.0015    0.0334   -0.0126   -0.0060    0.2364   -0.0045    0.1502    0.1306
           7   -0.0948    0.0344    0.0049   -0.0150   -0.0081   -0.0176   -0.0126    0.0051
           8   -0.0051   -0.0222    0.0892   -0.1194    0.0021   -0.1556    0.0034   -0.0363
           9   -0.0109    0.0672   -0.0218   -0.0179    0.3920    0.0001    0.1951    0.1693
          10   -0.0423   -0.0721    0.0516   -0.1285   -0.0062    0.0309   -0.0010   -0.0092
          11    0.0273   -0.0851    0.0722   -0.2135   -0.0004   -0.1395    0.0084   -0.0639
          12   -0.0086    0.0274   -0.0071   -0.0116    0.2223    0.0083    0.1365    0.1257
          13   -0.0499   -0.1043    0.0484   -0.1069    0.0002    0.0747    0.0005    0.0063
          14    0.0935    0.0089   -0.1238   -0.0943   -0.0028    0.0423   -0.0020    0.0056
          15   -0.0037   -0.0309    0.0066    0.0015   -0.1118    0.0086   -0.0520   -0.0384
          16    0.0461   -0.1334   -0.1826   -0.1194   -0.0004    0.0094    0.0061   -0.0014
          17   -0.0002    0.0042    0.0139   -0.0323   -0.0027    0.0740   -0.0024    0.0110
          18    0.0074   -0.0342    0.0064    0.0127   -0.1707   -0.0015   -0.1044   -0.0877
          19    0.2826    0.3506   -0.0129    0.3374   -0.0124    0.3504   -0.0012    0.0881
          20    0.1470    0.3046    0.3203   -0.0706   -0.0147    0.0034   -0.0083   -0.0399
          21    0.0036   -0.0277    0.0088    0.0069   -0.1168    0.0032   -0.0635   -0.0525
          22    0.3103    0.2354    0.3757   -0.1007    0.0153   -0.3460   -0.0075   -0.0972
          23   -0.1533   -0.2751   -0.0612   -0.3047   -0.0127   -0.0009    0.0115   -0.0564
          24    0.0204   -0.0131    0.0156    0.0107   -0.1146   -0.0113   -0.0614   -0.0545
          25    0.0535   -0.1722   -0.2313   -0.1579   -0.0003    0.0143    0.0086   -0.0019
          26    0.0082    0.0283   -0.3510    0.4702    0.0081   -0.1784    0.0070   -0.0117
          27   -0.0079    0.0253   -0.0046   -0.0078    0.1168    0.0023    0.0653    0.0540
          28   -0.0756   -0.1053    0.1003   -0.0858    0.0029    0.2156   -0.0040    0.0576
          29    0.1281    0.0490   -0.2051   -0.1112   -0.0052    0.1171   -0.0049    0.0383
          30   -0.0017   -0.0194    0.0008    0.0030   -0.0898    0.0018   -0.0482   -0.0427
          31   -0.0825   -0.1162    0.1071   -0.0917    0.0027    0.2267   -0.0033    0.0603
          32    0.1943    0.1743   -0.2987    0.0146   -0.0065   -0.2315   -0.0000   -0.0550
          33   -0.0014    0.0125    0.0032   -0.0007    0.0551   -0.0012    0.0276    0.0233
          34   -0.1074   -0.0726    0.1913    0.0761    0.0000   -0.0780    0.0051   -0.0298
          35    0.1513    0.0285   -0.2716   -0.2208   -0.0002    0.2987   -0.0092    0.0936
          36   -0.0066    0.0037    0.0051    0.0029    0.0427   -0.0054    0.0225    0.0160
          37   -0.0859    0.1323   -0.0402   -0.0504   -0.0144   -0.0271   -0.0462    0.0167
          38    0.0400   -0.0761    0.0257    0.0245    0.0962   -0.0526   -0.0738    0.0124
          39    0.0672   -0.0566    0.0201    0.0173   -0.0101   -0.0187   -0.0306    0.0169
          40    0.1599    0.0335    0.0202   -0.0820    0.2358   -0.0207    0.1713    0.0718
          41    0.1969   -0.0337    0.0306   -0.0173   -0.0543   -0.0189    0.1674   -0.0779
          42    0.0766   -0.1463    0.0485    0.0389    0.2230   -0.0583   -0.1374    0.0972
          43   -0.0269    0.0790   -0.0181   -0.0396   -0.1275   -0.1200    0.1122    0.2717
          44    0.0193   -0.0535    0.0154    0.0200    0.1091    0.0079   -0.1220   -0.0854
          45    0.0327   -0.0456    0.0182    0.0098   -0.1227   -0.0280   -0.2796    0.2062
          46   -0.0170    0.0916   -0.0282   -0.0423   -0.1730   -0.1497    0.1741    0.3801
          47    0.1999   -0.0997   -0.0120    0.0727   -0.1548    0.0731    0.1473    0.0188
          48   -0.2838    0.1136   -0.0424   -0.0236    0.1631    0.0314    0.2294   -0.1850
          49   -0.0939   -0.0388   -0.0388    0.0628    0.1038    0.1602    0.0808   -0.2711
          50   -0.2338    0.0897   -0.0309   -0.0125   -0.2020    0.0358   -0.2805    0.1400
          51    0.2082   -0.2049    0.0571    0.0712    0.1949    0.0261   -0.3142   -0.1016
          52    0.3188   -0.1821    0.0244    0.0895   -0.0363    0.1108   -0.1453   -0.0781
          53   -0.1553    0.1442   -0.0513   -0.0293   -0.0037    0.0764    0.3068   -0.2342
          54   -0.1730    0.1449   -0.0367   -0.0578   -0.2705   -0.0677   -0.0080    0.3481
          55   -0.1055    0.2206   -0.0815   -0.0752    0.0859   -0.0041   -0.2362   -0.1125
          56    0.0076   -0.0533    0.0178    0.0189    0.1481   -0.0368   -0.0843    0.0622
          57    0.0501   -0.0249    0.0078    0.0113   -0.1008    0.0164    0.0958   -0.1077
          58   -0.0839    0.1823   -0.0661   -0.0666    0.0599   -0.0070   -0.2046   -0.0921
          59    0.0374   -0.1284    0.0555    0.0343   -0.0445   -0.0176    0.0915    0.1956
          60   -0.1279    0.3229   -0.1236   -0.1012   -0.0804    0.0487   -0.1138   -0.3154
          61    0.0287    0.0208   -0.0051   -0.0188   -0.1521    0.0180    0.0509   -0.1648
          62   -0.0910    0.1043   -0.0372   -0.0351    0.1383   -0.0202   -0.1739    0.0931
          63    0.1288   -0.1301    0.0500    0.0391   -0.3512    0.0535    0.3468   -0.1554
          64    0.0006    0.0002   -0.0001    0.0014    0.0025   -0.0011    0.0012   -0.0003
          65    0.0004   -0.0003    0.0004    0.0002   -0.0019    0.0003   -0.0007   -0.0001
          66    0.0004    0.0005   -0.0002    0.0007    0.0013    0.0001    0.0008    0.0005
          67    0.0003    0.0004   -0.0002    0.0012    0.0019   -0.0008    0.0014    0.0007
          68    0.0005   -0.0008    0.0003    0.0001   -0.0016    0.0002   -0.0008   -0.0005
          69   -0.0002   -0.0002   -0.0004    0.0001    0.0014   -0.0001    0.0010    0.0004
          70   -0.0721   -0.0906   -0.0602    0.1262    0.0038   -0.2144    0.0149   -0.0585
          71   -0.1306   -0.0217    0.1551    0.1645    0.0032    0.1269    0.0015    0.0294
          72    0.0148   -0.0133    0.0046    0.0037   -0.0987   -0.0031   -0.0586   -0.0507
          73   -0.0772   -0.0975   -0.0628    0.1338    0.0060   -0.2182    0.0177   -0.0588
          74   -0.1945   -0.1343    0.0654    0.3091    0.0093   -0.2069    0.0281   -0.0614
          75   -0.0050    0.0091   -0.0039   -0.0107    0.0461    0.0053    0.0252    0.0225
          76   -0.1022   -0.0451    0.1026    0.1635   -0.0003    0.0923    0.0072    0.0151
          77   -0.1551    0.0063    0.2691    0.1948   -0.0006    0.3214   -0.0035    0.0751
          78   -0.0044    0.0071   -0.0043   -0.0056    0.0355   -0.0004    0.0196    0.0163
          79    0.0006   -0.0001    0.0003    0.0007    0.0010   -0.0000    0.0018    0.0006
          80   -0.0001   -0.0003   -0.0000    0.0003    0.0017   -0.0010   -0.0016   -0.0004
          81    0.0017   -0.0023    0.0014   -0.0006    0.0025   -0.0018   -0.0012   -0.0003
          82    0.0008   -0.0018    0.0019    0.0004    0.0041   -0.0031   -0.0011   -0.0003
          83    0.0000    0.0002   -0.0002    0.0004   -0.0013    0.0007    0.0002   -0.0003
          84   -0.0007    0.0018   -0.0020    0.0006   -0.0009    0.0018    0.0019    0.0007
          85   -0.0004    0.0006   -0.0002    0.0005    0.0001    0.0005    0.0031    0.0010
          86    0.0006    0.0004   -0.0007    0.0006   -0.0018    0.0010    0.0003    0.0003
          87   -0.0006    0.0006   -0.0007    0.0004    0.0005    0.0004    0.0010    0.0001


   Root No.      41        42        43        44        45        46        47        48

                41 A      42 A      43 A      44 A      45 A      46 A      47 A      48 A   

                   1.8       1.9       1.9       2.5       2.7       2.7       2.9       3.6
  
           1   -0.0015    0.0236    0.0001    0.0014    0.0051   -0.0084    0.0622    0.0596
           2    0.0011   -0.0271   -0.0044    0.0010   -0.0020   -0.0302    0.0389    0.0543
           3    0.0032    0.0045   -0.0272    0.0090   -0.0014    0.0037    0.0236   -0.2070
           4   -0.0011    0.0587   -0.0238   -0.0010   -0.0076   -0.0744    0.1270    0.0903
           5   -0.0013   -0.0977    0.0293    0.0002    0.0522    0.1903   -0.0007    0.0756
           6    0.0008   -0.0276    0.1690   -0.3306    0.4319   -0.0928    0.0355   -0.1010
           7   -0.0016   -0.0316   -0.0013   -0.0018    0.0607    0.1171    0.1509    0.3019
           8   -0.0005    0.0032    0.0045    0.0031    0.0055   -0.0004    0.0370   -0.0574
           9   -0.0022   -0.0207    0.1376   -0.0136   -0.0872    0.0078   -0.0432    0.3058
          10   -0.0014    0.0497    0.0417   -0.0049   -0.0039   -0.0805    0.0574    0.2221
          11   -0.0009    0.0934    0.0596    0.0034   -0.0651   -0.2000    0.0126   -0.1236
          12   -0.0006   -0.0276    0.1485    0.3980   -0.2942    0.1218    0.1820   -0.2350
          13   -0.0008    0.0241    0.0112   -0.0011    0.0001   -0.0112    0.0182    0.1612
          14    0.0015    0.0254    0.0059   -0.0017    0.0008    0.0294   -0.0399   -0.1023
          15    0.0017    0.0039   -0.0388    0.0246    0.1256   -0.0336   -0.0132   -0.0661
          16   -0.0010    0.2091    0.0423   -0.0049    0.0345    0.1869   -0.0832   -0.0322
          17    0.0016   -0.0002    0.0037   -0.0030   -0.0010    0.0016   -0.0129    0.0015
          18    0.0049    0.0019   -0.1245   -0.3891   -0.4544    0.1068   -0.0046    0.2312
          19    0.0008    0.0601   -0.0305   -0.0040   -0.0607   -0.2529    0.0626   -0.0364
          20   -0.0011   -0.1731    0.0516   -0.0039    0.0932    0.4217   -0.1624    0.0697
          21    0.0007    0.0100   -0.0639    0.0973   -0.1663    0.0370   -0.0003    0.0200
          22   -0.0029    0.0493    0.0493    0.0017   -0.0587   -0.2351    0.0577   -0.0551
          23   -0.0014    0.1568    0.1000   -0.0036   -0.1142   -0.4475    0.0919    0.0049
          24    0.0018    0.0077   -0.0565   -0.1653    0.0948   -0.0353   -0.0521    0.0621
          25   -0.0011    0.3284    0.0684   -0.0073    0.0895    0.4615   -0.2237   -0.1496
          26    0.0020    0.0018   -0.0102    0.0069    0.0049    0.0032    0.0149   -0.0188
          27    0.0020   -0.0066    0.0658    0.1131    0.1442   -0.0313    0.0111   -0.0761
          28    0.0013   -0.2468   -0.1075    0.0030    0.0009   -0.0225   -0.0051   -0.0096
          29    0.0028   -0.1466   -0.0539    0.0032    0.0080    0.0053   -0.0139   -0.1069
          30    0.0030    0.0171   -0.0439    0.0322    0.5064   -0.1654   -0.1499    0.1322
          31    0.0014   -0.2554   -0.1133    0.0049    0.0035   -0.0203   -0.0127   -0.0327
          32    0.0003    0.2096    0.1135   -0.0030   -0.0043   -0.0179    0.0800    0.2569
          33    0.0033   -0.0084    0.0222   -0.0153   -0.2044    0.0668    0.0575   -0.0494
          34   -0.0004    0.1053    0.0212   -0.0006   -0.0007    0.0266   -0.0623   -0.1932
          35    0.0038   -0.3665   -0.1318    0.0054   -0.0050   -0.0281    0.0272   -0.0039
          36    0.0021    0.0038    0.0214   -0.0142   -0.1733    0.0551    0.0475   -0.0392
          37   -0.0019   -0.0010   -0.0165   -0.0008    0.0463    0.0725    0.1630    0.2076
          38    0.0007    0.0410   -0.2445    0.0041    0.0390    0.0242    0.0947   -0.1107
          39    0.0024    0.0274   -0.1630   -0.0031   -0.0371   -0.0304   -0.1854    0.1763
          40   -0.0089   -0.0185    0.2131   -0.0058   -0.0390   -0.0314   -0.0164   -0.0551
          41    0.0074    0.0444   -0.2322   -0.0005   -0.0467   -0.0647   -0.2515    0.0127
          42    0.0013    0.0549   -0.2737    0.0017   -0.0409   -0.0666   -0.2328   -0.0352
          43    0.0030    0.0498   -0.2153    0.0029    0.0293    0.0233    0.1103   -0.0248
          44   -0.0019    0.0110   -0.1237    0.0035    0.0879    0.0957    0.3059    0.0108
          45   -0.0036   -0.0312    0.1736    0.0012    0.0068    0.0019    0.0213   -0.0182
          46    0.0050    0.0730   -0.3065    0.0046    0.0407    0.0269    0.1713   -0.1093
          47    0.0004   -0.0211    0.1547   -0.0043   -0.0512   -0.0568   -0.1634   -0.0279
          48    0.0009    0.0212   -0.1182    0.0012   -0.0026   -0.0015   -0.0156    0.0134
          49   -0.0017   -0.0381    0.1814   -0.0036   -0.0356   -0.0312   -0.1249    0.0145
          50   -0.0053   -0.0617    0.3212   -0.0011    0.0416    0.0480    0.1908   -0.0132
          51   -0.0047   -0.0139   -0.0130    0.0054    0.0964    0.1042    0.3416    0.0003
          52   -0.0043   -0.0510    0.2494   -0.0019   -0.0361   -0.0295   -0.1194    0.0144
          53    0.0022    0.0084   -0.0541   -0.0010   -0.0003    0.0110    0.0179    0.0698
          54    0.0002   -0.0153    0.1785   -0.0029   -0.0749   -0.0929   -0.2718   -0.0555
          55    0.0017    0.0305   -0.0631    0.0001   -0.0315   -0.0561   -0.1333   -0.0412
          56    0.0004    0.0375   -0.2030   -0.0013    0.0148   -0.0043    0.0005   -0.1123
          57    0.0014    0.0114   -0.0995    0.0015    0.0229    0.0220    0.0255    0.0726
          58    0.0014    0.0261   -0.0490    0.0002   -0.0333   -0.0542   -0.1403   -0.0085
          59   -0.0014   -0.0337    0.1295   -0.0066   -0.0172    0.0167   -0.0239    0.1536
          60    0.0004    0.0147    0.0245    0.0052    0.0092   -0.0316    0.0378   -0.2318
          61    0.0001    0.0039    0.0007    0.0046    0.0328    0.0050    0.1109   -0.2177
          62    0.0008    0.0021    0.0443   -0.0059   -0.0442   -0.0409   -0.1297    0.0311
          63   -0.0004   -0.0348    0.0992    0.0033    0.0598    0.0702    0.2238   -0.0095
          64    0.0562   -0.0003    0.0006    0.0014   -0.0029    0.0007    0.0009    0.0010
          65   -0.0923    0.0001   -0.0020    0.0027    0.0034   -0.0009   -0.0017    0.0014
          66   -0.1014   -0.0003   -0.0015   -0.0030   -0.0020    0.0007    0.0009   -0.0013
          67   -0.0136   -0.0001   -0.0003    0.0016   -0.0033    0.0008    0.0006    0.0014
          68    0.0082    0.0002   -0.0007    0.0030    0.0038   -0.0011   -0.0017    0.0015
          69    0.0371    0.0000    0.0002   -0.0019   -0.0018    0.0008    0.0010   -0.0006
          70   -0.0034   -0.2691    0.0143    0.0141   -0.0075   -0.0233   -0.0388   -0.0002
          71    0.0021    0.1499    0.0038   -0.0003    0.0012   -0.0068    0.0318    0.0522
          72    0.0015    0.0180   -0.0571    0.6645    0.0916   -0.0420   -0.0979    0.2289
          73   -0.0033   -0.2766    0.0174   -0.0012   -0.0102   -0.0191   -0.0478   -0.0153
          74    0.0010   -0.2428    0.0349   -0.0012   -0.0164    0.0213   -0.1421   -0.1209
          75    0.0038   -0.0021    0.0228   -0.2257   -0.0224    0.0132    0.0298   -0.0628
          76   -0.0019    0.0973    0.0151    0.0019   -0.0051    0.0274   -0.0864   -0.0930
          77    0.0031    0.3858    0.0043   -0.0028    0.0048    0.0315    0.0008   -0.0007
          78    0.0011   -0.0078    0.0172   -0.1883   -0.0242    0.0105    0.0261   -0.0520
          79   -0.1148    0.0001   -0.0008   -0.0016   -0.0023    0.0003    0.0002    0.0004
          80    0.3990   -0.0011    0.0052    0.0011    0.0025    0.0010    0.0023    0.0017
          81    0.4740   -0.0010    0.0069   -0.0024    0.0001    0.0006    0.0027   -0.0012
          82    0.4923   -0.0009    0.0063    0.0018   -0.0019    0.0010    0.0023    0.0010
          83   -0.1578    0.0004   -0.0028    0.0018    0.0023   -0.0007   -0.0017    0.0008
          84   -0.3368    0.0005   -0.0046   -0.0019   -0.0014    0.0001   -0.0008   -0.0009
          85   -0.3977    0.0007   -0.0046   -0.0039   -0.0029   -0.0000   -0.0014   -0.0016
          86   -0.1747    0.0005   -0.0029    0.0008    0.0019   -0.0007   -0.0014    0.0004
          87   -0.0978    0.0001   -0.0020   -0.0010   -0.0009    0.0003    0.0000    0.0000


   Root No.      49        50        51        52        53        54        55        56

                49 A      50 A      51 A      52 A      53 A      54 A      55 A      56 A   

                   3.7       3.8       3.9       4.0       4.1       4.9       5.2       5.8
  
           1   -0.2230   -0.0308   -0.0183   -0.2147   -0.0213   -0.0246    0.0399    0.0288
           2   -0.2383   -0.0560   -0.0498    0.2349   -0.0022   -0.0757    0.1063    0.1344
           3   -0.0862    0.2876   -0.3281   -0.0024    0.2558    0.2604    0.1694   -0.0170
           4   -0.2818   -0.0406   -0.0152   -0.2675   -0.0198   -0.0085    0.0082   -0.0576
           5   -0.1410    0.0057   -0.0077   -0.1556   -0.0157    0.0017   -0.0095   -0.0577
           6    0.0008   -0.0074    0.1503    0.0146   -0.3623   -0.2668   -0.2386    0.0377
           7   -0.1669    0.1571   -0.0531   -0.0406   -0.0615   -0.0171   -0.0359   -0.2635
           8   -0.1805   -0.1088    0.0163   -0.2850    0.0061    0.0413   -0.0286   -0.0238
           9    0.0905   -0.2799    0.1251   -0.0181    0.2988    0.2629    0.3333   -0.0776
          10    0.1161    0.2110   -0.0492    0.2386   -0.0504   -0.0972    0.0990   -0.1408
          11   -0.0101   -0.0959    0.0276   -0.1047    0.0266    0.0395   -0.0345    0.0484
          12   -0.0611    0.2234   -0.1442   -0.0021    0.0844   -0.3225   -0.2753    0.0349
          13    0.0916    0.1629   -0.0385    0.1813   -0.0310   -0.1239    0.1295   -0.0665
          14   -0.1343   -0.1516   -0.0050    0.2702    0.0282    0.0466   -0.0752   -0.1674
          15   -0.0209    0.0295    0.0706    0.0280   -0.4340    0.3599    0.2360   -0.0154
          16    0.0134   -0.0123    0.0027   -0.0009    0.0065   -0.0079   -0.0019   -0.0908
          17   -0.1151   -0.0605   -0.0368    0.4201    0.0064   -0.0555    0.0401   -0.0611
          18    0.0856   -0.2329    0.1803   -0.0169    0.0954   -0.2907   -0.1780    0.0136
          19    0.0196   -0.0380   -0.0053    0.1392    0.0107    0.0139   -0.0223   -0.0154
          20    0.1183    0.1153   -0.0105    0.0479   -0.0140   -0.0473    0.0536    0.0503
          21   -0.0033    0.0080   -0.0434   -0.0050    0.0963    0.0527    0.0478   -0.0073
          22    0.0384   -0.0232    0.0246   -0.1171    0.0095    0.0518   -0.0595    0.0442
          23    0.1921    0.0695    0.0115    0.0729    0.0005    0.0468   -0.0657    0.0466
          24    0.0154   -0.0620    0.0442   -0.0020   -0.0305    0.0662    0.0563   -0.0067
          25    0.0653   -0.0756    0.0278    0.0049    0.0256    0.0246    0.0032    0.2236
          26   -0.0239   -0.0159    0.0103   -0.1468   -0.0024    0.0214   -0.0147    0.0190
          27   -0.0244    0.0709   -0.0514    0.0019   -0.0250    0.0578    0.0331   -0.0022
          28    0.0500    0.0309    0.0135   -0.1777   -0.0088   -0.0355    0.0691    0.1595
          29   -0.0879   -0.1379    0.0143    0.0314    0.0437    0.1085   -0.1676   -0.2178
          30    0.0240   -0.0413   -0.1193   -0.0447    0.5312   -0.2106   -0.1181    0.0074
          31    0.0417    0.0128    0.0166   -0.1917   -0.0060   -0.0292    0.0716    0.1852
          32    0.1940    0.2784   -0.0261   -0.0753   -0.0624   -0.1183    0.1568    0.1326
          33   -0.0099    0.0137    0.0355    0.0142   -0.1638    0.0623    0.0331   -0.0025
          34   -0.1819   -0.2398    0.0139    0.1637    0.0551    0.1126   -0.1664   -0.2055
          35    0.0604    0.0276    0.0208   -0.1955   -0.0101    0.0407   -0.0401   -0.0186
          36   -0.0070    0.0119    0.0331    0.0190   -0.1482    0.0550    0.0343   -0.0002
          37   -0.0829    0.0931   -0.0243   -0.0020   -0.0270    0.1003   -0.1695   -0.2244
          38   -0.0216   -0.0107    0.0531   -0.0600    0.0026   -0.1590    0.1749   -0.1985
          39   -0.0406    0.0725   -0.0995    0.0336   -0.0377    0.1774   -0.1856    0.0971
          40    0.0387   -0.1091    0.0887   -0.0239    0.0925    0.0615    0.0356    0.0651
          41   -0.0362    0.0762   -0.1211    0.0020   -0.1027   -0.0843   -0.0011   -0.0243
          42    0.0297   -0.0313   -0.2890   -0.0262   -0.1699   -0.2105    0.1100   -0.1077
          43    0.0583   -0.0422   -0.0213    0.0169    0.0031    0.0046   -0.0085   -0.0844
          44    0.0995   -0.0676   -0.0489    0.0420    0.0059    0.0009    0.0087   -0.1162
          45   -0.0040   -0.0014    0.0090   -0.0058   -0.0003   -0.0040   -0.0057    0.0067
          46    0.2080   -0.1351   -0.0439    0.1065    0.0358    0.0506   -0.0093    0.2480
          47   -0.0185    0.0128    0.0136   -0.0093    0.0009   -0.0113    0.0145    0.0207
          48   -0.0044    0.0039   -0.0033    0.0002   -0.0021    0.0031   -0.0024   -0.0041
          49   -0.0506    0.0351    0.0103   -0.0194   -0.0095   -0.0153    0.0081   -0.0262
          50    0.0844   -0.0683   -0.0113    0.0419    0.0274    0.0597   -0.0447    0.1221
          51    0.1238   -0.0950   -0.0273    0.0607    0.0323    0.0771   -0.0546    0.1275
          52   -0.0533    0.0405    0.0298   -0.0184   -0.0016   -0.0131    0.0119   -0.0268
          53    0.0598   -0.0524   -0.1085    0.0354   -0.0176    0.0900   -0.0949    0.1181
[...]
 TRANSITION DIPOLE   0.3992         C  3 -- C  4         +13.5% ( 43.1%)      0.3%
 TRAVEL (Ang.)       0.2634         C  4 -- C  5         +10.1% ( 37.3%)      0.0%
 REDUCED MASS        0.9819         C  2 -- H  7          +8.4% ( 34.0%)      0.8%
 EFFECTIVE MASS      5.8738
 FORCE CONSTANT      0.5671

 VIBRATION         48   48A           ATOM PAIR      ENERGY CONTRIBUTION    RADIAL
 FREQUENCY          1029.97         C  1 -- C  6         +14.2% ( 66.1%)      9.4%
 TRANSITION DIPOLE   0.6602         C  5 -- C  6         +13.7% ( 65.0%)      8.5%
 TRAVEL (Ang.)       0.1703         C  1 -- C  2         +10.1% ( 55.8%)     14.7%
 REDUCED MASS        2.2567         C  6 -- H  9          +9.6% ( 54.2%)     98.7%
 EFFECTIVE MASS     13.4633
 FORCE CONSTANT      1.4105

 VIBRATION         49   49A           ATOM PAIR      ENERGY CONTRIBUTION    RADIAL
 FREQUENCY          1036.51         C  5 -- N 10         +11.8% ( 59.8%)     99.3%
 TRANSITION DIPOLE   2.7188         C  4 -- C  5          +8.6% ( 51.0%)     15.3%
 TRAVEL (Ang.)       0.2374         C  5 -- C  6          +8.5% ( 50.8%)     46.2%
 REDUCED MASS        1.1538         C  1 -- N 24          +8.3% ( 50.2%)     98.7%
 EFFECTIVE MASS     13.0415
 FORCE CONSTANT      0.7304

 VIBRATION         50   50A           ATOM PAIR      ENERGY CONTRIBUTION    RADIAL
 FREQUENCY          1088.29         C 15 -- H 17         +23.9% ( 66.4%)     25.9%
 TRANSITION DIPOLE   0.6520         C 15 -- H 18         +18.9% ( 59.1%)      6.5%
 TRAVEL (Ang.)       0.2449         C 13 -- C 15         +17.4% ( 56.7%)      2.3%
 REDUCED MASS        1.0331         C 15 -- H 16         +12.8% ( 48.6%)      1.0%
 EFFECTIVE MASS      5.5927
 FORCE CONSTANT      0.7209

 VIBRATION         51   51A           ATOM PAIR      ENERGY CONTRIBUTION    RADIAL
 FREQUENCY          1128.17         C 13 -- C 15         +25.6% ( 81.8%)     69.9%
 TRANSITION DIPOLE   1.1191         C 13 -- N 19         +14.5% ( 61.5%)     54.5%
 TRAVEL (Ang.)       0.1315         C 13 -- H 14         +13.9% ( 60.2%)      2.4%
 REDUCED MASS        3.4560         C  3 -- C 13         +13.4% ( 59.3%)      1.0%
 EFFECTIVE MASS      9.4712         C 15 -- H 16         +12.8% ( 57.7%)      0.5%
 FORCE CONSTANT      2.5916

 VIBRATION         52   52A           ATOM PAIR      ENERGY CONTRIBUTION    RADIAL
 FREQUENCY          1190.02         C 13 -- C 15         +17.8% ( 63.5%)     61.3%
 TRANSITION DIPOLE   0.5134         C 13 -- H 14         +12.5% ( 53.2%)      0.3%
 TRAVEL (Ang.)       0.1910         C 13 -- N 19         +11.8% ( 51.7%)     10.3%
 REDUCED MASS        1.5528         C  3 -- C 13         +10.8% ( 49.4%)     77.8%
 EFFECTIVE MASS      7.9112
 FORCE CONSTANT      1.2956

 VIBRATION         53   53A           ATOM PAIR      ENERGY CONTRIBUTION    RADIAL
 FREQUENCY          1221.31         C  6 -- H  9         +25.1% ( 62.6%)      0.1%
 TRANSITION DIPOLE   0.9474         C  4 -- H  8         +19.1% ( 54.6%)      3.1%
 TRAVEL (Ang.)       0.3745         C  4 -- C  5          +7.1% ( 33.2%)     80.9%
 REDUCED MASS        0.3937         C  5 -- C  6          +6.8% ( 32.6%)     33.1%
 EFFECTIVE MASS      4.2752
 FORCE CONSTANT      0.3460

 VIBRATION         54   54A           ATOM PAIR      ENERGY CONTRIBUTION    RADIAL
 FREQUENCY          1233.37         C  2 -- H  7         +21.0% ( 57.7%)      1.1%
 TRANSITION DIPOLE   1.8923         C  6 -- H  9         +11.0% ( 41.7%)      5.5%
 TRAVEL (Ang.)       0.3883         C  4 -- H  8         +10.0% ( 39.8%)      2.0%
 REDUCED MASS        0.3626         C  3 -- C 13          +8.2% ( 36.1%)     98.7%
 EFFECTIVE MASS      4.4329
 FORCE CONSTANT      0.3250

 VIBRATION         55   55A           ATOM PAIR      ENERGY CONTRIBUTION    RADIAL
 FREQUENCY          1243.25         C 15 -- H 16         +46.6% ( 58.7%)      0.2%
 TRANSITION DIPOLE   0.8076         C 15 -- H 17         +27.6% ( 45.1%)      5.9%
 TRAVEL (Ang.)       0.3817         C 15 -- H 18         +20.0% ( 38.5%)      8.0%
 REDUCED MASS        0.3723         C 13 -- C 15          +3.7% ( 16.4%)     22.4%
 EFFECTIVE MASS      1.4281
 FORCE CONSTANT      0.3390

 VIBRATION         56   56A           ATOM PAIR      ENERGY CONTRIBUTION    RADIAL
 FREQUENCY          1253.59         C 15 -- H 17         +36.4% ( 55.7%)      0.9%
 TRANSITION DIPOLE   0.5993         C 15 -- H 18         +28.8% ( 49.5%)      2.2%
 TRAVEL (Ang.)       0.3987         C 15 -- H 16          +9.3% ( 28.1%)     25.5%
 REDUCED MASS        0.3383         C 13 -- C 15          +5.0% ( 20.7%)     99.9%
 EFFECTIVE MASS      1.8830
 FORCE CONSTANT      0.3132

 VIBRATION         57   57A           ATOM PAIR      ENERGY CONTRIBUTION    RADIAL
 FREQUENCY          1294.58         C  2 -- H  7         +26.8% ( 67.2%)      0.0%
 TRANSITION DIPOLE   0.6905         C  6 -- H  9         +19.7% ( 57.6%)      0.1%
 TRAVEL (Ang.)       0.3231         C  4 -- H  8         +16.4% ( 52.6%)      0.0%
 REDUCED MASS        0.4989         C  4 -- C  5          +6.9% ( 34.0%)     72.8%
 EFFECTIVE MASS      3.9985
 FORCE CONSTANT      0.4926

 VIBRATION         58   58A           ATOM PAIR      ENERGY CONTRIBUTION    RADIAL
 FREQUENCY          1357.47         C 15 -- H 16         +22.4% ( 50.5%)      0.7%
 TRANSITION DIPOLE   0.9204         C 15 -- H 17         +18.1% ( 45.4%)      0.8%
 TRAVEL (Ang.)       0.4009         C 15 -- H 18         +16.8% ( 43.7%)      1.3%
 REDUCED MASS        0.3091         C  1 -- C  2          +4.5% ( 22.7%)     67.5%
 EFFECTIVE MASS      3.6313
 FORCE CONSTANT      0.3356

 VIBRATION         59   59A           ATOM PAIR      ENERGY CONTRIBUTION    RADIAL
 FREQUENCY          1386.51         C  3 -- C 13         +12.7% ( 50.3%)     93.5%
 TRANSITION DIPOLE   1.4686         C  4 -- C  5          +9.9% ( 44.3%)     70.6%
 TRAVEL (Ang.)       0.1873         C  1 -- C  6          +8.8% ( 41.9%)     73.9%
 REDUCED MASS        1.3858         C  2 -- C  3          +8.4% ( 40.9%)     79.2%
 EFFECTIVE MASS      9.9807
 FORCE CONSTANT      1.5696

 VIBRATION         60   60A           ATOM PAIR      ENERGY CONTRIBUTION    RADIAL
 FREQUENCY          1387.78         H 28 -- O 29         +43.9% ( 54.2%)      0.8%
 TRANSITION DIPOLE   0.9280         H 27 -- O 29         +40.9% ( 52.3%)     10.2%
 TRAVEL (Ang.)       0.3249         C  3 -- C 13          +2.0% ( 11.6%)     93.7%
 REDUCED MASS        0.4603         C  4 -- C  5          +1.4% (  9.8%)     70.7%
 EFFECTIVE MASS      1.9582
 FORCE CONSTANT      0.5223

 VIBRATION         61   61A           ATOM PAIR      ENERGY CONTRIBUTION    RADIAL
 FREQUENCY          1447.10         C  3 -- C  4         +13.4% ( 57.5%)     98.4%
 TRANSITION DIPOLE   1.2091         C  2 -- C  3         +13.3% ( 57.2%)     95.1%
 TRAVEL (Ang.)       0.1718         C  5 -- C  6         +11.5% ( 53.2%)     99.9%
 REDUCED MASS        1.5794         C  1 -- C  2         +10.7% ( 51.3%)     99.6%
 EFFECTIVE MASS     10.3825
 FORCE CONSTANT      1.9487

 VIBRATION         62   62A           ATOM PAIR      ENERGY CONTRIBUTION    RADIAL
 FREQUENCY          1473.98         N 24 -- O 26         +21.4% ( 64.6%)     66.8%
 TRANSITION DIPOLE   8.9867         N 24 -- O 25         +20.6% ( 63.4%)     64.1%
 TRAVEL (Ang.)       0.1276         C  1 -- N 24         +12.4% ( 49.2%)     99.9%
 REDUCED MASS        2.8096         O 25 -- O 26         +12.3% ( 48.9%)    100.0%
 EFFECTIVE MASS     14.8395
 FORCE CONSTANT      3.5965

 VIBRATION         63   63A           ATOM PAIR      ENERGY CONTRIBUTION    RADIAL
 FREQUENCY          1486.67         N 19 -- O 20         +24.7% ( 67.4%)     73.4%
 TRANSITION DIPOLE   5.8411         N 19 -- O 21         +21.4% ( 62.7%)     62.9%
 TRAVEL (Ang.)       0.1246         O 20 -- O 21         +15.7% ( 53.7%)     99.9%
 REDUCED MASS        2.9222         C 13 -- N 19          +9.6% ( 42.0%)     98.8%
 EFFECTIVE MASS     15.0028
 FORCE CONSTANT      3.8054

 VIBRATION         64   64A           ATOM PAIR      ENERGY CONTRIBUTION    RADIAL
 FREQUENCY          1492.92         N 10 -- O 12         +15.3% ( 54.0%)     65.4%
 TRANSITION DIPOLE   3.0501         N 10 -- O 11         +14.8% ( 53.1%)     61.7%
 TRAVEL (Ang.)       0.1587         C  5 -- N 10         +10.0% ( 43.7%)     99.5%
 REDUCED MASS        1.7926         O 11 -- O 12          +8.0% ( 39.1%)    100.0%
 EFFECTIVE MASS     14.7185
 FORCE CONSTANT      2.3539

 VIBRATION         65   65A           ATOM PAIR      ENERGY CONTRIBUTION    RADIAL
 FREQUENCY          1503.78         C  4 -- C  5         +14.7% ( 54.2%)     94.8%
 TRANSITION DIPOLE   0.5055         C  1 -- C  2         +12.0% ( 49.0%)     99.9%
 TRAVEL (Ang.)       0.1762         C  5 -- C  6         +11.1% ( 47.2%)     20.0%
 REDUCED MASS        1.4449         C  1 -- C  6          +9.9% ( 44.6%)      8.1%
 EFFECTIVE MASS     10.1898
 FORCE CONSTANT      1.9251

 VIBRATION         66   66A           ATOM PAIR      ENERGY CONTRIBUTION    RADIAL
 FREQUENCY          1542.56         C  2 -- C  3         +14.2% ( 53.7%)     58.5%
 TRANSITION DIPOLE   1.2848         C  3 -- C  4         +13.2% ( 51.8%)     71.0%
 TRAVEL (Ang.)       0.1702         C  1 -- C  6         +10.9% ( 47.1%)     95.5%
 REDUCED MASS        1.5087         C  1 -- C  2         +10.1% ( 45.3%)      1.2%
 EFFECTIVE MASS     10.4683
 FORCE CONSTANT      2.1152

 VIBRATION         67   67A           ATOM PAIR      ENERGY CONTRIBUTION    RADIAL
 FREQUENCY          1661.89         N 10 -- O 12         +27.6% ( 74.5%)     90.2%
 TRANSITION DIPOLE  10.6658         N 10 -- O 11         +27.1% ( 73.8%)     89.2%
 TRAVEL (Ang.)       0.1005         C  5 -- N 10         +16.7% ( 58.0%)      0.4%
 REDUCED MASS        4.0160         O 11 -- O 12          +5.1% ( 32.1%)      0.1%
 EFFECTIVE MASS     14.2591
 FORCE CONSTANT      6.5351

 VIBRATION         68   68A           ATOM PAIR      ENERGY CONTRIBUTION    RADIAL
 FREQUENCY          1666.17         N 24 -- O 25         +29.3% ( 76.9%)     90.7%
 TRANSITION DIPOLE   8.0874         N 24 -- O 26         +28.0% ( 75.3%)     88.3%
 TRAVEL (Ang.)       0.0951         C  1 -- N 24         +17.1% ( 58.7%)      0.0%
 REDUCED MASS        4.4737         O 25 -- O 26          +5.2% ( 32.5%)      0.3%
 EFFECTIVE MASS     14.4550
 FORCE CONSTANT      7.3174

 VIBRATION         69   69A           ATOM PAIR      ENERGY CONTRIBUTION    RADIAL
 FREQUENCY          1670.94         C  5 -- C  6         +18.6% ( 61.9%)    100.0%
 TRANSITION DIPOLE   7.9605         C  2 -- C  3         +11.9% ( 49.5%)     99.6%
 TRAVEL (Ang.)       0.1446         C  5 -- N 10         +10.2% ( 45.8%)      1.5%
 REDUCED MASS        1.9287         C  4 -- C  5          +9.7% ( 44.7%)     37.5%
 EFFECTIVE MASS     12.4390
 FORCE CONSTANT      3.1728

 VIBRATION         70   70A           ATOM PAIR      ENERGY CONTRIBUTION    RADIAL
 FREQUENCY          1681.48         C  1 -- C  6         +14.3% ( 54.4%)     86.4%
 TRANSITION DIPOLE   3.0318         C  1 -- C  2         +14.1% ( 53.9%)     85.7%
 TRAVEL (Ang.)       0.1454         C  3 -- C  4         +11.2% ( 48.2%)     88.7%
 REDUCED MASS        1.8962         C  1 -- N 24         +10.6% ( 46.8%)      0.1%
 EFFECTIVE MASS     12.4489
 FORCE CONSTANT      3.1587

 VIBRATION         71   71A           ATOM PAIR      ENERGY CONTRIBUTION    RADIAL
 FREQUENCY          1687.57         N 19 -- O 21         +32.4% ( 81.0%)     91.3%
 TRANSITION DIPOLE  11.3173         N 19 -- O 20         +30.0% ( 77.9%)     87.2%
 TRAVEL (Ang.)       0.0871         C 13 -- N 19         +18.7% ( 61.5%)      0.4%
 REDUCED MASS        5.2692         O 20 -- O 21          +5.5% ( 33.3%)      0.9%
 EFFECTIVE MASS     14.2941
 FORCE CONSTANT      8.8414

 VIBRATION         72   72A           ATOM PAIR      ENERGY CONTRIBUTION    RADIAL
 FREQUENCY          1910.79         C 13 -- H 14         +91.0% ( 99.0%)    100.0%
 TRANSITION DIPOLE   1.1288         C 13 -- N 19          +2.7% ( 17.0%)      0.0%
 TRAVEL (Ang.)       0.1445         C 13 -- C 15          +2.5% ( 16.5%)      6.7%
 REDUCED MASS        1.6902         C  3 -- C 13          +2.5% ( 16.5%)      4.3%
 EFFECTIVE MASS      2.8879
 FORCE CONSTANT      3.6359

 VIBRATION         73   73A           ATOM PAIR      ENERGY CONTRIBUTION    RADIAL
 FREQUENCY          2628.66         C 15 -- H 16         +65.1% ( 83.4%)     99.5%
 TRANSITION DIPOLE   1.0751         C 15 -- H 18         +25.2% ( 51.9%)     91.8%
 TRAVEL (Ang.)       0.2243         C 15 -- H 17          +8.8% ( 30.7%)     73.5%
 REDUCED MASS        0.5098         C 13 -- C 15          +0.9% (  9.8%)      0.0%
 EFFECTIVE MASS      1.4438
 FORCE CONSTANT      2.0756

 VIBRATION         74   74A           ATOM PAIR      ENERGY CONTRIBUTION    RADIAL
 FREQUENCY          2639.47         C 15 -- H 17         +55.8% ( 77.2%)     98.7%
 TRANSITION DIPOLE   1.0922         C 15 -- H 18         +40.8% ( 66.0%)     96.5%
 TRAVEL (Ang.)       0.2272         C 15 -- H 16          +2.5% ( 16.4%)     33.5%
 REDUCED MASS        0.4950         C 13 -- C 15          +0.9% (  9.8%)      0.0%
 EFFECTIVE MASS      1.4541
 FORCE CONSTANT      2.0319

 VIBRATION         75   75A           ATOM PAIR      ENERGY CONTRIBUTION    RADIAL
 FREQUENCY          2666.82         C  6 -- H  9         +88.6% ( 95.2%)    100.0%
 TRANSITION DIPOLE   1.7569         C  2 -- H  7          +6.2% ( 25.3%)    100.0%
 TRAVEL (Ang.)       0.1814         C  4 -- H  8          +3.0% ( 17.4%)     99.8%
 REDUCED MASS        0.7687         C  5 -- C  6          +1.0% ( 10.1%)     24.6%
 EFFECTIVE MASS      1.3816
 FORCE CONSTANT      3.2211

 VIBRATION         76   76A           ATOM PAIR      ENERGY CONTRIBUTION    RADIAL
 FREQUENCY          2675.71         C  2 -- H  7         +60.1% ( 78.4%)    100.0%
 TRANSITION DIPOLE   1.6537         C  4 -- H  8         +36.8% ( 61.3%)    100.0%
 TRAVEL (Ang.)       0.2284         C  6 -- H  9          +0.9% (  9.6%)     99.8%
 REDUCED MASS        0.4830         C  1 -- C  2          +0.7% (  8.2%)     22.5%
 EFFECTIVE MASS      1.3782
 FORCE CONSTANT      2.0372

 VIBRATION         77   77A           ATOM PAIR      ENERGY CONTRIBUTION    RADIAL
 FREQUENCY          2682.26         C  4 -- H  8         +57.9% ( 76.9%)    100.0%
 TRANSITION DIPOLE   0.3875         C  2 -- H  7         +31.3% ( 56.6%)    100.0%
 TRAVEL (Ang.)       0.2416         C  6 -- H  9          +8.2% ( 28.9%)    100.0%
 REDUCED MASS        0.4307         C  4 -- C  5          +0.7% (  8.6%)     23.8%
 EFFECTIVE MASS      1.4433
 FORCE CONSTANT      1.8258

 VIBRATION         78   78A           ATOM PAIR      ENERGY CONTRIBUTION    RADIAL
 FREQUENCY          2722.26         H 28 -- O 29         +56.9% ( 76.9%)    100.0%
 TRANSITION DIPOLE   0.9534         O 22 -- H 23         +36.2% ( 61.4%)     99.5%
 TRAVEL (Ang.)       0.2338         H 27 -- O 29          +6.9% ( 26.7%)     73.0%
 REDUCED MASS        0.4532
 EFFECTIVE MASS      1.4867
 FORCE CONSTANT      1.9790

 VIBRATION         79   79A           ATOM PAIR      ENERGY CONTRIBUTION    RADIAL
 FREQUENCY          2764.67         C 15 -- H 17         +35.0% ( 56.5%)     95.7%
 TRANSITION DIPOLE   0.7027         C 15 -- H 18         +33.2% ( 55.1%)     95.5%
 TRAVEL (Ang.)       0.2735         C 15 -- H 16         +31.4% ( 53.5%)     95.0%
 REDUCED MASS        0.3262         C 13 -- C 15          +0.3% (  4.9%)     99.8%
 EFFECTIVE MASS      1.1431
 FORCE CONSTANT      1.4689

 VIBRATION         80   80A           ATOM PAIR      ENERGY CONTRIBUTION    RADIAL
 FREQUENCY          2785.13         H 27 -- O 29         +75.8% ( 86.6%)     98.6%
 TRANSITION DIPOLE   1.1603         O 22 -- H 23         +22.9% ( 47.6%)    100.0%
 TRAVEL (Ang.)       0.2018         H 28 -- O 29          +1.3% ( 11.4%)     75.0%
 REDUCED MASS        0.5944
 EFFECTIVE MASS      1.3736
 FORCE CONSTANT      2.7166

 VIBRATION         81   81A           ATOM PAIR      ENERGY CONTRIBUTION    RADIAL
 FREQUENCY          2811.91         O 22 -- H 23         +41.6% ( 63.0%)     99.7%
 TRANSITION DIPOLE   0.7347         H 28 -- O 29         +41.4% ( 62.9%)     99.4%
 TRAVEL (Ang.)       0.2595         H 27 -- O 29         +17.1% ( 40.4%)     95.8%
 REDUCED MASS        0.3561
 EFFECTIVE MASS      1.3315
 FORCE CONSTANT      1.6588

      SYMMETRY NUMBER FOR POINT-GROUP C1  =  1


          SYSTEM IS A GROUND STATE



 Title: ASE calculation


          MOLECULE IS NOT LINEAR

          THERE ARE 81 GENUINE VIBRATIONS IN THIS SYSTEM
          THIS THERMODYNAMICS CALCULATION IS LIMITED TO
          MOLECULES WHICH HAVE NO INTERNAL ROTATIONS




                    CALCULATED THERMODYNAMIC PROPERTIES
                                          *
   TEMP. (K)   PARTITION FUNCTION   H.O.F.    ENTHALPY  HEAT CAPACITY ENTROPY
                                   KCAL/MOL   CAL/MOLE    CAL/K/MOL  CAL/K/MOL


 298.00  VIB.     0.3366D+10                 11922.1101    68.8318    83.6002
         ROT.     0.9569D+07                   888.2803     2.9808    34.9232
         INT.     0.3221D+17                 12810.3904    71.8126   118.5234
         TRA.     0.4462D+28                  1480.4672     4.9680    42.7548
         TOT.                     -216.393   14290.8576    76.7806   161.2782

   *: NOTE: HEATS OF FORMATION ARE RELATIVE TO THE
            ELEMENTS IN THEIR STANDARD STATE AT 298K
              (=  Standard Enthalpy of Formation).

            Hvib:  Zero-point energy is not included.
                   frequencies of less than zero cm-1 are not included.
            Hrot = (3/2)RT
            Htra = (3/2)RT + pV = (5/2)RT

            Heat capacity is Cp, not Cv

          For more information, see: HTTP://OpenMOPAC.net/Manual/thermochemistry.html


           FORCE CONSTANT IN CARTESIAN COORDINATES (Millidynes/A)

    ATOM   CHEMICAL       X               Y               Z
   NUMBER   SYMBOL  FORCE CONSTANT  FORCE CONSTANT  FORCE CONSTANT

      1       C       11.812507       10.851732        2.203030
      2       C       10.842795        9.955965        2.358868
      3       C       10.361788       11.526217        2.716145
      4       C       10.647838       10.122155        2.400920
      5       C       11.667276       11.024570        2.214400
      6       C        9.476395       11.534080        2.202577
      7       H        1.731877        3.223361        0.371390
      8       H        1.558178        3.362839        0.391414
      9       H        3.983521        0.932569        0.354974
     10       N       14.102248       11.981061        2.570271
     11       O       12.049008        1.649917        0.298548
     12       O        4.577386        9.107772        0.203416
     13       C        7.892016        6.830105        5.748801
     14       H        1.076424        1.720206        2.667126
     15       C        6.183769        6.570284        6.159401
     16       H        3.984138        0.767296        0.514559
     17       H        0.752553        1.966577        2.580086
     18       H        0.774825        1.543374        2.921318
     19       N       14.789158        4.989470        9.232110
     20       O       11.975939        0.724715        1.339067
     21       O        6.321382        1.813241        5.985486
     22       O        0.551465        3.032628        0.419326
     23       H        0.728311        3.032228        0.626592
     24       N       14.283487       11.748147        1.975354
     25       O       12.030516        1.620873        0.312329
     26       O        4.598395        8.981823        0.191735
     27       H        3.708971        0.301440        0.803827
     28       H        0.610930        1.810769        2.423869
     29       O        3.943542        2.347594        3.148596

 **********************
 *                    *
 * JOB ENDED NORMALLY *
 *                    *
 **********************



 TOTAL JOB TIME:            14.09 SECONDS

 == MOPAC DONE ==
