
                                 *****************
                                 * O   R   C   A *
                                 *****************

                                            #,                                       
                                            ###                                      
                                            ####                                     
                                            #####                                    
                                            ######                                   
                                           ########,                                 
                                     ,,################,,,,,                         
                               ,,#################################,,                 
                          ,,##########################################,,             
                       ,#########################################, ''#####,          
                    ,#############################################,,   '####,        
                  ,##################################################,,,,####,       
                ,###########''''           ''''###############################       
              ,#####''   ,,,,##########,,,,          '''####'''          '####       
            ,##' ,,,,###########################,,,                        '##       
           ' ,,###''''                  '''############,,,                           
         ,,##''                                '''############,,,,        ,,,,,,###''
      ,#''                                            '''#######################'''  
     '                                                          ''''####''''         
             ,#######,   #######,   ,#######,      ##                                
            ,#'     '#,  ##    ##  ,#'     '#,    #''#        ######   ,####,        
            ##       ##  ##   ,#'  ##            #'  '#       #        #'  '#        
            ##       ##  #######   ##           ,######,      #####,   #    #        
            '#,     ,#'  ##    ##  '#,     ,#' ,#      #,         ##   #,  ,#        
             '#######'   ##     ##  '#######'  #'      '#     #####' # '####'        



                  #######################################################
                  #                        -***-                        #
                  #          Department of theory and spectroscopy      #
                  #    Directorship and core code : Frank Neese         #
                  #        Max Planck Institute fuer Kohlenforschung    #
                  #                Kaiser Wilhelm Platz 1               #
                  #                 D-45470 Muelheim/Ruhr               #
                  #                      Germany                        #
                  #                                                     #
                  #                  All rights reserved                #
                  #                        -***-                        #
                  #######################################################


                         Program Version 5.0.4 -  RELEASE  -


 With contributions from (in alphabetic order):
   Daniel Aravena         : Magnetic Suceptibility
   Michael Atanasov       : Ab Initio Ligand Field Theory (pilot matlab implementation)
   Alexander A. Auer      : GIAO ZORA, VPT2 properties, NMR spectrum
   Ute Becker             : Parallelization
   Giovanni Bistoni       : ED, misc. LED, open-shell LED, HFLD
   Martin Brehm           : Molecular dynamics
   Dmytro Bykov           : SCF Hessian
   Vijay G. Chilkuri      : MRCI spin determinant printing, contributions to CSF-ICE
   Dipayan Datta          : RHF DLPNO-CCSD density
   Achintya Kumar Dutta   : EOM-CC, STEOM-CC
   Dmitry Ganyushin       : Spin-Orbit,Spin-Spin,Magnetic field MRCI
   Miquel Garcia          : C-PCM and meta-GGA Hessian, CC/C-PCM, Gaussian charge scheme
   Yang Guo               : DLPNO-NEVPT2, F12-NEVPT2, CIM, IAO-localization
   Andreas Hansen         : Spin unrestricted coupled pair/coupled cluster methods
   Benjamin Helmich-Paris : MC-RPA, TRAH-SCF, COSX integrals
   Lee Huntington         : MR-EOM, pCC
   Robert Izsak           : Overlap fitted RIJCOSX, COSX-SCS-MP3, EOM
   Marcus Kettner         : VPT2
   Christian Kollmar      : KDIIS, OOCD, Brueckner-CCSD(T), CCSD density, CASPT2, CASPT2-K
   Simone Kossmann        : Meta GGA functionals, TD-DFT gradient, OOMP2, MP2 Hessian
   Martin Krupicka        : Initial AUTO-CI
   Lucas Lang             : DCDCAS
   Marvin Lechner         : AUTO-CI (C++ implementation), FIC-MRCC
   Dagmar Lenk            : GEPOL surface, SMD
   Dimitrios Liakos       : Extrapolation schemes; Compound Job, initial MDCI parallelization
   Dimitrios Manganas     : Further ROCIS development; embedding schemes
   Dimitrios Pantazis     : SARC Basis sets
   Anastasios Papadopoulos: AUTO-CI, single reference methods and gradients
   Taras Petrenko         : DFT Hessian,TD-DFT gradient, ASA, ECA, R-Raman, ABS, FL, XAS/XES, NRVS
   Peter Pinski           : DLPNO-MP2, DLPNO-MP2 Gradient
   Christoph Reimann      : Effective Core Potentials
   Marius Retegan         : Local ZFS, SOC
   Christoph Riplinger    : Optimizer, TS searches, QM/MM, DLPNO-CCSD(T), (RO)-DLPNO pert. Triples
   Tobias Risthaus        : Range-separated hybrids, TD-DFT gradient, RPA, STAB
   Michael Roemelt        : Original ROCIS implementation
   Masaaki Saitow         : Open-shell DLPNO-CCSD energy and density
   Barbara Sandhoefer     : DKH picture change effects
   Avijit Sen             : IP-ROCIS
   Kantharuban Sivalingam : CASSCF convergence, NEVPT2, FIC-MRCI
   Bernardo de Souza      : ESD, SOC TD-DFT
   Georgi Stoychev        : AutoAux, RI-MP2 NMR, DLPNO-MP2 response
   Willem Van den Heuvel  : Paramagnetic NMR
   Boris Wezisla          : Elementary symmetry handling
   Frank Wennmohs         : Technical directorship


 We gratefully acknowledge several colleagues who have allowed us to
 interface, adapt or use parts of their codes:
   Stefan Grimme, W. Hujo, H. Kruse, P. Pracht,  : VdW corrections, initial TS optimization,
                  C. Bannwarth, S. Ehlert          DFT functionals, gCP, sTDA/sTD-DF
   Ed Valeev, F. Pavosevic, A. Kumar             : LibInt (2-el integral package), F12 methods
   Garnet Chan, S. Sharma, J. Yang, R. Olivares  : DMRG
   Ulf Ekstrom                                   : XCFun DFT Library
   Mihaly Kallay                                 : mrcc  (arbitrary order and MRCC methods)
   Jiri Pittner, Ondrej Demel                    : Mk-CCSD
   Frank Weinhold                                : gennbo (NPA and NBO analysis)
   Christopher J. Cramer and Donald G. Truhlar   : smd solvation model
   Lars Goerigk                                  : TD-DFT with DH, B97 family of functionals
   V. Asgeirsson, H. Jonsson                     : NEB implementation
   FAccTs GmbH                                   : IRC, NEB, NEB-TS, DLPNO-Multilevel, CI-OPT
                                                   MM, QMMM, 2- and 3-layer-ONIOM, Crystal-QMMM,
                                                   LR-CPCM, SF, NACMEs, symmetry and pop. for TD-DFT,
                                                   nearIR, NL-DFT gradient (VV10), updates on ESD,
                                                   ML-optimized integration grids
   S Lehtola, MJT Oliveira, MAL Marques          : LibXC Library
   Liviu Ungur et al                             : ANISO software


 Your calculation uses the libint2 library for the computation of 2-el integrals
 For citations please refer to: http://libint.valeyev.net

 Your ORCA version has been built with support for libXC version: 5.1.0
 For citations please refer to: https://tddft.org/programs/libxc/

 This ORCA versions uses:
   CBLAS   interface :  Fast vector & matrix operations
   LAPACKE interface :  Fast linear algebra routines
   SCALAPACK package :  Parallel linear algebra routines
   Shared memory     :  Shared parallel matrices
   BLAS/LAPACK       :  OpenBLAS 0.3.15  USE64BITINT DYNAMIC_ARCH NO_AFFINITY Prescott SINGLE_THREADED
        Core in use  :  Prescott
   Copyright (c) 2011-2014, The OpenBLAS Project


Your calculation utilizes the atom-pairwise dispersion correction
with the Becke-Johnson damping scheme (D3BJ)
Cite in your paper:
S.Grimme, S.Ehrlich, L.Goerigk, J Comput Chem, (2011), 32, 1456–1465 
S.Grimme, J.Antony, S.Ehrlich and H.Krieg, J.Chem.Phys., 132, (2010), 154104 
   

================================================================================

----- Orbital basis set information -----
Your calculation utilizes the basis: def2-TZVP
   F. Weigend and R. Ahlrichs, Phys. Chem. Chem. Phys. 7, 3297 (2005).

----- AuxJ basis set information -----
Your calculation utilizes the auxiliary basis: def2/J
   F. Weigend, Phys. Chem. Chem. Phys. 8, 1057 (2006).

================================================================================
                                        WARNINGS
                       Please study these warnings very carefully!
================================================================================


WARNING: Geometry Optimization
  ===> : Switching off AutoStart
         For restart on a previous wavefunction, please use MOREAD

INFO   : the flag for use of the SHARK integral package has been found!

================================================================================
                                       INPUT FILE
================================================================================
NAME = /home/rudenko/mop_saddle_orca_4_serv/for_orca/m-clc6h4chno2ch3_piperidine/orca/orca_start/start.inp
|  1> !  opt B3LYP def2-TZVP CPCM D3 
|  2> %pal nprocs 102 end
|  3> %cpcm epsilon 78.4 end 
|  4> *xyz 0 1 
|  5> C   1.99166212 2.64948521 2.1920705
|  6> C   2.204827 1.28470641 2.00297386
|  7> C   1.14812813 0.44631417 1.64201395
|  8> C   -0.13085538 0.97489115 1.45381703
|  9> C   -0.30963471 2.33617237 1.6477683
| 10> C   0.71955357 3.19188644 2.01650875
| 11> H   2.82438194 3.29733246 2.47984229
| 12> H   3.20989243 0.87426445 2.14041779
| 13> H   -0.96253418 0.32759412 1.15933716
| 14> Cl   -1.8817407 2.98717368 1.4178484
| 15> H   0.55117238 4.26106133 2.16615722
| 16> C   1.40466645 -1.02877953 1.47778345
| 17> C   0.44365582 -1.88397369 2.29332204
| 18> H   0.64349267 -2.95918875 2.17693432
| 19> H   -0.61070777 -1.71504644 2.03479531
| 20> H   0.5567365 -1.65808785 3.36753338
| 21> N   1.25358148 -1.36816984 0.02073952
| 22> O   2.25192188 -1.69567241 -0.60054777
| 23> O   0.15225556 -1.2994123 -0.49873094
| 24> N   5.74974523 -0.00721541 3.22343402
| 25> C   6.24449034 -1.28586284 2.65587255
| 26> C   7.71659634 -1.21005867 2.21341074
| 27> C   7.90279482 -0.0674494 1.207502
| 28> C   7.38916293 1.2533885 1.79402083
| 29> C   5.92524793 1.09317807 2.24468541
| 30> H   2.46990561 -1.28597762 1.77588494
| 31> H   6.10791651 -2.07996576 3.42043072
| 32> H   5.59894006 -1.55633832 1.79113744
| 33> H   8.0306936 -2.17235162 1.76984132
| 34> H   8.37003818 -1.05405723 3.09152543
| 35> H   8.96867423 0.02659596 0.92986225
| 36> H   7.36373305 -0.29853584 0.26861665
| 37> H   7.47091076 2.06608218 1.0495284
| 38> H   8.01949818 1.56153076 2.64829916
| 39> H   5.5558039 2.0330283 2.70805601
| 40> H   5.28093063 0.88675932 1.36150234
| 41> H   6.26235262 0.21214302 4.08485364
| 42> H   2.60878223 -0.13246504 4.33239022
| 43> H   3.94725146 -0.56883844 3.71718987
| 44> O   3.05217194 -0.88962496 3.94839666
| 45> *
| 46> 
| 47>                          ****END OF INPUT****
================================================================================

                       *****************************
                       * Geometry Optimization Run *
                       *****************************

Geometry optimization settings:
Update method            Update   .... BFGS
Choice of coordinates    CoordSys .... Z-matrix Internals
Initial Hessian          InHess   .... Almoef's Model

Convergence Tolerances:
Energy Change            TolE     ....  5.0000e-06 Eh
Max. Gradient            TolMAXG  ....  3.0000e-04 Eh/bohr
RMS Gradient             TolRMSG  ....  1.0000e-04 Eh/bohr
Max. Displacement        TolMAXD  ....  4.0000e-03 bohr
RMS Displacement         TolRMSD  ....  2.0000e-03 bohr
Strict Convergence                ....  False
------------------------------------------------------------------------------
                        ORCA OPTIMIZATION COORDINATE SETUP
------------------------------------------------------------------------------

The optimization will be done in new redundant internal coordinates
Making redundant internal coordinates   ...  (new redundants) done
Evaluating the initial hessian          ...  (Almloef) done
Evaluating the coordinates              ...  done
Calculating the B-matrix                .... done
Calculating the G-matrix                .... done
Diagonalizing the G-matrix              .... done
Small eigenvalue found = 2.271e-02
The first mode is                       ....  268
The number of degrees of freedom        ....  114

    -----------------------------------------------------------------
                    Redundant Internal Coordinates


    -----------------------------------------------------------------
         Definition                    Initial Value    Approx d2E/dq
    -----------------------------------------------------------------
      1. B(C   1,C   0)                  1.3942         0.615211   
      2. B(C   2,C   1)                  1.3964         0.610380   
      3. B(C   3,C   2)                  1.3966         0.609734   
      4. B(C   4,C   3)                  1.3866         0.632644   
      5. B(C   5,C   0)                  1.3940         0.615646   
      6. B(C   5,C   4)                  1.3883         0.628654   
      7. B(H   6,C   0)                  1.0936         0.355381   
      8. B(H   7,C   1)                  1.0943         0.354446   
      9. B(H   8,C   3)                  1.0943         0.354510   
     10. B(Cl  9,C   4)                  1.7170         0.421680   
     11. B(H  10,C   5)                  1.0926         0.356613   
     12. B(C  11,C   2)                  1.5062         0.407685   
     13. B(C  12,C  11)                  1.5232         0.383087   
     14. B(H  13,C  12)                  1.0998         0.347362   
     15. B(H  14,C  12)                  1.0987         0.348823   
     16. B(H  15,C  12)                  1.1035         0.342660   
     17. B(N  16,C  11)                  1.5037         0.368587   
     18. B(O  17,N  16)                  1.2206         0.933749   
     19. B(O  18,N  16)                  1.2196         0.937190   
     20. B(C  20,N  19)                  1.4839         0.396396   
     21. B(C  21,C  20)                  1.5390         0.361385   
     22. B(C  22,C  21)                  1.5336         0.368601   
     23. B(C  23,C  22)                  1.5338         0.368443   
     24. B(C  24,C  23)                  1.5401         0.360008   
     25. B(C  24,N  19)                  1.4831         0.397488   
     26. B(C  24,H   7)                  2.7262         0.000883   
     27. B(H  25,C  11)                  1.1357         0.304479   
     28. B(H  26,C  20)                  1.1108         0.333651   
     29. B(H  27,C  20)                  1.1125         0.331531   
     30. B(H  28,C  21)                  1.1052         0.340571   
     31. B(H  29,C  21)                  1.1056         0.340011   
     32. B(H  30,C  22)                  1.1055         0.340227   
     33. B(H  31,C  22)                  1.1070         0.338274   
     34. B(H  32,C  23)                  1.1052         0.340569   
     35. B(H  33,C  23)                  1.1055         0.340205   
     36. B(H  34,H   7)                  2.6774         0.000202   
     37. B(H  34,C  24)                  1.1111         0.333255   
     38. B(H  35,H   7)                  2.2127         0.001115   
     39. B(H  35,C  24)                  1.1125         0.331472   
     40. B(H  36,N  19)                  1.0261         0.407823   
     41. B(H  37,H   7)                  2.4859         0.000409   
     42. B(H  38,H  36)                  2.4708         0.000432   
     43. B(H  38,N  19)                  1.9515         0.013619   
     44. B(H  38,H   7)                  2.2611         0.000933   
     45. B(O  39,H  25)                  2.2838         0.004017   
     46. B(O  39,H   7)                  2.5308         0.001621   
     47. B(O  39,H  38)                  0.9785         0.485733   
     48. B(O  39,H  37)                  0.9578         0.524220   
     49. A(C   1,C   0,H   6)          119.9450         0.351661   
     50. A(C   1,C   0,C   5)          120.2199         0.432912   
     51. A(C   5,C   0,H   6)          119.8351         0.351703   
     52. A(C   0,C   1,H   7)          119.3762         0.351504   
     53. A(C   0,C   1,C   2)          120.4708         0.432244   
     54. A(C   2,C   1,H   7)          120.1530         0.351036   
     55. A(C   3,C   2,C  11)          120.7919         0.401646   
     56. A(C   1,C   2,C  11)          119.1636         0.401720   
     57. A(C   1,C   2,C   3)          120.0398         0.431550   
     58. A(C   2,C   3,C   4)          118.0846         0.434339   
     59. A(C   2,C   3,H   8)          120.5571         0.350984   
     60. A(C   4,C   3,H   8)          121.3581         0.353181   
     61. A(C   5,C   4,Cl  9)          118.7260         0.424529   
     62. A(C   3,C   4,C   5)          123.1395         0.436736   
     63. A(C   3,C   4,Cl  9)          118.1344         0.425010   
     64. A(C   0,C   5,C   4)          118.0418         0.434599   
     65. A(C   4,C   5,H  10)          121.6857         0.353156   
     66. A(C   0,C   5,H  10)          120.2724         0.351909   
     67. A(H  35,H   7,H  38)           86.7815         0.098067   
     68. A(C  24,H   7,H  37)          103.8657         0.097923   
     69. A(C   1,H   7,H  38)          128.7914         0.130778   
     70. A(C   1,H   7,H  35)          144.4210         0.132492   
     71. A(C   1,H   7,H  37)           92.3243         0.123655   
     72. A(H  34,H   7,H  37)          101.5488         0.094111   
     73. A(C  24,H   7,H  35)           23.1825         0.100198   
     74. A(C   1,H   7,C  24)          152.8097         0.140597   
     75. A(H  34,H   7,H  38)           80.9464         0.095161   
     76. A(C  24,H   7,H  38)           72.5281         0.099757   
     77. A(C   1,H   7,O  39)          107.0916         0.147512   
     78. A(H  35,H   7,H  37)          122.6167         0.096521   
     79. A(H  38,H   7,O  39)           22.6773         0.101198   
     80. A(H  37,H   7,O  39)           21.9891         0.099118   
     81. A(C  24,H   7,H  34)           23.7097         0.096609   
     82. A(C   1,H   7,H  34)          131.9935         0.118554   
     83. A(H  34,H   7,O  39)          101.8174         0.097629   
     84. A(C  24,H   7,O  39)           95.2049         0.104065   
     85. A(H  35,H   7,O  39)          108.2851         0.101699   
     86. A(H  37,H   7,H  38)           37.3897         0.096225   
     87. A(H  34,H   7,H  35)           41.5898         0.095414   
     88. A(C  12,C  11,N  16)          109.1902         0.361816   
     89. A(C   2,C  11,N  16)          108.0344         0.365686   
     90. A(N  16,C  11,H  25)          107.3064         0.313003   
     91. A(C  12,C  11,H  25)          108.9114         0.316843   
     92. A(C   2,C  11,C  12)          112.5829         0.370428   
     93. A(C   2,C  11,H  25)          110.6666         0.320075   
     94. A(C  11,C  12,H  14)          113.1522         0.323964   
     95. A(H  14,C  12,H  15)          107.2133         0.287152   
     96. A(H  13,C  12,H  15)          106.5300         0.286964   
     97. A(C  11,C  12,H  15)          109.9760         0.323018   
     98. A(H  13,C  12,H  14)          107.4452         0.287764   
     99. A(C  11,C  12,H  13)          112.1854         0.323741   
    100. A(O  17,N  16,O  18)          122.4721         0.491040   
    101. A(C  11,N  16,O  18)          119.3884         0.417518   
    102. A(C  11,N  16,O  17)          118.1375         0.417245   
    103. A(H  36,N  19,H  38)          108.0918         0.185637   
    104. A(C  24,N  19,H  38)          119.3278         0.200472   
    105. A(C  20,N  19,H  38)           99.0182         0.200402   
    106. A(C  20,N  19,C  24)          110.3326         0.366369   
    107. A(C  24,N  19,H  36)          109.6504         0.329608   
    108. A(C  20,N  19,H  36)          109.8004         0.329458   
    109. A(N  19,C  20,C  21)          112.7332         0.362707   
    110. A(H  26,C  20,H  27)          106.8496         0.283707   
    111. A(C  21,C  20,H  27)          110.0930         0.318229   
    112. A(N  19,C  20,H  27)          108.2603         0.321151   
    113. A(C  21,C  20,H  26)          110.5306         0.318560   
    114. A(N  19,C  20,H  26)          108.1663         0.321487   
    115. A(H  28,C  21,H  29)          105.8817         0.285735   
    116. A(C  22,C  21,H  29)          110.1238         0.320578   
    117. A(C  20,C  21,H  29)          110.1165         0.319544   
    118. A(C  22,C  21,H  28)          110.5456         0.320664   
    119. A(C  20,C  21,H  28)          110.1420         0.319629   
    120. A(C  20,C  21,C  22)          109.9616         0.360474   
    121. A(H  30,C  22,H  31)          105.9183         0.285462   
    122. A(C  23,C  22,H  31)          109.9391         0.320287   
    123. A(C  21,C  22,H  31)          109.9764         0.320309   
    124. A(C  23,C  22,H  30)          110.2229         0.320588   
    125. A(C  21,C  22,H  30)          110.1925         0.320611   
    126. A(C  21,C  22,C  23)          110.4949         0.361665   
    127. A(H  32,C  23,H  33)          105.8679         0.285760   
    128. A(C  24,C  23,H  33)          110.1735         0.319374   
    129. A(C  22,C  23,H  33)          110.1579         0.320585   
    130. A(C  24,C  23,H  32)          110.1166         0.319430   
    131. A(C  22,C  23,H  32)          110.5418         0.320641   
    132. A(C  22,C  23,C  24)          109.9158         0.360214   
    133. A(C  23,C  24,H  35)          109.7248         0.318022   
    134. A(N  19,C  24,H  35)          108.5231         0.321287   
    135. A(C  23,C  24,H  34)          110.4938         0.318301   
    136. A(N  19,C  24,H  34)          108.2423         0.321569   
    137. A(H   7,C  24,H  35)           51.5302         0.139820   
    138. A(N  19,C  24,C  23)          112.5059         0.362641   
    139. A(H   7,C  24,H  34)           75.6815         0.139882   
    140. A(H   7,C  24,C  23)          160.7251         0.148868   
    141. A(H   7,C  24,N  19)           81.2453         0.149721   
    142. A(H  34,C  24,H  35)          107.1839         0.283647   
    143. A(C  11,H  25,O  39)          116.7135         0.158420   
    144. A(H   7,H  34,C  24)           80.6088         0.118145   
    145. A(H   7,H  35,C  24)          105.2873         0.131838   
    146. A(N  19,H  36,H  38)           48.6566         0.124803   
    147. A(H   7,H  37,O  39)           81.6447         0.126424   
    148. A(N  19,H  38,H  36)           23.2516         0.105587   
    149. A(H   7,H  38,H  36)          101.9813         0.096316   
    150. A(H  36,H  38,O  39)          157.7497         0.126248   
    151. A(H   7,H  38,N  19)           86.6227         0.108747   
    152. A(H   7,H  38,O  39)           94.3416         0.133343   
    153. A(H   7,O  39,H  25)           57.1310         0.109978   
    154. A(H  25,O  39,H  38)           93.7463         0.165261   
    155. A(H  25,O  39,H  37)          113.6124         0.166589   
    156. A(H   7,O  39,H  38)           62.9812         0.151105   
    157. A(H   7,O  39,H  37)           76.3662         0.152186   
    158. A(H  37,O  39,H  38)          105.0123         0.318697   
    159. D(C   2,C   1,C   0,C   5)     -0.2743         0.026166   
    160. D(H   7,C   1,C   0,H   6)     -0.3010         0.026166   
    161. D(H   7,C   1,C   0,C   5)    179.7468         0.026166   
    162. D(C   2,C   1,C   0,H   6)    179.6780         0.026166   
    163. D(C   3,C   2,C   1,C   0)      0.6788         0.025733   
    164. D(C  11,C   2,C   1,C   0)   -178.5370         0.025733   
    165. D(C  11,C   2,C   1,H   7)      1.4417         0.025733   
    166. D(C   3,C   2,C   1,H   7)   -179.3424         0.025733   
    167. D(C   4,C   3,C   2,C  11)    178.6235         0.025675   
    168. D(H   8,C   3,C   2,C  11)     -1.5260         0.025675   
    169. D(C   4,C   3,C   2,C   1)     -0.5794         0.025675   
    170. D(H   8,C   3,C   2,C   1)    179.2711         0.025675   
    171. D(C   5,C   4,C   3,C   2)      0.0890         0.027766   
    172. D(Cl  9,C   4,C   3,H   8)      0.1941         0.027766   
    173. D(Cl  9,C   4,C   3,C   2)   -179.9566         0.027766   
    174. D(C   5,C   4,C   3,H   8)   -179.7602         0.027766   
    175. D(H  10,C   5,C   4,Cl  9)      0.2456         0.027394   
    176. D(C   0,C   5,C   4,Cl  9)   -179.6488         0.027394   
    177. D(H  10,C   5,C   4,C   3)   -179.8003         0.027394   
    178. D(C   0,C   5,C   4,C   3)      0.3054         0.027394   
    179. D(H  10,C   5,C   0,C   1)    179.8944         0.026205   
    180. D(C   4,C   5,C   0,C   1)     -0.2096         0.026205   
    181. D(C   4,C   5,C   0,H   6)    179.8380         0.026205   
    182. D(H  10,C   5,C   0,H   6)     -0.0579         0.026205   
    183. D(H  35,H   7,C   1,C   2)    114.9426         0.155882   
    184. D(H  35,H   7,C   1,C   0)    -65.0784         0.155882   
    185. D(H  34,H   7,C   1,C   2)    176.8284         0.155882   
    186. D(H  34,H   7,C   1,C   0)     -3.1926         0.155882   
    187. D(H  37,H   7,C   1,C   0)    104.6336         0.155882   
    188. D(C  24,H   7,C   1,C   0)    -22.5156         0.155882   
    189. D(C  24,H   7,C   1,C   2)    157.5055         0.155882   
    190. D(O  39,H   7,C   1,C   0)    121.2147         0.155882   
    191. D(O  39,H   7,C   1,C   2)    -58.7643         0.155882   
    192. D(H  38,H   7,C   1,C   0)    113.6740         0.155882   
    193. D(H  38,H   7,C   1,C   2)    -66.3050         0.155882   
    194. D(H  37,H   7,C   1,C   2)    -75.3454         0.155882   
    195. D(H  25,C  11,C   2,C   3)   -174.0145         0.012315   
    196. D(N  16,C  11,C   2,C   3)     68.7803         0.012315   
    197. D(H  25,C  11,C   2,C   1)      5.1953         0.012315   
    198. D(N  16,C  11,C   2,C   1)   -112.0100         0.012315   
    199. D(C  12,C  11,C   2,C   3)    -51.8709         0.012315   
    200. D(C  12,C  11,C   2,C   1)    127.3389         0.012315   
    201. D(H  15,C  12,C  11,N  16)    178.9874         0.011687   
    202. D(H  15,C  12,C  11,C   2)    -61.0271         0.011687   
    203. D(H  15,C  12,C  11,H  25)     62.1027         0.011687   
    204. D(H  14,C  12,C  11,N  16)    -61.1521         0.011687   
    205. D(H  14,C  12,C  11,H  25)   -178.0368         0.011687   
    206. D(H  13,C  12,C  11,C   2)   -179.3973         0.011687   
    207. D(H  13,C  12,C  11,N  16)     60.6172         0.011687   
    208. D(H  14,C  12,C  11,C   2)     58.8334         0.011687   
    209. D(H  13,C  12,C  11,H  25)    -56.2675         0.011687   
    210. D(O  18,N  16,C  11,C  12)     55.0560         0.011662   
    211. D(O  18,N  16,C  11,C   2)    -67.6917         0.011662   
    212. D(O  17,N  16,C  11,C   2)    111.8128         0.011662   
    213. D(O  18,N  16,C  11,H  25)    172.9537         0.011662   
    214. D(O  17,N  16,C  11,C  12)   -125.4394         0.011662   
    215. D(O  17,N  16,C  11,H  25)     -7.5417         0.011662   
    216. D(C  21,C  20,N  19,H  38)   -177.2199         0.014364   
    217. D(C  21,C  20,N  19,H  36)    -64.1829         0.014364   
    218. D(H  26,C  20,N  19,C  24)    179.3117         0.014364   
    219. D(C  21,C  20,N  19,C  24)     56.7860         0.014364   
    220. D(H  26,C  20,N  19,H  36)     58.3428         0.014364   
    221. D(H  26,C  20,N  19,H  38)    -54.6942         0.014364   
    222. D(H  27,C  20,N  19,H  38)     60.7423         0.014364   
    223. D(H  27,C  20,N  19,H  36)    173.7793         0.014364   
    224. D(H  27,C  20,N  19,C  24)    -65.2518         0.014364   
    225. D(H  29,C  21,C  20,H  26)    -55.8406         0.010472   
    226. D(H  29,C  21,C  20,N  19)     65.3490         0.010472   
    227. D(H  28,C  21,C  20,H  27)    -57.2449         0.010472   
    228. D(H  29,C  21,C  20,H  27)   -173.6527         0.010472   
    229. D(H  28,C  21,C  20,H  26)     60.5672         0.010472   
    230. D(H  28,C  21,C  20,N  19)   -178.2432         0.010472   
    231. D(C  22,C  21,C  20,H  26)   -177.3647         0.010472   
    232. D(C  22,C  21,C  20,H  27)     64.8232         0.010472   
    233. D(C  22,C  21,C  20,N  19)    -56.1751         0.010472   
    234. D(H  31,C  22,C  21,H  29)    171.7410         0.010866   
    235. D(H  31,C  22,C  21,H  28)     55.0888         0.010866   
    236. D(H  31,C  22,C  21,C  20)    -66.7393         0.010866   
    237. D(H  30,C  22,C  21,H  29)     55.3417         0.010866   
    238. D(H  30,C  22,C  21,H  28)    -61.3105         0.010866   
    239. D(C  23,C  22,C  21,H  29)    -66.7090         0.010866   
    240. D(C  23,C  22,C  21,H  28)    176.6389         0.010866   
    241. D(C  23,C  22,C  21,C  20)     54.8108         0.010866   
    242. D(H  30,C  22,C  21,C  20)    176.8614         0.010866   
    243. D(H  33,C  23,C  22,H  30)    -55.5316         0.010858   
    244. D(H  32,C  23,C  22,H  30)     61.1220         0.010858   
    245. D(H  32,C  23,C  22,H  31)    -55.2731         0.010858   
    246. D(H  32,C  23,C  22,C  21)   -176.8453         0.010858   
    247. D(H  33,C  23,C  22,H  31)   -171.9267         0.010858   
    248. D(C  24,C  23,C  22,H  31)     66.4901         0.010858   
    249. D(C  24,C  23,C  22,H  30)   -177.1148         0.010858   
    250. D(H  33,C  23,C  22,C  21)     66.5012         0.010858   
    251. D(C  24,C  23,C  22,C  21)    -55.0820         0.010858   
    252. D(H   7,C  24,N  19,H  36)   -129.9787         0.015340   
    253. D(H   7,C  24,N  19,C  20)    108.9629         0.015340   
    254. D(H  35,C  24,N  19,H  38)    -48.9329         0.015340   
    255. D(H  35,C  24,N  19,C  20)     64.6405         0.015340   
    256. D(H  34,C  24,N  19,H  38)     67.0753         0.015340   
    257. D(H  34,C  24,N  19,H  36)    -58.2929         0.015340   
    258. D(C  23,C  24,N  19,H  38)   -170.5409         0.015340   
    259. D(C  23,C  24,N  19,H  36)     64.0909         0.015340   
    260. D(C  23,C  24,N  19,C  20)    -56.9675         0.015340   
    261. D(H  35,C  24,H   7,O  39)    125.9853         0.001501   
    262. D(H  35,C  24,H   7,H  38)    125.8377         0.001501   
    263. D(H  35,C  24,H   7,H  37)    146.5044         0.001501   
    264. D(H  35,C  24,H   7,H  34)   -126.3171         0.001501   
    265. D(N  19,C  24,H   7,O  39)      3.7831         0.001501   
    266. D(N  19,C  24,H   7,H  38)      3.6355         0.001501   
    267. D(H  34,C  24,H   7,H  37)    -87.1785         0.001501   
    268. D(C  23,C  24,H   7,H  37)    161.4308         0.001501   
    269. D(C  23,C  24,H   7,H  38)    140.7640         0.001501   
    270. D(C  23,C  24,H   7,O  39)    140.9116         0.001501   
    271. D(C  23,C  24,H   7,H  35)     14.9263         0.001501   
    272. D(H  34,C  24,H   7,C   1)     37.7053         0.001501   
    273. D(C  23,C  24,H   7,H  34)   -111.3907         0.001501   
    274. D(H  34,C  24,H   7,H  35)    126.3171         0.001501   
    275. D(C  23,C  24,H   7,C   1)    -73.6855         0.001501   
    276. D(H  34,C  24,N  19,C  20)   -179.3513         0.015340   
    277. D(H  34,C  24,H   7,O  39)   -107.6976         0.001501   
    278. D(H  35,C  24,H   7,C   1)    -88.6118         0.001501   
    279. D(H  34,C  24,H   7,H  38)   -107.8452         0.001501   
    280. D(H  35,C  24,N  19,H  36)   -174.3011         0.015340   
    281. D(N  19,C  24,H   7,H  37)     24.3022         0.001501   
    282. D(N  19,C  24,H   7,H  35)   -122.2022         0.001501   
    283. D(N  19,C  24,H   7,H  34)    111.4807         0.001501   
    284. D(H   7,C  24,N  19,H  38)     -4.6105         0.015340   
    285. D(N  19,C  24,H   7,C   1)    149.1860         0.001501   
    286. D(H   7,C  24,C  23,H  32)     45.3866         0.011016   
    287. D(H   7,C  24,C  23,C  22)    -76.6298         0.011016   
    288. D(H  35,C  24,C  23,H  33)    174.1670         0.011016   
    289. D(H  35,C  24,C  23,H  32)     57.7573         0.011016   
    290. D(H  35,C  24,C  23,C  22)    -64.2591         0.011016   
    291. D(H  34,C  24,C  23,H  33)     56.1932         0.011016   
    292. D(H  34,C  24,C  23,H  32)    -60.2165         0.011016   
    293. D(H  34,C  24,C  23,C  22)    177.7671         0.011016   
    294. D(N  19,C  24,C  23,H  33)    -64.9113         0.011016   
    295. D(N  19,C  24,C  23,H  32)    178.6790         0.011016   
    296. D(H   7,C  24,C  23,H  33)    161.7963         0.011016   
    297. D(N  19,C  24,C  23,C  22)     56.6626         0.011016   
    298. D(O  39,H  25,C  11,N  16)    179.9210         0.081105   
    299. D(O  39,H  25,C  11,C  12)    -62.0001         0.081105   
    300. D(O  39,H  25,C  11,C   2)     62.2689         0.081105   
    301. D(H   7,H  34,C  24,H  35)     41.3249         0.109796   
    302. D(H   7,H  34,C  24,C  23)    160.8447         0.109796   
    303. D(H   7,H  34,C  24,N  19)    -75.5506         0.109796   
    304. D(C  24,H  34,H   7,O  39)     75.7637         0.001501   
    305. D(C  24,H  34,H   7,H  38)     66.8423         0.001501   
    306. D(C  24,H  34,H   7,H  37)     98.2223         0.001501   
    307. D(C  24,H  34,H   7,H  35)    -28.5450         0.001501   
    308. D(C  24,H  34,H   7,C   1)   -157.9124         0.001501   
    309. D(H   7,H  35,C  24,H  34)    -54.8055         0.108385   
    310. D(H   7,H  35,C  24,C  23)   -174.8176         0.108385   
    311. D(H   7,H  35,C  24,N  19)     61.8852         0.108385   
    312. D(C  24,H  35,H   7,O  39)    -58.0688         0.001516   
    313. D(C  24,H  35,H   7,H  38)    -50.7597         0.001516   
    314. D(C  24,H  35,H   7,H  37)    -39.5022         0.001516   
    315. D(C  24,H  35,H   7,H  34)     29.2156         0.001516   
    316. D(C  24,H  35,H   7,C   1)    128.2664         0.001516   
    317. D(H  38,H  36,N  19,C  24)    131.5903         0.206475   
    318. D(H  38,H  36,N  19,C  20)   -107.0305         0.206475   
    319. D(O  39,H  37,H   7,H  38)    -35.1241         0.001502   
    320. D(O  39,H  37,H   7,H  35)    -53.8464         0.001502   
    321. D(O  39,H  37,H   7,H  34)    -92.9929         0.001502   
    322. D(O  39,H  37,H   7,C  24)    -68.7934         0.001502   
    323. D(O  39,H  37,H   7,C   1)    133.2401         0.001502   
    324. D(H   7,H  38,H  36,N  19)    -49.7249         0.001502   
    325. D(O  39,H  38,H  36,N  19)    173.9646         0.001502   
    326. D(H  36,H  38,N  19,C  20)    114.3729         0.001626   
    327. D(H   7,H  38,N  19,H  36)    131.6148         0.001626   
    328. D(H   7,H  38,N  19,C  24)      5.5062         0.001626   
    329. D(H  36,H  38,H   7,O  39)   -164.7930         0.001512   
    330. D(H  36,H  38,H   7,H  37)   -130.8221         0.001512   
    331. D(H  36,H  38,H   7,H  35)     33.4667         0.001512   
    332. D(H  36,H  38,H   7,H  34)     -7.9786         0.001512   
    333. D(H  36,H  38,H   7,C  24)     14.8258         0.001512   
    334. D(H  36,H  38,H   7,C   1)   -145.8063         0.001512   
    335. D(N  19,H  38,H   7,O  39)    177.6465         0.001512   
    336. D(N  19,H  38,H   7,H  37)   -148.3826         0.001512   
    337. D(N  19,H  38,H   7,H  35)     15.9062         0.001512   
    338. D(N  19,H  38,H   7,H  34)    -25.5391         0.001512   
    339. D(N  19,H  38,H   7,C  24)     -2.7347         0.001512   
    340. D(H   7,H  38,N  19,C  20)   -114.0124         0.001626   
    341. D(N  19,H  38,H   7,C   1)   -163.3668         0.001512   
    342. D(O  39,H  38,H   7,H  37)     33.9709         0.001512   
    343. D(O  39,H  38,H   7,H  35)   -161.7403         0.001512   
    344. D(H  36,H  38,N  19,C  24)   -126.1086         0.001626   
    345. D(O  39,H  38,H   7,H  34)    156.8144         0.001512   
    346. D(O  39,H  38,H   7,C  24)    179.6188         0.001512   
    347. D(O  39,H  38,H   7,C   1)     18.9867         0.001512   
    348. D(H  25,O  39,H  38,H  36)   -172.7436         0.378830   
    349. D(H   7,O  39,H  38,H  36)    137.3400         0.378830   
    350. D(H  37,O  39,H  38,H  36)     71.5888         0.378830   
    351. D(H  37,O  39,H  38,H   7)    -65.7512         0.378830   
    352. D(H  38,O  39,H  37,H   7)     56.7002         0.391712   
    353. D(H   7,O  39,H  25,C  11)    -86.7190         0.001510   
    354. D(H  38,O  39,H  25,C  11)   -140.9629         0.001510   
    355. D(H  25,O  39,N  19,H  36)   -177.9708         0.001500   
    356. D(H  25,O  39,N  19,C  24)     55.2436         0.001500   
    357. D(H  25,O  39,N  19,C  20)    -63.8463         0.001500   
    358. D(H   7,O  39,N  19,H  36)    131.2405         0.001500   
    359. D(H   7,O  39,N  19,C  24)      4.4548         0.001500   
    360. D(H   7,O  39,N  19,C  20)   -114.6350         0.001500   
    361. D(H  37,O  39,N  19,H  36)     66.2908         0.001500   
    362. D(H  37,O  39,N  19,C  24)    -60.4948         0.001500   
    363. D(H  37,O  39,N  19,C  20)   -179.5847         0.001500   
    364. D(H  25,O  39,H   7,H  38)   -114.6343         0.001502   
    365. D(H  25,O  39,H   7,H  37)    130.3493         0.001502   
    366. D(H  25,O  39,H   7,H  35)    -95.3979         0.001502   
    367. D(H  25,O  39,H   7,H  34)   -138.0391         0.001502   
    368. D(H  25,O  39,H   7,C  24)   -114.9995         0.001502   
    369. D(H  25,O  39,H   7,C   1)     80.7507         0.001502   
    370. D(H  38,O  39,H   7,H  37)   -115.0164         0.001502   
    371. D(H  38,O  39,H   7,H  35)     19.2364         0.001502   
    372. D(H  37,O  39,H  25,C  11)    -32.7876         0.001510   
    373. D(H  38,O  39,H   7,H  34)    -23.4048         0.001502   
    374. D(H  38,O  39,H   7,C  24)     -0.3652         0.001502   
    375. D(H  38,O  39,H   7,C   1)   -164.6150         0.001502   
    376. D(H  25,O  39,H  37,H   7)    -44.3146         0.391712   
    377. D(H  37,O  39,H   7,H  38)    115.0164         0.001502   
    378. D(H  37,O  39,H   7,H  35)    134.2528         0.001502   
    379. D(H  37,O  39,H   7,H  34)     91.6116         0.001502   
    380. D(H  25,O  39,H  38,H   7)     49.9164         0.378830   
    381. D(H  37,O  39,H   7,C  24)    114.6513         0.001502   
    382. D(H  37,O  39,H   7,C   1)    -49.5985         0.001502   
    -----------------------------------------------------------------

Number of atoms                         .... 40
Number of degrees of freedom            .... 382

         *************************************************************
         *                GEOMETRY OPTIMIZATION CYCLE   1            *
         *************************************************************
---------------------------------
CARTESIAN COORDINATES (ANGSTROEM)
---------------------------------
  C      1.991662    2.649485    2.192070
  C      2.204827    1.284706    2.002974
  C      1.148128    0.446314    1.642014
  C     -0.130855    0.974891    1.453817
  C     -0.309635    2.336172    1.647768
  C      0.719554    3.191886    2.016509
  H      2.824382    3.297332    2.479842
  H      3.209892    0.874264    2.140418
  H     -0.962534    0.327594    1.159337
  Cl    -1.881741    2.987174    1.417848
  H      0.551172    4.261061    2.166157
  C      1.404666   -1.028780    1.477783
  C      0.443656   -1.883974    2.293322
  H      0.643493   -2.959189    2.176934
  H     -0.610708   -1.715046    2.034795
  H      0.556736   -1.658088    3.367533
  N      1.253581   -1.368170    0.020740
  O      2.251922   -1.695672   -0.600548
  O      0.152256   -1.299412   -0.498731
  N      5.749745   -0.007215    3.223434
  C      6.244490   -1.285863    2.655873
  C      7.716596   -1.210059    2.213411
  C      7.902795   -0.067449    1.207502
  C      7.389163    1.253389    1.794021
  C      5.925248    1.093178    2.244685
  H      2.469906   -1.285978    1.775885
  H      6.107917   -2.079966    3.420431
  H      5.598940   -1.556338    1.791137
  H      8.030694   -2.172352    1.769841
  H      8.370038   -1.054057    3.091525
  H      8.968674    0.026596    0.929862
  H      7.363733   -0.298536    0.268617
  H      7.470911    2.066082    1.049528
  H      8.019498    1.561531    2.648299
  H      5.555804    2.033028    2.708056
  H      5.280931    0.886759    1.361502
  H      6.262353    0.212143    4.084854
  H      2.608782   -0.132465    4.332390
  H      3.947251   -0.568838    3.717190
  O      3.052172   -0.889625    3.948397

----------------------------
CARTESIAN COORDINATES (A.U.)
----------------------------
  NO LB      ZA    FRAG     MASS         X           Y           Z
   0 C     6.0000    0    12.011    3.763696    5.006801    4.142413
   1 C     6.0000    0    12.011    4.166519    2.427743    3.785072
   2 C     6.0000    0    12.011    2.169648    0.843412    3.102957
   3 C     6.0000    0    12.011   -0.247281    1.842277    2.747316
   4 C     6.0000    0    12.011   -0.585125    4.414726    3.113831
   5 C     6.0000    0    12.011    1.359759    6.031791    3.810649
   6 H     1.0000    0     1.008    5.337308    6.231055    4.686223
   7 H     1.0000    0     1.008    6.065818    1.652120    4.044803
   8 H     1.0000    0     1.008   -1.818926    0.619063    2.190830
   9 Cl   17.0000    0    35.453   -3.555975    5.644940    2.679345
  10 H     1.0000    0     1.008    1.041565    8.052239    4.093444
  11 C     6.0000    0    12.011    2.654435   -1.944112    2.792606
  12 C     6.0000    0    12.011    0.838388   -3.560194    4.333751
  13 H     1.0000    0     1.008    1.216025   -5.592056    4.113810
  14 H     1.0000    0     1.008   -1.154070   -3.240968    3.845206
  15 H     1.0000    0     1.008    1.052080   -3.133332    6.363716
  16 N     7.0000    0    14.007    2.368926   -2.585466    0.039192
  17 O     8.0000    0    15.999    4.255516   -3.204356   -1.134871
  18 O     8.0000    0    15.999    0.287721   -2.455533   -0.942465
  19 N     7.0000    0    14.007   10.865444   -0.013635    6.091408
  20 C     6.0000    0    12.011   11.800377   -2.429929    5.018872
  21 C     6.0000    0    12.011   14.582254   -2.286679    4.182740
  22 C     6.0000    0    12.011   14.934118   -0.127461    2.281848
  23 C     6.0000    0    12.011   13.963494    2.368561    3.390208
  24 C     6.0000    0    12.011   11.197096    2.065807    4.241841
  25 H     1.0000    0     1.008    4.667445   -2.430146    3.355936
  26 H     1.0000    0     1.008   11.542289   -3.930566    6.463677
  27 H     1.0000    0     1.008   10.580463   -2.941053    3.384759
  28 H     1.0000    0     1.008   15.175812   -4.105150    3.344515
  29 H     1.0000    0     1.008   15.817080   -1.991879    5.842136
  30 H     1.0000    0     1.008   16.948338    0.050259    1.757185
  31 H     1.0000    0     1.008   13.915439   -0.564151    0.507612
  32 H     1.0000    0     1.008   14.117975    3.904329    1.983321
  33 H     1.0000    0     1.008   15.154655    2.950865    5.004560
  34 H     1.0000    0     1.008   10.498948    3.841867    5.117484
  35 H     1.0000    0     1.008    9.979513    1.675732    2.572867
  36 H     1.0000    0     1.008   11.834131    0.400892    7.719255
  37 H     1.0000    0     1.008    4.929884   -0.250323    8.187031
  38 H     1.0000    0     1.008    7.459224   -1.074949    7.024471
  39 O     8.0000    0    15.999    5.767769   -1.681148    7.461388

--------------------------------
INTERNAL COORDINATES (ANGSTROEM)
--------------------------------
 C      0   0   0     0.000000000000     0.00000000     0.00000000
 C      1   0   0     1.394208728367     0.00000000     0.00000000
 C      2   1   0     1.396354577670   120.47078468     0.00000000
 C      3   2   1     1.396642589690   120.03980113     0.67880735
 C      4   3   2     1.386602215451   118.08460251   359.42061189
 C      5   4   3     1.388324387437   123.13951685     0.08898447
 H      1   2   3     1.093590856341   119.94496351   179.67796689
 H      2   1   3     1.094307979960   119.37621598   180.02108301
 H      4   3   2     1.094258408810   120.55713029   179.27109160
 Cl     5   4   3     1.717027405090   118.13442214   180.04336767
 H      6   5   4     1.092648999050   121.68573371   180.19972646
 C      3   2   1     1.506215452895   119.16356378   181.46296947
 C     12   3   2     1.523155170707   112.58292837   127.33889549
 H     13  12   3     1.099803752147   112.18542390   180.60269660
 H     13  12   3     1.098660578083   113.15218124    58.83337519
 H     13  12   3     1.103513323837   109.97598101   298.97286611
 N     12   3   2     1.503658692866   108.03437824   247.99003780
 O     17  12   3     1.220630732181   118.13748190   111.81282329
 O     17  12   3     1.219629427401   119.38844989   292.30826830
 N      8   2   1     2.898410451212   164.97836296    65.74714598
 C     20   8   2     1.483859156505   114.28756063   141.20424762
 C     21  20   8     1.539030474271   112.73316530   131.47995166
 C     22  21  20     1.533648659587   109.96160624   303.82486746
 C     23  22  21     1.533764914987   110.49485490    54.81078070
 C     20   8   2     1.483110194864    68.37446293   244.57058460
 H     12   3   2     1.135671529905   110.66657942     5.19525384
 H     21  20   8     1.110765976211   108.16626179   254.00564767
 H     21  20   8     1.112501217867   108.26026909     9.44213890
 H     22  21  20     1.105178103619   110.14195372   181.75676661
 H     22  21  20     1.105625658321   110.11651438    65.34895694
 H     23  22  21     1.105453426056   110.19250270   176.86141602
 H     23  22  21     1.107020431190   109.97643879   293.26072132
 H     24  23  22     1.105179941706   110.54178601   183.15474951
 H     24  23  22     1.105470779758   110.15794129    66.50118756
 H     25  20   8     1.111089401929   108.24233701    71.68579845
 H     25  20   8     1.112549243209   108.52306010   315.67761204
 H     20   8   2     1.026122906291   133.34790336   341.64912568
 H      8   2   1     2.485876278591    92.32426574   104.63363258
 H     38   8   2     1.536357085617    63.33822232   168.36421083
 O     38   8   2     0.957776922623    81.64468617   133.24009236

---------------------------
INTERNAL COORDINATES (A.U.)
---------------------------
 C      0   0   0     0.000000000000     0.00000000     0.00000000
 C      1   0   0     2.634672670136     0.00000000     0.00000000
 C      2   1   0     2.638727737643   120.47078468     0.00000000
 C      3   2   1     2.639272001484   120.03980113     0.67880735
 C      4   3   2     2.620298443891   118.08460251   359.42061189
 C      5   4   3     2.623552877299   123.13951685     0.08898447
 H      1   2   3     2.066587221045   119.94496351   179.67796689
 H      2   1   3     2.067942388288   119.37621598   180.02108301
 H      4   3   2     2.067848712391   120.55713029   179.27109160
 Cl     5   4   3     3.244711560058   118.13442214   180.04336767
 H      6   5   4     2.064807368708   121.68573371   180.19972646
 C      3   2   1     2.846334704651   119.16356378   181.46296947
 C     12   3   2     2.878346132102   112.58292837   127.33889549
 H     13  12   3     2.078327892616   112.18542390   180.60269660
 H     13  12   3     2.076167606713   113.15218124    58.83337519
 H     13  12   3     2.085337967186   109.97598101   298.97286611
 N     12   3   2     2.841503128407   108.03437824   247.99003780
 O     17  12   3     2.306657794470   118.13748190   111.81282329
 O     17  12   3     2.304765602660   119.38844989   292.30826830
 N      8   2   1     5.477201976486   164.97836296    65.74714598
 C     20   8   2     2.804087427105   114.28756063   141.20424762
 C     21  20   8     2.908346108131   112.73316530   131.47995166
 C     22  21  20     2.898175952275   109.96160624   303.82486746
 C     23  22  21     2.898395643143   110.49485490    54.81078070
 C     20   8   2     2.802672094720    68.37446293   244.57058460
 H     12   3   2     2.146108169612   110.66657942     5.19525384
 H     21  20   8     2.099043493916   108.16626179   254.00564767
 H     21  20   8     2.102322625423   108.26026909     9.44213890
 H     22  21  20     2.088483945046   110.14195372   181.75676661
 H     22  21  20     2.089329700864   110.11651438    65.34895694
 H     23  22  21     2.089004229051   110.19250270   176.86141602
 H     23  22  21     2.091965439604   109.97643879   293.26072132
 H     24  23  22     2.088487418527   110.54178601   183.15474951
 H     24  23  22     2.089037022794   110.15794129    66.50118756
 H     25  20   8     2.099654679947   108.24233701    71.68579845
 H     25  20   8     2.102413380167   108.52306010   315.67761204
 H     20   8   2     1.939091272634   133.34790336   341.64912568
 H      8   2   1     4.697625369348    92.32426574   104.63363258
 H     38   8   2     2.903294135725    63.33822232   168.36421083
 O     38   8   2     1.809936081148    81.64468617   133.24009236

---------------------
BASIS SET INFORMATION
---------------------
There are 5 groups of distinct atoms

 Group   1 Type C   : 11s6p2d1f contracted to 5s3p2d1f pattern {62111/411/11/1}
 Group   2 Type H   : 5s1p contracted to 3s1p pattern {311/1}
 Group   3 Type Cl  : 14s9p3d1f contracted to 5s5p2d1f pattern {73211/51111/21/1}
 Group   4 Type N   : 11s6p2d1f contracted to 5s3p2d1f pattern {62111/411/11/1}
 Group   5 Type O   : 11s6p2d1f contracted to 5s3p2d1f pattern {62111/411/11/1}

Atom   0C    basis set group =>   1
Atom   1C    basis set group =>   1
Atom   2C    basis set group =>   1
Atom   3C    basis set group =>   1
Atom   4C    basis set group =>   1
Atom   5C    basis set group =>   1
Atom   6H    basis set group =>   2
Atom   7H    basis set group =>   2
Atom   8H    basis set group =>   2
Atom   9Cl   basis set group =>   3
Atom  10H    basis set group =>   2
Atom  11C    basis set group =>   1
Atom  12C    basis set group =>   1
Atom  13H    basis set group =>   2
Atom  14H    basis set group =>   2
Atom  15H    basis set group =>   2
Atom  16N    basis set group =>   4
Atom  17O    basis set group =>   5
Atom  18O    basis set group =>   5
Atom  19N    basis set group =>   4
Atom  20C    basis set group =>   1
Atom  21C    basis set group =>   1
Atom  22C    basis set group =>   1
Atom  23C    basis set group =>   1
Atom  24C    basis set group =>   1
Atom  25H    basis set group =>   2
Atom  26H    basis set group =>   2
Atom  27H    basis set group =>   2
Atom  28H    basis set group =>   2
Atom  29H    basis set group =>   2
Atom  30H    basis set group =>   2
Atom  31H    basis set group =>   2
Atom  32H    basis set group =>   2
Atom  33H    basis set group =>   2
Atom  34H    basis set group =>   2
Atom  35H    basis set group =>   2
Atom  36H    basis set group =>   2
Atom  37H    basis set group =>   2
Atom  38H    basis set group =>   2
Atom  39O    basis set group =>   5
---------------------------------
AUXILIARY/J BASIS SET INFORMATION
---------------------------------
There are 5 groups of distinct atoms

 Group   1 Type C   : 12s5p4d2f1g contracted to 6s4p3d1f1g pattern {711111/2111/211/2/1}
 Group   2 Type H   : 5s2p1d contracted to 3s1p1d pattern {311/2/1}
 Group   3 Type Cl  : 14s5p5d2f1g contracted to 8s4p3d1f1g pattern {71111111/2111/311/2/1}
 Group   4 Type N   : 12s5p4d2f1g contracted to 6s4p3d1f1g pattern {711111/2111/211/2/1}
 Group   5 Type O   : 12s5p4d2f1g contracted to 6s4p3d1f1g pattern {711111/2111/211/2/1}

Atom   0C    basis set group =>   1
Atom   1C    basis set group =>   1
Atom   2C    basis set group =>   1
Atom   3C    basis set group =>   1
Atom   4C    basis set group =>   1
Atom   5C    basis set group =>   1
Atom   6H    basis set group =>   2
Atom   7H    basis set group =>   2
Atom   8H    basis set group =>   2
Atom   9Cl   basis set group =>   3
Atom  10H    basis set group =>   2
Atom  11C    basis set group =>   1
Atom  12C    basis set group =>   1
Atom  13H    basis set group =>   2
Atom  14H    basis set group =>   2
Atom  15H    basis set group =>   2
Atom  16N    basis set group =>   4
Atom  17O    basis set group =>   5
Atom  18O    basis set group =>   5
Atom  19N    basis set group =>   4
Atom  20C    basis set group =>   1
Atom  21C    basis set group =>   1
Atom  22C    basis set group =>   1
Atom  23C    basis set group =>   1
Atom  24C    basis set group =>   1
Atom  25H    basis set group =>   2
Atom  26H    basis set group =>   2
Atom  27H    basis set group =>   2
Atom  28H    basis set group =>   2
Atom  29H    basis set group =>   2
Atom  30H    basis set group =>   2
Atom  31H    basis set group =>   2
Atom  32H    basis set group =>   2
Atom  33H    basis set group =>   2
Atom  34H    basis set group =>   2
Atom  35H    basis set group =>   2
Atom  36H    basis set group =>   2
Atom  37H    basis set group =>   2
Atom  38H    basis set group =>   2
Atom  39O    basis set group =>   5


           ************************************************************
           *        Program running with 102 parallel MPI-processes   *
           *              working on a common directory               *
           ************************************************************
------------------------------------------------------------------------------
                           ORCA GTO INTEGRAL CALCULATION
                           -- RI-GTO INTEGRALS CHOSEN --
------------------------------------------------------------------------------
------------------------------------------------------------------------------
                   ___                                                        
                  /   \      - P O W E R E D   B Y -                         
                 /     \                                                     
                 |  |  |   _    _      __       _____    __    __             
                 |  |  |  | |  | |    /  \     |  _  \  |  |  /  |          
                  \  \/   | |  | |   /    \    | | | |  |  | /  /          
                 / \  \   | |__| |  /  /\  \   | |_| |  |  |/  /          
                |  |  |   |  __  | /  /__\  \  |    /   |      \           
                |  |  |   | |  | | |   __   |  |    \   |  |\   \          
                \     /   | |  | | |  |  |  |  | |\  \  |  | \   \       
                 \___/    |_|  |_| |__|  |__|  |_| \__\ |__|  \__/        
                                                                              
                      - O R C A' S   B I G   F R I E N D -                    
                                      &                                       
                       - I N T E G R A L  F E E D E R -                       
                                                                              
 v1 FN, 2020, v2 2021                                                         
------------------------------------------------------------------------------


Reading SHARK input file /home/rudenko/mop_saddle_orca_4_serv/for_orca/m-clc6h4chno2ch3_piperidine/orca/orca_start/start.SHARKINP.tmp ... ok
----------------------
SHARK INTEGRAL PACKAGE
----------------------

Number of atoms                             ...     40
Number of basis functions                   ...    721
Number of shells                            ...    295
Maximum angular momentum                    ...      3
Integral batch strategy                     ... SHARK/LIBINT Hybrid
RI-J (if used) integral strategy            ... SPLIT-RIJ (Revised 2003 algorithm where possible)
Printlevel                                  ...      1
Contraction scheme used                     ... SEGMENTED contraction
Coulomb Range Separation                    ... NOT USED
Exchange Range Separation                   ... NOT USED
Finite Nucleus Model                        ... NOT USED
Auxiliary Coulomb fitting basis             ... AVAILABLE
   # of basis functions in Aux-J            ...   1164
   # of shells in Aux-J                     ...    392
   Maximum angular momentum in Aux-J        ...      4
Auxiliary J/K fitting basis                 ... NOT available
Auxiliary Correlation fitting basis         ... NOT available
Auxiliary 'external' fitting basis          ... NOT available
Integral threshold                          ...     2.500000e-11
Primitive cut-off                           ...     2.500000e-12
Primitive pair pre-selection threshold      ...     2.500000e-12

Calculating pre-screening integrals         ... done (  0.1 sec) Dimension = 295
Organizing shell pair data                  ... done (  0.8 sec)
Shell pair information
Total number of shell pairs                 ...     43660
Shell pairs after pre-screening             ...     30206
Total number of primitive shell pairs       ...    132336
Primitive shell pairs kept                  ...     60902
          la=0 lb=0:   8702 shell pairs
          la=1 lb=0:   9053 shell pairs
          la=1 lb=1:   2409 shell pairs
          la=2 lb=0:   4002 shell pairs
          la=2 lb=1:   2116 shell pairs
          la=2 lb=2:    491 shell pairs
          la=3 lb=0:   1895 shell pairs
          la=3 lb=1:   1004 shell pairs
          la=3 lb=2:    427 shell pairs
          la=3 lb=3:    107 shell pairs

Calculating one electron integrals          ... done (  0.2 sec)
Calculating RI/J V-Matrix + Cholesky decomp.... done (  0.2 sec)
Calculating Nuclear repulsion               ... done (  0.0 sec) ENN=   1584.515353706052 Eh

SHARK setup successfully completed in   1.8 seconds

Maximum memory used throughout the entire GTOINT-calculation: 46.2 MB


           ************************************************************
           *        Program running with 102 parallel MPI-processes   *
           *              working on a common directory               *
           ************************************************************
-------------------------------------------------------------------------------
                                 ORCA SCF
-------------------------------------------------------------------------------

------------
SCF SETTINGS
------------
Hamiltonian:
 Density Functional     Method          .... DFT(GTOs)
 Exchange Functional    Exchange        .... B88
   X-Alpha parameter    XAlpha          ....  0.666667
   Becke's b parameter  XBeta           ....  0.004200
 Correlation Functional Correlation     .... LYP
 LDA part of GGA corr.  LDAOpt          .... VWN-5
 Gradients option       PostSCFGGA      .... off
 Hybrid DFT is turned on
   Fraction HF Exchange ScalHFX         ....  0.200000
   Scaling of DF-GGA-X  ScalDFX         ....  0.720000
   Scaling of DF-GGA-C  ScalDFC         ....  0.810000
   Scaling of DF-LDA-C  ScalLDAC        ....  1.000000
   Perturbative correction              ....  0.000000
   Density functional embedding theory  .... OFF
   NL short-range parameter             ....  4.800000
 RI-approximation to the Coulomb term is turned on
   Number of AuxJ basis functions       .... 1164
   RIJ-COSX (HFX calculated with COS-X)).... on


General Settings:
 Integral files         IntName         .... /home/rudenko/mop_saddle_orca_4_serv/for_orca/m-clc6h4chno2ch3_piperidine/orca/orca_start/start
 Hartree-Fock type      HFTyp           .... RHF
 Total Charge           Charge          ....    0
 Multiplicity           Mult            ....    1
 Number of Electrons    NEL             ....  154
 Basis Dimension        Dim             ....  721
 Nuclear Repulsion      ENuc            ....   1584.5153537061 Eh

Convergence Acceleration:
 DIIS                   CNVDIIS         .... on
   Start iteration      DIISMaxIt       ....    12
   Startup error        DIISStart       ....  0.200000
   # of expansion vecs  DIISMaxEq       ....     5
   Bias factor          DIISBfac        ....   1.050
   Max. coefficient     DIISMaxC        ....  10.000
 Trust-Rad. Augm. Hess. CNVTRAH         .... auto
   Auto Start mean grad. ratio tolernc. ....  1.125000
   Auto Start start iteration           ....    20
   Auto Start num. interpolation iter.  ....    10
   Max. Number of Micro iterations      ....    16
   Max. Number of Macro iterations      .... Maxiter - #DIIS iter
   Number of Davidson start vectors     ....     2
   Converg. threshold I  (grad. norm)   ....   1.000e-05
   Converg. threshold II (energy diff.) ....   1.000e-08
   Grad. Scal. Fac. for Micro threshold ....   0.100
   Minimum threshold for Micro iter.    ....   0.010
   NR start threshold (gradient norm)   ....   0.001
   Initial trust radius                 ....   0.400
   Minimum AH scaling param. (alpha)    ....   1.000
   Maximum AH scaling param. (alpha)    .... 1000.000
   Orbital update algorithm             .... Taylor
   White noise on init. David. guess    .... on
   Maximum white noise                  ....   0.010
   Quad. conv. algorithm                .... NR
 SOSCF                  CNVSOSCF        .... on
   Start iteration      SOSCFMaxIt      ....   150
   Startup grad/error   SOSCFStart      ....  0.003300
 Level Shifting         CNVShift        .... on
   Level shift para.    LevelShift      ....    0.2500
   Turn off err/grad.   ShiftErr        ....    0.0010
 Zerner damping         CNVZerner       .... off
 Static damping         CNVDamp         .... on
   Fraction old density DampFac         ....    0.7000
   Max. Damping (<1)    DampMax         ....    0.9800
   Min. Damping (>=0)   DampMin         ....    0.0000
   Turn off err/grad.   DampErr         ....    0.1000
 Fernandez-Rico         CNVRico         .... off

SCF Procedure:
 Maximum # iterations   MaxIter         ....   125
 SCF integral mode      SCFMode         .... Direct
   Integral package                     .... SHARK and LIBINT hybrid scheme
 Reset frequency        DirectResetFreq ....    20
 Integral Threshold     Thresh          ....  2.500e-11 Eh
 Primitive CutOff       TCut            ....  2.500e-12 Eh

Convergence Tolerance:
 Convergence Check Mode ConvCheckMode   .... Total+1el-Energy
 Convergence forced     ConvForced      .... 0
 Energy Change          TolE            ....  1.000e-08 Eh
 1-El. energy change                    ....  1.000e-05 Eh
 Orbital Gradient       TolG            ....  1.000e-05
 Orbital Rotation angle TolX            ....  1.000e-05
 DIIS Error             TolErr          ....  5.000e-07


Diagonalization of the overlap matrix:
Smallest eigenvalue                        ... 6.514e-06
Time for diagonalization                   ...    0.212 sec
Threshold for overlap eigenvalues          ... 1.000e-08
Number of eigenvalues below threshold      ... 0
Time for construction of square roots      ...    0.479 sec
Total time needed                          ...    0.695 sec

Time for model grid setup =    0.281 sec

------------------------------
INITIAL GUESS: MODEL POTENTIAL
------------------------------
Loading Hartree-Fock densities                     ... done
Calculating cut-offs                               ... done
Initializing the effective Hamiltonian             ... done
Setting up the integral package (SHARK)            ... done
Starting the Coulomb interaction                   ... done (   0.1 sec)
Reading the grid                                   ... done
Mapping shells                                     ... done
Starting the XC term evaluation                    ... done (   0.1 sec)
  promolecular density results
     # of electrons  =    153.986937412
     EX              =   -138.339412030
     EC              =     -5.330893892
     EX+EC           =   -143.670305922
Transforming the Hamiltonian                       ... done (   0.5 sec)
Diagonalizing the Hamiltonian                      ... done (   0.4 sec)
Back transforming the eigenvectors                 ... done (   0.2 sec)
Now organizing SCF variables                       ... done
                      ------------------
                      INITIAL GUESS DONE (   1.6 sec)
                      ------------------
-------------------
DFT GRID GENERATION
-------------------

General Integration Accuracy     IntAcc      ... 4.388
Radial Grid Type                 RadialGrid  ... OptM3 with GC (2021)
Angular Grid (max. ang.)         AngularGrid ... 4 (Lebedev-302)
Angular grid pruning method      GridPruning ... 4 (adaptive)
Weight generation scheme         WeightScheme... Becke
Basis function cutoff            BFCut       ... 1.0000e-11
Integration weight cutoff        WCut        ... 1.0000e-14
Angular grids for H and He will be reduced by one unit
Partially contracted basis set               ... off
Rotationally invariant grid construction     ... off

Total number of grid points                  ...   181582
Total number of batches                      ...     2860
Average number of points per batch           ...       63
Average number of grid points per atom       ...     4540
Time for grid setup =    1.498 sec

--------------------
COSX GRID GENERATION
--------------------

GRIDX 1
-------
General Integration Accuracy     IntAcc      ... 3.816
Radial Grid Type                 RadialGrid  ... OptM3 with GC (2021)
Angular Grid (max. ang.)         AngularGrid ... 1 (Lebedev-50)
Angular grid pruning method      GridPruning ... 4 (adaptive)
Weight generation scheme         WeightScheme... Becke
Basis function cutoff            BFCut       ... 1.0000e-11
Integration weight cutoff        WCut        ... 1.0000e-14
Angular grids for H and He will be reduced by one unit
Partially contracted basis set               ... on
Rotationally invariant grid construction     ... off

Total number of grid points                  ...    23004
Total number of batches                      ...      383
Average number of points per batch           ...       60
Average number of grid points per atom       ...      575
UseSFitting                                  ... on

GRIDX 2
-------
General Integration Accuracy     IntAcc      ... 4.020
Radial Grid Type                 RadialGrid  ... OptM3 with GC (2021)
Angular Grid (max. ang.)         AngularGrid ... 2 (Lebedev-110)
Angular grid pruning method      GridPruning ... 4 (adaptive)
Weight generation scheme         WeightScheme... Becke
Basis function cutoff            BFCut       ... 1.0000e-11
Integration weight cutoff        WCut        ... 1.0000e-14
Angular grids for H and He will be reduced by one unit
Partially contracted basis set               ... on
Rotationally invariant grid construction     ... off

Total number of grid points                  ...    48957
Total number of batches                      ...      786
Average number of points per batch           ...       62
Average number of grid points per atom       ...     1224
UseSFitting                                  ... on

GRIDX 3
-------
General Integration Accuracy     IntAcc      ... 4.338
Radial Grid Type                 RadialGrid  ... OptM3 with GC (2021)
Angular Grid (max. ang.)         AngularGrid ... 3 (Lebedev-194)
Angular grid pruning method      GridPruning ... 4 (adaptive)
Weight generation scheme         WeightScheme... Becke
Basis function cutoff            BFCut       ... 1.0000e-11
Integration weight cutoff        WCut        ... 1.0000e-14
Angular grids for H and He will be reduced by one unit
Partially contracted basis set               ... on
Rotationally invariant grid construction     ... off

Total number of grid points                  ...   107280
Total number of batches                      ...     1697
Average number of points per batch           ...       63
Average number of grid points per atom       ...     2682
UseSFitting                                  ... on

Time for X-Grid setup             =    2.795 sec


--------------------
CPCM SOLVATION MODEL
--------------------
CPCM parameters:
  Epsilon                                         ...      78.4000
  Refrac                                          ...       1.3300
  Rsolv                                           ...       1.3000
  Surface type                                    ... GAUSSIAN VDW
  Epsilon function type                           ...         CPCM
Radii:
 Radius for C  used is    3.8550 Bohr (=   2.0400 Ang.)
 Radius for H  used is    2.4944 Bohr (=   1.3200 Ang.)
 Radius for Cl used is    3.9684 Bohr (=   2.1000 Ang.)
 Radius for N  used is    3.5149 Bohr (=   1.8600 Ang.)
 Radius for O  used is    3.4469 Bohr (=   1.8240 Ang.)
Calculating surface                               ...        done! (  0.0s)
GEPOL surface points                              ...         2192
GEPOL Volume                                      ...    2350.4685
GEPOL Surface-area                                ...    1264.4571
Calculating surface distance matrix               ...        done! (  0.3s)
Performing Cholesky decomposition & store         ...        done! (  0.8s)
Overall time for CPCM initialization              ...                 1.0s
--------------
SCF ITERATIONS
--------------
ITER       Energy         Delta-E        Max-DP      RMS-DP      [F,P]     Damp
               ***  Starting incremental Fock matrix formation  ***
  0  -1302.5002573040   0.000000000000 0.25252511  0.00098901  0.3401720 0.7000
  1  -1302.7981328545  -0.297875550501 0.21438100  0.00078071  0.1378774 0.7000
                               ***Turning on DIIS***
  2  -1302.9077625300  -0.109629675487 0.22813861  0.00112371  0.0319125 0.0000
  3  -1303.0856295110  -0.177866981011 0.19672570  0.00064095  0.0775507 0.0000
  4  -1303.1243258339  -0.038696322847 0.05241773  0.00019951  0.0158254 0.0000
  5  -1303.1264956371  -0.002169803207 0.01730686  0.00007455  0.0075558 0.0000
                      *** Initiating the SOSCF procedure ***
                           *** Shutting down DIIS ***
                      *** Re-Reading the Fockian *** 
                      *** Removing any level shift *** 
ITER      Energy       Delta-E        Grad      Rot      Max-DP    RMS-DP
  6  -1303.12675315  -0.0002575106  0.000240  0.000240  0.005056  0.000030
               *** Restarting incremental Fock matrix formation ***
  7  -1303.12680697  -0.0000538262  0.000145  0.000261  0.001422  0.000021
  8  -1303.12680658   0.0000003950  0.000197  0.000256  0.001236  0.000008
  9  -1303.12680957  -0.0000029912  0.000090  0.000322  0.000378  0.000003
 10  -1303.12680936   0.0000002082  0.000210  0.000250  0.000199  0.000001
 11  -1303.12680964  -0.0000002826  0.000023  0.000044  0.000269  0.000002
 12  -1303.12680964   0.0000000064  0.000030  0.000026  0.000065  0.000001
 13  -1303.12680967  -0.0000000325  0.000006  0.000009  0.000100  0.000001
 14  -1303.12680967  -0.0000000014  0.000007  0.000005  0.000025  0.000000
                  ***Gradient check signals convergence***
              ***Rediagonalizing the Fockian in SOSCF/NRSCF***

               *****************************************************
               *                     SUCCESS                       *
               *           SCF CONVERGED AFTER  15 CYCLES          *
               *****************************************************

Old exchange energy                            =    -28.044957680 Eh
New exchange energy                            =    -28.044951368 Eh
Exchange energy change after final integration =      0.000006312 Eh
Total energy after final integration           =  -1303.126803381 Eh
Final COS-X integration done in                =     3.577 sec

----------------
TOTAL SCF ENERGY
----------------

Total Energy       :        -1303.12680338 Eh          -35459.88307 eV

Components:
Nuclear Repulsion  :         1584.51535371 Eh           43116.85479 eV
Electronic Energy  :        -2887.64215709 Eh          -78576.73786 eV
One Electron Energy:        -4930.81633886 Eh         -134174.33387 eV
Two Electron Energy:         2043.17418177 Eh           55597.59601 eV
Max COSX asymmetry :            0.00000189 Eh               0.00005 eV
CPCM Dielectric    :           -0.02273091 Eh              -0.61854 eV

Virial components:
Potential Energy   :        -2601.69422855 Eh          -70795.69914 eV
Kinetic Energy     :         1298.56742517 Eh           35335.81608 eV
Virial Ratio       :            2.00351108


DFT components:
N(Alpha)           :       77.000011024501 electrons
N(Beta)            :       77.000011024501 electrons
N(Total)           :      154.000022049001 electrons
E(X)               :     -111.454940114579 Eh       
E(C)               :       -6.278787320206 Eh       
E(XC)              :     -117.733727434785 Eh       
DFET-embed. en.    :        0.000000000000 Eh       
CPCM Solvation Model Properties:
Surface-charge          :           -0.03585095
Charge-correction       :            0.00004232 Eh               0.00115 eV
Free-energy (cav+disp)  :  This term is not implemented in the current solvation scheme

---------------
SCF CONVERGENCE
---------------

  Last Energy change         ...   -2.1143e-08  Tolerance :   1.0000e-08
  Last MAX-Density change    ...    2.2204e-15  Tolerance :   1.0000e-07
  Last RMS-Density change    ...    1.5157e-17  Tolerance :   5.0000e-09
  Last Orbital Gradient      ...    3.7421e-07  Tolerance :   1.0000e-05
  Last Orbital Rotation      ...    1.5245e-06  Tolerance :   1.0000e-05

             **** THE GBW FILE WAS UPDATED (/home/rudenko/mop_saddle_orca_4_serv/for_orca/m-clc6h4chno2ch3_piperidine/orca/orca_start/start.gbw) ****
             **** DENSITY /home/rudenko/mop_saddle_orca_4_serv/for_orca/m-clc6h4chno2ch3_piperidine/orca/orca_start/start.scfp WAS UPDATED ****
             **** ENERGY FILE WAS UPDATED (/home/rudenko/mop_saddle_orca_4_serv/for_orca/m-clc6h4chno2ch3_piperidine/orca/orca_start/start.en.tmp) ****
             **** THE GBW FILE WAS UPDATED (/home/rudenko/mop_saddle_orca_4_serv/for_orca/m-clc6h4chno2ch3_piperidine/orca/orca_start/start.gbw) ****
             **** DENSITY /home/rudenko/mop_saddle_orca_4_serv/for_orca/m-clc6h4chno2ch3_piperidine/orca/orca_start/start.scfp WAS UPDATED ****
----------------
ORBITAL ENERGIES
----------------

  NO   OCC          E(Eh)            E(eV) 
   0   2.0000    -101.528098     -2762.7200 
   1   2.0000     -19.169868      -521.6386 
   2   2.0000     -19.169653      -521.6328 
   3   2.0000     -19.102885      -519.8159 
   4   2.0000     -14.553637      -396.0246 
   5   2.0000     -14.306566      -389.3015 
   6   2.0000     -10.238522      -278.6043 
   7   2.0000     -10.237273      -278.5704 
   8   2.0000     -10.199921      -277.5540 
   9   2.0000     -10.189731      -277.2767 
  10   2.0000     -10.189304      -277.2651 
  11   2.0000     -10.188962      -277.2558 
  12   2.0000     -10.188017      -277.2300 
  13   2.0000     -10.185331      -277.1569 
  14   2.0000     -10.182076      -277.0684 
  15   2.0000     -10.172689      -276.8129 
  16   2.0000     -10.159107      -276.4433 
  17   2.0000     -10.158797      -276.4349 
  18   2.0000     -10.158671      -276.4315 
  19   2.0000      -9.460941      -257.4453 
  20   2.0000      -7.222116      -196.5238 
  21   2.0000      -7.214152      -196.3071 
  22   2.0000      -7.213771      -196.2967 
  23   2.0000      -1.243785       -33.8451 
  24   2.0000      -1.066257       -29.0143 
  25   2.0000      -0.991337       -26.9756 
  26   2.0000      -0.904153       -24.6033 
  27   2.0000      -0.903627       -24.5889 
  28   2.0000      -0.863860       -23.5068 
  29   2.0000      -0.825208       -22.4551 
  30   2.0000      -0.775176       -21.0936 
  31   2.0000      -0.755333       -20.5537 
  32   2.0000      -0.740585       -20.1524 
  33   2.0000      -0.736018       -20.0281 
  34   2.0000      -0.701296       -19.0832 
  35   2.0000      -0.636762       -17.3272 
  36   2.0000      -0.627621       -17.0784 
  37   2.0000      -0.612614       -16.6701 
  38   2.0000      -0.609386       -16.5822 
  39   2.0000      -0.586006       -15.9460 
  40   2.0000      -0.562909       -15.3175 
  41   2.0000      -0.549426       -14.9507 
  42   2.0000      -0.540202       -14.6996 
  43   2.0000      -0.530571       -14.4376 
  44   2.0000      -0.514334       -13.9958 
  45   2.0000      -0.512296       -13.9403 
  46   2.0000      -0.484094       -13.1729 
  47   2.0000      -0.483245       -13.1498 
  48   2.0000      -0.461044       -12.5456 
  49   2.0000      -0.448254       -12.1976 
  50   2.0000      -0.443774       -12.0757 
  51   2.0000      -0.442675       -12.0458 
  52   2.0000      -0.431753       -11.7486 
  53   2.0000      -0.430639       -11.7183 
  54   2.0000      -0.413164       -11.2428 
  55   2.0000      -0.407556       -11.0902 
  56   2.0000      -0.397506       -10.8167 
  57   2.0000      -0.393812       -10.7162 
  58   2.0000      -0.382637       -10.4121 
  59   2.0000      -0.375602       -10.2206 
  60   2.0000      -0.372170       -10.1273 
  61   2.0000      -0.369802       -10.0628 
  62   2.0000      -0.365387        -9.9427 
  63   2.0000      -0.359263        -9.7760 
  64   2.0000      -0.343094        -9.3361 
  65   2.0000      -0.341089        -9.2815 
  66   2.0000      -0.339172        -9.2294 
  67   2.0000      -0.330211        -8.9855 
  68   2.0000      -0.321952        -8.7608 
  69   2.0000      -0.319100        -8.6831 
  70   2.0000      -0.317043        -8.6272 
  71   2.0000      -0.309411        -8.4195 
  72   2.0000      -0.307938        -8.3794 
  73   2.0000      -0.296178        -8.0594 
  74   2.0000      -0.267250        -7.2722 
  75   2.0000      -0.250801        -6.8246 
  76   2.0000      -0.231728        -6.3056 
  77   0.0000      -0.082889        -2.2555 
  78   0.0000      -0.028545        -0.7767 
  79   0.0000      -0.023149        -0.6299 
  80   0.0000       0.027945         0.7604 
  81   0.0000       0.033256         0.9049 
  82   0.0000       0.046705         1.2709 
  83   0.0000       0.054424         1.4809 
  84   0.0000       0.064181         1.7464 
  85   0.0000       0.069307         1.8859 
  86   0.0000       0.079890         2.1739 
  87   0.0000       0.083603         2.2750 
  88   0.0000       0.090672         2.4673 
  89   0.0000       0.093073         2.5327 
  90   0.0000       0.098226         2.6729 
  91   0.0000       0.101865         2.7719 
  92   0.0000       0.108113         2.9419 
  93   0.0000       0.110056         2.9948 
  94   0.0000       0.116432         3.1683 
  95   0.0000       0.119371         3.2483 
  96   0.0000       0.122760         3.3405 
  97   0.0000       0.127225         3.4620 
  98   0.0000       0.133714         3.6386 
  99   0.0000       0.136102         3.7035 
 100   0.0000       0.144818         3.9407 
 101   0.0000       0.150427         4.0933 
 102   0.0000       0.155664         4.2358 
 103   0.0000       0.159815         4.3488 
 104   0.0000       0.170649         4.6436 
[...]
      pz      :     0.014728  p :     0.059446
      px      :     0.026357
      py      :     0.018361
  7 H s       :     0.785349  s :     0.785349
      pz      :     0.015444  p :     0.061788
      px      :     0.030204
      py      :     0.016139
  8 H s       :     0.779306  s :     0.779306
      pz      :     0.015566  p :     0.061496
      px      :     0.027541
      py      :     0.018389
  9 Cls       :     5.556444  s :     5.556444
      pz      :     3.803448  p :    10.971004
      px      :     3.425215
      py      :     3.742341
      dz2     :     0.013470  d :     0.097739
      dxz     :     0.024611
      dyz     :     0.008599
      dx2y2   :     0.023761
      dxy     :     0.027297
      f0      :     0.001068  f :     0.011044
      f+1     :     0.001668
      f-1     :     0.000476
      f+2     :     0.001092
      f-2     :     0.001735
      f+3     :     0.002224
      f-3     :     0.002781
 10 H s       :     0.784334  s :     0.784334
      pz      :     0.012912  p :     0.060349
      px      :     0.010777
      py      :     0.036660
 11 C s       :     2.755399  s :     2.755399
      pz      :     0.828870  p :     2.876355
      px      :     1.058948
      py      :     0.988538
      dz2     :     0.130237  d :     0.516457
      dxz     :     0.081343
      dyz     :     0.104859
      dx2y2   :     0.113841
      dxy     :     0.086178
      f0      :     0.012538  f :     0.058967
      f+1     :     0.006666
      f-1     :     0.011127
      f+2     :     0.007833
      f-2     :     0.005463
      f+3     :     0.009239
      f-3     :     0.006101
 12 C s       :     2.827251  s :     2.827251
      pz      :     1.061165  p :     3.158830
      px      :     1.044643
      py      :     1.053022
      dz2     :     0.064174  d :     0.249946
      dxz     :     0.041565
      dyz     :     0.020748
      dx2y2   :     0.088224
      dxy     :     0.035235
      f0      :     0.003043  f :     0.025567
      f+1     :     0.002590
      f-1     :     0.003536
      f+2     :     0.003899
      f-2     :     0.004466
      f+3     :     0.003994
      f-3     :     0.004039
 13 H s       :     0.805847  s :     0.805847
      pz      :     0.013134  p :     0.061587
      px      :     0.013124
      py      :     0.035329
 14 H s       :     0.808196  s :     0.808196
      pz      :     0.017515  p :     0.062845
      px      :     0.031069
      py      :     0.014261
 15 H s       :     0.798313  s :     0.798313
      pz      :     0.034064  p :     0.061534
      px      :     0.012766
      py      :     0.014704
 16 N s       :     2.953678  s :     2.953678
      pz      :     1.151646  p :     3.268129
      px      :     1.105749
      py      :     1.010734
      dz2     :     0.165756  d :     0.735632
      dxz     :     0.210699
      dyz     :     0.048424
      dx2y2   :     0.147932
      dxy     :     0.162822
      f0      :     0.005022  f :     0.071851
      f+1     :     0.026613
      f-1     :     0.002126
      f+2     :     0.009828
      f-2     :     0.012532
      f+3     :     0.009321
      f-3     :     0.006410
 17 O s       :     3.501702  s :     3.501702
      pz      :     1.660053  p :     4.439536
      px      :     1.373460
      py      :     1.406023
      dz2     :     0.012692  d :     0.099542
      dxz     :     0.033287
      dyz     :     0.003181
      dx2y2   :     0.030962
      dxy     :     0.019420
      f0      :     0.001209  f :     0.011063
      f+1     :     0.002159
      f-1     :     0.000024
      f+2     :     0.002745
      f-2     :     0.000772
      f+3     :     0.002355
      f-3     :     0.001799
 18 O s       :     3.497255  s :     3.497255
      pz      :     1.602457  p :     4.430508
      px      :     1.452092
      py      :     1.375959
      dz2     :     0.013917  d :     0.100146
      dxz     :     0.035189
      dyz     :     0.008529
      dx2y2   :     0.022482
      dxy     :     0.020029
      f0      :     0.001173  f :     0.011158
      f+1     :     0.002364
      f-1     :     0.000239
      f+2     :     0.002471
      f-2     :     0.001801
      f+3     :     0.001524
      f-3     :     0.001586
 19 N s       :     3.021496  s :     3.021496
      pz      :     1.167448  p :     3.751448
      px      :     1.417742
      py      :     1.166258
      dz2     :     0.039582  d :     0.211656
      dxz     :     0.037901
      dyz     :     0.054520
      dx2y2   :     0.041358
      dxy     :     0.038294
      f0      :     0.000818  f :     0.014798
      f+1     :     0.001825
      f-1     :     0.003558
      f+2     :     0.002359
      f-2     :     0.002618
      f+3     :     0.001731
      f-3     :     0.001889
 20 C s       :     2.791060  s :     2.791060
      pz      :     1.014478  p :     2.983818
      px      :     1.023523
      py      :     0.945817
      dz2     :     0.046103  d :     0.471048
      dxz     :     0.119645
      dyz     :     0.101153
      dx2y2   :     0.114363
      dxy     :     0.089784
      f0      :     0.004416  f :     0.052638
      f+1     :     0.007752
      f-1     :     0.006451
      f+2     :     0.008048
      f-2     :     0.007129
      f+3     :     0.007667
      f-3     :     0.011175
 21 C s       :     2.782855  s :     2.782855
      pz      :     1.024502  p :     3.053474
      px      :     1.015416
      py      :     1.013556
      dz2     :     0.051129  d :     0.391689
      dxz     :     0.102674
      dyz     :     0.079483
      dx2y2   :     0.081257
      dxy     :     0.077146
      f0      :     0.003980  f :     0.038683
      f+1     :     0.006289
      f-1     :     0.005370
      f+2     :     0.005072
      f-2     :     0.005469
      f+3     :     0.007231
      f-3     :     0.005272
 22 C s       :     2.779007  s :     2.779007
      pz      :     1.014588  p :     3.048158
      px      :     1.017376
      py      :     1.016194
      dz2     :     0.071235  d :     0.396176
      dxz     :     0.076899
      dyz     :     0.086833
      dx2y2   :     0.091108
      dxy     :     0.070101
      f0      :     0.003324  f :     0.038924
      f+1     :     0.004017
      f-1     :     0.008803
      f+2     :     0.005258
      f-2     :     0.006103
      f+3     :     0.005358
      f-3     :     0.006061
 23 C s       :     2.782541  s :     2.782541
      pz      :     1.024300  p :     3.052032
      px      :     1.020165
      py      :     1.007568
      dz2     :     0.045151  d :     0.391772
      dxz     :     0.096138
      dyz     :     0.088207
      dx2y2   :     0.091811
      dxy     :     0.070465
      f0      :     0.003475  f :     0.038713
      f+1     :     0.007074
      f-1     :     0.004723
      f+2     :     0.005909
      f-2     :     0.004283
      f+3     :     0.005636
      f-3     :     0.007612
 24 C s       :     2.790495  s :     2.790495
      pz      :     1.003332  p :     2.988363
      px      :     1.040647
      py      :     0.944384
      dz2     :     0.051876  d :     0.473320
      dxz     :     0.119806
      dyz     :     0.104636
      dx2y2   :     0.087201
      dxy     :     0.109801
      f0      :     0.004954  f :     0.052734
      f+1     :     0.006068
      f-1     :     0.008308
      f+2     :     0.007494
      f-2     :     0.008850
      f+3     :     0.010010
      f-3     :     0.007050
 25 H s       :     0.773490  s :     0.773490
      pz      :     0.016068  p :     0.063663
      px      :     0.034675
      py      :     0.012920
 26 H s       :     0.810737  s :     0.810737
      pz      :     0.020718  p :     0.058488
      px      :     0.012507
      py      :     0.025263
 27 H s       :     0.809628  s :     0.809628
      pz      :     0.025112  p :     0.058033
      px      :     0.020226
      py      :     0.012694
 28 H s       :     0.806044  s :     0.806044
      pz      :     0.018730  p :     0.058774
      px      :     0.015296
      py      :     0.024748
 29 H s       :     0.807027  s :     0.807027
      pz      :     0.024854  p :     0.058469
      px      :     0.020239
      py      :     0.013376
 30 H s       :     0.808790  s :     0.808790
      pz      :     0.014413  p :     0.058651
      px      :     0.030060
      py      :     0.014178
 31 H s       :     0.806321  s :     0.806321
      pz      :     0.025833  p :     0.058307
      px      :     0.018884
      py      :     0.013591
 32 H s       :     0.805810  s :     0.805810
      pz      :     0.020362  p :     0.058754
      px      :     0.013100
      py      :     0.025292
 33 H s       :     0.806931  s :     0.806931
      pz      :     0.024733  p :     0.058469
      px      :     0.019758
      py      :     0.013978
 34 H s       :     0.809998  s :     0.809998
      pz      :     0.018521  p :     0.058551
      px      :     0.016705
      py      :     0.023325
 35 H s       :     0.808749  s :     0.808749
      pz      :     0.025407  p :     0.058404
      px      :     0.021214
      py      :     0.011783
 36 H s       :     0.715735  s :     0.715735
      pz      :     0.043126  p :     0.107325
      px      :     0.043451
      py      :     0.020748
 37 H s       :     0.682588  s :     0.682588
      pz      :     0.050013  p :     0.163490
      px      :     0.047873
      py      :     0.065605
 38 H s       :     0.670110  s :     0.670110
      pz      :     0.046004  p :     0.198115
      px      :     0.103779
      py      :     0.048333
 39 O s       :     3.469724  s :     3.469724
      pz      :     1.785628  p :     4.863351
      px      :     1.442461
      py      :     1.635262
      dz2     :     0.003080  d :     0.027782
      dxz     :     0.002926
      dyz     :     0.004379
      dx2y2   :     0.003055
      dxy     :     0.014342
      f0      :     0.000443  f :     0.002131
      f+1     :     0.000120
      f-1     :     0.000051
      f+2     :     0.000099
      f-2     :     0.000544
      f+3     :     0.000405
      f-3     :     0.000469


                      *****************************
                      * MAYER POPULATION ANALYSIS *
                      *****************************

  NA   - Mulliken gross atomic population
  ZA   - Total nuclear charge
  QA   - Mulliken gross atomic charge
  VA   - Mayer's total valence
  BVA  - Mayer's bonded valence
  FA   - Mayer's free valence

  ATOM       NA         ZA         QA         VA         BVA        FA
  0 C      6.1859     6.0000    -0.1859     3.8929     3.8929    -0.0000
  1 C      6.1830     6.0000    -0.1830     3.9144     3.9144    -0.0000
  2 C      5.8950     6.0000     0.1050     3.6318     3.6318    -0.0000
  3 C      6.2571     6.0000    -0.2571     3.9537     3.9537     0.0000
  4 C      5.8006     6.0000     0.1994     3.7221     3.7221     0.0000
  5 C      6.1849     6.0000    -0.1849     3.9167     3.9167     0.0000
  6 H      0.8521     1.0000     0.1479     0.9721     0.9721    -0.0000
  7 H      0.8283     1.0000     0.1717     0.9952     0.9952     0.0000
  8 H      0.8484     1.0000     0.1516     0.9939     0.9939    -0.0000
  9 Cl    17.1336    17.0000    -0.1336     1.1856     1.1856     0.0000
 10 H      0.8482     1.0000     0.1518     0.9742     0.9742     0.0000
 11 C      5.9743     6.0000     0.0257     3.6343     3.6343     0.0000
 12 C      6.3581     6.0000    -0.3581     3.8753     3.8753     0.0000
 13 H      0.8557     1.0000     0.1443     0.9663     0.9663     0.0000
 14 H      0.8594     1.0000     0.1406     0.9750     0.9750    -0.0000
 15 H      0.8610     1.0000     0.1390     0.9722     0.9722     0.0000
 16 N      6.5647     7.0000     0.4353     4.0935     4.0935     0.0000
 17 O      8.3526     8.0000    -0.3526     1.9053     1.9053    -0.0000
 18 O      8.3424     8.0000    -0.3424     1.9129     1.9129     0.0000
 19 N      7.3929     7.0000    -0.3929     2.9694     2.9694     0.0000
 20 C      6.1237     6.0000    -0.1237     3.9149     3.9149    -0.0000
 21 C      6.1743     6.0000    -0.1743     3.8861     3.8861    -0.0000
 22 C      6.1614     6.0000    -0.1614     3.8582     3.8582    -0.0000
 23 C      6.1748     6.0000    -0.1748     3.9008     3.9008    -0.0000
 24 C      6.1466     6.0000    -0.1466     3.9060     3.9060     0.0000
 25 H      0.8612     1.0000     0.1388     1.0328     1.0328     0.0000
 26 H      0.8804     1.0000     0.1196     0.9658     0.9658    -0.0000
 27 H      0.8961     1.0000     0.1039     0.9767     0.9767     0.0000
 28 H      0.9005     1.0000     0.0995     0.9697     0.9697     0.0000
 29 H      0.9104     1.0000     0.0896     0.9765     0.9765     0.0000
 30 H      0.8989     1.0000     0.1011     0.9673     0.9673     0.0000
 31 H      0.9111     1.0000     0.0889     0.9734     0.9734     0.0000
 32 H      0.8997     1.0000     0.1003     0.9697     0.9697     0.0000
 33 H      0.9084     1.0000     0.0916     0.9760     0.9760    -0.0000
 34 H      0.8733     1.0000     0.1267     0.9624     0.9624     0.0000
 35 H      0.8889     1.0000     0.1111     0.9748     0.9748     0.0000
 36 H      0.7816     1.0000     0.2184     0.9451     0.9451     0.0000
 37 H      0.6600     1.0000     0.3400     0.9041     0.9041    -0.0000
 38 H      0.6533     1.0000     0.3467     0.9471     0.9471     0.0000
 39 O      8.7172     8.0000    -0.7172     1.7483     1.7483     0.0000

  Mayer bond orders larger than 0.100000
B(  0-C ,  1-C ) :   1.4238 B(  0-C ,  5-C ) :   1.3702 B(  0-C ,  6-H ) :   0.9827 
B(  1-C ,  2-C ) :   1.3680 B(  1-C ,  7-H ) :   0.9117 B(  2-C ,  3-C ) :   1.3301 
B(  2-C , 11-C ) :   0.8782 B(  3-C ,  4-C ) :   1.3784 B(  3-C ,  8-H ) :   0.9692 
B(  4-C ,  5-C ) :   1.3341 B(  4-C ,  9-Cl) :   0.9265 B(  5-C , 10-H ) :   0.9764 
B(  7-H , 39-O ) :   0.1004 B( 11-C , 12-C ) :   0.9699 B( 11-C , 16-N ) :   0.8050 
B( 11-C , 25-H ) :   0.9522 B( 12-C , 13-H ) :   0.9712 B( 12-C , 14-H ) :   0.9515 
B( 12-C , 15-H ) :   0.9641 B( 16-N , 17-O ) :   1.6160 B( 16-N , 18-O ) :   1.6164 
B( 17-O , 18-O ) :   0.2106 B( 19-N , 20-C ) :   0.9512 B( 19-N , 24-C ) :   0.9428 
B( 19-N , 36-H ) :   0.9120 B( 19-N , 38-H ) :   0.1735 B( 20-C , 21-C ) :   0.9903 
B( 20-C , 26-H ) :   0.9673 B( 20-C , 27-H ) :   0.9684 B( 21-C , 22-C ) :   0.9738 
B( 21-C , 28-H ) :   0.9637 B( 21-C , 29-H ) :   0.9623 B( 22-C , 23-C ) :   0.9711 
B( 22-C , 30-H ) :   0.9692 B( 22-C , 31-H ) :   0.9660 B( 23-C , 24-C ) :   0.9911 
B( 23-C , 32-H ) :   0.9652 B( 23-C , 33-H ) :   0.9659 B( 24-C , 34-H ) :   0.9649 
B( 24-C , 35-H ) :   0.9715 B( 37-H , 39-O ) :   0.8890 B( 38-H , 39-O ) :   0.7714 


-------
TIMINGS
-------

Total SCF time: 0 days 0 hours 0 min 55 sec 

Total time                  ....      55.825 sec
Sum of individual times     ....      50.782 sec  ( 91.0%)

Fock matrix formation       ....      35.744 sec  ( 64.0%)
  Split-RI-J                ....       5.560 sec  ( 15.6% of F)
  Chain of spheres X        ....      16.911 sec  ( 47.3% of F)
  XC integration            ....       3.793 sec  ( 10.6% of F)
    Basis function eval.    ....       0.335 sec  (  8.8% of XC)
    Density eval.           ....       1.127 sec  ( 29.7% of XC)
    XC-Functional eval.     ....       0.018 sec  (  0.5% of XC)
    XC-Potential eval.      ....       0.354 sec  (  9.3% of XC)
Diagonalization             ....       0.853 sec  (  1.5%)
Density matrix formation    ....       0.448 sec  (  0.8%)
Population analysis         ....       0.952 sec  (  1.7%)
Initial guess               ....       1.063 sec  (  1.9%)
Orbital Transformation      ....       0.000 sec  (  0.0%)
Orbital Orthonormalization  ....       0.965 sec  (  1.7%)
DIIS solution               ....       0.388 sec  (  0.7%)
SOSCF solution              ....       7.093 sec  ( 12.7%)
Grid generation             ....       4.243 sec  (  7.6%)

Maximum memory used throughout the entire SCF-calculation: 145.5 MB


-------------------------------------------------------------------------------
                          DFT DISPERSION CORRECTION                            
                                                                               
                              DFTD3 V3.1  Rev 1                                
                          USING Becke-Johnson damping                          
-------------------------------------------------------------------------------
The B3LYP functional is recognized
Active option DFTDOPT                   ...         4   

molecular C6(AA) [au] = 15438.544577 


            DFT-D V3
 parameters
 s6 scaling factor         :     1.0000 
 a1 scaling factor         :     0.3981 
 s8 scaling factor         :     1.9889 
 a2 scaling factor         :     4.4211 
 ad hoc parameters k1-k3   :    16.0000     1.3333    -4.0000 

 Edisp/kcal,au: -47.204460822078  -0.075225088605 
 E6   /kcal   : -22.973466573 
 E8   /kcal   : -24.230994249 
 % E8         :  51.332000889 

-------------------------   ----------------
Dispersion correction           -0.075225089
-------------------------   ----------------


-------------------------   --------------------
FINAL SINGLE POINT ENERGY     -1303.215765374171
-------------------------   --------------------

                                *** OPTIMIZATION RUN DONE ***

                            ***************************************
                            *     ORCA property calculations      *
                            ***************************************

                                    ---------------------
                                    Active property flags
                                    ---------------------
   (+) Dipole Moment


------------------------------------------------------------------------------
                       ORCA ELECTRIC PROPERTIES CALCULATION
------------------------------------------------------------------------------

Dipole Moment Calculation                       ... on
Quadrupole Moment Calculation                   ... off
Polarizability Calculation                      ... off
GBWName                                         ... /home/rudenko/mop_saddle_orca_4_serv/for_orca/m-clc6h4chno2ch3_piperidine/orca/orca_start/start.gbw
Electron density                                ... /home/rudenko/mop_saddle_orca_4_serv/for_orca/m-clc6h4chno2ch3_piperidine/orca/orca_start/start.scfp
The origin for moment calculation is the CENTER OF MASS  = ( 4.824651,  0.784688  3.108957)

-------------
DIPOLE MOMENT
-------------
                                X             Y             Z
Electronic contribution:    -39.61321      13.44647     -12.55445
Nuclear contribution   :     41.46439     -11.97791      14.36906
                        -----------------------------------------
Total Dipole Moment    :      1.85118       1.46856       1.81461
                        -----------------------------------------
Magnitude (a.u.)       :      2.97932
Magnitude (Debye)      :      7.57283



--------------------
Rotational spectrum 
--------------------
 
Rotational constants in cm-1:     0.014998     0.004987     0.004325 
Rotational constants in MHz :   449.622611   149.515858   129.665859 

 Dipole components along the rotational axes: 
x,y,z [a.u.] :    -1.639181     2.125492     1.292948 
x,y,z [Debye]:    -4.166467     5.402571     3.286413 

 

Timings for individual modules:

Sum of individual times         ...     3115.601 sec (=  51.927 min)
GTO integral calculation        ...      199.041 sec (=   3.317 min)   6.4 %
SCF iterations                  ...     2322.341 sec (=  38.706 min)  74.5 %
SCF Gradient evaluation         ...      586.460 sec (=   9.774 min)  18.8 %
Geometry relaxation             ...        7.759 sec (=   0.129 min)   0.2 %
                             ****ORCA TERMINATED NORMALLY****
TOTAL RUN TIME: 0 days 0 hours 54 minutes 4 seconds 414 msec
