
                                 *****************
                                 * O   R   C   A *
                                 *****************

                                            #,                                       
                                            ###                                      
                                            ####                                     
                                            #####                                    
                                            ######                                   
                                           ########,                                 
                                     ,,################,,,,,                         
                               ,,#################################,,                 
                          ,,##########################################,,             
                       ,#########################################, ''#####,          
                    ,#############################################,,   '####,        
                  ,##################################################,,,,####,       
                ,###########''''           ''''###############################       
              ,#####''   ,,,,##########,,,,          '''####'''          '####       
            ,##' ,,,,###########################,,,                        '##       
           ' ,,###''''                  '''############,,,                           
         ,,##''                                '''############,,,,        ,,,,,,###''
      ,#''                                            '''#######################'''  
     '                                                          ''''####''''         
             ,#######,   #######,   ,#######,      ##                                
            ,#'     '#,  ##    ##  ,#'     '#,    #''#        ######   ,####,        
            ##       ##  ##   ,#'  ##            #'  '#       #        #'  '#        
            ##       ##  #######   ##           ,######,      #####,   #    #        
            '#,     ,#'  ##    ##  '#,     ,#' ,#      #,         ##   #,  ,#        
             '#######'   ##     ##  '#######'  #'      '#     #####' # '####'        



                  #######################################################
                  #                        -***-                        #
                  #          Department of theory and spectroscopy      #
                  #    Directorship and core code : Frank Neese         #
                  #        Max Planck Institute fuer Kohlenforschung    #
                  #                Kaiser Wilhelm Platz 1               #
                  #                 D-45470 Muelheim/Ruhr               #
                  #                      Germany                        #
                  #                                                     #
                  #                  All rights reserved                #
                  #                        -***-                        #
                  #######################################################


                         Program Version 5.0.4 -  RELEASE  -


 With contributions from (in alphabetic order):
   Daniel Aravena         : Magnetic Suceptibility
   Michael Atanasov       : Ab Initio Ligand Field Theory (pilot matlab implementation)
   Alexander A. Auer      : GIAO ZORA, VPT2 properties, NMR spectrum
   Ute Becker             : Parallelization
   Giovanni Bistoni       : ED, misc. LED, open-shell LED, HFLD
   Martin Brehm           : Molecular dynamics
   Dmytro Bykov           : SCF Hessian
   Vijay G. Chilkuri      : MRCI spin determinant printing, contributions to CSF-ICE
   Dipayan Datta          : RHF DLPNO-CCSD density
   Achintya Kumar Dutta   : EOM-CC, STEOM-CC
   Dmitry Ganyushin       : Spin-Orbit,Spin-Spin,Magnetic field MRCI
   Miquel Garcia          : C-PCM and meta-GGA Hessian, CC/C-PCM, Gaussian charge scheme
   Yang Guo               : DLPNO-NEVPT2, F12-NEVPT2, CIM, IAO-localization
   Andreas Hansen         : Spin unrestricted coupled pair/coupled cluster methods
   Benjamin Helmich-Paris : MC-RPA, TRAH-SCF, COSX integrals
   Lee Huntington         : MR-EOM, pCC
   Robert Izsak           : Overlap fitted RIJCOSX, COSX-SCS-MP3, EOM
   Marcus Kettner         : VPT2
   Christian Kollmar      : KDIIS, OOCD, Brueckner-CCSD(T), CCSD density, CASPT2, CASPT2-K
   Simone Kossmann        : Meta GGA functionals, TD-DFT gradient, OOMP2, MP2 Hessian
   Martin Krupicka        : Initial AUTO-CI
   Lucas Lang             : DCDCAS
   Marvin Lechner         : AUTO-CI (C++ implementation), FIC-MRCC
   Dagmar Lenk            : GEPOL surface, SMD
   Dimitrios Liakos       : Extrapolation schemes; Compound Job, initial MDCI parallelization
   Dimitrios Manganas     : Further ROCIS development; embedding schemes
   Dimitrios Pantazis     : SARC Basis sets
   Anastasios Papadopoulos: AUTO-CI, single reference methods and gradients
   Taras Petrenko         : DFT Hessian,TD-DFT gradient, ASA, ECA, R-Raman, ABS, FL, XAS/XES, NRVS
   Peter Pinski           : DLPNO-MP2, DLPNO-MP2 Gradient
   Christoph Reimann      : Effective Core Potentials
   Marius Retegan         : Local ZFS, SOC
   Christoph Riplinger    : Optimizer, TS searches, QM/MM, DLPNO-CCSD(T), (RO)-DLPNO pert. Triples
   Tobias Risthaus        : Range-separated hybrids, TD-DFT gradient, RPA, STAB
   Michael Roemelt        : Original ROCIS implementation
   Masaaki Saitow         : Open-shell DLPNO-CCSD energy and density
   Barbara Sandhoefer     : DKH picture change effects
   Avijit Sen             : IP-ROCIS
   Kantharuban Sivalingam : CASSCF convergence, NEVPT2, FIC-MRCI
   Bernardo de Souza      : ESD, SOC TD-DFT
   Georgi Stoychev        : AutoAux, RI-MP2 NMR, DLPNO-MP2 response
   Willem Van den Heuvel  : Paramagnetic NMR
   Boris Wezisla          : Elementary symmetry handling
   Frank Wennmohs         : Technical directorship


 We gratefully acknowledge several colleagues who have allowed us to
 interface, adapt or use parts of their codes:
   Stefan Grimme, W. Hujo, H. Kruse, P. Pracht,  : VdW corrections, initial TS optimization,
                  C. Bannwarth, S. Ehlert          DFT functionals, gCP, sTDA/sTD-DF
   Ed Valeev, F. Pavosevic, A. Kumar             : LibInt (2-el integral package), F12 methods
   Garnet Chan, S. Sharma, J. Yang, R. Olivares  : DMRG
   Ulf Ekstrom                                   : XCFun DFT Library
   Mihaly Kallay                                 : mrcc  (arbitrary order and MRCC methods)
   Jiri Pittner, Ondrej Demel                    : Mk-CCSD
   Frank Weinhold                                : gennbo (NPA and NBO analysis)
   Christopher J. Cramer and Donald G. Truhlar   : smd solvation model
   Lars Goerigk                                  : TD-DFT with DH, B97 family of functionals
   V. Asgeirsson, H. Jonsson                     : NEB implementation
   FAccTs GmbH                                   : IRC, NEB, NEB-TS, DLPNO-Multilevel, CI-OPT
                                                   MM, QMMM, 2- and 3-layer-ONIOM, Crystal-QMMM,
                                                   LR-CPCM, SF, NACMEs, symmetry and pop. for TD-DFT,
                                                   nearIR, NL-DFT gradient (VV10), updates on ESD,
                                                   ML-optimized integration grids
   S Lehtola, MJT Oliveira, MAL Marques          : LibXC Library
   Liviu Ungur et al                             : ANISO software


 Your calculation uses the libint2 library for the computation of 2-el integrals
 For citations please refer to: http://libint.valeyev.net

 Your ORCA version has been built with support for libXC version: 5.1.0
 For citations please refer to: https://tddft.org/programs/libxc/

 This ORCA versions uses:
   CBLAS   interface :  Fast vector & matrix operations
   LAPACKE interface :  Fast linear algebra routines
   SCALAPACK package :  Parallel linear algebra routines
   Shared memory     :  Shared parallel matrices
   BLAS/LAPACK       :  OpenBLAS 0.3.15  USE64BITINT DYNAMIC_ARCH NO_AFFINITY Prescott SINGLE_THREADED
        Core in use  :  Prescott
   Copyright (c) 2011-2014, The OpenBLAS Project


Your calculation utilizes the atom-pairwise dispersion correction
with the Becke-Johnson damping scheme (D3BJ)
Cite in your paper:
S.Grimme, S.Ehrlich, L.Goerigk, J Comput Chem, (2011), 32, 1456–1465 
S.Grimme, J.Antony, S.Ehrlich and H.Krieg, J.Chem.Phys., 132, (2010), 154104 
   

================================================================================

----- Orbital basis set information -----
Your calculation utilizes the basis: def2-TZVP
   F. Weigend and R. Ahlrichs, Phys. Chem. Chem. Phys. 7, 3297 (2005).

----- AuxJ basis set information -----
Your calculation utilizes the auxiliary basis: def2/J
   F. Weigend, Phys. Chem. Chem. Phys. 8, 1057 (2006).

================================================================================
                                        WARNINGS
                       Please study these warnings very carefully!
================================================================================

WARNING: Gradients needed for Numerical Frequencies
  ===> : Setting RunTyp to EnGrad

INFO   : the flag for use of the SHARK integral package has been found!

================================================================================
                                       INPUT FILE
================================================================================
NAME = /home/rudenko/mop_saddle_orca_4_serv/for_orca/m-clc6h4chno2ch3_piperidine/orca/freq_H/f_H.inp
|  1> !  NUMFREQ B3LYP def2-TZVP CPCM D3 
|  2> %pal nprocs 102 end
|  3> %cpcm epsilon 78.4 end 
|  4> *xyz 0 1 
|  5> C   -2.06939539131135 2.45354954609385 1.03530822976736
|  6> C   -2.07771527175634 1.0673342374543 1.11129860332761
|  7> C   -2.07855038472903 0.2816831753952 -0.0450192735145
|  8> C   -2.08899716659043 0.92394978709842 -1.28522184238825
|  9> C   -2.06891356363235 2.30864124421283 -1.34085505614284
| 10> C   -2.05562748426732 3.0951418823151 -0.19796120294418
| 11> H   -2.06002619629085 3.04373885478479 1.94276985794587
| 12> H   -2.07102114220764 0.58747654015699 2.08099110717573
| 13> H   -2.09388897389087 0.35545328127485 -2.20291052504821
| 14> Cl   -2.06035884108588 3.09140851139141 -2.91333273397704
| 15> H   -2.03559171284198 4.17349576667233 -0.27097742838525
| 16> C   -2.1199365153638 -1.20824968030542 0.11110560131266
| 17> C   -3.44759926808235 -1.75771148434758 0.60066196686761
| 18> H   -3.35389805660944 -2.79189480909686 0.92810515139852
| 19> H   -4.21823103342369 -1.70911051387393 -0.17457625275982
| 20> H   -3.78015916716484 -1.15966305149545 1.44846977774998
| 21> N   -1.56320187149129 -1.9532669766087 -0.97758102806154
| 22> O   -2.01404218977492 -3.08106419857148 -1.23380149275538
| 23> O   -0.56124497467204 -1.51269715107199 -1.57129695011804
| 24> N   1.82069986852636 -0.53106798287724 0.99595369206567
| 25> C   2.48812832292896 -1.52174257221151 0.0983134675133
| 26> C   3.69795775116254 -0.90713886514402 -0.58870764311899
| 27> C   3.31953438179935 0.37117554887677 -1.34005146142736
| 28> C   2.625134509341 1.36102137196102 -0.40269237594541
| 29> C   1.4273383439953 0.71976170305293 0.27926004554759
| 30> H   -1.22096391048299 -1.48567794857159 1.03657285976189
| 31> H   2.75719482381525 -2.38090994813677 0.71070207043181
| 32> H   1.73459818095576 -1.82945475667384 -0.62663302326897
| 33> H   4.12444210236062 -1.64701870453607 -1.26858908573702
| 34> H   4.46163037904329 -0.68068598867001 0.16237294163181
| 35> H   4.20944388010397 0.82685404166714 -1.77787497334209
| 36> H   2.64510957995744 0.12136169031066 -2.16541974853083
| 37> H   2.2788120662297 2.23936545508318 -0.95061833038197
| 38> H   3.33141087244319 1.71172319688403 0.35676909881411
| 39> H   0.96566097383617 1.37982103205911 1.01073392114235
| 40> H   0.67127669631181 0.42660106213112 -0.44677067064268
| 41> H   2.45161001573144 -0.29509942875075 1.76222285865965
| 42> H   -0.60736604263147 -1.33862947531546 2.7452973369915
| 43> H   0.93402423161949 -0.99996424863661 1.43580861316319
| 44> O   -0.29727782186078 -1.74851014398076 1.92817389722215
| 45> *
| 46> 
| 47>                          ****END OF INPUT****
================================================================================

                     *******************************
                     * Energy+Gradient Calculation *
                     *******************************

---------------------------------
CARTESIAN COORDINATES (ANGSTROEM)
---------------------------------
  C     -2.069395    2.453550    1.035308
  C     -2.077715    1.067334    1.111299
  C     -2.078550    0.281683   -0.045019
  C     -2.088997    0.923950   -1.285222
  C     -2.068914    2.308641   -1.340855
  C     -2.055627    3.095142   -0.197961
  H     -2.060026    3.043739    1.942770
  H     -2.071021    0.587477    2.080991
  H     -2.093889    0.355453   -2.202911
  Cl    -2.060359    3.091409   -2.913333
  H     -2.035592    4.173496   -0.270977
  C     -2.119937   -1.208250    0.111106
  C     -3.447599   -1.757711    0.600662
  H     -3.353898   -2.791895    0.928105
  H     -4.218231   -1.709111   -0.174576
  H     -3.780159   -1.159663    1.448470
  N     -1.563202   -1.953267   -0.977581
  O     -2.014042   -3.081064   -1.233801
  O     -0.561245   -1.512697   -1.571297
  N      1.820700   -0.531068    0.995954
  C      2.488128   -1.521743    0.098313
  C      3.697958   -0.907139   -0.588708
  C      3.319534    0.371176   -1.340051
  C      2.625135    1.361021   -0.402692
  C      1.427338    0.719762    0.279260
  H     -1.220964   -1.485678    1.036573
  H      2.757195   -2.380910    0.710702
  H      1.734598   -1.829455   -0.626633
  H      4.124442   -1.647019   -1.268589
  H      4.461630   -0.680686    0.162373
  H      4.209444    0.826854   -1.777875
  H      2.645110    0.121362   -2.165420
  H      2.278812    2.239365   -0.950618
  H      3.331411    1.711723    0.356769
  H      0.965661    1.379821    1.010734
  H      0.671277    0.426601   -0.446771
  H      2.451610   -0.295099    1.762223
  H     -0.607366   -1.338629    2.745297
  H      0.934024   -0.999964    1.435809
  O     -0.297278   -1.748510    1.928174

----------------------------
CARTESIAN COORDINATES (A.U.)
----------------------------
  NO LB      ZA    FRAG     MASS         X           Y           Z
   0 C     6.0000    0    12.011   -3.910591    4.636537    1.956449
   1 C     6.0000    0    12.011   -3.926313    2.016969    2.100050
   2 C     6.0000    0    12.011   -3.927891    0.532304   -0.085074
   3 C     6.0000    0    12.011   -3.947633    1.746012   -2.428717
   4 C     6.0000    0    12.011   -3.909680    4.362700   -2.533849
   5 C     6.0000    0    12.011   -3.884573    5.848971   -0.374092
   6 H     1.0000    0     1.008   -3.892885    5.751833    3.671303
   7 H     1.0000    0     1.008   -3.913663    1.110170    3.932503
   8 H     1.0000    0     1.008   -3.956877    0.671709   -4.162898
   9 Cl   17.0000    0    35.453   -3.893514    5.841915   -5.505401
  10 H     1.0000    0     1.008   -3.846711    7.886764   -0.512073
  11 C     6.0000    0    12.011   -4.006099   -2.283261    0.209959
  12 C     6.0000    0    12.011   -6.515018   -3.321593    1.135087
  13 H     1.0000    0     1.008   -6.337949   -5.275917    1.753865
  14 H     1.0000    0     1.008   -7.971301   -3.229751   -0.329901
  15 H     1.0000    0     1.008   -7.143466   -2.191446    2.737211
  16 N     7.0000    0    14.007   -2.954023   -3.691140   -1.847360
  17 O     8.0000    0    15.999   -3.805988   -5.822368   -2.331547
  18 O     8.0000    0    15.999   -1.060599   -2.858583   -2.969321
  19 N     7.0000    0    14.007    3.440624   -1.003573    1.882080
  20 C     6.0000    0    12.011    4.701881   -2.875677    0.185786
  21 C     6.0000    0    12.011    6.988127   -1.714244   -1.112496
  22 C     6.0000    0    12.011    6.273011    0.701420   -2.532330
  23 C     6.0000    0    12.011    4.960785    2.571958   -0.760978
  24 C     6.0000    0    12.011    2.697279    1.360153    0.527725
  25 H     1.0000    0     1.008   -2.307287   -2.807524    1.958839
  26 H     1.0000    0     1.008    5.210343   -4.499268    1.343032
  27 H     1.0000    0     1.008    3.277916   -3.457168   -1.184165
  28 H     1.0000    0     1.008    7.794066   -3.112414   -2.397286
  29 H     1.0000    0     1.008    8.431260   -1.286310    0.306840
  30 H     1.0000    0     1.008    7.954696    1.562528   -3.359697
  31 H     1.0000    0     1.008    4.998533    0.229340   -4.092050
  32 H     1.0000    0     1.008    4.306331    4.231787   -1.796408
  33 H     1.0000    0     1.008    6.295454    3.234688    0.674196
  34 H     1.0000    0     1.008    1.824835    2.607484    1.910010
  35 H     1.0000    0     1.008    1.268529    0.806159   -0.844274
  36 H     1.0000    0     1.008    4.632872   -0.557657    3.330119
  37 H     1.0000    0     1.008   -1.147755   -2.529643    5.187860
  38 H     1.0000    0     1.008    1.765050   -1.889659    2.713285
  39 O     8.0000    0    15.999   -0.561774   -3.304205    3.643721

--------------------------------
INTERNAL COORDINATES (ANGSTROEM)
--------------------------------
 C      0   0   0     0.000000000000     0.00000000     0.00000000
 C      1   0   0     1.388321518666     0.00000000     0.00000000
 C      2   1   0     1.397969713918   121.05571906     0.00000000
 C      3   2   1     1.396681047198   118.42718953   359.15100530
 C      4   3   2     1.385954125138   119.66765487     1.39283379
 C      5   4   3     1.387431487793   122.23762007   359.15875848
 H      1   2   3     1.082542289486   119.90279170   180.54139994
 H      2   1   3     1.081948137872   119.46285376   179.23204270
 H      4   3   2     1.079520599708   120.84487400   180.23955005
 Cl     5   4   3     1.756554532353   118.76545961   179.17117099
 H      6   5   4     1.081008742436   120.66522339   179.72626908
 C      3   2   1     1.498661970841   118.20118974   181.39709716
 C     12   3   2     1.517979609255   114.68387044    71.04113189
 H     13  12   3     1.088822347914   111.43986224   194.01027863
 H     13  12   3     1.094179907170   111.80338766    72.50381418
 H     13  12   3     1.089511862582   108.61679000   313.20807558
 N     12   3   2     1.431866897605   115.29861168   205.50375972
 O     17  12   3     1.241302740263   119.23921340   210.02166671
 O     17  12   3     1.245197972356   119.42589352    36.42743604
 N     19  17  12     3.637036282426   106.61360554    47.58591327
 C     20  19  17     1.494207099579    71.91332949   123.29502755
 C     21  20  19     1.520994072512   111.02280340   118.43695620
 C     22  21  20     1.530297200182   111.26101767   305.03765739
 C     23  22  21     1.529911105745   110.60246093    54.71219352
 C     20  19  17     1.494308527428    73.43990539   244.56254419
 H     12   3   2     1.319699903319   105.26243190   313.63643849
 H     21  20  19     1.088845793828   107.19733777   241.18725277
 H     21  20  19     1.089973338126   106.13694697   357.32934747
 H     22  21  20     1.091581354995   108.55517519   182.71427470
 H     22  21  20     1.094805385732   109.18025018    66.21523019
 H     23  22  21     1.091453723962   110.12545179   176.79349894
 H     23  22  21     1.094755034986   109.38343332   294.31881295
 H     24  23  22     1.091627415606   110.91918939   184.71921326
 H     24  23  22     1.094805828777   109.84434897    66.43595798
 H     25  20  19     1.088061736577   107.28093559   119.09445853
 H     25  20  19     1.088436023538   106.10044561     3.28186661
 H     20  19  17     1.020243700326   176.00164535    16.97640317
 H     26  12   3     1.821500737305   150.49951170    62.28392371
 H     20  19  17     1.095230452800    68.76012713     4.15038240
 O     38  26  12     0.965322527981    43.93425043   182.85235657

---------------------------
INTERNAL COORDINATES (A.U.)
---------------------------
 C      0   0   0     0.000000000000     0.00000000     0.00000000
 C      1   0   0     2.623547456108     0.00000000     0.00000000
 C      2   1   0     2.641779902822   121.05571906     0.00000000
 C      3   2   1     2.639344675642   118.42718953   359.15100530
 C      4   3   2     2.619073730689   119.66765487     1.39283379
 C      5   4   3     2.621865541508   122.23762007   359.15875848
 H      1   2   3     2.045708455516   119.90279170   180.54139994
 H      2   1   3     2.044585671685   119.46285376   179.23204270
 H      4   3   2     2.039998289375   120.84487400   180.23955005
 Cl     5   4   3     3.319407005446   118.76545961   179.17117099
 H      6   5   4     2.042810471578   120.66522339   179.72626908
 C      3   2   1     2.832060692212   118.20118974   181.39709716
 C     12   3   2     2.868565738368   114.68387044    71.04113189
 H     13  12   3     2.057576046050   111.43986224   194.01027863
 H     13  12   3     2.067700365791   111.80338766    72.50381418
 H     13  12   3     2.058879039939   108.61679000   313.20807558
 N     12   3   2     2.705836296701   115.29861168   205.50375972
 O     17  12   3     2.345722228383   119.23921340   210.02166671
 O     17  12   3     2.353083150268   119.42589352    36.42743604
 N     19  17  12     6.873002512920   106.61360554    47.58591327
 C     20  19  17     2.823642205566    71.91332949   123.29502755
 C     21  20  19     2.874262248365   111.02280340   118.43695620
 C     22  21  20     2.891842611850   111.26101767   305.03765739
 C     23  22  21     2.891112999103   110.60246093    54.71219352
 C     20  19  17     2.823833876423    73.43990539   244.56254419
 H     12   3   2     2.493871396236   105.26243190   313.63643849
 H     21  20  19     2.057620352408   107.19733777   241.18725277
 H     21  20  19     2.059751102335   106.13694697   357.32934747
 H     22  21  20     2.062789813835   108.55517519   182.71427470
 H     22  21  20     2.068882348975   109.18025018    66.21523019
 H     23  22  21     2.062548626136   110.12545179   176.79349894
 H     23  22  21     2.068787199855   109.38343332   294.31881295
 H     24  23  22     2.062876855776   110.91918939   184.71921326
 H     24  23  22     2.068883186210   109.84434897    66.43595798
 H     25  20  19     2.056138698929   107.28093559   119.09445853
 H     25  20  19     2.056845998781   106.10044561     3.28186661
 H     20  19  17     1.927981183475   176.00164535    16.97640317
 H     26  12   3     3.442137546242   150.49951170    62.28392371
 H     20  19  17     2.069685609323    68.76012713     4.15038240
 O     38  26  12     1.824195208788    43.93425043   182.85235657

---------------------
BASIS SET INFORMATION
---------------------
There are 5 groups of distinct atoms

 Group   1 Type C   : 11s6p2d1f contracted to 5s3p2d1f pattern {62111/411/11/1}
 Group   2 Type H   : 5s1p contracted to 3s1p pattern {311/1}
 Group   3 Type Cl  : 14s9p3d1f contracted to 5s5p2d1f pattern {73211/51111/21/1}
 Group   4 Type N   : 11s6p2d1f contracted to 5s3p2d1f pattern {62111/411/11/1}
 Group   5 Type O   : 11s6p2d1f contracted to 5s3p2d1f pattern {62111/411/11/1}

Atom   0C    basis set group =>   1
Atom   1C    basis set group =>   1
Atom   2C    basis set group =>   1
Atom   3C    basis set group =>   1
Atom   4C    basis set group =>   1
Atom   5C    basis set group =>   1
Atom   6H    basis set group =>   2
Atom   7H    basis set group =>   2
Atom   8H    basis set group =>   2
Atom   9Cl   basis set group =>   3
Atom  10H    basis set group =>   2
Atom  11C    basis set group =>   1
Atom  12C    basis set group =>   1
Atom  13H    basis set group =>   2
Atom  14H    basis set group =>   2
Atom  15H    basis set group =>   2
Atom  16N    basis set group =>   4
Atom  17O    basis set group =>   5
Atom  18O    basis set group =>   5
Atom  19N    basis set group =>   4
Atom  20C    basis set group =>   1
Atom  21C    basis set group =>   1
Atom  22C    basis set group =>   1
Atom  23C    basis set group =>   1
Atom  24C    basis set group =>   1
Atom  25H    basis set group =>   2
Atom  26H    basis set group =>   2
Atom  27H    basis set group =>   2
Atom  28H    basis set group =>   2
Atom  29H    basis set group =>   2
Atom  30H    basis set group =>   2
Atom  31H    basis set group =>   2
Atom  32H    basis set group =>   2
Atom  33H    basis set group =>   2
Atom  34H    basis set group =>   2
Atom  35H    basis set group =>   2
Atom  36H    basis set group =>   2
Atom  37H    basis set group =>   2
Atom  38H    basis set group =>   2
Atom  39O    basis set group =>   5
---------------------------------
AUXILIARY/J BASIS SET INFORMATION
---------------------------------
There are 5 groups of distinct atoms

 Group   1 Type C   : 12s5p4d2f1g contracted to 6s4p3d1f1g pattern {711111/2111/211/2/1}
 Group   2 Type H   : 5s2p1d contracted to 3s1p1d pattern {311/2/1}
 Group   3 Type Cl  : 14s5p5d2f1g contracted to 8s4p3d1f1g pattern {71111111/2111/311/2/1}
 Group   4 Type N   : 12s5p4d2f1g contracted to 6s4p3d1f1g pattern {711111/2111/211/2/1}
 Group   5 Type O   : 12s5p4d2f1g contracted to 6s4p3d1f1g pattern {711111/2111/211/2/1}

Atom   0C    basis set group =>   1
Atom   1C    basis set group =>   1
Atom   2C    basis set group =>   1
Atom   3C    basis set group =>   1
Atom   4C    basis set group =>   1
Atom   5C    basis set group =>   1
Atom   6H    basis set group =>   2
Atom   7H    basis set group =>   2
Atom   8H    basis set group =>   2
Atom   9Cl   basis set group =>   3
Atom  10H    basis set group =>   2
Atom  11C    basis set group =>   1
Atom  12C    basis set group =>   1
Atom  13H    basis set group =>   2
Atom  14H    basis set group =>   2
Atom  15H    basis set group =>   2
Atom  16N    basis set group =>   4
Atom  17O    basis set group =>   5
Atom  18O    basis set group =>   5
Atom  19N    basis set group =>   4
Atom  20C    basis set group =>   1
Atom  21C    basis set group =>   1
Atom  22C    basis set group =>   1
Atom  23C    basis set group =>   1
Atom  24C    basis set group =>   1
Atom  25H    basis set group =>   2
Atom  26H    basis set group =>   2
Atom  27H    basis set group =>   2
Atom  28H    basis set group =>   2
Atom  29H    basis set group =>   2
Atom  30H    basis set group =>   2
Atom  31H    basis set group =>   2
Atom  32H    basis set group =>   2
Atom  33H    basis set group =>   2
Atom  34H    basis set group =>   2
Atom  35H    basis set group =>   2
Atom  36H    basis set group =>   2
Atom  37H    basis set group =>   2
Atom  38H    basis set group =>   2
Atom  39O    basis set group =>   5


           ************************************************************
           *        Program running with 102 parallel MPI-processes   *
           *              working on a common directory               *
           ************************************************************
------------------------------------------------------------------------------
                           ORCA GTO INTEGRAL CALCULATION
                           -- RI-GTO INTEGRALS CHOSEN --
------------------------------------------------------------------------------
------------------------------------------------------------------------------
                   ___                                                        
                  /   \      - P O W E R E D   B Y -                         
                 /     \                                                     
                 |  |  |   _    _      __       _____    __    __             
                 |  |  |  | |  | |    /  \     |  _  \  |  |  /  |          
                  \  \/   | |  | |   /    \    | | | |  |  | /  /          
                 / \  \   | |__| |  /  /\  \   | |_| |  |  |/  /          
                |  |  |   |  __  | /  /__\  \  |    /   |      \           
                |  |  |   | |  | | |   __   |  |    \   |  |\   \          
                \     /   | |  | | |  |  |  |  | |\  \  |  | \   \       
                 \___/    |_|  |_| |__|  |__|  |_| \__\ |__|  \__/        
                                                                              
                      - O R C A' S   B I G   F R I E N D -                    
                                      &                                       
                       - I N T E G R A L  F E E D E R -                       
                                                                              
 v1 FN, 2020, v2 2021                                                         
------------------------------------------------------------------------------


Reading SHARK input file /home/rudenko/mop_saddle_orca_4_serv/for_orca/m-clc6h4chno2ch3_piperidine/orca/freq_H/f_H.SHARKINP.tmp ... ok
----------------------
SHARK INTEGRAL PACKAGE
----------------------

Number of atoms                             ...     40
Number of basis functions                   ...    721
Number of shells                            ...    295
Maximum angular momentum                    ...      3
Integral batch strategy                     ... SHARK/LIBINT Hybrid
RI-J (if used) integral strategy            ... SPLIT-RIJ (Revised 2003 algorithm where possible)
Printlevel                                  ...      1
Contraction scheme used                     ... SEGMENTED contraction
Coulomb Range Separation                    ... NOT USED
Exchange Range Separation                   ... NOT USED
Finite Nucleus Model                        ... NOT USED
Auxiliary Coulomb fitting basis             ... AVAILABLE
   # of basis functions in Aux-J            ...   1164
   # of shells in Aux-J                     ...    392
   Maximum angular momentum in Aux-J        ...      4
Auxiliary J/K fitting basis                 ... NOT available
Auxiliary Correlation fitting basis         ... NOT available
Auxiliary 'external' fitting basis          ... NOT available
Integral threshold                          ...     2.500000e-11
Primitive cut-off                           ...     2.500000e-12
Primitive pair pre-selection threshold      ...     2.500000e-12

Calculating pre-screening integrals         ... done (  0.1 sec) Dimension = 295
Organizing shell pair data                  ... done (  0.8 sec)
Shell pair information
Total number of shell pairs                 ...     43660
Shell pairs after pre-screening             ...     32849
Total number of primitive shell pairs       ...    132336
Primitive shell pairs kept                  ...     66186
          la=0 lb=0:   9295 shell pairs
          la=1 lb=0:   9741 shell pairs
          la=1 lb=1:   2605 shell pairs
          la=2 lb=0:   4442 shell pairs
          la=2 lb=1:   2378 shell pairs
          la=2 lb=2:    571 shell pairs
          la=3 lb=0:   2064 shell pairs
          la=3 lb=1:   1116 shell pairs
          la=3 lb=2:    514 shell pairs
          la=3 lb=3:    123 shell pairs

Calculating one electron integrals          ... done (  0.2 sec)
Calculating RI/J V-Matrix + Cholesky decomp.... done (  0.2 sec)
Calculating Nuclear repulsion               ... done (  0.0 sec) ENN=   1683.594977131452 Eh

SHARK setup successfully completed in   1.8 seconds

Maximum memory used throughout the entire GTOINT-calculation: 49.2 MB


           ************************************************************
           *        Program running with 102 parallel MPI-processes   *
           *              working on a common directory               *
           ************************************************************
-------------------------------------------------------------------------------
                                 ORCA SCF
-------------------------------------------------------------------------------

------------
SCF SETTINGS
------------
Hamiltonian:
 Density Functional     Method          .... DFT(GTOs)
 Exchange Functional    Exchange        .... B88
   X-Alpha parameter    XAlpha          ....  0.666667
   Becke's b parameter  XBeta           ....  0.004200
 Correlation Functional Correlation     .... LYP
 LDA part of GGA corr.  LDAOpt          .... VWN-5
 Gradients option       PostSCFGGA      .... off
 Hybrid DFT is turned on
   Fraction HF Exchange ScalHFX         ....  0.200000
   Scaling of DF-GGA-X  ScalDFX         ....  0.720000
   Scaling of DF-GGA-C  ScalDFC         ....  0.810000
   Scaling of DF-LDA-C  ScalLDAC        ....  1.000000
   Perturbative correction              ....  0.000000
   Density functional embedding theory  .... OFF
   NL short-range parameter             ....  4.800000
 RI-approximation to the Coulomb term is turned on
   Number of AuxJ basis functions       .... 1164
   RIJ-COSX (HFX calculated with COS-X)).... on


General Settings:
 Integral files         IntName         .... /home/rudenko/mop_saddle_orca_4_serv/for_orca/m-clc6h4chno2ch3_piperidine/orca/freq_H/f_H
 Hartree-Fock type      HFTyp           .... RHF
 Total Charge           Charge          ....    0
 Multiplicity           Mult            ....    1
 Number of Electrons    NEL             ....  154
 Basis Dimension        Dim             ....  721
 Nuclear Repulsion      ENuc            ....   1683.5949771315 Eh

Convergence Acceleration:
 DIIS                   CNVDIIS         .... on
   Start iteration      DIISMaxIt       ....    12
   Startup error        DIISStart       ....  0.200000
   # of expansion vecs  DIISMaxEq       ....     5
   Bias factor          DIISBfac        ....   1.050
   Max. coefficient     DIISMaxC        ....  10.000
 Trust-Rad. Augm. Hess. CNVTRAH         .... auto
   Auto Start mean grad. ratio tolernc. ....  1.125000
   Auto Start start iteration           ....    20
   Auto Start num. interpolation iter.  ....    10
   Max. Number of Micro iterations      ....    16
   Max. Number of Macro iterations      .... Maxiter - #DIIS iter
   Number of Davidson start vectors     ....     2
   Converg. threshold I  (grad. norm)   ....   1.000e-05
   Converg. threshold II (energy diff.) ....   1.000e-08
   Grad. Scal. Fac. for Micro threshold ....   0.100
   Minimum threshold for Micro iter.    ....   0.010
   NR start threshold (gradient norm)   ....   0.001
   Initial trust radius                 ....   0.400
   Minimum AH scaling param. (alpha)    ....   1.000
   Maximum AH scaling param. (alpha)    .... 1000.000
   Orbital update algorithm             .... Taylor
   White noise on init. David. guess    .... on
   Maximum white noise                  ....   0.010
   Quad. conv. algorithm                .... NR
 SOSCF                  CNVSOSCF        .... on
   Start iteration      SOSCFMaxIt      ....   150
   Startup grad/error   SOSCFStart      ....  0.003300
 Level Shifting         CNVShift        .... on
   Level shift para.    LevelShift      ....    0.2500
   Turn off err/grad.   ShiftErr        ....    0.0010
 Zerner damping         CNVZerner       .... off
 Static damping         CNVDamp         .... on
   Fraction old density DampFac         ....    0.7000
   Max. Damping (<1)    DampMax         ....    0.9800
   Min. Damping (>=0)   DampMin         ....    0.0000
   Turn off err/grad.   DampErr         ....    0.1000
 Fernandez-Rico         CNVRico         .... off

SCF Procedure:
 Maximum # iterations   MaxIter         ....   125
 SCF integral mode      SCFMode         .... Direct
   Integral package                     .... SHARK and LIBINT hybrid scheme
 Reset frequency        DirectResetFreq ....    20
 Integral Threshold     Thresh          ....  2.500e-11 Eh
 Primitive CutOff       TCut            ....  2.500e-12 Eh

Convergence Tolerance:
 Convergence Check Mode ConvCheckMode   .... Total+1el-Energy
 Convergence forced     ConvForced      .... 0
 Energy Change          TolE            ....  1.000e-08 Eh
 1-El. energy change                    ....  1.000e-05 Eh
 Orbital Gradient       TolG            ....  1.000e-05
 Orbital Rotation angle TolX            ....  1.000e-05
 DIIS Error             TolErr          ....  5.000e-07


Diagonalization of the overlap matrix:
Smallest eigenvalue                        ... 7.288e-06
Time for diagonalization                   ...    0.353 sec
Threshold for overlap eigenvalues          ... 1.000e-08
Number of eigenvalues below threshold      ... 0
Time for construction of square roots      ...    0.476 sec
Total time needed                          ...    0.833 sec

Time for model grid setup =    0.279 sec

------------------------------
INITIAL GUESS: MODEL POTENTIAL
------------------------------
Loading Hartree-Fock densities                     ... done
Calculating cut-offs                               ... done
Initializing the effective Hamiltonian             ... done
Setting up the integral package (SHARK)            ... done
Starting the Coulomb interaction                   ... done (   0.1 sec)
Reading the grid                                   ... done
Mapping shells                                     ... done
Starting the XC term evaluation                    ... done (   0.1 sec)
  promolecular density results
     # of electrons  =    153.986179887
     EX              =   -138.397572818
     EC              =     -5.345298553
     EX+EC           =   -143.742871372
Transforming the Hamiltonian                       ... done (   0.5 sec)
Diagonalizing the Hamiltonian                      ... done (   0.4 sec)
Back transforming the eigenvectors                 ... done (   0.2 sec)
Now organizing SCF variables                       ... done
                      ------------------
                      INITIAL GUESS DONE (   1.7 sec)
                      ------------------
-------------------
DFT GRID GENERATION
-------------------

General Integration Accuracy     IntAcc      ... 4.388
Radial Grid Type                 RadialGrid  ... OptM3 with GC (2021)
Angular Grid (max. ang.)         AngularGrid ... 4 (Lebedev-302)
Angular grid pruning method      GridPruning ... 4 (adaptive)
Weight generation scheme         WeightScheme... Becke
Basis function cutoff            BFCut       ... 1.0000e-11
Integration weight cutoff        WCut        ... 1.0000e-14
Angular grids for H and He will be reduced by one unit
Partially contracted basis set               ... off
Rotationally invariant grid construction     ... off

Total number of grid points                  ...   181048
Total number of batches                      ...     2849
Average number of points per batch           ...       63
Average number of grid points per atom       ...     4526
Time for grid setup =    1.449 sec

--------------------
COSX GRID GENERATION
--------------------

GRIDX 1
-------
General Integration Accuracy     IntAcc      ... 3.816
Radial Grid Type                 RadialGrid  ... OptM3 with GC (2021)
Angular Grid (max. ang.)         AngularGrid ... 1 (Lebedev-50)
Angular grid pruning method      GridPruning ... 4 (adaptive)
Weight generation scheme         WeightScheme... Becke
Basis function cutoff            BFCut       ... 1.0000e-11
Integration weight cutoff        WCut        ... 1.0000e-14
Angular grids for H and He will be reduced by one unit
Partially contracted basis set               ... on
Rotationally invariant grid construction     ... off

Total number of grid points                  ...    22935
Total number of batches                      ...      382
Average number of points per batch           ...       60
Average number of grid points per atom       ...      573
UseSFitting                                  ... on

GRIDX 2
-------
General Integration Accuracy     IntAcc      ... 4.020
Radial Grid Type                 RadialGrid  ... OptM3 with GC (2021)
Angular Grid (max. ang.)         AngularGrid ... 2 (Lebedev-110)
Angular grid pruning method      GridPruning ... 4 (adaptive)
Weight generation scheme         WeightScheme... Becke
Basis function cutoff            BFCut       ... 1.0000e-11
Integration weight cutoff        WCut        ... 1.0000e-14
Angular grids for H and He will be reduced by one unit
Partially contracted basis set               ... on
Rotationally invariant grid construction     ... off

Total number of grid points                  ...    48663
Total number of batches                      ...      779
Average number of points per batch           ...       62
Average number of grid points per atom       ...     1217
UseSFitting                                  ... on

GRIDX 3
-------
General Integration Accuracy     IntAcc      ... 4.338
Radial Grid Type                 RadialGrid  ... OptM3 with GC (2021)
Angular Grid (max. ang.)         AngularGrid ... 3 (Lebedev-194)
Angular grid pruning method      GridPruning ... 4 (adaptive)
Weight generation scheme         WeightScheme... Becke
Basis function cutoff            BFCut       ... 1.0000e-11
Integration weight cutoff        WCut        ... 1.0000e-14
Angular grids for H and He will be reduced by one unit
Partially contracted basis set               ... on
Rotationally invariant grid construction     ... off

Total number of grid points                  ...   106572
Total number of batches                      ...     1690
Average number of points per batch           ...       63
Average number of grid points per atom       ...     2664
UseSFitting                                  ... on

Time for X-Grid setup             =    2.851 sec


--------------------
CPCM SOLVATION MODEL
--------------------
CPCM parameters:
  Epsilon                                         ...      78.4000
  Refrac                                          ...       1.3300
  Rsolv                                           ...       1.3000
  Surface type                                    ... GAUSSIAN VDW
  Epsilon function type                           ...         CPCM
Radii:
 Radius for C  used is    3.8550 Bohr (=   2.0400 Ang.)
 Radius for H  used is    2.4944 Bohr (=   1.3200 Ang.)
 Radius for Cl used is    3.9684 Bohr (=   2.1000 Ang.)
 Radius for N  used is    3.5149 Bohr (=   1.8600 Ang.)
 Radius for O  used is    3.4469 Bohr (=   1.8240 Ang.)
Calculating surface                               ...        done! (  0.0s)
GEPOL surface points                              ...         2140
GEPOL Volume                                      ...    2324.1699
GEPOL Surface-area                                ...    1191.4899
Calculating surface distance matrix               ...        done! (  0.2s)
Performing Cholesky decomposition & store         ...        done! (  0.8s)
Overall time for CPCM initialization              ...                 1.0s
--------------
SCF ITERATIONS
--------------
ITER       Energy         Delta-E        Max-DP      RMS-DP      [F,P]     Damp
               ***  Starting incremental Fock matrix formation  ***
  0  -1302.4875203554   0.000000000000 0.43779507  0.00137779  0.3798874 0.7000
  1  -1302.7831041558  -0.295583800412 0.36538838  0.00110624  0.1358659 0.7000
                               ***Turning on DIIS***
  2  -1302.8913472667  -0.108243110865 0.27906758  0.00138719  0.0377311 0.0000
  3  -1303.0715998092  -0.180252542532 0.36850413  0.00098335  0.0734897 0.0000
  4  -1303.1075916238  -0.035991814582 0.07127660  0.00023093  0.0213419 0.0000
  5  -1303.1102523152  -0.002660691402 0.02621020  0.00009698  0.0095798 0.0000
                      *** Initiating the SOSCF procedure ***
                           *** Shutting down DIIS ***
                      *** Re-Reading the Fockian *** 
                      *** Removing any level shift *** 
ITER      Energy       Delta-E        Grad      Rot      Max-DP    RMS-DP
  6  -1303.11050630  -0.0002539871  0.000501  0.000501  0.006115  0.000032
               *** Restarting incremental Fock matrix formation ***
  7  -1303.11048937   0.0000169333  0.000085  0.000389  0.002550  0.000027
  8  -1303.11048982  -0.0000004467  0.000298  0.001082  0.001688  0.000010
  9  -1303.11049246  -0.0000026395  0.000073  0.000300  0.001734  0.000008
 10  -1303.11049245   0.0000000007  0.000059  0.000102  0.000289  0.000002
 11  -1303.11049270  -0.0000002426  0.000034  0.000110  0.000611  0.000002
 12  -1303.11049268   0.0000000179  0.000065  0.000081  0.000296  0.000001
 13  -1303.11049270  -0.0000000257  0.000007  0.000014  0.000243  0.000001
 14  -1303.11049271  -0.0000000003  0.000005  0.000009  0.000102  0.000001
                  ***Gradient check signals convergence***
              ***Rediagonalizing the Fockian in SOSCF/NRSCF***

               *****************************************************
               *                     SUCCESS                       *
               *           SCF CONVERGED AFTER  15 CYCLES          *
               *****************************************************

Old exchange energy                            =    -28.058021802 Eh
New exchange energy                            =    -28.057986946 Eh
Exchange energy change after final integration =      0.000034856 Eh
Total energy after final integration           =  -1303.110457890 Eh
Final COS-X integration done in                =     3.896 sec

----------------
TOTAL SCF ENERGY
----------------

Total Energy       :        -1303.11045789 Eh          -35459.43828 eV

Components:
Nuclear Repulsion  :         1683.59497713 Eh           45812.94841 eV
Electronic Energy  :        -2986.70543502 Eh          -81272.38670 eV
One Electron Energy:        -5129.89559952 Eh         -139591.55596 eV
Two Electron Energy:         2143.19016450 Eh           58319.16927 eV
Max COSX asymmetry :            0.00000223 Eh               0.00006 eV
CPCM Dielectric    :           -0.04291069 Eh              -1.16766 eV

Virial components:
Potential Energy   :        -2601.97449666 Eh          -70803.32563 eV
Kinetic Energy     :         1298.86403877 Eh           35343.88734 eV
Virial Ratio       :            2.00326933


DFT components:
N(Alpha)           :       77.000248099188 electrons
N(Beta)            :       77.000248099188 electrons
N(Total)           :      154.000496198377 electrons
E(X)               :     -111.524904124430 Eh       
E(C)               :       -6.292520528548 Eh       
E(XC)              :     -117.817424652978 Eh       
DFET-embed. en.    :        0.000000000000 Eh       
CPCM Solvation Model Properties:
Surface-charge          :           -0.03374879
Charge-correction       :           -0.00007599 Eh              -0.00207 eV
Free-energy (cav+disp)  :  This term is not implemented in the current solvation scheme

---------------
SCF CONVERGENCE
---------------

  Last Energy change         ...   -4.0317e-08  Tolerance :   1.0000e-08
  Last MAX-Density change    ...    1.8874e-15  Tolerance :   1.0000e-07
  Last RMS-Density change    ...    1.4378e-17  Tolerance :   5.0000e-09
  Last Orbital Gradient      ...    9.8819e-07  Tolerance :   1.0000e-05
  Last Orbital Rotation      ...    3.9785e-06  Tolerance :   1.0000e-05

             **** THE GBW FILE WAS UPDATED (/home/rudenko/mop_saddle_orca_4_serv/for_orca/m-clc6h4chno2ch3_piperidine/orca/freq_H/f_H.gbw) ****
             **** DENSITY /home/rudenko/mop_saddle_orca_4_serv/for_orca/m-clc6h4chno2ch3_piperidine/orca/freq_H/f_H.scfp WAS UPDATED ****
             **** ENERGY FILE WAS UPDATED (/home/rudenko/mop_saddle_orca_4_serv/for_orca/m-clc6h4chno2ch3_piperidine/orca/freq_H/f_H.en.tmp) ****
             **** THE GBW FILE WAS UPDATED (/home/rudenko/mop_saddle_orca_4_serv/for_orca/m-clc6h4chno2ch3_piperidine/orca/freq_H/f_H.gbw) ****
             **** DENSITY /home/rudenko/mop_saddle_orca_4_serv/for_orca/m-clc6h4chno2ch3_piperidine/orca/freq_H/f_H.scfp WAS UPDATED ****
----------------
ORBITAL ENERGIES
----------------

  NO   OCC          E(Eh)            E(eV) 
   0   2.0000    -101.526335     -2762.6720 
   1   2.0000     -19.134712      -520.6820 
   2   2.0000     -19.132339      -520.6174 
   3   2.0000     -19.074895      -519.0543 
   4   2.0000     -14.522017      -395.1642 
   5   2.0000     -14.383572      -391.3969 
   6   2.0000     -10.234104      -278.4841 
   7   2.0000     -10.207806      -277.7685 
   8   2.0000     -10.205150      -277.6963 
   9   2.0000     -10.195159      -277.4244 
  10   2.0000     -10.193454      -277.3780 
  11   2.0000     -10.180276      -277.0194 
  12   2.0000     -10.180082      -277.0141 
  13   2.0000     -10.179244      -276.9913 
  14   2.0000     -10.173610      -276.8380 
  15   2.0000     -10.168549      -276.7003 
  16   2.0000     -10.167817      -276.6804 
  17   2.0000     -10.163937      -276.5748 
  18   2.0000     -10.159684      -276.4590 
  19   2.0000      -9.458498      -257.3788 
  20   2.0000      -7.219751      -196.4594 
  21   2.0000      -7.211711      -196.2406 
  22   2.0000      -7.211413      -196.2325 
  23   2.0000      -1.198948       -32.6250 
  24   2.0000      -1.021957       -27.8089 
  25   2.0000      -0.974469       -26.5166 
  26   2.0000      -0.930972       -25.3330 
  27   2.0000      -0.893256       -24.3067 
  28   2.0000      -0.849181       -23.1074 
  29   2.0000      -0.814689       -22.1688 
  30   2.0000      -0.800619       -21.7859 
  31   2.0000      -0.768879       -20.9223 
  32   2.0000      -0.749808       -20.4033 
  33   2.0000      -0.733781       -19.9672 
  34   2.0000      -0.693055       -18.8590 
  35   2.0000      -0.662875       -18.0377 
  36   2.0000      -0.637121       -17.3369 
  37   2.0000      -0.626959       -17.0604 
  38   2.0000      -0.602861       -16.4047 
  39   2.0000      -0.591039       -16.0830 
  40   2.0000      -0.561665       -15.2837 
  41   2.0000      -0.538988       -14.6666 
  42   2.0000      -0.531950       -14.4751 
  43   2.0000      -0.525877       -14.3099 
  44   2.0000      -0.508591       -13.8395 
  45   2.0000      -0.501614       -13.6496 
  46   2.0000      -0.493596       -13.4314 
  47   2.0000      -0.471070       -12.8185 
  48   2.0000      -0.466403       -12.6915 
  49   2.0000      -0.459517       -12.5041 
  50   2.0000      -0.453251       -12.3336 
  51   2.0000      -0.441012       -12.0005 
  52   2.0000      -0.428392       -11.6571 
  53   2.0000      -0.427680       -11.6378 
  54   2.0000      -0.423918       -11.5354 
  55   2.0000      -0.412990       -11.2380 
  56   2.0000      -0.407553       -11.0901 
  57   2.0000      -0.398039       -10.8312 
  58   2.0000      -0.394046       -10.7225 
  59   2.0000      -0.388980       -10.5847 
  60   2.0000      -0.386719       -10.5231 
  61   2.0000      -0.364851        -9.9281 
  62   2.0000      -0.360451        -9.8084 
  63   2.0000      -0.359138        -9.7726 
  64   2.0000      -0.353124        -9.6090 
  65   2.0000      -0.333515        -9.0754 
  66   2.0000      -0.330660        -8.9977 
  67   2.0000      -0.326679        -8.8894 
  68   2.0000      -0.325811        -8.8658 
  69   2.0000      -0.317001        -8.6260 
  70   2.0000      -0.302989        -8.2447 
  71   2.0000      -0.299938        -8.1617 
  72   2.0000      -0.280101        -7.6219 
  73   2.0000      -0.272670        -7.4197 
  74   2.0000      -0.263571        -7.1721 
  75   2.0000      -0.249830        -6.7982 
  76   2.0000      -0.216399        -5.8885 
  77   0.0000      -0.057292        -1.5590 
  78   0.0000      -0.019642        -0.5345 
  79   0.0000      -0.015473        -0.4210 
  80   0.0000       0.024253         0.6599 
  81   0.0000       0.030771         0.8373 
  82   0.0000       0.049112         1.3364 
  83   0.0000       0.052674         1.4333 
  84   0.0000       0.066185         1.8010 
  85   0.0000       0.075700         2.0599 
  86   0.0000       0.080210         2.1826 
  87   0.0000       0.081798         2.2258 
  88   0.0000       0.092910         2.5282 
  89   0.0000       0.100217         2.7270 
  90   0.0000       0.103372         2.8129 
  91   0.0000       0.107552         2.9266 
  92   0.0000       0.109632         2.9832 
  93   0.0000       0.111356         3.0301 
  94   0.0000       0.117149         3.1878 
  95   0.0000       0.122484         3.3330 
  96   0.0000       0.125292         3.4094 
  97   0.0000       0.129326         3.5191 
  98   0.0000       0.134623         3.6633 
  99   0.0000       0.143471         3.9040 
 100   0.0000       0.144936         3.9439 
 101   0.0000       0.152566         4.1515 
 102   0.0000       0.160627         4.3709 
 103   0.0000       0.164835         4.4854 
 104   0.0000       0.169969         4.6251 
 105   0.0000       0.173655         4.7254 
 106   0.0000       0.185968         5.0605 
 107   0.0000       0.190968         5.1965 
 108   0.0000       0.192950         5.2504 
 109   0.0000       0.193824         5.2742 
 110   0.0000       0.208056         5.6615 
 111   0.0000       0.213166         5.8005 
 112   0.0000       0.217307         5.9132 
 113   0.0000       0.220483         5.9997 
 114   0.0000       0.225273         6.1300 
 115   0.0000       0.228833         6.2269 
 116   0.0000       0.232425         6.3246 
 117   0.0000       0.234868         6.3911 
 118   0.0000       0.236825         6.4443 
 119   0.0000       0.241951         6.5838 
 120   0.0000       0.251446         6.8422 
 121   0.0000       0.254587         6.9277 
 122   0.0000       0.255144         6.9428 
 123   0.0000       0.257589         7.0094 
 124   0.0000       0.267973         7.2919 
 125   0.0000       0.272096         7.4041 
 126   0.0000       0.276616         7.5271 
 127   0.0000       0.280146         7.6232 
 128   0.0000       0.292411         7.9569 
 129   0.0000       0.305611         8.3161 
 130   0.0000       0.311725         8.4825 
 131   0.0000       0.314430         8.5561 
 132   0.0000       0.321214         8.7407 
 133   0.0000       0.326248         8.8777 
 134   0.0000       0.330789         9.0012 
 135   0.0000       0.333289         9.0693 
 136   0.0000       0.339435         9.2365 
 137   0.0000       0.341654         9.2969 
 138   0.0000       0.344878         9.3846 
 139   0.0000       0.350932         9.5493 
 140   0.0000       0.364438         9.9169 
 141   0.0000       0.365980         9.9588 
 142   0.0000       0.370818        10.0905 
 143   0.0000       0.378032        10.2868 
 144   0.0000       0.381222        10.3736 
 145   0.0000       0.384849        10.4723 
 146   0.0000       0.390112        10.6155 
 147   0.0000       0.393873        10.7178 
 148   0.0000       0.398839        10.8530 
 149   0.0000       0.403040        10.9673 
 150   0.0000       0.409722        11.1491 
 151   0.0000       0.416180        11.3248 
 152   0.0000       0.417226        11.3533 
 153   0.0000       0.422370        11.4933 
 154   0.0000       0.426210        11.5978 
 155   0.0000       0.429488        11.6870 
 156   0.0000       0.432725        11.7750 
 157   0.0000       0.436862        11.8876 
 158   0.0000       0.438784        11.9399 
 159   0.0000       0.440091        11.9755 
 160   0.0000       0.442666        12.0456 
 161   0.0000       0.450827        12.2676 
 162   0.0000       0.454696        12.3729 
 163   0.0000       0.456655        12.4262 
 164   0.0000       0.460218        12.5232 
 165   0.0000       0.462617        12.5884 
 166   0.0000       0.465653        12.6711 
 167   0.0000       0.469727        12.7819 
 168   0.0000       0.471494        12.8300 
 169   0.0000       0.479347        13.0437 
 170   0.0000       0.481178        13.0935 
 171   0.0000       0.488000        13.2792 
 172   0.0000       0.492283        13.3957 
 173   0.0000       0.497668        13.5422 
 174   0.0000       0.502851        13.6833 
 175   0.0000       0.510092        13.8803 
 176   0.0000       0.514498        14.0002 
 177   0.0000       0.518307        14.1039 
 178   0.0000       0.525961        14.3121 
 179   0.0000       0.527658        14.3583 
 180   0.0000       0.534833        14.5536 
 181   0.0000       0.540130        14.6977 
 182   0.0000       0.549075        14.9411 
 183   0.0000       0.555498        15.1159 
 184   0.0000       0.564731        15.3671 
 185   0.0000       0.567901        15.4534 
 186   0.0000       0.572793        15.5865 
 187   0.0000       0.583525        15.8785 
 188   0.0000       0.590546        16.0696 
 189   0.0000       0.595229        16.1970 
 190   0.0000       0.607389        16.5279 
 191   0.0000       0.614251        16.7146 
 192   0.0000       0.616583        16.7781 
 193   0.0000       0.624179        16.9848 
 194   0.0000       0.628602        17.1051 
 195   0.0000       0.644090        17.5266 
 196   0.0000       0.646000        17.5785 
 197   0.0000       0.657613        17.8946 
 198   0.0000       0.666024        18.1234 
 199   0.0000       0.671661        18.2768 
 200   0.0000       0.675549        18.3826 
 201   0.0000       0.688655        18.7393 
 202   0.0000       0.690110        18.7788 
 203   0.0000       0.699297        19.0288 
 204   0.0000       0.710805        19.3420 
 205   0.0000       0.713984        19.4285 
 206   0.0000       0.717314        19.5191 
 207   0.0000       0.723923        19.6989 
 208   0.0000       0.726333        19.7645 
 209   0.0000       0.741086        20.1660 
 210   0.0000       0.744140        20.2491 
 211   0.0000       0.748490        20.3675 
 212   0.0000       0.755349        20.5541 
 213   0.0000       0.766121        20.8472 
 214   0.0000       0.772423        21.0187 
 215   0.0000       0.775251        21.0956 
 216   0.0000       0.782784        21.3006 
 217   0.0000       0.785709        21.3802 
 218   0.0000       0.808800        22.0086 
 219   0.0000       0.811806        22.0904 
 220   0.0000       0.816768        22.2254 
 221   0.0000       0.827998        22.5310 
 222   0.0000       0.834143        22.6982 
 223   0.0000       0.838468        22.8159 
 224   0.0000       0.848959        23.1013 
 225   0.0000       0.856903        23.3175 
 226   0.0000       0.868784        23.6408 
 227   0.0000       0.873741        23.7757 
 228   0.0000       0.884661        24.0729 
 229   0.0000       0.896050        24.3828 
 230   0.0000       0.900397        24.5011 
 231   0.0000       0.911258        24.7966 
 232   0.0000       0.916716        24.9451 
 233   0.0000       0.931439        25.3458 
 234   0.0000       0.936740        25.4900 
 235   0.0000       0.947347        25.7786 
 236   0.0000       0.953298        25.9405 
 237   0.0000       0.971361        26.4321 
 238   0.0000       0.985991        26.8302 
 239   0.0000       0.996334        27.1116 
 240   0.0000       1.004185        27.3253 
 241   0.0000       1.011332        27.5197 
 242   0.0000       1.028405        27.9843 
 243   0.0000       1.037093        28.2207 
 244   0.0000       1.041484        28.3402 
 245   0.0000       1.048714        28.5370 
 246   0.0000       1.061766        28.8921 
 247   0.0000       1.071940        29.1690 
 248   0.0000       1.080302        29.3965 
 249   0.0000       1.085090        29.5268 
 250   0.0000       1.092567        29.7303 
 251   0.0000       1.103118        30.0174 
 252   0.0000       1.109706        30.1966 
 253   0.0000       1.124989        30.6125 
 254   0.0000       1.130304        30.7571 
 255   0.0000       1.136580        30.9279 
 256   0.0000       1.142406        31.0865 
 257   0.0000       1.156514        31.4704 
 258   0.0000       1.162640        31.6370 
 259   0.0000       1.169728        31.8299 
 260   0.0000       1.178380        32.0654 
 261   0.0000       1.181553        32.1517 
 262   0.0000       1.191794        32.4304 
 263   0.0000       1.198233        32.6056 
 264   0.0000       1.218153        33.1476 
 265   0.0000       1.223468        33.2923 
 266   0.0000       1.232674        33.5428 
 267   0.0000       1.247090        33.9351 
 268   0.0000       1.253289        34.1037 
 269   0.0000       1.260498        34.2999 
 270   0.0000       1.272138        34.6166 
 271   0.0000       1.282716        34.9045 
 272   0.0000       1.286329        35.0028 
 273   0.0000       1.292276        35.1646 
 274   0.0000       1.296898        35.2904 
 275   0.0000       1.301596        35.4182 
 276   0.0000       1.314316        35.7644 
 277   0.0000       1.328263        36.1439 
 278   0.0000       1.334568        36.3154 
 279   0.0000       1.343293        36.5529 
 280   0.0000       1.350443        36.7474 
 281   0.0000       1.365505        37.1573 
 282   0.0000       1.384564        37.6759 
 283   0.0000       1.389333        37.8057 
 284   0.0000       1.399778        38.0899 
 285   0.0000       1.418383        38.5962 
 286   0.0000       1.429842        38.9080 
 287   0.0000       1.447421        39.3863 
 288   0.0000       1.459039        39.7025 
 289   0.0000       1.461691        39.7746 
 290   0.0000       1.473327        40.0913 
 291   0.0000       1.476979        40.1906 
 292   0.0000       1.479097        40.2483 
 293   0.0000       1.487129        40.4668 
 294   0.0000       1.501326        40.8532 
 295   0.0000       1.517808        41.3017 
 296   0.0000       1.518136        41.3106 
 297   0.0000       1.523188        41.4481 
 298   0.0000       1.533833        41.7377 
 299   0.0000       1.547422        42.1075 
 300   0.0000       1.556422        42.3524 
 301   0.0000       1.564909        42.5833 
 302   0.0000       1.566808        42.6350 
 303   0.0000       1.571536        42.7637 
 304   0.0000       1.582596        43.0646 
 305   0.0000       1.587880        43.2084 
 306   0.0000       1.594831        43.3976 
 307   0.0000       1.599920        43.5360 
 308   0.0000       1.605041        43.6754 
 309   0.0000       1.613713        43.9114 
 310   0.0000       1.627528        44.2873 
 311   0.0000       1.632688        44.4277 
 312   0.0000       1.635306        44.4989 
 313   0.0000       1.640188        44.6318 
 314   0.0000       1.652238        44.9597 
 315   0.0000       1.654387        45.0182 
 316   0.0000       1.664761        45.3005 
 317   0.0000       1.673180        45.5295 
 318   0.0000       1.676335        45.6154 
 319   0.0000       1.684209        45.8297 
 320   0.0000       1.685299        45.8593 
 321   0.0000       1.697819        46.2000 
 322   0.0000       1.701986        46.3134 
 323   0.0000       1.714397        46.6511 
 324   0.0000       1.718345        46.7585 
 325   0.0000       1.719724        46.7961 
 326   0.0000       1.728834        47.0440 
 327   0.0000       1.735854        47.2350 
 328   0.0000       1.748301        47.5737 
 329   0.0000       1.754330        47.7377 
 330   0.0000       1.762904        47.9711 
 331   0.0000       1.770980        48.1908 
 332   0.0000       1.781402        48.4744 
 333   0.0000       1.787301        48.6349 
 334   0.0000       1.793440        48.8020 
 335   0.0000       1.800681        48.9990 
 336   0.0000       1.808464        49.2108 
 337   0.0000       1.813406        49.3453 
 338   0.0000       1.830603        49.8132 
 339   0.0000       1.833939        49.9040 
 340   0.0000       1.845171        50.2097 
 341   0.0000       1.849257        50.3209 
 342   0.0000       1.856431        50.5161 
 343   0.0000       1.862182        50.6725 
 344   0.0000       1.871957        50.9385 
 345   0.0000       1.883115        51.2422 
 346   0.0000       1.894178        51.5432 
 347   0.0000       1.905569        51.8532 
 348   0.0000       1.911925        52.0261 
 349   0.0000       1.917137        52.1679 
 350   0.0000       1.926888        52.4333 
 351   0.0000       1.941641        52.8347 
 352   0.0000       1.952205        53.1222 
 353   0.0000       1.954439        53.1830 
 354   0.0000       1.964813        53.4653 
 355   0.0000       1.972091        53.6633 
 356   0.0000       1.981479        53.9188 
 357   0.0000       1.983873        53.9839 
 358   0.0000       1.997903        54.3657 
 359   0.0000       2.003620        54.5213 
 360   0.0000       2.008433        54.6523 
 361   0.0000       2.016240        54.8647 
 362   0.0000       2.033185        55.3258 
 363   0.0000       2.039638        55.5014 
 364   0.0000       2.051305        55.8188 
 365   0.0000       2.061500        56.0963 
 366   0.0000       2.073998        56.4364 
 367   0.0000       2.081839        56.6497 
 368   0.0000       2.089055        56.8461 
 369   0.0000       2.090820        56.8941 
 370   0.0000       2.096049        57.0364 
 371   0.0000       2.109035        57.3898 
 372   0.0000       2.124754        57.8175 
 373   0.0000       2.125922        57.8493 
 374   0.0000       2.141322        58.2683 
 375   0.0000       2.142862        58.3102 
 376   0.0000       2.156290        58.6756 
 377   0.0000       2.163451        58.8705 
 378   0.0000       2.171841        59.0988 
 379   0.0000       2.178888        59.2906 
 380   0.0000       2.185588        59.4729 
 381   0.0000       2.197527        59.7977 
 382   0.0000       2.202380        59.9298 
 383   0.0000       2.206578        60.0440 
 384   0.0000       2.212904        60.2162 
 385   0.0000       2.223165        60.4954 
 386   0.0000       2.237227        60.8780 
 387   0.0000       2.241205        60.9863 
 388   0.0000       2.250498        61.2392 
 389   0.0000       2.252556        61.2952 
 390   0.0000       2.254725        61.3542 
 391   0.0000       2.264452        61.6189 
 392   0.0000       2.269118        61.7458 
 393   0.0000       2.286602        62.2216 
 394   0.0000       2.298277        62.5393 
 395   0.0000       2.301180        62.6183 
 396   0.0000       2.319761        63.1239 
 397   0.0000       2.338798        63.6419 
 398   0.0000       2.341984        63.7286 
 399   0.0000       2.349214        63.9254 
 400   0.0000       2.358997        64.1916 
 401   0.0000       2.382287        64.8253 
 402   0.0000       2.390868        65.0588 
 403   0.0000       2.397431        65.2374 
 404   0.0000       2.405223        65.4494 
 405   0.0000       2.419208        65.8300 
 406   0.0000       2.423295        65.9412 
 407   0.0000       2.434692        66.2513 
 408   0.0000       2.442700        66.4693 
 409   0.0000       2.457524        66.8726 
 410   0.0000       2.468590        67.1738 
 411   0.0000       2.470504        67.2258 
 412   0.0000       2.492392        67.8214 
 413   0.0000       2.498178        67.9789 
 414   0.0000       2.504864        68.1608 
 415   0.0000       2.521557        68.6151 
 416   0.0000       2.532344        68.9086 
 417   0.0000       2.537121        69.0386 
 418   0.0000       2.541099        69.1468 
 419   0.0000       2.548869        69.3583 
 420   0.0000       2.550079        69.3912 
 421   0.0000       2.558350        69.6163 
 422   0.0000       2.563801        69.7646 
 423   0.0000       2.568916        69.9038 
 424   0.0000       2.581548        70.2475 
 425   0.0000       2.587341        70.4051 
 426   0.0000       2.587616        70.4126 
 427   0.0000       2.593164        70.5636 
 428   0.0000       2.602826        70.8265 
 429   0.0000       2.610762        71.0425 
 430   0.0000       2.618928        71.2647 
 431   0.0000       2.627147        71.4883 
 432   0.0000       2.627863        71.5078 
 433   0.0000       2.632845        71.6433 
 434   0.0000       2.647536        72.0431 
 435   0.0000       2.650566        72.1256 
 436   0.0000       2.661274        72.4170 
 437   0.0000       2.663863        72.4874 
 438   0.0000       2.672328        72.7177 
 439   0.0000       2.679775        72.9204 
 440   0.0000       2.687757        73.1376 
 441   0.0000       2.689878        73.1953 
 442   0.0000       2.692358        73.2628 
 443   0.0000       2.708124        73.6918 
 444   0.0000       2.716079        73.9083 
 445   0.0000       2.725663        74.1691 
 446   0.0000       2.727898        74.2299 
 447   0.0000       2.742290        74.6215 
 448   0.0000       2.748643        74.7944 
 449   0.0000       2.763077        75.1871 
 450   0.0000       2.765163        75.2439 
 451   0.0000       2.769563        75.3636 
 452   0.0000       2.775723        75.5313 
 453   0.0000       2.783301        75.7375 
 454   0.0000       2.790701        75.9388 
 455   0.0000       2.799203        76.1702 
 456   0.0000       2.804377        76.3110 
 457   0.0000       2.809071        76.4387 
 458   0.0000       2.816719        76.6468 
 459   0.0000       2.823677        76.8361 
 460   0.0000       2.833818        77.1121 
 461   0.0000       2.845832        77.4390 
 462   0.0000       2.852955        77.6329 
 463   0.0000       2.863755        77.9267 
 464   0.0000       2.878391        78.3250 
 465   0.0000       2.892602        78.7117 
 466   0.0000       2.902832        78.9901 
 467   0.0000       2.912456        79.2520 
 468   0.0000       2.914236        79.3004 
 469   0.0000       2.918057        79.4044 
 470   0.0000       2.935223        79.8715 
 471   0.0000       2.936064        79.8944 
 472   0.0000       2.956270        80.4442 
 473   0.0000       2.969027        80.7913 
 474   0.0000       2.974383        80.9371 
 475   0.0000       2.982863        81.1678 
 476   0.0000       2.993111        81.4467 
 477   0.0000       2.999357        81.6167 
 478   0.0000       3.008122        81.8552 
 479   0.0000       3.022325        82.2416 
 480   0.0000       3.026569        82.3571 
 481   0.0000       3.044719        82.8510 
 482   0.0000       3.048013        82.9407 
 483   0.0000       3.062506        83.3350 
 484   0.0000       3.075278        83.6826 
 485   0.0000       3.076122        83.7055 
 486   0.0000       3.086360        83.9841 
 487   0.0000       3.098038        84.3019 
 488   0.0000       3.101647        84.4001 
 489   0.0000       3.113774        84.7301 
 490   0.0000       3.130649        85.1893 
 491   0.0000       3.135923        85.3328 
 492   0.0000       3.145425        85.5914 
 493   0.0000       3.152299        85.7784 
 494   0.0000       3.157781        85.9276 
 495   0.0000       3.161857        86.0385 
 496   0.0000       3.166341        86.1605 
 497   0.0000       3.174370        86.3790 
 498   0.0000       3.184051        86.6424 
 499   0.0000       3.191958        86.8576 
 500   0.0000       3.200070        87.0783 
 501   0.0000       3.204181        87.1902 
 502   0.0000       3.209985        87.3481 
 503   0.0000       3.221178        87.6527 
 504   0.0000       3.225500        87.7703 
 505   0.0000       3.233591        87.9905 
 506   0.0000       3.236880        88.0800 
 507   0.0000       3.240602        88.1813 
 508   0.0000       3.260874        88.7329 
 509   0.0000       3.266720        88.8920 
 510   0.0000       3.280352        89.2629 
 511   0.0000       3.282117        89.3109 
 512   0.0000       3.295520        89.6757 
 513   0.0000       3.300655        89.8154 
 514   0.0000       3.309927        90.0677 
 515   0.0000       3.319449        90.3268 
 516   0.0000       3.324295        90.4587 
 517   0.0000       3.337662        90.8224 
 518   0.0000       3.349139        91.1347 
 519   0.0000       3.351572        91.2009 
 520   0.0000       3.358994        91.4029 
 521   0.0000       3.375419        91.8498 
 522   0.0000       3.378166        91.9246 
 523   0.0000       3.388132        92.1958 
 524   0.0000       3.390262        92.2537 
 525   0.0000       3.403946        92.6261 
 526   0.0000       3.410378        92.8011 
 527   0.0000       3.421844        93.1131 
 528   0.0000       3.429768        93.3287 
 529   0.0000       3.437427        93.5372 
 530   0.0000       3.441305        93.6427 
 531   0.0000       3.448986        93.8517 
 532   0.0000       3.456214        94.0484 
 533   0.0000       3.468608        94.3856 
 534   0.0000       3.474922        94.5574 
 535   0.0000       3.489843        94.9634 
 536   0.0000       3.490795        94.9894 
 537   0.0000       3.501581        95.2829 
 538   0.0000       3.507395        95.4411 
 539   0.0000       3.514055        95.6223 
 540   0.0000       3.519472        95.7697 
 541   0.0000       3.525708        95.9394 
 542   0.0000       3.531323        96.0922 
 543   0.0000       3.540896        96.3527 
 544   0.0000       3.542421        96.3942 
 545   0.0000       3.556492        96.7771 
 546   0.0000       3.570216        97.1505 
 547   0.0000       3.574606        97.2700 
 548   0.0000       3.596108        97.8551 
 549   0.0000       3.606464        98.1369 
 550   0.0000       3.615644        98.3867 
 551   0.0000       3.645110        99.1885 
 552   0.0000       3.659544        99.5813 
 553   0.0000       3.661042        99.6220 
 554   0.0000       3.672305        99.9285 
 555   0.0000       3.675289       100.0097 
 556   0.0000       3.684435       100.2586 
 557   0.0000       3.700751       100.7026 
 558   0.0000       3.706173       100.8501 
 559   0.0000       3.735674       101.6529 
 560   0.0000       3.741531       101.8122 
 561   0.0000       3.743524       101.8665 
 562   0.0000       3.774243       102.7024 
 563   0.0000       3.780130       102.8626 
 564   0.0000       3.789273       103.1114 
 565   0.0000       3.813341       103.7663 
 566   0.0000       3.849503       104.7503 
 567   0.0000       3.861375       105.0734 
 568   0.0000       3.883930       105.6871 
 569   0.0000       3.912622       106.4679 
 570   0.0000       3.919384       106.6519 
 571   0.0000       3.930404       106.9517 
 572   0.0000       3.937246       107.1379 
 573   0.0000       3.949150       107.4618 
 574   0.0000       3.953914       107.5915 
 575   0.0000       3.960854       107.7803 
 576   0.0000       3.976204       108.1980 
 577   0.0000       3.990249       108.5802 
 578   0.0000       3.996008       108.7369 
 579   0.0000       4.008480       109.0763 
 580   0.0000       4.017382       109.3185 
 581   0.0000       4.025100       109.5285 
 582   0.0000       4.034607       109.7872 
 583   0.0000       4.039617       109.9236 
 584   0.0000       4.068011       110.6962 
 585   0.0000       4.085026       111.1592 
 586   0.0000       4.100519       111.5808 
 587   0.0000       4.112021       111.8938 
 588   0.0000       4.117840       112.0521 
 589   0.0000       4.131654       112.4280 
 590   0.0000       4.141710       112.7017 
 591   0.0000       4.168630       113.4342 
 592   0.0000       4.171610       113.5153 
 593   0.0000       4.189609       114.0050 
 594   0.0000       4.200878       114.3117 
 595   0.0000       4.213532       114.6560 
 596   0.0000       4.228558       115.0649 
 597   0.0000       4.246029       115.5403 
 598   0.0000       4.248136       115.5977 
 599   0.0000       4.250981       115.6751 
 600   0.0000       4.261104       115.9505 
 601   0.0000       4.274674       116.3198 
 602   0.0000       4.289424       116.7212 
 603   0.0000       4.303439       117.1025 
 604   0.0000       4.311216       117.3141 
 605   0.0000       4.315764       117.4379 
 606   0.0000       4.327670       117.7619 
 607   0.0000       4.346673       118.2790 
 608   0.0000       4.362257       118.7030 
 609   0.0000       4.392569       119.5279 
 610   0.0000       4.396423       119.6328 
 611   0.0000       4.439791       120.8128 
 612   0.0000       4.444215       120.9332 
 613   0.0000       4.487376       122.1077 
 614   0.0000       4.499999       122.4512 
 615   0.0000       4.507705       122.6609 
 616   0.0000       4.559359       124.0665 
 617   0.0000       4.570444       124.3681 
 618   0.0000       4.572242       124.4170 
 619   0.0000       4.603769       125.2749 
 620   0.0000       4.638326       126.2153 
 621   0.0000       4.648810       126.5006 
 622   0.0000       4.652163       126.5918 
 623   0.0000       4.666651       126.9860 
 624   0.0000       4.696508       127.7985 
 625   0.0000       4.702732       127.9679 
 626   0.0000       4.720287       128.4455 
 627   0.0000       4.741370       129.0192 
 628   0.0000       4.764238       129.6415 
 629   0.0000       4.791341       130.3790 
 630   0.0000       4.806058       130.7795 
 631   0.0000       4.822407       131.2244 
 632   0.0000       4.831091       131.4607 
 633   0.0000       4.839423       131.6874 
 634   0.0000       4.848505       131.9345 
 635   0.0000       4.870425       132.5310 
 636   0.0000       4.881883       132.8428 
 637   0.0000       4.932449       134.2188 
 638   0.0000       4.950217       134.7022 
 639   0.0000       4.970020       135.2411 
 640   0.0000       5.003184       136.1436 
 641   0.0000       5.017253       136.5264 
 642   0.0000       5.050376       137.4277 
 643   0.0000       5.064117       137.8016 
 644   0.0000       5.090042       138.5071 
 645   0.0000       5.093911       138.6124 
 646   0.0000       5.109223       139.0290 
 647   0.0000       5.144883       139.9994 
 648   0.0000       5.158975       140.3829 
 649   0.0000       5.168697       140.6474 
 650   0.0000       5.171675       140.7284 
 651   0.0000       5.175492       140.8323 
 652   0.0000       5.185639       141.1084 
 653   0.0000       5.198602       141.4611 
 654   0.0000       5.217765       141.9826 
 655   0.0000       5.237253       142.5129 
 656   0.0000       5.261957       143.1851 
 657   0.0000       5.281710       143.7226 
 658   0.0000       5.297442       144.1507 
 659   0.0000       5.311614       144.5364 
 660   0.0000       5.377679       146.3341 
 661   0.0000       5.418786       147.4527 
 662   0.0000       5.434170       147.8713 
 663   0.0000       5.444605       148.1552 
 664   0.0000       5.451208       148.3349 
 665   0.0000       5.470501       148.8599 
 666   0.0000       5.486731       149.3015 
 667   0.0000       5.499395       149.6462 
 668   0.0000       5.503850       149.7674 
 669   0.0000       5.526926       150.3953 
 670   0.0000       5.610494       152.6693 
 671   0.0000       5.662906       154.0955 
 672   0.0000       5.680509       154.5745 
 673   0.0000       5.737989       156.1386 
 674   0.0000       5.775863       157.1692 
 675   0.0000       5.880883       160.0270 
 676   0.0000       5.957964       162.1244 
 677   0.0000       5.972595       162.5226 
 678   0.0000       6.268377       170.5712 
 679   0.0000       6.287838       171.1008 
 680   0.0000       6.307612       171.6389 
 681   0.0000       6.365824       173.2229 
 682   0.0000       6.415822       174.5834 
 683   0.0000       6.435076       175.1073 
 684   0.0000       6.450009       175.5137 
 685   0.0000       6.469306       176.0388 
 686   0.0000       6.508943       177.1173 
 687   0.0000       6.611333       179.9035 
 688   0.0000       6.712390       182.6534 
 689   0.0000       6.859140       186.6467 
 690   0.0000       6.884141       187.3270 
 691   0.0000       6.927452       188.5056 
 692   0.0000       6.966468       189.5672 
 693   0.0000       7.077051       192.5763 
 694   0.0000       7.127262       193.9427 
 695   0.0000       7.264424       197.6750 
 696   0.0000       7.291259       198.4052 
 697   0.0000       7.499134       204.0618 
 698   0.0000       7.585571       206.4139 
 699   0.0000      10.711101       291.4639 
 700   0.0000      10.788141       293.5603 
 701   0.0000      11.325473       308.1818 
 702   0.0000      22.150041       602.7333 
 703   0.0000      22.409250       609.7867 
 704   0.0000      22.434718       610.4797 
 705   0.0000      22.468463       611.3980 
 706   0.0000      22.493172       612.0703 
 707   0.0000      22.510774       612.5493 
 708   0.0000      22.570401       614.1718 
 709   0.0000      22.620393       615.5322 
 710   0.0000      22.655274       616.4814 
 711   0.0000      22.797278       620.3455 
[...]


-----------
IR SPECTRUM
-----------

 Mode   freq       eps      Int      T**2         TX        TY        TZ
       cm**-1   L/(mol*cm) km/mol    a.u.
----------------------------------------------------------------------------
  7:     16.46   0.000479    2.42  0.009085  ( 0.049955 -0.057410  0.057387)
  8:     30.25   0.000304    1.53  0.003133  ( 0.050094  0.012485  0.021625)
  9:     40.98   0.000798    4.03  0.006076  ( 0.052707  0.042229  0.038919)
 10:     53.55   0.000677    3.42  0.003948  (-0.050869  0.030528  0.020704)
 11:     71.39   0.000389    1.97  0.001703  (-0.014035  0.031338 -0.022882)
 12:     77.31   0.003389   17.13  0.013680  (-0.055580  0.017318 -0.101444)
 13:     83.82   0.000116    0.59  0.000433  ( 0.005145 -0.017257 -0.010425)
 14:    104.14   0.000537    2.72  0.001610  (-0.035489 -0.016923 -0.008024)
 15:    110.62   0.001540    7.78  0.004346  (-0.035938  0.046147 -0.030409)
 16:    124.33   0.001363    6.89  0.003420  (-0.033274  0.021092  0.043222)
 17:    164.75   0.000574    2.90  0.001087  (-0.029989 -0.013224  0.003557)
 18:    193.35   0.000692    3.50  0.001116  ( 0.029244  0.016120  0.001118)
 19:    214.69   0.000056    0.28  0.000081  ( 0.007529  0.004858 -0.000974)
 20:    239.98   0.002848   14.39  0.003704  ( 0.042298  0.016077 -0.040698)
 21:    241.44   0.012124   61.27  0.015670  ( 0.073370  0.059540 -0.082109)
 22:    264.38   0.002356   11.91  0.002781  (-0.043312  0.029462 -0.006109)
 23:    277.52   0.004877   24.65  0.005484  (-0.048758 -0.051339  0.021707)
 24:    309.69   0.000346    1.75  0.000349  (-0.002596 -0.006375  0.017353)
 25:    312.47   0.007902   39.93  0.007891  (-0.007280 -0.034444  0.081559)
 26:    375.68   0.004120   20.82  0.003423  ( 0.014444 -0.038284  0.041814)
 27:    389.74   0.005370   27.14  0.004300  (-0.008765 -0.060057 -0.024827)
 28:    392.14   0.003139   15.86  0.002498  (-0.020405 -0.044525 -0.009943)
 29:    423.83   0.020147  101.82  0.014834  (-0.036690 -0.099037  0.060660)
 30:    425.52   0.001454    7.35  0.001066  (-0.018431  0.026723 -0.003522)
 31:    453.62   0.001214    6.14  0.000835  ( 0.028626 -0.002858 -0.002776)
 32:    457.69   0.007279   36.78  0.004963  (-0.006313 -0.033276  0.061772)
 33:    459.49   0.020672  104.47  0.014039  (-0.031440 -0.051660  0.101893)
 34:    532.27   0.003163   15.98  0.001854  ( 0.005078 -0.006507 -0.042265)
 35:    562.14   0.016855   85.18  0.009357  ( 0.024432  0.052968 -0.077163)
 36:    605.50   0.004168   21.06  0.002148  (-0.043538  0.013873 -0.007744)
 37:    617.20   0.020068  101.42  0.010147  ( 0.099280  0.002720  0.016819)
 38:    632.50   0.012313   62.22  0.006075  (-0.060926 -0.022196 -0.043247)
 39:    675.12   0.003389   17.13  0.001566  ( 0.033601  0.009947 -0.018397)
 40:    712.34   0.011942   60.35  0.005232  (-0.071814 -0.005157  0.006901)
 41:    732.90   0.008170   41.29  0.003479  ( 0.024212 -0.050526  0.018431)
 42:    795.05   0.006419   32.44  0.002520  (-0.003097 -0.030770  0.039538)
 43:    798.21   0.008517   43.04  0.003330  (-0.056969  0.009158 -0.000520)
 44:    811.76   0.000220    1.11  0.000085  ( 0.007523 -0.002369 -0.004748)
 45:    813.60   0.000861    4.35  0.000330  ( 0.012541  0.008446 -0.010072)
 46:    850.95   0.000942    4.76  0.000345  ( 0.007958  0.002394 -0.016624)
 47:    857.68   0.003475   17.56  0.001264  (-0.028994  0.001822  0.020506)
 48:    872.99   0.000546    2.76  0.000195  ( 0.008888  0.002839 -0.010405)
 49:    885.55   0.000585    2.96  0.000206  ( 0.000033  0.014329 -0.000933)
 50:    906.06   0.001958    9.89  0.000674  (-0.024772 -0.001067 -0.007713)
 51:    911.58   0.000875    4.42  0.000300  (-0.015257 -0.000547 -0.008152)
 52:    939.22   0.009065   45.81  0.003012  ( 0.019311 -0.040979  0.030982)
 53:    956.33   0.003380   17.08  0.001103  ( 0.014612 -0.029790 -0.001468)
 54:    977.33   0.005373   27.16  0.001716  (-0.029094 -0.013837  0.026035)
 55:    985.39   0.000172    0.87  0.000054  (-0.005898 -0.001633  0.004128)
 56:   1019.63   0.001564    7.90  0.000479  ( 0.001636  0.010458 -0.019144)
 57:   1039.13   0.001501    7.58  0.000451  (-0.008256 -0.012708  0.014866)
 58:   1040.69   0.002844   14.37  0.000853  (-0.015854  0.020782  0.013022)
 59:   1061.72   0.004496   22.72  0.001321  (-0.007266 -0.011616 -0.033670)
 60:   1071.08   0.005784   29.23  0.001685  (-0.033616  0.023464  0.002120)
 61:   1090.36   0.001645    8.32  0.000471  (-0.008306  0.020019  0.001086)
 62:   1091.04   0.011599   58.62  0.003318  (-0.019923 -0.022294 -0.049230)
 63:   1106.94   0.004618   23.34  0.001302  ( 0.003789  0.027316 -0.023265)
 64:   1122.32   0.004291   21.69  0.001193  (-0.031682  0.013739  0.000799)
 65:   1132.80   0.001058    5.35  0.000291  (-0.008445  0.014814  0.000798)
 66:   1148.00   0.005517   27.88  0.001500  (-0.019621  0.015153  0.029750)
 67:   1191.61   0.000450    2.27  0.000118  (-0.000019 -0.010699  0.001804)
 68:   1192.81   0.000149    0.75  0.000039  ( 0.005161 -0.000979 -0.003388)
 69:   1203.56   0.000311    1.57  0.000081  (-0.006929  0.000934 -0.005633)
 70:   1261.19   0.010786   54.51  0.002669  (-0.032128 -0.005896  0.040023)
 71:   1294.31   0.000096    0.49  0.000023  (-0.003946 -0.001728  0.002152)
 72:   1296.90   0.000103    0.52  0.000025  (-0.002324 -0.004210  0.001251)
 73:   1301.42   0.002561   12.94  0.000614  (-0.007575 -0.017200  0.016150)
 74:   1344.80   0.000860    4.34  0.000199  (-0.009333 -0.009261 -0.005156)
 75:   1345.95   0.000232    1.17  0.000054  (-0.003303  0.000315  0.006545)
 76:   1359.89   0.000241    1.22  0.000055  ( 0.004706  0.004376 -0.003747)
 77:   1370.53   0.061217  309.37  0.013939  ( 0.073523 -0.085981 -0.033770)
 78:   1371.90   0.021846  110.40  0.004969  ( 0.035447 -0.059091 -0.014867)
 79:   1376.55   0.000189    0.96  0.000043  (-0.002521  0.005975  0.000897)
 80:   1391.07   0.007470   37.75  0.001676  (-0.026330 -0.028794  0.012383)
 81:   1392.59   0.001550    7.83  0.000347  (-0.008098 -0.015151  0.007230)
 82:   1420.98   0.047929  242.21  0.010526  ( 0.101361 -0.009459 -0.012742)
 83:   1426.63   0.015234   76.98  0.003332  ( 0.012314 -0.055462 -0.010229)
 84:   1438.00   0.064051  323.69  0.013900  ( 0.064025  0.095422 -0.026365)
 85:   1444.46   0.024603  124.34  0.005315  ( 0.008248  0.071361 -0.012449)
 86:   1456.10   0.031993  161.68  0.006857  ( 0.052987  0.059576  0.022356)
 87:   1470.57   0.003625   18.32  0.000769  (-0.009801  0.022681 -0.012601)
 88:   1474.91   0.000786    3.97  0.000166  ( 0.008454 -0.006692  0.007079)
 89:   1476.81   0.001872    9.46  0.000396  ( 0.012920  0.006911  0.013448)
 90:   1483.37   0.007365   37.22  0.001549  (-0.001691 -0.022324 -0.032375)
 91:   1484.46   0.005250   26.53  0.001104  (-0.020320 -0.025980  0.003967)
 92:   1493.41   0.003110   15.72  0.000650  ( 0.004850 -0.025017  0.000759)
 93:   1507.29   0.008632   43.62  0.001787  (-0.037183 -0.019154  0.006133)
 94:   1512.66   0.005853   29.58  0.001207  (-0.003647  0.030136 -0.016909)
 95:   1560.53   0.005918   29.91  0.001183  ( 0.003671 -0.033802  0.005238)
 96:   1584.13   0.004110   20.77  0.000810  ( 0.001330 -0.028053  0.004569)
 97:   1601.90   0.013351   67.47  0.002601  ( 0.006198  0.021012 -0.046054)
 98:   1634.20   0.011252   56.86  0.002149  (-0.010850 -0.044957 -0.003139)
 99:   1686.28   0.010252   51.81  0.001897  (-0.015957 -0.007846 -0.039764)
100:   2187.07   0.646205  3265.65  0.092204  ( 0.237496  0.128016 -0.139327)
101:   3021.11   0.008565   43.29  0.000885  ( 0.028605  0.008145 -0.000371)
102:   3022.01   0.002633   13.30  0.000272  ( 0.009868  0.006936 -0.011242)
103:   3026.46   0.004757   24.04  0.000490  ( 0.007287 -0.019982 -0.006171)
104:   3030.56   0.016653   84.16  0.001715  ( 0.023514  0.005291  0.033674)
105:   3071.57   0.001997   10.09  0.000203  (-0.004323 -0.008703  0.010416)
106:   3079.34   0.010209   51.59  0.001035  ( 0.022041  0.018056 -0.014926)
107:   3081.66   0.009543   48.23  0.000966  (-0.028180  0.006975 -0.011120)
108:   3086.43   0.013779   69.63  0.001393  (-0.003680 -0.030423 -0.021308)
109:   3093.31   0.005923   29.93  0.000598  (-0.005272  0.008416 -0.022336)
110:   3093.83   0.004758   24.05  0.000480  (-0.016475  0.012785 -0.006713)
111:   3121.86   0.005682   28.71  0.000568  ( 0.003215 -0.023481 -0.002502)
112:   3128.07   0.003261   16.48  0.000325  ( 0.006943 -0.011298  0.012227)
113:   3143.32   0.002438   12.32  0.000242  ( 0.006155 -0.006621 -0.012661)
114:   3177.86   0.001205    6.09  0.000118  ( 0.000592 -0.010183 -0.003780)
115:   3191.55   0.002390   12.08  0.000234  (-0.000398 -0.002456  0.015084)
116:   3205.62   0.000551    2.78  0.000054  (-0.000004 -0.005237 -0.005120)
117:   3214.47   0.000060    0.30  0.000006  (-0.002208  0.000688 -0.000664)
118:   3459.26   0.009500   48.01  0.000857  ( 0.018893  0.007043  0.021223)
119:   3786.90   0.008981   45.38  0.000740  ( 0.003750 -0.005968 -0.026275)

* The epsilon (eps) is given for a Dirac delta lineshape.
** The dipole moment derivative (T) already includes vibrational overlap.

The first frequency considered to be a vibration is 7
The total number of vibrations considered is 113


--------------------------
THERMOCHEMISTRY AT 298.15K
--------------------------

Temperature         ... 298.15 K
Pressure            ... 1.00 atm
Total Mass          ... 288.77 AMU

Throughout the following assumptions are being made:
  (1) The electronic state is orbitally nondegenerate
  (2) There are no thermally accessible electronically excited states
  (3) Hindered rotations indicated by low frequency modes are not
      treated as such but are treated as vibrations and this may
      cause some error
  (4) All equations used are the standard statistical mechanics
      equations for an ideal gas
  (5) All vibrations are strictly harmonic

freq.      16.46  E(vib)   ...       0.57 
freq.      30.25  E(vib)   ...       0.55 
freq.      40.98  E(vib)   ...       0.54 
freq.      53.55  E(vib)   ...       0.52 
freq.      71.39  E(vib)   ...       0.50 
freq.      77.31  E(vib)   ...       0.49 
freq.      83.82  E(vib)   ...       0.48 
freq.     104.14  E(vib)   ...       0.46 
freq.     110.62  E(vib)   ...       0.45 
freq.     124.33  E(vib)   ...       0.43 
freq.     164.75  E(vib)   ...       0.39 
freq.     193.35  E(vib)   ...       0.36 
freq.     214.69  E(vib)   ...       0.34 
freq.     239.98  E(vib)   ...       0.31 
freq.     241.44  E(vib)   ...       0.31 
freq.     264.38  E(vib)   ...       0.29 
freq.     277.52  E(vib)   ...       0.28 
freq.     309.69  E(vib)   ...       0.26 
freq.     312.47  E(vib)   ...       0.25 
freq.     375.68  E(vib)   ...       0.21 
freq.     389.74  E(vib)   ...       0.20 
freq.     392.14  E(vib)   ...       0.20 
freq.     423.83  E(vib)   ...       0.18 
freq.     425.52  E(vib)   ...       0.18 
freq.     453.62  E(vib)   ...       0.16 
freq.     457.69  E(vib)   ...       0.16 
freq.     459.49  E(vib)   ...       0.16 
freq.     532.27  E(vib)   ...       0.13 
freq.     562.14  E(vib)   ...       0.11 
freq.     605.50  E(vib)   ...       0.10 
freq.     617.20  E(vib)   ...       0.09 
freq.     632.50  E(vib)   ...       0.09 
freq.     675.12  E(vib)   ...       0.08 
freq.     712.34  E(vib)   ...       0.07 
freq.     732.90  E(vib)   ...       0.06 
freq.     795.05  E(vib)   ...       0.05 
freq.     798.21  E(vib)   ...       0.05 
freq.     811.76  E(vib)   ...       0.05 
freq.     813.60  E(vib)   ...       0.05 
freq.     850.95  E(vib)   ...       0.04 
freq.     857.68  E(vib)   ...       0.04 
freq.     872.99  E(vib)   ...       0.04 
freq.     885.55  E(vib)   ...       0.04 
freq.     906.06  E(vib)   ...       0.03 
freq.     911.58  E(vib)   ...       0.03 
freq.     939.22  E(vib)   ...       0.03 
freq.     956.33  E(vib)   ...       0.03 
freq.     977.33  E(vib)   ...       0.03 
freq.     985.39  E(vib)   ...       0.02 
freq.    1019.63  E(vib)   ...       0.02 
freq.    1039.13  E(vib)   ...       0.02 
freq.    1040.69  E(vib)   ...       0.02 
freq.    1061.72  E(vib)   ...       0.02 
freq.    1071.08  E(vib)   ...       0.02 
freq.    1090.36  E(vib)   ...       0.02 
freq.    1091.04  E(vib)   ...       0.02 
freq.    1106.94  E(vib)   ...       0.02 
freq.    1122.32  E(vib)   ...       0.01 
freq.    1132.80  E(vib)   ...       0.01 
freq.    1148.00  E(vib)   ...       0.01 
freq.    1191.61  E(vib)   ...       0.01 
freq.    1192.81  E(vib)   ...       0.01 
freq.    1203.56  E(vib)   ...       0.01 
freq.    1261.19  E(vib)   ...       0.01 
freq.    1294.31  E(vib)   ...       0.01 
freq.    1296.90  E(vib)   ...       0.01 
freq.    1301.42  E(vib)   ...       0.01 
freq.    1344.80  E(vib)   ...       0.01 
freq.    1345.95  E(vib)   ...       0.01 
freq.    1359.89  E(vib)   ...       0.01 
freq.    1370.53  E(vib)   ...       0.01 
freq.    1371.90  E(vib)   ...       0.01 
freq.    1376.55  E(vib)   ...       0.01 
freq.    1391.07  E(vib)   ...       0.00 
freq.    1392.59  E(vib)   ...       0.00 
freq.    1420.98  E(vib)   ...       0.00 
freq.    1426.63  E(vib)   ...       0.00 
freq.    1438.00  E(vib)   ...       0.00 
freq.    1444.46  E(vib)   ...       0.00 
freq.    1456.10  E(vib)   ...       0.00 
freq.    1470.57  E(vib)   ...       0.00 
freq.    1474.91  E(vib)   ...       0.00 
freq.    1476.81  E(vib)   ...       0.00 
freq.    1483.37  E(vib)   ...       0.00 
freq.    1484.46  E(vib)   ...       0.00 
freq.    1493.41  E(vib)   ...       0.00 
freq.    1507.29  E(vib)   ...       0.00 
freq.    1512.66  E(vib)   ...       0.00 
freq.    1560.53  E(vib)   ...       0.00 
freq.    1584.13  E(vib)   ...       0.00 
freq.    1601.90  E(vib)   ...       0.00 
freq.    1634.20  E(vib)   ...       0.00 
freq.    1686.28  E(vib)   ...       0.00 
freq.    2187.07  E(vib)   ...       0.00 
freq.    3021.11  E(vib)   ...       0.00 
freq.    3022.01  E(vib)   ...       0.00 
freq.    3026.46  E(vib)   ...       0.00 
freq.    3030.56  E(vib)   ...       0.00 
freq.    3071.57  E(vib)   ...       0.00 
freq.    3079.34  E(vib)   ...       0.00 
freq.    3081.66  E(vib)   ...       0.00 
freq.    3086.43  E(vib)   ...       0.00 
freq.    3093.31  E(vib)   ...       0.00 
freq.    3093.83  E(vib)   ...       0.00 
freq.    3121.86  E(vib)   ...       0.00 
freq.    3128.07  E(vib)   ...       0.00 
freq.    3143.32  E(vib)   ...       0.00 
freq.    3177.86  E(vib)   ...       0.00 
freq.    3191.55  E(vib)   ...       0.00 
freq.    3205.62  E(vib)   ...       0.00 
freq.    3214.47  E(vib)   ...       0.00 
freq.    3459.26  E(vib)   ...       0.00 
freq.    3786.90  E(vib)   ...       0.00 

------------
INNER ENERGY
------------

The inner energy is: U= E(el) + E(ZPE) + E(vib) + E(rot) + E(trans)
    E(el)   - is the total energy from the electronic structure calculation
              = E(kin-el) + E(nuc-el) + E(el-el) + E(nuc-nuc)
    E(ZPE)  - the the zero temperature vibrational energy from the frequency calculation
    E(vib)  - the the finite temperature correction to E(ZPE) due to population
              of excited vibrational states
    E(rot)  - is the rotational thermal energy
    E(trans)- is the translational thermal energy

Summary of contributions to the inner energy U:
Electronic energy                ...  -1303.19318443 Eh
Zero point energy                ...      0.32973799 Eh     206.91 kcal/mol
Thermal vibrational correction   ...      0.01724691 Eh      10.82 kcal/mol
Thermal rotational correction    ...      0.00141627 Eh       0.89 kcal/mol
Thermal translational correction ...      0.00141627 Eh       0.89 kcal/mol
-----------------------------------------------------------------------
Total thermal energy                  -1302.84336699 Eh


Summary of corrections to the electronic energy:
(perhaps to be used in another calculation)
Total thermal correction                  0.02007945 Eh      12.60 kcal/mol
Non-thermal (ZPE) correction              0.32973799 Eh     206.91 kcal/mol
-----------------------------------------------------------------------
Total correction                          0.34981744 Eh     219.51 kcal/mol


--------
ENTHALPY
--------

The enthalpy is H = U + kB*T
                kB is Boltzmann's constant
Total free energy                 ...  -1302.84336699 Eh 
Thermal Enthalpy correction       ...      0.00094421 Eh       0.59 kcal/mol
-----------------------------------------------------------------------
Total Enthalpy                    ...  -1302.84242278 Eh


Note: Only C1 symmetry has been detected, increase convergence thresholds 
      if your molecule has a higher symmetry. Symmetry factor of 1.0 is   
      used for the rotational entropy correction. 
 

Note: Rotational entropy computed according to Herzberg 
Infrared and Raman Spectra, Chapter V,1, Van Nostrand Reinhold, 1945 
Point Group:  C1, Symmetry Number:   1  
Rotational constants in cm-1:     0.011562     0.008651     0.006592 

Vibrational entropy computed according to the QRRHO of S. Grimme
Chem.Eur.J. 2012 18 9955


-------
ENTROPY
-------

The entropy contributions are T*S = T*(S(el)+S(vib)+S(rot)+S(trans))
     S(el)   - electronic entropy
     S(vib)  - vibrational entropy
     S(rot)  - rotational entropy
     S(trans)- translational entropy
The entropies will be listed as multiplied by the temperature to get
units of energy

Electronic entropy                ...      0.00000000 Eh      0.00 kcal/mol
Vibrational entropy               ...      0.03101092 Eh     19.46 kcal/mol
Rotational entropy                ...      0.01622955 Eh     10.18 kcal/mol
Translational entropy             ...      0.02037317 Eh     12.78 kcal/mol
-----------------------------------------------------------------------
Final entropy term                ...      0.06761363 Eh     42.43 kcal/mol

In case the symmetry of your molecule has not been determined correctly
or in case you have a reason to use a different symmetry number we print 
out the resulting rotational entropy values for sn=1,12 :
 --------------------------------------------------------
|  sn= 1 | S(rot)=       0.01622955 Eh     10.18 kcal/mol|
|  sn= 2 | S(rot)=       0.01557509 Eh      9.77 kcal/mol|
|  sn= 3 | S(rot)=       0.01519226 Eh      9.53 kcal/mol|
|  sn= 4 | S(rot)=       0.01492064 Eh      9.36 kcal/mol|
|  sn= 5 | S(rot)=       0.01470995 Eh      9.23 kcal/mol|
|  sn= 6 | S(rot)=       0.01453780 Eh      9.12 kcal/mol|
|  sn= 7 | S(rot)=       0.01439226 Eh      9.03 kcal/mol|
|  sn= 8 | S(rot)=       0.01426618 Eh      8.95 kcal/mol|
|  sn= 9 | S(rot)=       0.01415497 Eh      8.88 kcal/mol|
|  sn=10 | S(rot)=       0.01405549 Eh      8.82 kcal/mol|
|  sn=11 | S(rot)=       0.01396550 Eh      8.76 kcal/mol|
|  sn=12 | S(rot)=       0.01388335 Eh      8.71 kcal/mol|
 --------------------------------------------------------


-------------------
GIBBS FREE ENERGY
-------------------

The Gibbs free energy is G = H - T*S

Total enthalpy                    ...  -1302.84242278 Eh 
Total entropy correction          ...     -0.06761363 Eh    -42.43 kcal/mol
-----------------------------------------------------------------------
Final Gibbs free energy         ...  -1302.91003641 Eh

For completeness - the Gibbs free energy minus the electronic energy
G-E(el)                           ...      0.28314802 Eh    177.68 kcal/mol



Timings for individual modules:

Sum of individual times         ...     5220.718 sec (=  87.012 min)
GTO integral calculation        ...       11.837 sec (=   0.197 min)   0.2 %
SCF iterations                  ...      194.222 sec (=   3.237 min)   3.7 %
SCF Gradient evaluation         ...       38.220 sec (=   0.637 min)   0.7 %
Numerical frequency calculation ...     4976.439 sec (=  82.941 min)  95.3 %
                             ****ORCA TERMINATED NORMALLY****
TOTAL RUN TIME: 0 days 1 hours 25 minutes 3 seconds 103 msec
