 *******************************************************************************
 **                                                                           **
 **                              MOPAC v22.0.6                                **
 **                                                                           **
 *******************************************************************************
 **          Digital Object Identifier (DOI): 10.5281/zenodo.6511958          **
 **    Visit the DOI location for information on how to cite this program.    **
 *******************************************************************************

                              PM7 CALCULATION RESULTS

 *******************************************************************************
 *  CALCULATION DONE:                                Mon Mar 25 22:29:37 2024  *
 *  PM7        - The PM7 Hamiltonian to be used
 *  SINGLET    - SPIN STATE DEFINED AS A SINGLET
 *
 *
 *
 *                 CHARGE ON SYSTEM = -1
 *
 *
 *
 *  EPS=78.4   - USE ANDREAS KLAMT'S COSMO IMPLICIT SOLVATION MODEL
 *  T=         - A TIME OF 14.0 DAYS REQUESTED
 *  DUMP=N     - RESTART FILE WRITTEN EVERY 30.0 MINUTES REQUESTED
 *  RELSCF     - DEFAULT SCF CRITERION MULTIPLIED BY 1.0000
 *              (DEFAULT SCF CRITERION = 0.00010)
 *  ITRY=      - DO A MAXIMUM OF 15000 ITERATIONS FOR SCF
 *  AUX        - OUTPUT AUXILIARY INFORMATION
 *  BONDS      - FINAL BOND-ORDER MATRIX TO BE PRINTED
 *******************************************************************************
PM7 BONDS AUX DUMP=30M ITRY=15000 T=14D CHARGE=-1 SINGLET eps=78.4 RELSCF=1
 Title: ASE calculation

   ATOM   CHEMICAL          X               Y               Z
  NUMBER   SYMBOL      (ANGSTROMS)     (ANGSTROMS)     (ANGSTROMS)

     1       C          0.88896000  *   3.27563000  *   1.95684000  *
     2       C          1.38127000  *   1.97359000  *   1.87904000  *
     3       C          0.50243000  *   0.89329000  *   1.77224000  *
     4       C         -0.87696000  *   1.10897000  *   1.73760000  *
     5       C         -1.33250000  *   2.41573000  *   1.81741000  *
     6       C         -0.48501000  *   3.50975000  *   1.92747000  *
     7       H          1.57890000  *   4.11923000  *   2.03998000  *
     8       H          2.46430000  *   1.79969000  *   1.90239000  *
     9       H         -1.56966000  *   0.26782000  *   1.64575000  *
    10      Cl         -3.02908000  *   2.69005000  *   1.77701000  *
    11       H         -0.87421000  *   4.52771000  *   1.98907000  *
    12       C          1.06705000  *  -0.49940000  *   1.71139000  *
    13       C          0.44627000  *  -1.42799000  *   2.74619000  *
    14       H          0.92680000  *  -2.41734000  *   2.76318000  *
    15       H         -0.62828000  *  -1.59212000  *   2.58458000  *
    16       H          0.54676000  *  -1.00559000  *   3.75906000  *
    17       N          0.81635000  *  -1.06874000  *   0.34376000  *
    18       O          1.77299000  *  -1.47286000  *  -0.29871000  *
    19       O         -0.32411000  *  -1.11561000  *  -0.08583000  *
    20       H          2.19888000  *  -0.46787000  *   1.86221000  *
    21       O          6.54593000  *   0.07101000  *   2.57368000  *
    22       H          6.86812000  *   0.68492000  *   1.96910000  *
    23       H          5.28180000  *  -0.05550000  *   2.22062000  *
    24       H          4.19581000  *  -0.74639000  *   1.18319000  *
    25       O          4.18898000  *  -0.15536000  *   1.90910000  *



          CARTESIAN COORDINATES 

    NO.       ATOM           X           Y           Z

     1         C          0.8890      3.2756      1.9568
     2         C          1.3813      1.9736      1.8790
     3         C          0.5024      0.8933      1.7722
     4         C         -0.8770      1.1090      1.7376
     5         C         -1.3325      2.4157      1.8174
     6         C         -0.4850      3.5097      1.9275
     7         H          1.5789      4.1192      2.0400
     8         H          2.4643      1.7997      1.9024
     9         H         -1.5697      0.2678      1.6458
    10        Cl         -3.0291      2.6901      1.7770
    11         H         -0.8742      4.5277      1.9891
    12         C          1.0671     -0.4994      1.7114
    13         C          0.4463     -1.4280      2.7462
    14         H          0.9268     -2.4173      2.7632
    15         H         -0.6283     -1.5921      2.5846
    16         H          0.5468     -1.0056      3.7591
    17         N          0.8164     -1.0687      0.3438
    18         O          1.7730     -1.4729     -0.2987
    19         O         -0.3241     -1.1156     -0.0858
    20         H          2.1989     -0.4679      1.8622
    21         O          6.5459      0.0710      2.5737
    22         H          6.8681      0.6849      1.9691
    23         H          5.2818     -0.0555      2.2206
    24         H          4.1958     -0.7464      1.1832
    25         O          4.1890     -0.1554      1.9091

 General Reference for PM7:
 "Optimization of Parameters for Semiempirical Methods VI: More Modifications to the 
 NDDO Approximations and Re-optimization of Parameters", J. J. P. Stewart, J. Mol. Mod., 1:32, 19 (2013)
 https://link.springer.com/article/10.1007/s00894-012-1667-x

           Empirical Formula: C8 H11 N O4 Cl  =    25 atoms



      MOLECULAR POINT GROUP   :   C1  


 SINGLET STATE CALCULATION


      RHF CALCULATION, NO. OF DOUBLY OCCUPIED LEVELS = 40


          Geometry optimization using EF
  SCF CRITERION =    0.1000E-03

          DIAGONAL MATRIX USED AS START HESSIAN

 CYCLE:     1 TIME:   0.078 TIME LEFT:  2.00W  GRAD.:     1.500 HEAT: -223.4995
 CYCLE:     2 TIME:   0.227 TIME LEFT:  2.00W  GRAD.:     1.479 HEAT: -223.4997

     TRUST RADIUS NOW LESS THAN  0.00010 OPTIMIZATION TERMINATING
      THE GEOMETRY MAY NOT BE COMPLETELY OPTIMIZED
      (TO CONTINUE, ADD 'LET DDMIN=0.0' TO THE KEYWORD LINE)

 -------------------------------------------------------------------------------
 PM7 BONDS AUX DUMP=30M ITRY=15000 T=14D CHARGE=-1 SINGLET eps=78.4 RELSCF=1
 Title: ASE calculation



     GEOMETRY OPTIMISED USING EIGENVECTOR FOLLOWING (EF).     
     SCF FIELD WAS ACHIEVED                                   


                              PM7 CALCULATION
                                                       MOPAC v22.0.6 Linux
                                                       Mon Mar 25 22:29:38 2024




          FINAL HEAT OF FORMATION =       -223.49973 KCAL/MOL =    -935.12286 KJ/MOL
          VAN DER WAALS AREA      =        246.36 SQUARE ANGSTROMS



          DIELECTRIC ENERGY       =         -3.49632 EV
          COSMO AREA              =        246.36 SQUARE ANGSTROMS
          COSMO VOLUME            =        251.07 CUBIC ANGSTROMS

          GRADIENT NORM           =          1.47924          =       0.29585 PER ATOM
          IONIZATION POTENTIAL    =         10.044903 EV
          HOMO LUMO ENERGIES (EV) =        -10.045 -0.683
          NO. OF FILLED LEVELS    =         40
          MOLECULAR WEIGHT        =        220.6322         POINT GROUP:  C1  

          MOLECULAR DIMENSIONS (Angstroms)

            Atom       Atom       Distance
            H    22   Cl    10    10.10011
            H     7    H    14     6.57439
            O    18    H    16     4.08093


          SCF CALCULATIONS        =         18

          WALL-CLOCK TIME         =      0.687 SECONDS
          COMPUTATION TIME        =     52.280 SECONDS




   ATOM   CHEMICAL          X               Y               Z
  NUMBER   SYMBOL      (ANGSTROMS)     (ANGSTROMS)     (ANGSTROMS)

     1       C          0.88896399  *   3.27562149  *   1.95684653  *
     2       C          1.38127259  *   1.97359172  *   1.87903971  *
     3       C          0.50241992  *   0.89328412  *   1.77223590  *
     4       C         -0.87694434  *   1.10897581  *   1.73760168  *
     5       C         -1.33250299  *   2.41574310  *   1.81740849  *
     6       C         -0.48502268  *   3.50975431  *   1.92747070  *
     7       H          1.57890772  *   4.11921991  *   2.03998041  *
     8       H          2.46430321  *   1.79968541  *   1.90239478  *
     9       H         -1.56966546  *   0.26783110  *   1.64574444  *
    10      Cl         -3.02909012  *   2.69004765  *   1.77700879  *
    11       H         -0.87420179  *   4.52771779  *   1.98906783  *
    12       C          1.06703892  *  -0.49940604  *   1.71138984  *
    13       C          0.44624914  *  -1.42798674  *   2.74618955  *
    14       H          0.92680897  *  -2.41733659  *   2.76317606  *
    15       H         -0.62830048  *  -1.59213476  *   2.58457870  *
    16       H          0.54678350  *  -1.00558991  *   3.75905726  *
    17       N          0.81634451  *  -1.06874468  *   0.34376088  *
    18       O          1.77298989  *  -1.47287178  *  -0.29871304  *
    19       O         -0.32410303  *  -1.11560849  *  -0.08583272  *
    20       H          2.19886469  *  -0.46790252  *   1.86221710  *
    21       O          6.54596097  *   0.07100014  *   2.57367770  *
    22       H          6.86811431  *   0.68490917  *   1.96909017  *
    23       H          5.28182888  *  -0.05549475  *   2.22059855  *
    24       H          4.19579370  *  -0.74635654  *   1.18318232  *
    25       O          4.18898874  *  -0.15533577  *   1.90911760  *

                             CARTESIAN COORDINATES

   1    C        0.888963991     3.275621488     1.956846527
   2    C        1.381272586     1.973591717     1.879039710
   3    C        0.502419925     0.893284121     1.772235904
   4    C       -0.876944343     1.108975805     1.737601678
   5    C       -1.332502993     2.415743100     1.817408492
   6    C       -0.485022676     3.509754305     1.927470700
   7    H        1.578907724     4.119219905     2.039980408
   8    H        2.464303212     1.799685407     1.902394784
   9    H       -1.569665461     0.267831104     1.645744440
  10   Cl       -3.029090115     2.690047650     1.777008792
  11    H       -0.874201789     4.527717794     1.989067835
  12    C        1.067038917    -0.499406043     1.711389837
  13    C        0.446249140    -1.427986739     2.746189550
  14    H        0.926808971    -2.417336592     2.763176056
  15    H       -0.628300484    -1.592134760     2.584578699
  16    H        0.546783502    -1.005589913     3.759057263
  17    N        0.816344512    -1.068744685     0.343760883
  18    O        1.772989895    -1.472871779    -0.298713044
  19    O       -0.324103027    -1.115608493    -0.085832724
  20    H        2.198864686    -0.467902517     1.862217103
  21    O        6.545960969     0.071000144     2.573677700
  22    H        6.868114312     0.684909170     1.969090168
  23    H        5.281828878    -0.055494747     2.220598547
  24    H        4.195793705    -0.746356539     1.183182323
  25    O        4.188988743    -0.155335775     1.909117598


           Empirical Formula: C8 H11 N O4 Cl  =    25 atoms



      MOLECULAR POINT GROUP   :   C1  


                  EIGENVALUES  
 -37.32476 -31.52945 -30.79951 -29.24184 -27.42756 -27.07773 -26.04839 -25.39027
 -24.97115 -24.90480 -22.45124 -21.15415 -20.38979 -18.47443 -18.37191 -17.50409
 -17.26675 -16.43825 -16.26529 -15.40168 -15.08164 -14.67747 -14.46877 -14.23868
 -14.05022 -13.78140 -13.49304 -13.02113 -12.64412 -12.42225 -12.14451 -11.89213
 -11.79429 -11.53113 -11.40081 -11.26806 -10.95574 -10.57291 -10.36026 -10.04490
  -0.68317  -0.39861  -0.36329   0.56723   0.72124   1.92491   2.87247   3.26227
   3.74500   3.90778   4.11134   4.31816   4.41951   4.48582   4.54554   4.84305
   5.16776   5.37810   5.42456   5.57970   5.68939   5.79477   5.84159   5.91148
   6.61147   7.09356   7.99482  69.54490  69.55786  69.59132  69.83897  69.85411


              NET ATOMIC CHARGES AND DIPOLE CONTRIBUTIONS

  ATOM NO.   TYPE          CHARGE      No. of ELECS.   s-Pop       p-Pop       d-Pop       
    1          C          -0.129142        4.1291     1.08810     3.04104
    2          C          -0.132152        4.1322     1.09310     3.03905
    3          C          -0.043004        4.0430     1.06745     2.97555
    4          C          -0.156933        4.1569     1.08837     3.06856
    5          C           0.012203        3.9878     1.09512     2.89268
    6          C          -0.160115        4.1601     1.08917     3.07094
    7          H           0.178700        0.8213     0.82130
    8          H           0.193832        0.8062     0.80617
    9          H           0.192119        0.8079     0.80788
   10         Cl          -0.126961        7.1270     1.98129     5.13928     0.00639
   11          H           0.181255        0.8187     0.81874
   12          C          -0.049964        4.0500     1.09919     2.95077
   13          C          -0.470957        4.4710     1.05786     3.41310
   14          H           0.180274        0.8197     0.81973
   15          H           0.172589        0.8274     0.82741
   16          H           0.186577        0.8134     0.81342
   17          N           0.624053        4.3759     1.47998     2.89596
   18          O          -0.450459        6.4505     1.93978     4.51068
   19          O          -0.449915        6.4499     1.93938     4.51054
   20          H           0.242063        0.7579     0.75794
   21          O          -1.141944        7.1419     1.86485     5.27709
   22          H           0.340928        0.6591     0.65907
   23          H           0.436387        0.5636     0.56361
   24          H           0.345417        0.6546     0.65458
   25          O          -0.974851        6.9749     1.84581     5.12904
 DIPOLE           X         Y         Z       TOTAL
 POINT-CHG.   -19.123     5.761    -0.181    19.973
 HYBRID        -0.406    -0.128    -0.862     0.961
 SUM          -19.530     5.633    -1.042    20.353


          ATOMIC ORBITAL ELECTRON POPULATIONS

     Atom    s        px        py        pz      x^2-y^2     xz        z^2       yz        xy
    1  C   1.08810   1.01257   1.05189   0.97658
    2  C   1.09310   1.09488   0.97333   0.97084
    3  C   1.06745   0.97436   0.96405   1.03715
    4  C   1.08837   1.03704   1.03623   0.99529
    5  C   1.09512   0.84326   0.99481   1.05461
    6  C   1.08917   1.00723   1.07218   0.99153
    7  H   0.82130
    8  H   0.80617
    9  H   0.80788
   10 Cl   1.98129   1.19718   1.97192   1.97018   0.00239   0.00067   0.00126   0.00005   0.00203
   11  H   0.81874
   12  C   1.09919   1.16171   0.96225   0.82681
   13  C   1.05786   1.17793   1.12676   1.10841
   14  H   0.81973
   15  H   0.82741
   16  H   0.81342
   17  N   1.47998   0.95315   0.92622   1.01660
   18  O   1.93978   1.33876   1.53110   1.64082
   19  O   1.93938   1.11659   1.62174   1.77221
   20  H   0.75794
   21  O   1.86485   1.78092   1.75620   1.73997
   22  H   0.65907
   23  H   0.56361
   24  H   0.65458
   25  O   1.84581   1.69084   1.77868   1.65953

          BONDING CONTRIBUTION OF EACH M.O.

  1.3128  1.8686  0.9947  1.6954  1.2759  1.0607  1.6503  0.9859  1.3870  1.0295
  1.7267  1.7517  1.5612  1.3484  1.5617  1.6253  1.7251  1.5926  1.7756  1.8245
  1.9381  1.9005  1.7967  0.8703  1.7642  1.7891  0.7027  1.8298  1.7442  1.8460
  0.8103  0.8815  0.3601  0.3248  0.7671  0.0236  0.0005  0.4785  1.9457  1.5478
 -2.0793 -2.1340 -2.2210 -2.0525 -1.9722 -2.0098 -1.9631 -1.9639 -1.9533 -1.9700
 -1.9860 -1.9702 -1.9792 -1.9669 -2.0058 -1.9294 -1.9812 -1.9524 -1.9483 -1.9447
 -1.8760 -1.9363 -1.9373 -1.9463 -1.8887 -1.7654 -1.7217 -0.0060 -0.0105 -0.0025
 -0.0001 -0.0013





            (VALENCIES)   BOND ORDERS

     1  C     (3.966)     2  C 1.440     6  C 1.439     7  H 0.955     4  C 0.110    10 Cl 0.011

     2  C     (3.961)     1  C 1.440     3  C 1.424     8  H 0.948     5  C 0.108

     3  C     (3.991)     2  C 1.424     4  C 1.417    12  C 0.993     6  C 0.111    10 Cl 0.010

     4  C     (3.963)     5  C 1.433     3  C 1.417     9  H 0.947     1  C 0.110    10 Cl 0.024

     5  C     (3.959)     4  C 1.433     6  C 1.419    10 Cl 0.978     2  C 0.108

     6  C     (3.967)     1  C 1.439     5  C 1.419    11  H 0.953     3  C 0.111    10 Cl 0.024

     7  H     (0.968)     1  C 0.955

     8  H     (0.962)     2  C 0.948

     9  H     (0.963)     4  C 0.947

    10 Cl     (1.060)     5  C 0.978     4  C 0.024     6  C 0.024     1  C 0.011     3  C 0.010

    11  H     (0.967)     6  C 0.953

    12  C     (3.885)     3  C 0.993    13  C 0.992    20  H 0.914    17  N 0.818    19  O 0.068    18  O 0.066

    13  C     (3.896)    12  C 0.992    15  H 0.959    14  H 0.958    16  H 0.950

    14  H     (0.968)    13  C 0.958

    15  H     (0.970)    13  C 0.959

    16  H     (0.965)    13  C 0.950

    17  N     (3.741)    19  O 1.448    18  O 1.441    12  C 0.818

    18  O     (1.834)    17  N 1.441    19  O 0.301    12  C 0.066

    19  O     (1.841)    17  N 1.448    18  O 0.301    12  C 0.068

    20  H     (0.941)    12  C 0.914

    21  O     (1.244)    22  H 0.880    23  H 0.284    25  O 0.076

    22  H     (0.884)    21  O 0.880

    23  H     (0.810)    25  O 0.521    21  O 0.284

    24  H     (0.881)    25  O 0.875

    25  O     (1.489)    24  H 0.875    23  H 0.521    21  O 0.076


 **********************
 *                    *
 * JOB ENDED NORMALLY *
 *                    *
 **********************



 TOTAL JOB TIME:             0.70 SECONDS

 == MOPAC DONE ==
