 *******************************************************************************
 **                                                                           **
 **                              MOPAC v22.1.0                                **
 **                                                                           **
 *******************************************************************************
 **          Digital Object Identifier (DOI): 10.5281/zenodo.6511958          **
 **    Visit the DOI location for information on how to cite this program.    **
 *******************************************************************************

                              PM7 CALCULATION RESULTS

 *******************************************************************************
 *  CALCULATION DONE:                                Sat Mar 23 14:09:41 2024  *
 *  PM7        - The PM7 Hamiltonian to be used
 *  SINGLET    - SPIN STATE DEFINED AS A SINGLET
 *
 *
 *
 *                 CHARGE ON SYSTEM = -1
 *
 *
 *
 *  EPS=78.4   - USE ANDREAS KLAMT'S COSMO IMPLICIT SOLVATION MODEL
 *  THREADS    - USE A MAXIMUM OF 40 THREADS
 *  T=         - A TIME OF 14.0 DAYS REQUESTED
 *  DUMP=N     - RESTART FILE WRITTEN EVERY 30.0 MINUTES REQUESTED
 *  ITRY=      - DO A MAXIMUM OF 15000 ITERATIONS FOR SCF
 *  AUX        - OUTPUT AUXILIARY INFORMATION
 *  PL         - MONITOR CONVERGENCE IN DENSITY MATRIX
 *******************************************************************************
PM7 CHARGE=-1 SINGLET AUX DUMP=30M ITRY=15000 eps=78.4 T=14D PL THREADS=40

 Mopac file generated by Gabedit
   ATOM   CHEMICAL          X               Y               Z
  NUMBER   SYMBOL      (ANGSTROMS)     (ANGSTROMS)     (ANGSTROMS)

     1       C          0.53044000  *  -0.95593000  *   0.54992000  *
     2       H          0.99187000  *  -0.62163000  *  -0.40065000  *
     3       H          0.99308000  *  -0.36867000  *   1.37514000  *
     4       H          0.79816000  *  -2.01946000  *   0.71971000  *
     5       N         -0.91549000  *  -0.76297000  *   0.54537000  *
     6       O         -1.61701000  *  -1.53484000  *   1.18543000  *
     7       O         -1.39327000  *   0.16375000  *  -0.08908000  *
     8       C          0.67933300  *   2.56438900  *  -3.53061300  *
     9       O          1.50422300  *   3.27989900  *  -2.92304300  *
    10       O          1.01822300  *   1.57097900  *  -4.20653300  *
    11       C         -0.78209700  *   2.93702900  *  -3.46237300  *
    12       H         -1.41222700  *   2.23026900  *  -4.01325300  *
    13       H         -0.95042700  *   3.93853900  *  -3.87620300  *
    14       H         -1.13009700  *   2.95455900  *  -2.42109300  *
    15       H          1.30818800  *   1.38539100  *  -2.05927500  *
    16       O          1.01458500  *   0.87968500  *  -1.55219100  *
    17       H          0.92910100  *   0.95698000  *  -0.84571600  *



          CARTESIAN COORDINATES 

    NO.       ATOM           X           Y           Z

     1         C          0.5304     -0.9559      0.5499
     2         H          0.9919     -0.6216     -0.4007
     3         H          0.9931     -0.3687      1.3751
     4         H          0.7982     -2.0195      0.7197
     5         N         -0.9155     -0.7630      0.5454
     6         O         -1.6170     -1.5348      1.1854
     7         O         -1.3933      0.1638     -0.0891
     8         C          0.6793      2.5644     -3.5306
     9         O          1.5042      3.2799     -2.9230
    10         O          1.0182      1.5710     -4.2065
    11         C         -0.7821      2.9370     -3.4624
    12         H         -1.4122      2.2303     -4.0133
    13         H         -0.9504      3.9385     -3.8762
    14         H         -1.1301      2.9546     -2.4211
    15         H          1.3082      1.3854     -2.0593
    16         O          1.0146      0.8797     -1.5522
    17         H          0.9291      0.9570     -0.8457

 General Reference for PM7:
 "Optimization of Parameters for Semiempirical Methods VI: More Modifications to the 
 NDDO Approximations and Re-optimization of Parameters", J. J. P. Stewart, J. Mol. Mod., 1:32, 19 (2013)
 https://link.springer.com/article/10.1007/s00894-012-1667-x

           Empirical Formula: C3 H8 N O5  =    17 atoms



      MOLECULAR POINT GROUP   :   C1  


 SINGLET STATE CALCULATION


      RHF CALCULATION, NO. OF DOUBLY OCCUPIED LEVELS = 28


          Geometry optimization using EF
 ITERATION   1 PLS= 0.100E+01 0.000E+00 ENERGY     7537.326612 DELTAE 7437.3266123
 ITERATION   2 PLS= 0.118E+01 0.000E+00 ENERGY      -12.242475 DELTAE-7549.5690869
 ITERATION   3 PLS= 0.104E+00 0.000E+00 ENERGY     -100.267088 DELTAE  -88.0246130
 ITERATION   4 PLS= 0.663E-01 0.000E+00 ENERGY     -266.253096 DELTAE -165.9860088
 ITERATION   5 PLS= 0.239E-01 0.000E+00 ENERGY     -168.978571 DELTAE   97.2745249
 ITERATION   6 PLS= 0.265E-01 0.000E+00 ENERGY     -172.575134 DELTAE   -3.5965626
 ITERATION   7 PLS= 0.159E-01 0.000E+00 ENERGY     -175.488794 DELTAE   -2.9136599
 ITERATION   8 PLS= 0.353E-02 0.000E+00 ENERGY     -173.850326 DELTAE    1.6384680
 ITERATION   9 PLS= 0.149E-02 0.000E+00 ENERGY     -173.858260 DELTAE   -0.0079336
 ITERATION  10 PLS= 0.665E-03 0.000E+00 ENERGY     -173.862491 DELTAE   -0.0042316
 ITERATION  11 PLS= 0.236E-03 0.000E+00 ENERGY     -173.860577 DELTAE    0.0019142
 ITERATION  12 PLS= 0.128E-03 0.000E+00 ENERGY     -173.860599 DELTAE   -0.0000225
 ITERATION   1 PLS= 0.727E-04 0.000E+00 ENERGY     -253.987912 DELTAE -353.9879124
 ITERATION   2 PLS= 0.339E-01 0.000E+00 ENERGY     -257.309165 DELTAE   -3.3212528
 ITERATION   3 PLS= 0.158E-01 0.000E+00 ENERGY     -258.059685 DELTAE   -0.7505201
 ITERATION   4 PLS= 0.771E-02 0.000E+00 ENERGY     -258.627298 DELTAE   -0.5676125
 ITERATION   5 PLS= 0.874E-03 0.000E+00 ENERGY     -258.349322 DELTAE    0.2779758
 ITERATION   6 PLS= 0.537E-03 0.000E+00 ENERGY     -258.350574 DELTAE   -0.0012521
 ITERATION   7 PLS= 0.321E-03 0.000E+00 ENERGY     -258.351974 DELTAE   -0.0014003
 ITERATION   8 PLS= 0.621E-04 0.000E+00 ENERGY     -258.351173 DELTAE    0.0008011

          DIAGONAL MATRIX USED AS START HESSIAN

 CYCLE:     1 TIME:   0.059 TIME LEFT:  2.00W  GRAD.:   277.918 HEAT: -258.3512
 ITERATION   1 PLS= 0.305E-04 0.000E+00 ENERGY     -263.759316 DELTAE -363.7593156
 ITERATION   2 PLS= 0.109E+00 0.000E+00 ENERGY     -277.066420 DELTAE  -13.3071044
 ITERATION   3 PLS= 0.363E-01 0.000E+00 ENERGY     -278.985865 DELTAE   -1.9194450
 ITERATION   4 PLS= 0.153E-01 0.000E+00 ENERGY     -280.142774 DELTAE   -1.1569092
 ITERATION   5 PLS= 0.472E-02 0.000E+00 ENERGY     -279.650916 DELTAE    0.4918583
 ITERATION   6 PLS= 0.207E-02 0.000E+00 ENERGY     -279.658151 DELTAE   -0.0072349
 CYCLE:     2 TIME:   0.039 TIME LEFT:  2.00W  GRAD.:   111.173 HEAT: -279.6663
 ITERATION   1 PLS= 0.121E-02 0.000E+00 ENERGY     -264.505846 DELTAE -364.5058463
 ITERATION   2 PLS= 0.711E-01 0.000E+00 ENERGY     -277.842202 DELTAE  -13.3363560
 ITERATION   3 PLS= 0.226E-01 0.000E+00 ENERGY     -279.386692 DELTAE   -1.5444902
 ITERATION   4 PLS= 0.150E-01 0.000E+00 ENERGY     -280.324545 DELTAE   -0.9378527
 ITERATION   5 PLS= 0.359E-02 0.000E+00 ENERGY     -279.835704 DELTAE    0.4888409
 ITERATION   6 PLS= 0.140E-02 0.000E+00 ENERGY     -279.838895 DELTAE   -0.0031908
 CYCLE:     3 TIME:   0.020 TIME LEFT:  2.00W  GRAD.:   113.404 HEAT: -279.8413
 ITERATION   1 PLS= 0.734E-03 0.000E+00 ENERGY     -274.845369 DELTAE -374.8453691
 ITERATION   2 PLS= 0.299E-01 0.000E+00 ENERGY     -282.996688 DELTAE   -8.1513188
 ITERATION   3 PLS= 0.136E-01 0.000E+00 ENERGY     -283.936364 DELTAE   -0.9396761
 ITERATION   4 PLS= 0.707E-02 0.000E+00 ENERGY     -284.357572 DELTAE   -0.4212085
 ITERATION   5 PLS= 0.160E-02 0.000E+00 ENERGY     -284.166581 DELTAE    0.1909917
 ITERATION   6 PLS= 0.819E-03 0.000E+00 ENERGY     -284.168065 DELTAE   -0.0014840
 CYCLE:     4 TIME:   0.016 TIME LEFT:  2.00W  GRAD.:   147.978 HEAT: -284.1696
 ITERATION   1 PLS= 0.510E-03 0.000E+00 ENERGY     -255.327905 DELTAE -355.3279047
 ITERATION   2 PLS= 0.370E-01 0.000E+00 ENERGY     -276.726884 DELTAE  -21.3989792
 ITERATION   3 PLS= 0.921E-02 0.000E+00 ENERGY     -278.885206 DELTAE   -2.1583223
 ITERATION   4 PLS= 0.336E-02 0.000E+00 ENERGY     -279.521506 DELTAE   -0.6362996
 ITERATION   5 PLS= 0.133E-02 0.000E+00 ENERGY     -279.326063 DELTAE    0.1954431
 ITERATION   6 PLS= 0.545E-03 0.000E+00 ENERGY     -279.330791 DELTAE   -0.0047287
 ITERATION   1 PLS= 0.319E-03 0.000E+00 ENERGY     -282.824331 DELTAE -382.8243311
 ITERATION   2 PLS= 0.179E-01 0.000E+00 ENERGY     -286.977256 DELTAE   -4.1529253
 ITERATION   3 PLS= 0.533E-02 0.000E+00 ENERGY     -287.438260 DELTAE   -0.4610039
 ITERATION   4 PLS= 0.233E-02 0.000E+00 ENERGY     -287.596286 DELTAE   -0.1580258
 ITERATION   5 PLS= 0.493E-03 0.000E+00 ENERGY     -287.536983 DELTAE    0.0593029
 CYCLE:     5 TIME:   0.023 TIME LEFT:  2.00W  GRAD.:    91.481 HEAT: -287.5376
 ITERATION   1 PLS= 0.235E-03 0.000E+00 ENERGY     -281.301893 DELTAE -381.3018932
 ITERATION   2 PLS= 0.200E-01 0.000E+00 ENERGY     -285.841565 DELTAE   -4.5396713
 ITERATION   3 PLS= 0.899E-02 0.000E+00 ENERGY     -286.440565 DELTAE   -0.5990006
 ITERATION   4 PLS= 0.470E-02 0.000E+00 ENERGY     -286.710919 DELTAE   -0.2703542
 ITERATION   5 PLS= 0.508E-03 0.000E+00 ENERGY     -286.581470 DELTAE    0.1294495
 ITERATION   6 PLS= 0.229E-03 0.000E+00 ENERGY     -286.582068 DELTAE   -0.0005978
 ITERATION   1 PLS= 0.139E-03 0.000E+00 ENERGY     -288.057277 DELTAE -388.0572767
 ITERATION   2 PLS= 0.841E-02 0.000E+00 ENERGY     -289.133571 DELTAE   -1.0762941
 ITERATION   3 PLS= 0.442E-02 0.000E+00 ENERGY     -289.285488 DELTAE   -0.1519171
 ITERATION   4 PLS= 0.238E-02 0.000E+00 ENERGY     -289.356815 DELTAE   -0.0713272
 ITERATION   5 PLS= 0.326E-03 0.000E+00 ENERGY     -289.321753 DELTAE    0.0350618
 CYCLE:     6 TIME:   0.027 TIME LEFT:  2.00W  GRAD.:    36.483 HEAT: -289.3219
 ITERATION   1 PLS= 0.122E-03 0.000E+00 ENERGY     -286.762894 DELTAE -386.7628936
 ITERATION   2 PLS= 0.122E-01 0.000E+00 ENERGY     -288.706872 DELTAE   -1.9439785
 ITERATION   3 PLS= 0.475E-02 0.000E+00 ENERGY     -288.916867 DELTAE   -0.2099946
 ITERATION   4 PLS= 0.205E-02 0.000E+00 ENERGY     -288.997998 DELTAE   -0.0811315
 ITERATION   5 PLS= 0.444E-03 0.000E+00 ENERGY     -288.964850 DELTAE    0.0331487
 ITERATION   1 PLS= 0.213E-03 0.000E+00 ENERGY     -289.301763 DELTAE -389.3017629
 ITERATION   2 PLS= 0.643E-02 0.000E+00 ENERGY     -289.788201 DELTAE   -0.4864384
 ITERATION   3 PLS= 0.260E-02 0.000E+00 ENERGY     -289.848056 DELTAE   -0.0598550
 ITERATION   4 PLS= 0.115E-02 0.000E+00 ENERGY     -289.874526 DELTAE   -0.0264697
 ITERATION   5 PLS= 0.202E-03 0.000E+00 ENERGY     -289.862635 DELTAE    0.0118913
 CYCLE:     7 TIME:   0.023 TIME LEFT:  2.00W  GRAD.:    39.759 HEAT: -289.8627
 ITERATION   1 PLS= 0.967E-04 0.000E+00 ENERGY     -288.461290 DELTAE -388.4612899
 ITERATION   2 PLS= 0.103E-01 0.000E+00 ENERGY     -289.666561 DELTAE   -1.2052709
 ITERATION   3 PLS= 0.385E-02 0.000E+00 ENERGY     -289.791630 DELTAE   -0.1250695
 ITERATION   4 PLS= 0.161E-02 0.000E+00 ENERGY     -289.840860 DELTAE   -0.0492294
 ITERATION   5 PLS= 0.228E-03 0.000E+00 ENERGY     -289.822165 DELTAE    0.0186949
 ITERATION   1 PLS= 0.154E-03 0.000E+00 ENERGY     -290.012424 DELTAE -390.0124240
 ITERATION   2 PLS= 0.530E-02 0.000E+00 ENERGY     -290.286461 DELTAE   -0.2740373
 ITERATION   3 PLS= 0.217E-02 0.000E+00 ENERGY     -290.319772 DELTAE   -0.0333108
 ITERATION   4 PLS= 0.101E-02 0.000E+00 ENERGY     -290.335074 DELTAE   -0.0153020
 CYCLE:     8 TIME:   0.023 TIME LEFT:  2.00W  GRAD.:    31.160 HEAT: -290.3283
 ITERATION   1 PLS= 0.120E-03 0.000E+00 ENERGY     -290.361002 DELTAE -390.3610021
 ITERATION   2 PLS= 0.361E-02 0.000E+00 ENERGY     -290.618039 DELTAE   -0.2570372
 ITERATION   3 PLS= 0.174E-02 0.000E+00 ENERGY     -290.648635 DELTAE   -0.0305961
 ITERATION   4 PLS= 0.924E-03 0.000E+00 ENERGY     -290.661552 DELTAE   -0.0129165
 CYCLE:     9 TIME:   0.012 TIME LEFT:  2.00W  GRAD.:    27.903 HEAT: -290.6560
 ITERATION   1 PLS= 0.182E-03 0.000E+00 ENERGY     -291.008677 DELTAE -391.0086775
 ITERATION   2 PLS= 0.451E-02 0.000E+00 ENERGY     -291.278712 DELTAE   -0.2700349
 ITERATION   3 PLS= 0.230E-02 0.000E+00 ENERGY     -291.322551 DELTAE   -0.0438385
 ITERATION   4 PLS= 0.121E-02 0.000E+00 ENERGY     -291.347046 DELTAE   -0.0244953
 ITERATION   5 PLS= 0.135E-03 0.000E+00 ENERGY     -291.334829 DELTAE    0.0122172
 CYCLE:    10 TIME:   0.012 TIME LEFT:  2.00W  GRAD.:    27.017 HEAT: -291.3349
 ITERATION   1 PLS= 0.770E-04 0.000E+00 ENERGY     -291.013749 DELTAE -391.0137492
 ITERATION   2 PLS= 0.923E-02 0.000E+00 ENERGY     -291.965259 DELTAE   -0.9515098
 ITERATION   3 PLS= 0.474E-02 0.000E+00 ENERGY     -292.130302 DELTAE   -0.1650433
 ITERATION   4 PLS= 0.238E-02 0.000E+00 ENERGY     -292.227593 DELTAE   -0.0972913
 ITERATION   5 PLS= 0.236E-03 0.000E+00 ENERGY     -292.178143 DELTAE    0.0494505
 CYCLE:    11 TIME:   0.012 TIME LEFT:  2.00W  GRAD.:    34.245 HEAT: -292.1783
 ITERATION   1 PLS= 0.156E-03 0.000E+00 ENERGY     -292.468168 DELTAE -392.4681680
 ITERATION   2 PLS= 0.137E-01 0.000E+00 ENERGY     -293.756661 DELTAE   -1.2884931
 ITERATION   3 PLS= 0.694E-02 0.000E+00 ENERGY     -293.996413 DELTAE   -0.2397518
 ITERATION   4 PLS= 0.343E-02 0.000E+00 ENERGY     -294.135622 DELTAE   -0.1392086
 ITERATION   5 PLS= 0.190E-03 0.000E+00 ENERGY     -294.065668 DELTAE    0.0699536
 CYCLE:    12 TIME:   0.012 TIME LEFT:  2.00W  GRAD.:    28.782 HEAT: -294.0658
 ITERATION   1 PLS= 0.108E-03 0.000E+00 ENERGY     -290.966797 DELTAE -390.9667973
 ITERATION   2 PLS= 0.205E-01 0.000E+00 ENERGY     -293.870440 DELTAE   -2.9036429
 ITERATION   3 PLS= 0.103E-01 0.000E+00 ENERGY     -294.407698 DELTAE   -0.5372577
 ITERATION   4 PLS= 0.504E-02 0.000E+00 ENERGY     -294.718845 DELTAE   -0.3111468
 ITERATION   5 PLS= 0.393E-03 0.000E+00 ENERGY     -294.561812 DELTAE    0.1570330
 ITERATION   6 PLS= 0.237E-03 0.000E+00 ENERGY     -294.562174 DELTAE   -0.0003619
 CYCLE:    13 TIME:   0.016 TIME LEFT:  2.00W  GRAD.:    59.602 HEAT: -294.5625
 ITERATION   1 PLS= 0.143E-03 0.000E+00 ENERGY     -291.284670 DELTAE -391.2846695
 ITERATION   2 PLS= 0.229E-01 0.000E+00 ENERGY     -294.534095 DELTAE   -3.2494255
 ITERATION   3 PLS= 0.115E-01 0.000E+00 ENERGY     -295.128271 DELTAE   -0.5941760
 ITERATION   4 PLS= 0.576E-02 0.000E+00 ENERGY     -295.476263 DELTAE   -0.3479918
 ITERATION   5 PLS= 0.326E-03 0.000E+00 ENERGY     -295.298749 DELTAE    0.1775137
 ITERATION   6 PLS= 0.215E-03 0.000E+00 ENERGY     -295.299106 DELTAE   -0.0003567
 CYCLE:    14 TIME:   0.012 TIME LEFT:  2.00W  GRAD.:    48.127 HEAT: -295.2994
 ITERATION   1 PLS= 0.138E-03 0.000E+00 ENERGY     -294.917907 DELTAE -394.9179069
 ITERATION   2 PLS= 0.623E-02 0.000E+00 ENERGY     -295.647967 DELTAE   -0.7300602
 ITERATION   3 PLS= 0.260E-02 0.000E+00 ENERGY     -295.741875 DELTAE   -0.0939075
 ITERATION   4 PLS= 0.140E-02 0.000E+00 ENERGY     -295.781120 DELTAE   -0.0392450
 ITERATION   5 PLS= 0.182E-03 0.000E+00 ENERGY     -295.763344 DELTAE    0.0177757
 CYCLE:    15 TIME:   0.016 TIME LEFT:  2.00W  GRAD.:    30.877 HEAT: -295.7634
 ITERATION   1 PLS= 0.932E-04 0.000E+00 ENERGY     -295.406308 DELTAE -395.4063079
 ITERATION   2 PLS= 0.510E-02 0.000E+00 ENERGY     -295.837885 DELTAE   -0.4315768
 ITERATION   3 PLS= 0.194E-02 0.000E+00 ENERGY     -295.902758 DELTAE   -0.0648733
 ITERATION   4 PLS= 0.100E-02 0.000E+00 ENERGY     -295.933768 DELTAE   -0.0310101
 ITERATION   5 PLS= 0.214E-03 0.000E+00 ENERGY     -295.919296 DELTAE    0.0144724
 CYCLE:    16 TIME:   0.012 TIME LEFT:  2.00W  GRAD.:    32.636 HEAT: -295.9194
 ITERATION   1 PLS= 0.765E-04 0.000E+00 ENERGY     -295.209635 DELTAE -395.2096348
 ITERATION   2 PLS= 0.890E-02 0.000E+00 ENERGY     -296.003507 DELTAE   -0.7938718
 ITERATION   3 PLS= 0.430E-02 0.000E+00 ENERGY     -296.135840 DELTAE   -0.1323333
 ITERATION   4 PLS= 0.208E-02 0.000E+00 ENERGY     -296.205602 DELTAE   -0.0697622
 ITERATION   5 PLS= 0.209E-03 0.000E+00 ENERGY     -296.172573 DELTAE    0.0330287
 CYCLE:    17 TIME:   0.012 TIME LEFT:  2.00W  GRAD.:    34.035 HEAT: -296.1727
 ITERATION   1 PLS= 0.121E-03 0.000E+00 ENERGY     -295.996144 DELTAE -395.9961442
 ITERATION   2 PLS= 0.747E-02 0.000E+00 ENERGY     -296.354914 DELTAE   -0.3587699
 ITERATION   3 PLS= 0.354E-02 0.000E+00 ENERGY     -296.420204 DELTAE   -0.0652895
 ITERATION   4 PLS= 0.182E-02 0.000E+00 ENERGY     -296.458943 DELTAE   -0.0387394
 ITERATION   5 PLS= 0.108E-03 0.000E+00 ENERGY     -296.439202 DELTAE    0.0197409
 CYCLE:    18 TIME:   0.016 TIME LEFT:  2.00W  GRAD.:    13.735 HEAT: -296.4392
 ITERATION   1 PLS= 0.572E-04 0.000E+00 ENERGY     -296.047179 DELTAE -396.0471790
 ITERATION   2 PLS= 0.104E-01 0.000E+00 ENERGY     -296.487859 DELTAE   -0.4406797
 ITERATION   3 PLS= 0.509E-02 0.000E+00 ENERGY     -296.574935 DELTAE   -0.0870764
 ITERATION   4 PLS= 0.252E-02 0.000E+00 ENERGY     -296.627358 DELTAE   -0.0524226
 ITERATION   5 PLS= 0.152E-03 0.000E+00 ENERGY     -296.601617 DELTAE    0.0257404
 CYCLE:    19 TIME:   0.012 TIME LEFT:  2.00W  GRAD.:    12.431 HEAT: -296.6017
 ITERATION   1 PLS= 0.965E-04 0.000E+00 ENERGY     -293.160100 DELTAE -393.1600995
 ITERATION   2 PLS= 0.278E-01 0.000E+00 ENERGY     -296.253300 DELTAE   -3.0932007
 ITERATION   3 PLS= 0.133E-01 0.000E+00 ENERGY     -296.887126 DELTAE   -0.6338256
 ITERATION   4 PLS= 0.648E-02 0.000E+00 ENERGY     -297.285440 DELTAE   -0.3983142
 ITERATION   5 PLS= 0.395E-03 0.000E+00 ENERGY     -297.085642 DELTAE    0.1997979
 ITERATION   6 PLS= 0.254E-03 0.000E+00 ENERGY     -297.086216 DELTAE   -0.0005742
 CYCLE:    20 TIME:   0.012 TIME LEFT:  2.00W  GRAD.:    16.353 HEAT: -297.0869
 ITERATION   1 PLS= 0.157E-03 0.000E+00 ENERGY     -294.520620 DELTAE -394.5206196
 ITERATION   2 PLS= 0.209E-01 0.000E+00 ENERGY     -296.896087 DELTAE   -2.3754673
 ITERATION   3 PLS= 0.996E-02 0.000E+00 ENERGY     -297.395075 DELTAE   -0.4989880
 ITERATION   4 PLS= 0.484E-02 0.000E+00 ENERGY     -297.711033 DELTAE   -0.3159576
 ITERATION   5 PLS= 0.432E-03 0.000E+00 ENERGY     -297.553556 DELTAE    0.1574761
 ITERATION   6 PLS= 0.257E-03 0.000E+00 ENERGY     -297.553976 DELTAE   -0.0004200
 CYCLE:    21 TIME:   0.016 TIME LEFT:  2.00W  GRAD.:    12.447 HEAT: -297.5545
 ITERATION   1 PLS= 0.153E-03 0.000E+00 ENERGY     -296.013199 DELTAE -396.0131985
 ITERATION   2 PLS= 0.102E-01 0.000E+00 ENERGY     -297.151117 DELTAE   -1.1379181
 ITERATION   3 PLS= 0.485E-02 0.000E+00 ENERGY     -297.397028 DELTAE   -0.2459110
 ITERATION   4 PLS= 0.235E-02 0.000E+00 ENERGY     -297.557348 DELTAE   -0.1603201
 ITERATION   5 PLS= 0.218E-03 0.000E+00 ENERGY     -297.476692 DELTAE    0.0806554
 ITERATION   1 PLS= 0.139E-03 0.000E+00 ENERGY     -297.166757 DELTAE -397.1667568
 ITERATION   2 PLS= 0.651E-02 0.000E+00 ENERGY     -297.409707 DELTAE   -0.2429503
 ITERATION   3 PLS= 0.322E-02 0.000E+00 ENERGY     -297.459982 DELTAE   -0.0502752
 ITERATION   4 PLS= 0.158E-02 0.000E+00 ENERGY     -297.491539 DELTAE   -0.0315563
 ITERATION   5 PLS= 0.116E-03 0.000E+00 ENERGY     -297.475682 DELTAE    0.0158563
 ITERATION   1 PLS= 0.724E-04 0.000E+00 ENERGY     -297.541713 DELTAE -397.5417127
 ITERATION   2 PLS= 0.280E-02 0.000E+00 ENERGY     -297.636064 DELTAE   -0.0943511
 ITERATION   3 PLS= 0.139E-02 0.000E+00 ENERGY     -297.656363 DELTAE   -0.0202988
 ITERATION   4 PLS= 0.692E-03 0.000E+00 ENERGY     -297.669810 DELTAE   -0.0134474
 CYCLE:    22 TIME:   0.039 TIME LEFT:  2.00W  GRAD.:     9.588 HEAT: -297.6630
 ITERATION   1 PLS= 0.726E-04 0.000E+00 ENERGY     -297.091436 DELTAE -397.0914361
 ITERATION   2 PLS= 0.259E-02 0.000E+00 ENERGY     -297.519741 DELTAE   -0.4283051
 ITERATION   3 PLS= 0.143E-02 0.000E+00 ENERGY     -297.616486 DELTAE   -0.0967452
 ITERATION   4 PLS= 0.744E-03 0.000E+00 ENERGY     -297.682418 DELTAE   -0.0659315
 ITERATION   5 PLS= 0.900E-04 0.000E+00 ENERGY     -297.648395 DELTAE    0.0340232
 ITERATION   1 PLS= 0.498E-04 0.000E+00 ENERGY     -297.413372 DELTAE -397.4133718
 ITERATION   2 PLS= 0.134E-02 0.000E+00 ENERGY     -297.532755 DELTAE   -0.1193828
 ITERATION   3 PLS= 0.728E-03 0.000E+00 ENERGY     -297.559746 DELTAE   -0.0269912
 ITERATION   4 PLS= 0.388E-03 0.000E+00 ENERGY     -297.577989 DELTAE   -0.0182429
 ITERATION   1 PLS= 0.462E-04 0.000E+00 ENERGY     -297.480068 DELTAE -397.4800684
 ITERATION   2 PLS= 0.683E-03 0.000E+00 ENERGY     -297.508190 DELTAE   -0.0281219
 ITERATION   3 PLS= 0.361E-03 0.000E+00 ENERGY     -297.514566 DELTAE   -0.0063754
 ITERATION   4 PLS= 0.187E-03 0.000E+00 ENERGY     -297.518857 DELTAE   -0.0042916
 ITERATION   1 PLS= 0.209E-04 0.000E+00 ENERGY     -297.703510 DELTAE -397.7035096
 ITERATION   2 PLS= 0.827E-03 0.000E+00 ENERGY     -297.710003 DELTAE   -0.0064933
 ITERATION   3 PLS= 0.527E-03 0.000E+00 ENERGY     -297.711481 DELTAE   -0.0014782
 ITERATION   4 PLS= 0.318E-03 0.000E+00 ENERGY     -297.712763 DELTAE   -0.0012819
 CYCLE:    23 TIME:   0.047 TIME LEFT:  2.00W  GRAD.:     8.316 HEAT: -297.7120
 ITERATION   1 PLS= 0.208E-04 0.000E+00 ENERGY     -297.507489 DELTAE -397.5074894
 ITERATION   2 PLS= 0.122E-02 0.000E+00 ENERGY     -297.559578 DELTAE   -0.0520887
 ITERATION   3 PLS= 0.760E-03 0.000E+00 ENERGY     -297.571105 DELTAE   -0.0115269
 ITERATION   4 PLS= 0.444E-03 0.000E+00 ENERGY     -297.579634 DELTAE   -0.0085286
 ITERATION   1 PLS= 0.516E-04 0.000E+00 ENERGY     -297.516733 DELTAE -397.5167327
 ITERATION   2 PLS= 0.379E-03 0.000E+00 ENERGY     -297.530583 DELTAE   -0.0138502
 ITERATION   3 PLS= 0.204E-03 0.000E+00 ENERGY     -297.533673 DELTAE   -0.0030904
 ITERATION   4 PLS= 0.114E-03 0.000E+00 ENERGY     -297.535738 DELTAE   -0.0020651
 ITERATION   1 PLS= 0.233E-04 0.000E+00 ENERGY     -297.720608 DELTAE -397.7206081
 ITERATION   2 PLS= 0.707E-03 0.000E+00 ENERGY     -297.723920 DELTAE   -0.0033121
 ITERATION   3 PLS= 0.421E-03 0.000E+00 ENERGY     -297.724677 DELTAE   -0.0007564
 ITERATION   4 PLS= 0.251E-03 0.000E+00 ENERGY     -297.725309 DELTAE   -0.0006329
 CYCLE:    24 TIME:   0.031 TIME LEFT:  2.00W  GRAD.:     7.576 HEAT: -297.7249
 ITERATION   1 PLS= 0.187E-04 0.000E+00 ENERGY     -297.535390 DELTAE -397.5353899
 ITERATION   2 PLS= 0.896E-03 0.000E+00 ENERGY     -297.550195 DELTAE   -0.0148054
 ITERATION   3 PLS= 0.533E-03 0.000E+00 ENERGY     -297.553514 DELTAE   -0.0033185
 ITERATION   4 PLS= 0.311E-03 0.000E+00 ENERGY     -297.556075 DELTAE   -0.0025612
 ITERATION   1 PLS= 0.302E-04 0.000E+00 ENERGY     -297.531213 DELTAE -397.5312135
 ITERATION   2 PLS= 0.254E-03 0.000E+00 ENERGY     -297.535129 DELTAE   -0.0039152
 ITERATION   3 PLS= 0.138E-03 0.000E+00 ENERGY     -297.536001 DELTAE   -0.0008725
 ITERATION   4 PLS= 0.748E-04 0.000E+00 ENERGY     -297.536583 DELTAE   -0.0005823
 ITERATION   1 PLS= 0.144E-04 0.000E+00 ENERGY     -297.519635 DELTAE -397.5196354
 ITERATION   2 PLS= 0.139E-03 0.000E+00 ENERGY     -297.520546 DELTAE   -0.0009104
 ITERATION   3 PLS= 0.735E-04 0.000E+00 ENERGY     -297.520750 DELTAE   -0.0002040
 ITERATION   4 PLS= 0.395E-04 0.000E+00 ENERGY     -297.520892 DELTAE   -0.0001417
 ITERATION   1 PLS= 0.799E-05 0.000E+00 ENERGY     -297.513189 DELTAE -397.5131886
 ITERATION   2 PLS= 0.691E-04 0.000E+00 ENERGY     -297.513415 DELTAE   -0.0002269
 ITERATION   3 PLS= 0.369E-04 0.000E+00 ENERGY     -297.513466 DELTAE   -0.0000504
 ITERATION   4 PLS= 0.209E-04 0.000E+00 ENERGY     -297.513501 DELTAE   -0.0000349
 ITERATION   1 PLS= 0.411E-05 0.000E+00 ENERGY     -297.509693 DELTAE -397.5096934
 ITERATION   2 PLS= 0.353E-04 0.000E+00 ENERGY     -297.509750 DELTAE   -0.0000570
 ITERATION   3 PLS= 0.192E-04 0.000E+00 ENERGY     -297.509763 DELTAE   -0.0000126
 ITERATION   4 PLS= 0.109E-04 0.000E+00 ENERGY     -297.509772 DELTAE   -0.0000087
 ITERATION   1 PLS= 0.210E-05 0.000E+00 ENERGY     -297.726360 DELTAE -397.7263597
 ITERATION   2 PLS= 0.696E-03 0.000E+00 ENERGY     -297.726729 DELTAE   -0.0003691
 ITERATION   3 PLS= 0.309E-03 0.000E+00 ENERGY     -297.726820 DELTAE   -0.0000911
 ITERATION   4 PLS= 0.180E-03 0.000E+00 ENERGY     -297.726909 DELTAE   -0.0000890
 CYCLE:    25 TIME:   0.066 TIME LEFT:  2.00W  GRAD.:     7.572 HEAT: -297.7269
 ITERATION   1 PLS= 0.270E-04 0.000E+00 ENERGY     -297.511318 DELTAE -397.5113177
 ITERATION   2 PLS= 0.697E-03 0.000E+00 ENERGY     -297.511715 DELTAE   -0.0003971
 ITERATION   3 PLS= 0.307E-03 0.000E+00 ENERGY     -297.511811 DELTAE   -0.0000957
 ITERATION   4 PLS= 0.180E-03 0.000E+00 ENERGY     -297.511901 DELTAE   -0.0000904

     TRUST RADIUS NOW LESS THAN  0.00010 OPTIMIZATION TERMINATING
      THE GEOMETRY MAY NOT BE COMPLETELY OPTIMIZED
      (TO CONTINUE, ADD 'LET DDMIN=0.0' TO THE KEYWORD LINE)
 ITERATION   1 PLS= 0.267E-04 0.000E+00 ENERGY     -297.726326 DELTAE -397.7263260
 ITERATION   2 PLS= 0.697E-03 0.000E+00 ENERGY     -297.726723 DELTAE   -0.0003971
 ITERATION   3 PLS= 0.307E-03 0.000E+00 ENERGY     -297.726819 DELTAE   -0.0000960
 ITERATION   4 PLS= 0.180E-03 0.000E+00 ENERGY     -297.726910 DELTAE   -0.0000909

 -------------------------------------------------------------------------------
 PM7 CHARGE=-1 SINGLET AUX DUMP=30M ITRY=15000 eps=78.4 T=14D PL THREADS=40

 Mopac file generated by Gabedit


     GEOMETRY OPTIMISED USING EIGENVECTOR FOLLOWING (EF).     
     SCF FIELD WAS ACHIEVED                                   


                              PM7 CALCULATION
                                                       MOPAC v22.1.0 Linux
                                                       Sat Mar 23 14:09:42 2024




          FINAL HEAT OF FORMATION =       -297.72686 KCAL/MOL =   -1245.68919 KJ/MOL
          VAN DER WAALS AREA      =        184.01 SQUARE ANGSTROMS



          DIELECTRIC ENERGY       =         -3.87026 EV
          COSMO AREA              =        184.01 SQUARE ANGSTROMS
          COSMO VOLUME            =        171.20 CUBIC ANGSTROMS

          GRADIENT NORM           =          7.57177          =       1.83642 PER ATOM
          IONIZATION POTENTIAL    =         10.213427 EV
          HOMO LUMO ENERGIES (EV) =        -10.213 -0.289
          NO. OF FILLED LEVELS    =         28
          MOLECULAR WEIGHT        =        138.0999         POINT GROUP:  C1  

          MOLECULAR DIMENSIONS (Angstroms)

            Atom       Atom       Distance
            H    13    H     4     8.24496
            O     6    O    10     4.58576
            H    12    H     3     2.80829


          SCF CALCULATIONS        =         44

          WALL-CLOCK TIME         =      0.617 SECONDS
          COMPUTATION TIME        =     16.857 SECONDS



       FINAL  POINT  AND  DERIVATIVES

   PARAMETER     ATOM    TYPE            VALUE        GRADIENT
      1          1  C    CARTESIAN X     0.467709      0.563553  KCAL/ANGSTROM
      2          1  C    CARTESIAN Y    -1.164423      0.322237  KCAL/ANGSTROM
      3          1  C    CARTESIAN Z     0.819324      0.258941  KCAL/ANGSTROM
      4          2  H    CARTESIAN X     0.952470     -2.521364  KCAL/ANGSTROM
      5          2  H    CARTESIAN Y    -1.090609      0.838619  KCAL/ANGSTROM
      6          2  H    CARTESIAN Z    -0.180458     -0.398818  KCAL/ANGSTROM
      7          3  H    CARTESIAN X     0.964042     -0.036965  KCAL/ANGSTROM
      8          3  H    CARTESIAN Y    -0.433117      0.264682  KCAL/ANGSTROM
      9          3  H    CARTESIAN Z     1.494259      0.290260  KCAL/ANGSTROM
     10          4  H    CARTESIAN X     0.639726     -1.868467  KCAL/ANGSTROM
     11          4  H    CARTESIAN Y    -2.177251     -0.253179  KCAL/ANGSTROM
     12          4  H    CARTESIAN Z     1.233587      0.478302  KCAL/ANGSTROM
     13          5  N    CARTESIAN X    -0.954919      0.838903  KCAL/ANGSTROM
     14          5  N    CARTESIAN Y    -0.876607     -0.277589  KCAL/ANGSTROM
     15          5  N    CARTESIAN Z     0.702482      0.065983  KCAL/ANGSTROM
     16          6  O    CARTESIAN X    -1.759312      1.306842  KCAL/ANGSTROM
     17          6  O    CARTESIAN Y    -1.665481     -0.487959  KCAL/ANGSTROM
     18          6  O    CARTESIAN Z     1.178438     -0.167378  KCAL/ANGSTROM
     19          7  O    CARTESIAN X    -1.308962      1.899301  KCAL/ANGSTROM
     20          7  O    CARTESIAN Y     0.137977     -1.239881  KCAL/ANGSTROM
     21          7  O    CARTESIAN Z     0.121778     -0.969170  KCAL/ANGSTROM
     22          8  C    CARTESIAN X     0.668689      0.110077  KCAL/ANGSTROM
     23          8  C    CARTESIAN Y     2.711538      0.751452  KCAL/ANGSTROM
     24          8  C    CARTESIAN Z    -3.769355     -0.131988  KCAL/ANGSTROM
     25          9  O    CARTESIAN X     1.496050      0.276798  KCAL/ANGSTROM
     26          9  O    CARTESIAN Y     3.291773      1.021329  KCAL/ANGSTROM
     27          9  O    CARTESIAN Z    -3.033749     -0.889121  KCAL/ANGSTROM
     28         10  O    CARTESIAN X     1.003053     -0.553239  KCAL/ANGSTROM
     29         10  O    CARTESIAN Y     1.921395     -0.561784  KCAL/ANGSTROM
     30         10  O    CARTESIAN Z    -4.675937      0.554408  KCAL/ANGSTROM
     31         11  C    CARTESIAN X    -0.799996      0.116307  KCAL/ANGSTROM
     32         11  C    CARTESIAN Y     3.007901      0.350376  KCAL/ANGSTROM
     33         11  C    CARTESIAN Z    -3.577271      0.224833  KCAL/ANGSTROM
     34         12  H    CARTESIAN X    -1.433231     -0.084833  KCAL/ANGSTROM
     35         12  H    CARTESIAN Y     2.290636     -0.284466  KCAL/ANGSTROM
     36         12  H    CARTESIAN Z    -4.112559     -0.145262  KCAL/ANGSTROM
     37         13  H    CARTESIAN X    -1.040871      0.148951  KCAL/ANGSTROM
     38         13  H    CARTESIAN Y     4.011942     -0.226828  KCAL/ANGSTROM
     39         13  H    CARTESIAN Z    -3.947993     -0.136757  KCAL/ANGSTROM
     40         14  H    CARTESIAN X    -1.073063      0.066078  KCAL/ANGSTROM
     41         14  H    CARTESIAN Y     2.974168     -0.314337  KCAL/ANGSTROM
     42         14  H    CARTESIAN Z    -2.515898     -0.107740  KCAL/ANGSTROM
     43         15  H    CARTESIAN X     1.798170      1.717687  KCAL/ANGSTROM
     44         15  H    CARTESIAN Y     1.465170     -2.263686  KCAL/ANGSTROM
     45         15  H    CARTESIAN Z    -1.855464      1.803412  KCAL/ANGSTROM
     46         16  O    CARTESIAN X     1.232386     -3.615138  KCAL/ANGSTROM
     47         16  O    CARTESIAN Y     0.800075      0.462545  KCAL/ANGSTROM
     48         16  O    CARTESIAN Z    -1.441029     -1.299953  KCAL/ANGSTROM
     49         17  H    CARTESIAN X     0.638776      1.635533  KCAL/ANGSTROM
     50         17  H    CARTESIAN Y     1.302695      1.898469  KCAL/ANGSTROM
     51         17  H    CARTESIAN Z    -0.875572      0.570057  KCAL/ANGSTROM




   ATOM   CHEMICAL          X               Y               Z
  NUMBER   SYMBOL      (ANGSTROMS)     (ANGSTROMS)     (ANGSTROMS)

     1       C          0.46770858  *  -1.16442278  *   0.81932423  *
     2       H          0.95246960  *  -1.09060906  *  -0.18045764  *
     3       H          0.96404229  *  -0.43311739  *   1.49425947  *
     4       H          0.63972603  *  -2.17725116  *   1.23358704  *
     5       N         -0.95491858  *  -0.87660694  *   0.70248160  *
     6       O         -1.75931232  *  -1.66548131  *   1.17843770  *
     7       O         -1.30896243  *   0.13797708  *   0.12177814  *
     8       C          0.66868862  *   2.71153798  *  -3.76935457  *
     9       O          1.49605009  *   3.29177335  *  -3.03374912  *
    10       O          1.00305313  *   1.92139531  *  -4.67593697  *
    11       C         -0.79999576  *   3.00790095  *  -3.57727116  *
    12       H         -1.43323111  *   2.29063599  *  -4.11255872  *
    13       H         -1.04087100  *   4.01194213  *  -3.94799292  *
    14       H         -1.07306322  *   2.97416819  *  -2.51589804  *
    15       H          1.79817033  *   1.46516993  *  -1.85546406  *
    16       O          1.23238609  *   0.80007541  *  -1.44102884  *
    17       H          0.63877563  *   1.30269503  *  -0.87557206  *

                             CARTESIAN COORDINATES

   1    C        0.467708581    -1.164422785     0.819324231
   2    H        0.952469603    -1.090609064    -0.180457644
   3    H        0.964042287    -0.433117386     1.494259475
   4    H        0.639726032    -2.177251158     1.233587041
   5    N       -0.954918576    -0.876606939     0.702481599
   6    O       -1.759312322    -1.665481314     1.178437702
   7    O       -1.308962426     0.137977076     0.121778140
   8    C        0.668688618     2.711537984    -3.769354571
   9    O        1.496050087     3.291773347    -3.033749118
  10    O        1.003053130     1.921395312    -4.675936970
  11    C       -0.799995759     3.007900946    -3.577271156
  12    H       -1.433231113     2.290635992    -4.112558719
  13    H       -1.040870996     4.011942127    -3.947992922
  14    H       -1.073063220     2.974168187    -2.515898037
  15    H        1.798170328     1.465169926    -1.855464059
  16    O        1.232386090     0.800075414    -1.441028839
  17    H        0.638775634     1.302695028    -0.875572065


           Empirical Formula: C3 H8 N O5  =    17 atoms



      MOLECULAR POINT GROUP   :   C1  


                  EIGENVALUES  
 -37.35085 -30.69007 -29.63905 -29.03569 -27.75546 -27.71599 -25.16977 -22.93505
 -18.60367 -18.41796 -18.12219 -17.89364 -17.56897 -15.33729 -15.04380 -14.95475
 -14.37830 -14.17272 -13.83457 -13.04631 -12.93644 -12.21958 -11.92590 -11.81263
 -11.63803 -10.90830 -10.70644 -10.21343  -0.28937   0.67644   2.19848   3.87257
   4.02913   4.16607   4.45046   4.90171   5.18784   5.51332   5.56176   5.72444
   5.81122   6.36046   6.73854   7.03252


              NET ATOMIC CHARGES AND DIPOLE CONTRIBUTIONS

  ATOM NO.   TYPE          CHARGE      No. of ELECS.   s-Pop       p-Pop       
    1          C          -0.399325        4.3993     1.08825     3.31107
    2          H           0.230491        0.7695     0.76951
    3          H           0.222405        0.7776     0.77760
    4          H           0.201948        0.7981     0.79805
    5          N           0.703384        4.2966     1.44710     2.84952
    6          O          -0.494021        6.4940     1.94001     4.55401
    7          O          -0.463948        6.4639     1.93958     4.52436
    8          C           0.805227        3.1948     1.06829     2.12648
    9          O          -0.875786        6.8758     1.88370     4.99209
   10          O          -0.873908        6.8739     1.88308     4.99083
   11          C          -0.573964        4.5740     1.06842     3.50554
   12          H           0.171752        0.8282     0.82825
   13          H           0.177909        0.8221     0.82209
   14          H           0.174143        0.8259     0.82586
   15          H           0.374251        0.6257     0.62575
   16          O          -0.747654        6.7477     1.81312     4.93453
   17          H           0.367095        0.6329     0.63291
 DIPOLE           X         Y         Z       TOTAL
 POINT-CHG.    -2.980    -6.455    12.294    14.202
 HYBRID        -0.367     0.350     0.069     0.511
 SUM           -3.346    -6.105    12.363    14.189


          ATOMIC ORBITAL ELECTRON POPULATIONS

     Atom    s        px        py        pz   
    1  C   1.08825   0.86339   1.21815   1.22954
    2  H   0.76951
    3  H   0.77760
    4  H   0.79805
    5  N   1.44710   1.01612   0.93203   0.90137
    6  O   1.94001   1.57455   1.45083   1.52863
    7  O   1.93958   1.87148   1.20048   1.45240
    8  C   1.06829   0.80209   0.65300   0.67138
    9  O   1.88370   1.68470   1.67563   1.63175
   10  O   1.88308   1.89315   1.56981   1.52787
   11  C   1.06842   1.10975   1.19616   1.19964
   12  H   0.82825
   13  H   0.82209
   14  H   0.82586
   15  H   0.62575
   16  O   1.81312   1.65483   1.53518   1.74453
   17  H   0.63291

 **********************
 *                    *
 * JOB ENDED NORMALLY *
 *                    *
 **********************



 TOTAL JOB TIME:             0.62 SECONDS

 == MOPAC DONE ==
