 *******************************************************************************
 **                                                                           **
 **                              MOPAC v22.0.6                                **
 **                                                                           **
 *******************************************************************************
 **          Digital Object Identifier (DOI): 10.5281/zenodo.6511958          **
 **    Visit the DOI location for information on how to cite this program.    **
 *******************************************************************************

                              PM7 CALCULATION RESULTS

 *******************************************************************************
 *  CALCULATION DONE:                                Tue Mar 26 11:52:49 2024  *
 *  PM7        - The PM7 Hamiltonian to be used
 *  SINGLET    - SPIN STATE DEFINED AS A SINGLET
 *
 *
 *
 *                 CHARGE ON SYSTEM = 0
 *
 *
 *
 *  EPS=78.4   - USE ANDREAS KLAMT'S COSMO IMPLICIT SOLVATION MODEL
 *  T=         - A TIME OF 14.0 DAYS REQUESTED
 *  DUMP=N     - RESTART FILE WRITTEN EVERY 30.0 MINUTES REQUESTED
 *  RELSCF     - DEFAULT SCF CRITERION MULTIPLIED BY 1.0000
 *              (DEFAULT SCF CRITERION = 0.00010)
 *  ITRY=      - DO A MAXIMUM OF 15000 ITERATIONS FOR SCF
 *  AUX        - OUTPUT AUXILIARY INFORMATION
 *  BONDS      - FINAL BOND-ORDER MATRIX TO BE PRINTED
 *******************************************************************************
PM7 BONDS AUX DUMP=30M ITRY=15000 T=14D CHARGE=0 SINGLET eps=78.4 RELSCF=1
 Title: ASE calculation

   ATOM   CHEMICAL          X               Y               Z
  NUMBER   SYMBOL      (ANGSTROMS)     (ANGSTROMS)     (ANGSTROMS)

     1       C          0.85144000  *  -0.54122000  *  -0.86714000  *
     2       H          1.00220000  *  -0.78842000  *  -1.92766000  *
     3       N          0.73359000  *  -2.94168000  *  -0.43716000  *
     4       O          0.60584000  *  -3.17474000  *  -1.67915000  *
     5       O          0.66066000  *  -3.95050000  *   0.33538000  *
     6       H          1.78652000  *  -0.61245000  *   1.67489000  *
     7       C          0.97413000  *  -1.72559000  *   0.02784000  *
     8       H          3.06739000  *  -2.07182000  *  -0.77617000  *
     9       H         -0.15174000  *  -0.09074000  *  -0.78615000  *
    10       C          1.16751000  *  -1.50033000  *   1.48684000  *
    11       H          0.20992000  *  -1.34285000  *   2.00401000  *
    12       C          4.66666000  *  -2.47575000  *  -4.17494000  *
    13       C          4.95710000  *  -3.01389000  *  -5.42514000  *
    14       C          5.04596000  *  -4.39805000  *  -5.57433000  *
    15       C          4.83077000  *  -5.21909000  *  -4.46710000  *
    16       C          4.54177000  *  -4.64460000  *  -3.23258000  *
    17       N          4.46985000  *  -3.29222000  *  -3.10594000  *
    18       H          5.11180000  *  -2.34671000  *  -6.27900000  *
    19       H          5.27592000  *  -4.83598000  *  -6.55202000  *
    20       H          4.88621000  *  -6.30896000  *  -4.55904000  *
    21       H          1.57447000  *   0.24398000  *  -0.61214000  *
    22       H          1.66175000  *  -2.35257000  *   1.97643000  *
    23       H          4.36267000  *  -5.25396000  *  -2.32769000  *
    24       H          4.58436000  *  -1.38780000  *  -4.00750000  *
    25       H          4.24103000  *  -2.71660000  *  -0.06311000  *
    26       H          4.27265000  *  -2.86165000  *  -2.15238000  *
    27       O          4.04546000  *  -2.12565000  *  -0.83098000  *



          CARTESIAN COORDINATES 

    NO.       ATOM           X           Y           Z

     1         C          0.8514     -0.5412     -0.8671
     2         H          1.0022     -0.7884     -1.9277
     3         N          0.7336     -2.9417     -0.4372
     4         O          0.6058     -3.1747     -1.6792
     5         O          0.6607     -3.9505      0.3354
     6         H          1.7865     -0.6125      1.6749
     7         C          0.9741     -1.7256      0.0278
     8         H          3.0674     -2.0718     -0.7762
     9         H         -0.1517     -0.0907     -0.7862
    10         C          1.1675     -1.5003      1.4868
    11         H          0.2099     -1.3429      2.0040
    12         C          4.6667     -2.4758     -4.1749
    13         C          4.9571     -3.0139     -5.4251
    14         C          5.0460     -4.3980     -5.5743
    15         C          4.8308     -5.2191     -4.4671
    16         C          4.5418     -4.6446     -3.2326
    17         N          4.4699     -3.2922     -3.1059
    18         H          5.1118     -2.3467     -6.2790
    19         H          5.2759     -4.8360     -6.5520
    20         H          4.8862     -6.3090     -4.5590
    21         H          1.5745      0.2440     -0.6121
    22         H          1.6618     -2.3526      1.9764
    23         H          4.3627     -5.2540     -2.3277
    24         H          4.5844     -1.3878     -4.0075
    25         H          4.2410     -2.7166     -0.0631
    26         H          4.2726     -2.8617     -2.1524
    27         O          4.0455     -2.1256     -0.8310

 General Reference for PM7:
 "Optimization of Parameters for Semiempirical Methods VI: More Modifications to the 
 NDDO Approximations and Re-optimization of Parameters", J. J. P. Stewart, J. Mol. Mod., 1:32, 19 (2013)
 https://link.springer.com/article/10.1007/s00894-012-1667-x

           Empirical Formula: C8 H14 N2 O3  =    27 atoms



      MOLECULAR POINT GROUP   :   C1  


 SINGLET STATE CALCULATION


      RHF CALCULATION, NO. OF DOUBLY OCCUPIED LEVELS = 37


          Geometry optimization using EF
  SCF CRITERION =    0.1000E-03

          DIAGONAL MATRIX USED AS START HESSIAN

 CYCLE:     1 TIME:   0.254 TIME LEFT:  2.00W  GRAD.:    19.304 HEAT: -72.08295

     TRUST RADIUS NOW LESS THAN  0.00010 OPTIMIZATION TERMINATING
      THE GEOMETRY MAY NOT BE COMPLETELY OPTIMIZED
      (TO CONTINUE, ADD 'LET DDMIN=0.0' TO THE KEYWORD LINE)

 -------------------------------------------------------------------------------
 PM7 BONDS AUX DUMP=30M ITRY=15000 T=14D CHARGE=0 SINGLET eps=78.4 RELSCF=1
 Title: ASE calculation



     GEOMETRY OPTIMISED USING EIGENVECTOR FOLLOWING (EF).     
     SCF FIELD WAS ACHIEVED                                   


                              PM7 CALCULATION
                                                       MOPAC v22.0.6 Linux
                                                       Tue Mar 26 11:52:51 2024




          FINAL HEAT OF FORMATION =        -72.08295 KCAL/MOL =    -301.59508 KJ/MOL
          VAN DER WAALS AREA      =        235.22 SQUARE ANGSTROMS



          DIELECTRIC ENERGY       =         -2.42587 EV
          COSMO AREA              =        235.22 SQUARE ANGSTROMS
          COSMO VOLUME            =        250.10 CUBIC ANGSTROMS

          GRADIENT NORM           =         19.30364          =       3.71499 PER ATOM
          IONIZATION POTENTIAL    =          8.332709 EV
          HOMO LUMO ENERGIES (EV) =         -8.333 -1.276
          NO. OF FILLED LEVELS    =         37
          MOLECULAR WEIGHT        =        186.2102         POINT GROUP:  C1  

          MOLECULAR DIMENSIONS (Angstroms)

            Atom       Atom       Distance
            H    19    H    11    10.53907
            H     9    H    23     4.80303
            O     5    H    24     3.67582


          SCF CALCULATIONS        =         13

          WALL-CLOCK TIME         =      1.379 SECONDS
          COMPUTATION TIME        =     22.541 SECONDS



       FINAL  POINT  AND  DERIVATIVES

   PARAMETER     ATOM    TYPE            VALUE        GRADIENT
      1          1  C    CARTESIAN X     0.851440     -0.714090  KCAL/ANGSTROM
      2          1  C    CARTESIAN Y    -0.541220     -0.075658  KCAL/ANGSTROM
      3          1  C    CARTESIAN Z    -0.867140     -0.044410  KCAL/ANGSTROM
      4          2  H    CARTESIAN X     1.002200     -0.748698  KCAL/ANGSTROM
      5          2  H    CARTESIAN Y    -0.788420      0.390245  KCAL/ANGSTROM
      6          2  H    CARTESIAN Z    -1.927660      0.171378  KCAL/ANGSTROM
      7          3  N    CARTESIAN X     0.733590     -2.179099  KCAL/ANGSTROM
      8          3  N    CARTESIAN Y    -2.941680      3.216567  KCAL/ANGSTROM
      9          3  N    CARTESIAN Z    -0.437160     -0.088782  KCAL/ANGSTROM
     10          4  O    CARTESIAN X     0.605840      0.691172  KCAL/ANGSTROM
     11          4  O    CARTESIAN Y    -3.174740     -0.538299  KCAL/ANGSTROM
     12          4  O    CARTESIAN Z    -1.679150     -0.850275  KCAL/ANGSTROM
     13          5  O    CARTESIAN X     0.660660     -1.799087  KCAL/ANGSTROM
     14          5  O    CARTESIAN Y    -3.950500     -2.040844  KCAL/ANGSTROM
     15          5  O    CARTESIAN Z     0.335380      1.540675  KCAL/ANGSTROM
     16          6  H    CARTESIAN X     1.786520     -0.622169  KCAL/ANGSTROM
     17          6  H    CARTESIAN Y    -0.612450     -0.026065  KCAL/ANGSTROM
     18          6  H    CARTESIAN Z     1.674890     -0.112927  KCAL/ANGSTROM
     19          7  C    CARTESIAN X     0.974130      5.572095  KCAL/ANGSTROM
     20          7  C    CARTESIAN Y    -1.725590     -1.597444  KCAL/ANGSTROM
     21          7  C    CARTESIAN Z     0.027840      0.132146  KCAL/ANGSTROM
     22          8  H    CARTESIAN X     3.067390      1.365946  KCAL/ANGSTROM
     23          8  H    CARTESIAN Y    -2.071820     -3.437125  KCAL/ANGSTROM
     24          8  H    CARTESIAN Z    -0.776170     -0.830587  KCAL/ANGSTROM
     25          9  H    CARTESIAN X    -0.151740     -0.621898  KCAL/ANGSTROM
     26          9  H    CARTESIAN Y    -0.090740      0.138433  KCAL/ANGSTROM
     27          9  H    CARTESIAN Z    -0.786150     -0.081952  KCAL/ANGSTROM
     28         10  C    CARTESIAN X     1.167510     -0.416478  KCAL/ANGSTROM
     29         10  C    CARTESIAN Y    -1.500330      0.104812  KCAL/ANGSTROM
     30         10  C    CARTESIAN Z     1.486840      0.552534  KCAL/ANGSTROM
     31         11  H    CARTESIAN X     0.209920      0.469392  KCAL/ANGSTROM
     32         11  H    CARTESIAN Y    -1.342850      0.032271  KCAL/ANGSTROM
     33         11  H    CARTESIAN Z     2.004010      0.011095  KCAL/ANGSTROM
     34         12  C    CARTESIAN X     4.666660     -0.334332  KCAL/ANGSTROM
     35         12  C    CARTESIAN Y    -2.475750     -0.544072  KCAL/ANGSTROM
     36         12  C    CARTESIAN Z    -4.174940      1.884325  KCAL/ANGSTROM
     37         13  C    CARTESIAN X     4.957100     -0.036549  KCAL/ANGSTROM
     38         13  C    CARTESIAN Y    -3.013890      0.010427  KCAL/ANGSTROM
     39         13  C    CARTESIAN Z    -5.425140      1.141526  KCAL/ANGSTROM
     40         14  C    CARTESIAN X     5.045960      0.243523  KCAL/ANGSTROM
     41         14  C    CARTESIAN Y    -4.398050      0.182804  KCAL/ANGSTROM
     42         14  C    CARTESIAN Z    -5.574330      0.236093  KCAL/ANGSTROM
     43         15  C    CARTESIAN X     4.830770      0.114298  KCAL/ANGSTROM
     44         15  C    CARTESIAN Y    -5.219090      0.566069  KCAL/ANGSTROM
     45         15  C    CARTESIAN Z    -4.467100      0.433866  KCAL/ANGSTROM
     46         16  C    CARTESIAN X     4.541770     -0.110715  KCAL/ANGSTROM
     47         16  C    CARTESIAN Y    -4.644600      1.367338  KCAL/ANGSTROM
     48         16  C    CARTESIAN Z    -3.232580      0.613032  KCAL/ANGSTROM
     49         17  N    CARTESIAN X     4.469850     -0.840661  KCAL/ANGSTROM
     50         17  N    CARTESIAN Y    -3.292220      1.704315  KCAL/ANGSTROM
     51         17  N    CARTESIAN Z    -3.105940      3.990192  KCAL/ANGSTROM
     52         18  H    CARTESIAN X     5.111800     -0.196570  KCAL/ANGSTROM
     53         18  H    CARTESIAN Y    -2.346710      0.064842  KCAL/ANGSTROM
     54         18  H    CARTESIAN Z    -6.279000      0.438421  KCAL/ANGSTROM
     55         19  H    CARTESIAN X     5.275920     -0.107240  KCAL/ANGSTROM
     56         19  H    CARTESIAN Y    -4.835980      0.005379  KCAL/ANGSTROM
     57         19  H    CARTESIAN Z    -6.552020      0.233259  KCAL/ANGSTROM
     58         20  H    CARTESIAN X     4.886210     -0.093990  KCAL/ANGSTROM
     59         20  H    CARTESIAN Y    -6.308960      0.272576  KCAL/ANGSTROM
     60         20  H    CARTESIAN Z    -4.559040      0.226737  KCAL/ANGSTROM
     61         21  H    CARTESIAN X     1.574470     -1.274691  KCAL/ANGSTROM
     62         21  H    CARTESIAN Y     0.243980      0.048537  KCAL/ANGSTROM
     63         21  H    CARTESIAN Z    -0.612140     -0.139385  KCAL/ANGSTROM
     64         22  H    CARTESIAN X     1.661750     -0.241381  KCAL/ANGSTROM
     65         22  H    CARTESIAN Y    -2.352570      0.046796  KCAL/ANGSTROM
     66         22  H    CARTESIAN Z     1.976430     -0.112814  KCAL/ANGSTROM
     67         23  H    CARTESIAN X     4.362670     -0.425620  KCAL/ANGSTROM
     68         23  H    CARTESIAN Y    -5.253960      0.028804  KCAL/ANGSTROM
     69         23  H    CARTESIAN Z    -2.327690      0.173400  KCAL/ANGSTROM
     70         24  H    CARTESIAN X     4.584360     -0.346079  KCAL/ANGSTROM
     71         24  H    CARTESIAN Y    -1.387800     -0.270574  KCAL/ANGSTROM
     72         24  H    CARTESIAN Z    -4.007500      0.291327  KCAL/ANGSTROM
     73         25  H    CARTESIAN X     4.241030     -4.376462  KCAL/ANGSTROM
     74         25  H    CARTESIAN Y    -2.716600     -3.846364  KCAL/ANGSTROM
     75         25  H    CARTESIAN Z    -0.063110      4.286703  KCAL/ANGSTROM
     76         26  H    CARTESIAN X     4.272650     -0.322131  KCAL/ANGSTROM
     77         26  H    CARTESIAN Y    -2.861650      0.345087  KCAL/ANGSTROM
     78         26  H    CARTESIAN Z    -2.152380     -2.338471  KCAL/ANGSTROM
     79         27  O    CARTESIAN X     4.045460      7.351710  KCAL/ANGSTROM
     80         27  O    CARTESIAN Y    -2.125650      3.851342  KCAL/ANGSTROM
     81         27  O    CARTESIAN Z    -0.830980    -11.756953  KCAL/ANGSTROM




   ATOM   CHEMICAL          X               Y               Z
  NUMBER   SYMBOL      (ANGSTROMS)     (ANGSTROMS)     (ANGSTROMS)

     1       C          0.85144000  *  -0.54122000  *  -0.86714000  *
     2       H          1.00220000  *  -0.78842000  *  -1.92766000  *
     3       N          0.73359000  *  -2.94168000  *  -0.43716000  *
     4       O          0.60584000  *  -3.17474000  *  -1.67915000  *
     5       O          0.66066000  *  -3.95050000  *   0.33538000  *
     6       H          1.78652000  *  -0.61245000  *   1.67489000  *
     7       C          0.97413000  *  -1.72559000  *   0.02784000  *
     8       H          3.06739000  *  -2.07182000  *  -0.77617000  *
     9       H         -0.15174000  *  -0.09074000  *  -0.78615000  *
    10       C          1.16751000  *  -1.50033000  *   1.48684000  *
    11       H          0.20992000  *  -1.34285000  *   2.00401000  *
    12       C          4.66666000  *  -2.47575000  *  -4.17494000  *
    13       C          4.95710000  *  -3.01389000  *  -5.42514000  *
    14       C          5.04596000  *  -4.39805000  *  -5.57433000  *
    15       C          4.83077000  *  -5.21909000  *  -4.46710000  *
    16       C          4.54177000  *  -4.64460000  *  -3.23258000  *
    17       N          4.46985000  *  -3.29222000  *  -3.10594000  *
    18       H          5.11180000  *  -2.34671000  *  -6.27900000  *
    19       H          5.27592000  *  -4.83598000  *  -6.55202000  *
    20       H          4.88621000  *  -6.30896000  *  -4.55904000  *
    21       H          1.57447000  *   0.24398000  *  -0.61214000  *
    22       H          1.66175000  *  -2.35257000  *   1.97643000  *
    23       H          4.36267000  *  -5.25396000  *  -2.32769000  *
    24       H          4.58436000  *  -1.38780000  *  -4.00750000  *
    25       H          4.24103000  *  -2.71660000  *  -0.06311000  *
    26       H          4.27265000  *  -2.86165000  *  -2.15238000  *
    27       O          4.04546000  *  -2.12565000  *  -0.83098000  *

                             CARTESIAN COORDINATES

   1    C        0.851440000    -0.541220000    -0.867140000
   2    H        1.002200000    -0.788420000    -1.927660000
   3    N        0.733590000    -2.941680000    -0.437160000
   4    O        0.605840000    -3.174740000    -1.679150000
   5    O        0.660660000    -3.950500000     0.335380000
   6    H        1.786520000    -0.612450000     1.674890000
   7    C        0.974130000    -1.725590000     0.027840000
   8    H        3.067390000    -2.071820000    -0.776170000
   9    H       -0.151740000    -0.090740000    -0.786150000
  10    C        1.167510000    -1.500330000     1.486840000
  11    H        0.209920000    -1.342850000     2.004010000
  12    C        4.666660000    -2.475750000    -4.174940000
  13    C        4.957100000    -3.013890000    -5.425140000
  14    C        5.045960000    -4.398050000    -5.574330000
  15    C        4.830770000    -5.219090000    -4.467100000
  16    C        4.541770000    -4.644600000    -3.232580000
  17    N        4.469850000    -3.292220000    -3.105940000
  18    H        5.111800000    -2.346710000    -6.279000000
  19    H        5.275920000    -4.835980000    -6.552020000
  20    H        4.886210000    -6.308960000    -4.559040000
  21    H        1.574470000     0.243980000    -0.612140000
  22    H        1.661750000    -2.352570000     1.976430000
  23    H        4.362670000    -5.253960000    -2.327690000
  24    H        4.584360000    -1.387800000    -4.007500000
  25    H        4.241030000    -2.716600000    -0.063110000
  26    H        4.272650000    -2.861650000    -2.152380000
  27    O        4.045460000    -2.125650000    -0.830980000


           Empirical Formula: C8 H14 N2 O3  =    27 atoms



      MOLECULAR POINT GROUP   :   C1  


                  EIGENVALUES  
 -38.68233 -35.49403 -30.08790 -29.57209 -27.65012 -27.54122 -27.45871 -24.16620
 -23.99578 -23.44478 -22.98050 -20.30792 -19.00466 -17.99466 -17.50190 -17.07049
 -16.81699 -16.45859 -16.21023 -16.13859 -15.69175 -15.46923 -15.15119 -13.94282
 -13.61204 -13.57399 -13.31993 -13.22134 -13.15093 -12.62646 -12.24377 -11.80750
 -11.04798 -10.69885 -10.52556 -10.33856  -8.33271  -1.27637  -0.92797   1.22568
   1.39186   1.43969   2.36007   3.13444   3.36940   3.61135   3.69088   4.10095
   4.13509   4.26330   4.63162   4.74904   4.84090   5.29402   5.49165   5.56015
   5.71319   5.78187   5.83039   5.87698   5.91307   5.93715   6.03994   6.51427
   6.98955   7.18469


              NET ATOMIC CHARGES AND DIPOLE CONTRIBUTIONS

  ATOM NO.   TYPE          CHARGE      No. of ELECS.   s-Pop       p-Pop       
    1          C          -0.415895        4.4159     1.04405     3.37184
    2          H           0.156089        0.8439     0.84391
    3          N           0.646898        4.3531     1.42386     2.92924
    4          O          -0.742593        6.7426     1.94685     4.79575
    5          O          -0.753535        6.7535     1.94690     4.80664
    6          H           0.152222        0.8478     0.84778
    7          C          -0.238368        4.2384     1.04065     3.19772
    8          H           0.375653        0.6243     0.62435
    9          H           0.153175        0.8468     0.84682
   10          C          -0.406387        4.4064     1.04338     3.36300
   11          H           0.151724        0.8483     0.84828
   12          C           0.059150        3.9409     1.10665     2.83420
   13          C          -0.191539        4.1915     1.09238     3.09916
   14          C          -0.025233        4.0252     1.10265     2.92259
   15          C          -0.186745        4.1867     1.09242     3.09433
   16          C           0.058463        3.9415     1.10793     2.83361
   17          N          -0.203134        5.2031     1.52706     3.67607
   18          H           0.201385        0.7986     0.79861
   19          H           0.188881        0.8111     0.81112
   20          H           0.204187        0.7958     0.79581
   21          H           0.153020        0.8470     0.84698
   22          H           0.155183        0.8448     0.84482
   23          H           0.227133        0.7729     0.77287
   24          H           0.220548        0.7795     0.77945
   25          H           0.394582        0.6054     0.60542
   26          H           0.378416        0.6216     0.62158
   27          O          -0.713278        6.7133     1.82499     4.88829
 DIPOLE           X         Y         Z       TOTAL
 POINT-CHG.    17.480     1.148   -11.349    20.872
 HYBRID        -0.324    -0.472     0.198     0.606
 SUM           17.156     0.676   -11.152    20.473


          ATOMIC ORBITAL ELECTRON POPULATIONS

     Atom    s        px        py        pz   
    1  C   1.04405   1.17620   1.07061   1.12504
    2  H   0.84391
    3  N   1.42386   1.01417   0.98797   0.92710
    4  O   1.94685   1.80152   1.92316   1.07107
    5  O   1.94690   1.80871   1.40302   1.59490
    6  H   0.84778
    7  C   1.04065   1.34752   0.86172   0.98848
    8  H   0.62435
    9  H   0.84682
   10  C   1.04338   1.17302   1.17564   1.01434
   11  H   0.84828
   12  C   1.10665   0.90635   1.03660   0.89125
   13  C   1.09238   1.00677   1.03644   1.05595
   14  C   1.10265   0.85899   0.98964   1.07395
   15  C   1.09242   1.00300   1.11883   0.97251
   16  C   1.10793   0.91301   0.84926   1.07134
   17  N   1.52706   1.33178   1.12416   1.22013
   18  H   0.79861
   19  H   0.81112
   20  H   0.79581
   21  H   0.84698
   22  H   0.84482
   23  H   0.77287
   24  H   0.77945
   25  H   0.60542
   26  H   0.62158
   27  O   1.82499   1.46587   1.78329   1.63913

          BONDING CONTRIBUTION OF EACH M.O.

  1.4347  1.4200  1.4077  1.5639  1.7378  1.0551  1.8903  1.1398  1.9015  1.8681
  1.9574  1.8881  1.1610  1.6014  2.0631  1.8307  1.1922  1.8344  1.8077  1.4485
  1.8115  1.9959  0.8829  1.5771  1.8716  1.3273  2.0180  1.9032  1.8453  0.9547
  1.9554  1.9378  2.0959  0.3876  0.4405  0.2519  1.1310 -2.0002 -1.9144 -1.9118
 -1.9371 -2.5190 -2.1406 -1.8529 -1.8944 -1.8538 -2.0047 -1.9626 -1.8929 -1.9918
 -1.8825 -1.9865 -1.9348 -1.9336 -1.9151 -1.9343 -1.7809 -1.7590 -1.9688 -1.9736
 -1.9700 -1.9668 -1.9519 -1.9369 -1.9091 -1.9112





            (VALENCIES)   BOND ORDERS

     1  C     (3.926)     7  C 1.003    21  H 0.965     2  H 0.965     9  H 0.962     5  O 0.014

     2  H     (0.976)     1  C 0.965

     3  N     (3.808)     7  C 1.471     4  O 1.148     5  O 1.140

     4  O     (1.464)     3  N 1.148     7  C 0.159     5  O 0.134    10  C 0.013

     5  O     (1.452)     3  N 1.140     7  C 0.155     4  O 0.134     1  C 0.014

     6  H     (0.977)    10  C 0.965

     7  C     (3.811)     3  N 1.471    10  C 1.004     1  C 1.003     4  O 0.159     5  O 0.155     8  H 0.011

     8  H     (0.859)    27  O 0.838     7  C 0.011

     9  H     (0.977)     1  C 0.962

    10  C     (3.927)     7  C 1.004     6  H 0.965    22  H 0.965    11  H 0.963     4  O 0.013

    11  H     (0.977)    10  C 0.963

    12  C     (3.898)    13  C 1.458    17  N 1.319    24  H 0.934    15  C 0.105    16  C 0.038    14  C 0.015

    13  C     (3.961)    12  C 1.458    14  C 1.426    18  H 0.946    16  C 0.105

    14  C     (3.940)    13  C 1.426    15  C 1.425    19  H 0.952    17  N 0.097    16  C 0.015    12  C 0.015

    15  C     (3.960)    16  C 1.459    14  C 1.425    20  H 0.944    12  C 0.105

    16  C     (3.893)    15  C 1.459    17  N 1.314    23  H 0.931    13  C 0.105    12  C 0.038    14  C 0.015

    17  N     (3.524)    12  C 1.319    16  C 1.314    26  H 0.724    14  C 0.097    27  O 0.036

    18  H     (0.959)    13  C 0.946

    19  H     (0.964)    14  C 0.952

    20  H     (0.958)    15  C 0.944

    21  H     (0.977)     1  C 0.965

    22  H     (0.976)    10  C 0.965

    23  H     (0.948)    16  C 0.931

    24  H     (0.951)    12  C 0.934

    25  H     (0.844)    27  O 0.839

    26  H     (0.857)    17  N 0.724    27  O 0.098

    27  O     (1.828)    25  H 0.839     8  H 0.838    26  H 0.098    17  N 0.036


 **********************
 *                    *
 * JOB ENDED NORMALLY *
 *                    *
 **********************



 TOTAL JOB TIME:             1.39 SECONDS

 == MOPAC DONE ==
