 *******************************************************************************
 **                                                                           **
 **                              MOPAC v22.0.6                                **
 **                                                                           **
 *******************************************************************************
 **          Digital Object Identifier (DOI): 10.5281/zenodo.6511958          **
 **    Visit the DOI location for information on how to cite this program.    **
 *******************************************************************************

                              PM7 CALCULATION RESULTS

 *******************************************************************************
 *  CALCULATION DONE:                                Tue Mar 26 11:49:58 2024  *
 *  PM7        - The PM7 Hamiltonian to be used
 *  SINGLET    - SPIN STATE DEFINED AS A SINGLET
 *
 *
 *
 *                 CHARGE ON SYSTEM = 0
 *
 *
 *
 *  EPS=78.4   - USE ANDREAS KLAMT'S COSMO IMPLICIT SOLVATION MODEL
 *  SADDLE     - TRANSITION STATE TO BE OPTIMIZED
 *  T=         - A TIME OF 14.0 DAYS REQUESTED
 *  DUMP=N     - RESTART FILE WRITTEN EVERY 30.0 MINUTES REQUESTED
 *  RELSCF     - DEFAULT SCF CRITERION MULTIPLIED BY 1.0000
 *              (DEFAULT SCF CRITERION = 0.00010)
 *  ITRY=      - DO A MAXIMUM OF 15000 ITERATIONS FOR SCF
 *  AUX        - OUTPUT AUXILIARY INFORMATION
 *  BONDS      - FINAL BOND-ORDER MATRIX TO BE PRINTED
 *******************************************************************************
SADDLE PM7 BONDS AUX DUMP=30M ITRY=15000 T=14D CHARGE=0 SINGLET eps=78.4 RELSCF=1


   ATOM   CHEMICAL          X               Y               Z
  NUMBER   SYMBOL      (ANGSTROMS)     (ANGSTROMS)     (ANGSTROMS)

     1       C         -0.08605000  *  -0.46341000  *   0.17799000  *
     2       H         -0.07163000  *  -0.91773000  *  -0.81574000  *
     3       N         -0.17269000  *  -2.70545000  *   1.20686000  *
     4       O         -0.60634000  *  -3.12794000  *   0.14742000  *
     5       O         -0.16502000  *  -3.39455000  *   2.21888000  *
     6       H         -0.48249000  *   1.27946000  *   1.35115000  *
     7       C          0.37671000  *  -1.34040000  *   1.29515000  *
     8       H          1.50921000  *  -1.41818000  *   1.28183000  *
     9       H          0.13517000  *  -0.91747000  *   2.30647000  *
    10       C         -0.45595000  *   0.79918000  *   0.38202000  *
    11       H         -0.76132000  *   1.46427000  *  -0.41555000  *
    12       C          6.69408000  *  -3.15063000  *   0.76359000  *
    13       C          8.08913000  *  -3.20744000  *   0.67950000  *
    14       C          8.79121000  *  -2.03261000  *   0.41527000  *
    15       C          8.08581000  *  -0.84334000  *   0.24072000  *
    16       C          6.68989000  *  -0.86978000  *   0.33821000  *
    17       N          6.00582000  *  -2.00272000  *   0.59561000  *
    18       H          6.09365000  *  -4.04736000  *   0.97126000  *
    19       H          8.61154000  *  -4.15346000  *   0.81692000  *
    20       H          8.60513000  *   0.09114000  *   0.03156000  *
    21       H          6.08857000  *   0.03973000  *   0.20631000  *
    22       H          9.88182000  *  -2.04542000  *   0.34581000  *
    23       H          3.06721000  *  -3.43066000  *   0.84365000  *
    24       H          3.99734000  *  -2.27534000  *   0.49713000  *
    25       O          3.07347000  *  -2.56449000  *   0.42372000  *



          CARTESIAN COORDINATES 

    NO.       ATOM           X           Y           Z

     1         C         -0.0861     -0.4634      0.1780
     2         H         -0.0716     -0.9177     -0.8157
     3         N         -0.1727     -2.7054      1.2069
     4         O         -0.6063     -3.1279      0.1474
     5         O         -0.1650     -3.3946      2.2189
     6         H         -0.4825      1.2795      1.3512
     7         C          0.3767     -1.3404      1.2952
     8         H          1.5092     -1.4182      1.2818
     9         H          0.1352     -0.9175      2.3065
    10         C         -0.4560      0.7992      0.3820
    11         H         -0.7613      1.4643     -0.4156
    12         C          6.6941     -3.1506      0.7636
    13         C          8.0891     -3.2074      0.6795
    14         C          8.7912     -2.0326      0.4153
    15         C          8.0858     -0.8433      0.2407
    16         C          6.6899     -0.8698      0.3382
    17         N          6.0058     -2.0027      0.5956
    18         H          6.0937     -4.0474      0.9713
    19         H          8.6115     -4.1535      0.8169
    20         H          8.6051      0.0911      0.0316
    21         H          6.0886      0.0397      0.2063
    22         H          9.8818     -2.0454      0.3458
    23         H          3.0672     -3.4307      0.8437
    24         H          3.9973     -2.2753      0.4971
    25         O          3.0735     -2.5645      0.4237

 General Reference for PM7:
 "Optimization of Parameters for Semiempirical Methods VI: More Modifications to the 
 NDDO Approximations and Re-optimization of Parameters", J. J. P. Stewart, J. Mol. Mod., 1:32, 19 (2013)
 https://link.springer.com/article/10.1007/s00894-012-1667-x

           Empirical Formula: C8 H12 N2 O3  =    25 atoms



      MOLECULAR POINT GROUP   :   C1  


 SINGLET STATE CALCULATION


      RHF CALCULATION, NO. OF DOUBLY OCCUPIED LEVELS = 36



  CARTESIAN GEOMETRY OF FIRST SYSTEM


   1    C          0.36961      -0.43282       0.20772
   2    H          0.54574      -1.06848      -0.66769
   3    N          0.62852      -2.39602       1.61564
   4    O          0.74821      -3.15269       0.61942
   5    O          0.66572      -2.93530       2.75477
   6    H         -0.12564       1.52723       0.89487
   7    C          0.47364      -1.07500       1.49462
   8    H          2.49599      -0.52968       1.93133
   9    H          0.35990      -0.48022       2.39741
  10    C          0.05540       0.86139       0.06865
  11    H         -0.03757       1.35067      -0.88516
  12    C          5.92862       0.72826       3.84439
  13    C          6.97772       1.51351       4.31347
  14    C          6.93185       2.89678       4.13804
  15    C          5.82993       3.46816       3.50139
  16    C          4.79920       2.65004       3.04554
  17    N          4.86383       1.30292       3.22121
  18    H          5.91889      -0.37182       3.95800
  19    H          7.82951       1.03937       4.81223
  20    H          5.76766       4.55126       3.35452
  21    H          3.90628       3.05426       2.53500
  22    H          7.75352       3.52705       4.49585
  23    H          3.70486      -1.35246       2.40984
  24    H          4.09001       0.67944       2.83381
  25    O          3.47355      -0.52819       1.94787


  CARTESIAN GEOMETRY OF SECOND SYSTEM


   1    C          0.20994      -0.42024       0.07834
   2    H          0.91161      -0.76393      -0.68564
   3    N          0.74103      -2.39482       1.46103
   4    O          1.12880      -2.94858       0.44519
   5    O          0.59930      -3.00619       2.51234
   6    H         -1.48045       0.80258       0.54560
   7    C          0.44395      -0.95096       1.45488
   8    H          1.32116      -0.41186       1.93307
   9    H         -0.41802      -0.75559       2.14685
  10    C         -0.76900       0.44262      -0.18573
  11    H         -0.93649       0.86780      -1.16699
  12    C          6.21912       0.90816       4.03552
  13    C          7.31297       1.60741       4.55610
  14    C          7.38743       2.98354       4.34710
  15    C          6.37670       3.61780       3.62698
  16    C          5.31607       2.84729       3.13691
  17    N          5.23787       1.51639       3.33781
  18    H          6.11196      -0.17686       4.17341
  19    H          8.08916       1.08228       5.11153
  20    H          6.40665       4.69148       3.44533
  21    H          4.49683       3.29928       2.56180
  22    H          8.22907       3.55703       4.74355
  23    H          3.64770      -1.26669       2.65828
  24    H          3.93843       0.21735       2.47643
  25    O          3.43315      -0.51764       2.09301


   "DISTANCE":     3.253680


  REACTION COORDINATE VECTOR


   1    C          0.15966      -0.01258       0.12938
   2    H         -0.36587      -0.30454       0.01794
   3    N         -0.11251      -0.00121       0.15461
   4    O         -0.38059      -0.20411       0.17424
   5    O          0.06642       0.07089       0.24244
   6    H          1.35480       0.72464       0.34926
   7    C          0.02969      -0.12404       0.03973
   8    H          1.17484      -0.11782      -0.00174
   9    H          0.77792       0.27536       0.25056
  10    C          0.82440       0.41877       0.25438
  11    H          0.89892       0.48287       0.28183
  12    C         -0.29050      -0.17990      -0.19114
  13    C         -0.33525      -0.09391      -0.24263
  14    C         -0.45558      -0.08676      -0.20906
  15    C         -0.54678      -0.14964      -0.12559
  16    C         -0.51687      -0.19725      -0.09138
  17    N         -0.37404      -0.21347      -0.11660
  18    H         -0.19308      -0.19496      -0.21541
  19    H         -0.25966      -0.04290      -0.29930
  20    H         -0.63900      -0.14022      -0.09081
  21    H         -0.59055      -0.24501      -0.02681
  22    H         -0.47555      -0.02999      -0.24771
  23    H          0.05717      -0.08577      -0.24844
  24    H          0.15158       0.46208       0.35737
  25    O          0.04040      -0.01055      -0.14514
 *+*+*+*+*+*+*+*+*+*+*+*+*+*+*+*+*+*+*+*+*+*+*+*+*+*+*+*+*+*+*+*+*+*+*+*+*+*+*+*+
            BAR SHORTENED BY       0.000 PERCENT
 GRADIENT CRITERION IN FLEPO =     1.000
  SCF CRITERION =    0.1000E-03
 

                    SINCE COS WAS JUST RESET,THE SEARCH IS BEING ENDED


          FOR POINT    1 SECOND STRUCTURE
 DISTANCE A - B      3.253680
 HEAT              -49.190555
 GRADIENT NORM       5.139390
 DIRECTION COSINE    0.000011
* ===============================
* Input file for Mopac
* ===============================
 PM7 BONDS AUX DUMP=30M ITRY=15000 T=14D CHARGE=0 SINGLET eps=78.4 RELSCF=1


  C     0.00000000 +0    0.0000000 +0    0.0000000 +0     0     0     0
  H     1.09609746 +1    0.0000000 +0    0.0000000 +0     1     0     0
  N     2.42970100 +1   88.6873549 +1    0.0000000 +0     1     2     0
  O     1.25671141 +1   92.1373325 +1   -3.8904213 +1     3     1     2
  O     1.26087896 +1  150.7194837 +1  178.3350819 +1     3     1     2
  H     2.13523486 +1  145.7549421 +1 -175.7062510 +1     1     2     3
  C     1.33556199 +1   30.2232916 +1  173.5748630 +1     3     1     2
  H     2.13962633 +1   97.1223744 +1 -103.9241610 +1     7     3     1
  H     1.08707571 +1  118.5584336 +1  176.0386522 +1     7     3     1
  C     1.07645012 +1   31.3712405 +1    0.1286662 +1     6     1     2
  H     1.07601035 +1  112.6171877 +1 -179.6447533 +1    10     6     1
  C     4.12615055 +1  163.4668719 +1  -99.0055774 +1     8     7     3
  C     1.39185899 +1  162.8056304 +1  -96.2753528 +1    12     8     7
  C     1.39510987 +1  119.4872033 +1    9.7571587 +1    13    12     8
  C     1.39500280 +1  119.3058925 +1    0.3575795 +1    14    13    12
  C     1.39266800 +1  119.5635722 +1   -0.3556477 +1    15    14    13
  N     1.36005600 +1  120.2923599 +1    0.1162835 +1    16    15    14
  H     1.10597314 +1   74.7555020 +1   92.3392333 +1    12     8     7
  H     1.09503585 +1  119.7046864 +1 -170.0532250 +1    13    12     8
  H     1.09478780 +1  120.7552055 +1  179.7734259 +1    15    14    13
  H     1.10515272 +1  122.2978893 +1 -179.9612613 +1    16    15    14
  H     1.09562367 +1  120.3082067 +1 -179.5783316 +1    14    13    12
  H     1.53860628 +1  132.0525333 +1   -7.0190776 +1     8     7     3
  H     1.06658780 +1  119.8419613 +1 -177.4808007 +1    17    16    15
  O     0.97280756 +1   38.0363053 +1  157.2227594 +1    23     8     7

 TIME=     0.27
  REACTANTS AND PRODUCTS SWAPPED AROUND
 *+*+*+*+*+*+*+*+*+*+*+*+*+*+*+*+*+*+*+*+*+*+*+*+*+*+*+*+*+*+*+*+*+*+*+*+*+*+*+*+
            BAR SHORTENED BY       1.000 PERCENT
 GRADIENT CRITERION IN FLEPO =     2.139


          FOR POINT    2 FIRST  STRUCTURE
 DISTANCE A - B      3.221143
 HEAT              -49.180382
 GRADIENT NORM       4.417717
 DIRECTION COSINE   -0.291723
* ===============================
* Input file for Mopac
* ===============================
 PM7 BONDS AUX DUMP=30M ITRY=15000 T=14D CHARGE=0 SINGLET eps=78.4 RELSCF=1


  C     0.00000000 +0    0.0000000 +0    0.0000000 +0     0     0     0
  H     1.09330077 +1    0.0000000 +0    0.0000000 +0     1     0     0
  N     2.46797356 +1   89.9987995 +1    0.0000000 +0     1     2     0
  O     1.21965131 +1   87.9024763 +1  -21.5610990 +1     3     1     2
  O     1.22422969 +1  148.8808159 +1  175.2460254 +1     3     1     2
  H     2.13648686 +1  147.2351217 +1 -159.3578670 +1     1     2     3
  C     1.47420336 +1   34.0037795 +1  141.5261139 +1     3     1     2
  H     1.13240624 +1  107.8425537 +1 -121.2697072 +1     7     3     1
  H     1.12236266 +1  108.8938790 +1  125.7140881 +1     7     3     1
  C     1.08198659 +1   31.0343932 +1   -0.0406974 +1     6     1     2
  H     1.08231740 +1  112.4654678 +1 -179.4049553 +1    10     6     1
  C     5.48529886 +1  164.9972080 +1   13.6595732 +1     8     7     3
  C     1.39937802 +1  163.7369473 +1  169.4183249 +1    12     8     7
  C     1.39282423 +1  118.6789405 +1  -17.9023546 +1    13    12     8
  C     1.39299738 +1  119.2283546 +1   -0.1016338 +1    14    13    12
  C     1.40021124 +1  118.6957428 +1    0.0461892 +1    15    14    13
  N     1.34818494 +1  122.3481567 +1    0.0087124 +1    16    15    14
  H     1.09893176 +1   74.0478207 +1  -26.4710899 +1    12     8     7
  H     1.09008657 +1  120.3230166 +1  162.1528524 +1    13    12     8
  H     1.08907127 +1  121.0944830 +1  179.8141832 +1    15    14    13
  H     1.09869449 +1  121.5427711 +1 -179.9962363 +1    16    15    14
  H     1.09290284 +1  120.4020558 +1  179.8884671 +1    14    13    12
  H     2.58094395 +1  131.4252343 +1    8.3142766 +1     8     7     3
  H     1.52268574 +1   79.3276559 +1  157.2181786 +1    23     8     7
  O     0.96210485 +1   51.3956892 +1  128.0486204 +1    23     8     7

 TIME=     0.24
  REACTANTS AND PRODUCTS SWAPPED AROUND
 *+*+*+*+*+*+*+*+*+*+*+*+*+*+*+*+*+*+*+*+*+*+*+*+*+*+*+*+*+*+*+*+*+*+*+*+*+*+*+*+
            BAR SHORTENED BY       1.000 PERCENT
 GRADIENT CRITERION IN FLEPO =     1.418
           THERE HAVE BEEN 3 ATTEMPTS TO REDUCE THE GRADIENT.
           DURING THESE ATTEMPTS THE ENERGY DROPPED BY LESS THAN 0.3 KCAL/MOLE
           FURTHER CALCULATION IS NOT JUSTIFIED AT THIS TIME.
           TO CONTINUE, START AGAIN WITH THE WORD "PRECISE"


          FOR POINT    3 SECOND STRUCTURE
 DISTANCE A - B      3.188932
 HEAT              -49.173117
 GRADIENT NORM       6.426910
 DIRECTION COSINE   -0.121437
* ===============================
* Input file for Mopac
* ===============================
 PM7 BONDS AUX DUMP=30M ITRY=15000 T=14D CHARGE=0 SINGLET eps=78.4 RELSCF=1


  C     0.00000000 +0    0.0000000 +0    0.0000000 +0     0     0     0
  H     1.09713492 +1    0.0000000 +0    0.0000000 +0     1     0     0
  N     2.42814938 +1   88.6811464 +1    0.0000000 +0     1     2     0
  O     1.25705064 +1   92.1346523 +1   -4.1048846 +1     3     1     2
  O     1.26075947 +1  150.7976857 +1  177.9242631 +1     3     1     2
  H     2.13212358 +1  145.7466350 +1 -175.9408455 +1     1     2     3
  C     1.33635995 +1   30.2616679 +1  174.3347143 +1     3     1     2
  H     2.15556339 +1   96.2975735 +1 -102.8040204 +1     7     3     1
  H     1.08671195 +1  118.5848861 +1  177.9955967 +1     7     3     1
  C     1.07588491 +1   31.4885284 +1    0.1773746 +1     6     1     2
  H     1.07581394 +1  112.8237161 +1  179.9178092 +1    10     6     1
  C     4.13280983 +1  163.4817491 +1  -99.6967790 +1     8     7     3
  C     1.39178167 +1  162.8243194 +1  -95.3933831 +1    12     8     7
  C     1.39563755 +1  119.5792925 +1    9.3336349 +1    13    12     8
  C     1.39377181 +1  119.1945592 +1    0.3925893 +1    14    13    12
  C     1.39368483 +1  119.6426889 +1   -0.4274257 +1    15    14    13
  N     1.36036699 +1  120.3987919 +1    0.2317641 +1    16    15    14
  H     1.10487630 +1   74.7558891 +1   92.7203155 +1    12     8     7
  H     1.09516521 +1  119.7173020 +1 -170.5270766 +1    13    12     8
  H     1.09489732 +1  120.6620469 +1  179.9060186 +1    15    14    13
  H     1.10492849 +1  122.1953390 +1 -179.8923199 +1    16    15    14
  H     1.09400529 +1  120.2615373 +1 -179.5331379 +1    14    13    12
  H     1.53698884 +1  132.2567495 +1   -7.2233688 +1     8     7     3
  H     1.06566765 +1  119.9946238 +1 -177.6060177 +1    17    16    15
  O     0.97140073 +1  161.4932128 +1   42.2361843 +1     8     7     3

 TIME=     0.23
  REACTANTS AND PRODUCTS SWAPPED AROUND
 *+*+*+*+*+*+*+*+*+*+*+*+*+*+*+*+*+*+*+*+*+*+*+*+*+*+*+*+*+*+*+*+*+*+*+*+*+*+*+*+
            BAR SHORTENED BY       1.000 PERCENT
 GRADIENT CRITERION IN FLEPO =     3.427


          FOR POINT    4 FIRST  STRUCTURE
 DISTANCE A - B      3.157042
 HEAT              -49.138023
 GRADIENT NORM       3.856020
 DIRECTION COSINE    0.108383
* ===============================
* Input file for Mopac
* ===============================
 PM7 BONDS AUX DUMP=30M ITRY=15000 T=14D CHARGE=0 SINGLET eps=78.4 RELSCF=1


  C     0.00000000 +0    0.0000000 +0    0.0000000 +0     0     0     0
  H     1.09331296 +1    0.0000000 +0    0.0000000 +0     1     0     0
  N     2.46683129 +1   89.9710488 +1    0.0000000 +0     1     2     0
  O     1.22026284 +1   87.9198973 +1  -21.4701270 +1     3     1     2
  O     1.22360905 +1  148.9048762 +1  174.9939143 +1     3     1     2
  H     2.13385153 +1  147.2520050 +1 -159.7043624 +1     1     2     3
  C     1.47365054 +1   33.9981887 +1  141.6381697 +1     3     1     2
  H     1.13513547 +1  107.6970258 +1 -121.0986738 +1     7     3     1
  H     1.12227401 +1  108.9650058 +1  125.9314356 +1     7     3     1
  C     1.08147244 +1   31.1071130 +1    0.2370522 +1     6     1     2
  H     1.08195355 +1  112.5862211 +1 -179.2924261 +1    10     6     1
  C     5.47506094 +1  165.3437565 +1   12.8553543 +1     8     7     3
  C     1.39896518 +1  163.7543214 +1  170.1577265 +1    12     8     7
  C     1.39404018 +1  118.6613270 +1  -17.7776189 +1    13    12     8
  C     1.39331669 +1  119.1839013 +1   -0.0553949 +1    14    13    12
  C     1.39956497 +1  118.7236805 +1    0.0253071 +1    15    14    13
  N     1.34838147 +1   42.3303186 +1  147.5773770 +1    12     8     7
  H     1.09861665 +1   74.2042975 +1  -25.5420070 +1    12     8     7
  H     1.08917411 +1  120.3810765 +1  162.3400675 +1    13    12     8
  H     1.09204107 +1  120.9534282 +1  179.7840455 +1    15    14    13
  H     1.09807753 +1  121.5180551 +1  179.9451546 +1    16    15    14
  H     1.09264564 +1  120.3964759 +1  179.9123047 +1    14    13    12
  H     2.57539524 +1  131.7618197 +1    8.0649409 +1     8     7     3
  H     1.52409262 +1   79.2467046 +1  157.6840151 +1    23     8     7
  O     0.96252201 +1   51.2926937 +1  128.4407970 +1    23     8     7

 TIME=     0.17
  REACTANTS AND PRODUCTS SWAPPED AROUND
 *+*+*+*+*+*+*+*+*+*+*+*+*+*+*+*+*+*+*+*+*+*+*+*+*+*+*+*+*+*+*+*+*+*+*+*+*+*+*+*+
            BAR SHORTENED BY       1.000 PERCENT
 GRADIENT CRITERION IN FLEPO =     3.427


          FOR POINT    5 SECOND STRUCTURE
 DISTANCE A - B      3.125472
 HEAT              -49.261585
 GRADIENT NORM       8.306913
 DIRECTION COSINE   -0.030531
* ===============================
* Input file for Mopac
* ===============================
 PM7 BONDS AUX DUMP=30M ITRY=15000 T=14D CHARGE=0 SINGLET eps=78.4 RELSCF=1


  C     0.00000000 +0    0.0000000 +0    0.0000000 +0     0     0     0
  H     1.09601778 +1    0.0000000 +0    0.0000000 +0     1     0     0
  N     2.42811209 +1   88.7034386 +1    0.0000000 +0     1     2     0
  O     1.25632902 +1   92.0280947 +1   -4.2258147 +1     3     1     2
  O     1.26036476 +1  150.8438300 +1  177.7893717 +1     3     1     2
  H     2.12879935 +1  145.7411565 +1 -175.8216985 +1     1     2     3
  C     1.33700013 +1   30.3061668 +1  174.0313015 +1     3     1     2
  H     2.14731523 +1   96.3068768 +1 -102.8916603 +1     7     3     1
  H     1.08468826 +1  118.5754640 +1  177.5009474 +1     7     3     1
  C     1.07470873 +1   31.5426807 +1    0.2099487 +1     6     1     2
  H     1.07557377 +1  112.9078046 +1  179.9278211 +1    10     6     1
  C     4.14417375 +1  163.6500939 +1  -99.5262295 +1     8     7     3
  C     1.39189063 +1  162.8675335 +1  -95.3627816 +1    12     8     7
  C     1.39530598 +1  119.5557665 +1    9.0332515 +1    13    12     8
  C     1.39403622 +1  119.2037788 +1    0.3875333 +1    14    13    12
  C     1.39362351 +1  119.6123061 +1   -0.4150188 +1    15    14    13
  N     1.36038096 +1  120.4264803 +1    0.2031483 +1    16    15    14
  H     1.10508853 +1   74.7965375 +1   92.5072194 +1    12     8     7
  H     1.09537789 +1  119.7513731 +1 -170.8327268 +1    13    12     8
  H     1.09513892 +1  120.6500143 +1  179.9005453 +1    15    14    13
  H     1.10483437 +1  122.1606620 +1 -179.8823457 +1    16    15    14
  H     1.09489733 +1  120.2814940 +1 -179.5536638 +1    14    13    12
  H     1.54446978 +1  132.4060957 +1   -7.1407633 +1     8     7     3
  H     1.07137276 +1  120.0642303 +1 -177.5008565 +1    17    16    15
  O     0.97237140 +1   37.8750565 +1  156.5887141 +1    23     8     7

 TIME=     0.83
  REACTANTS AND PRODUCTS SWAPPED AROUND
 *+*+*+*+*+*+*+*+*+*+*+*+*+*+*+*+*+*+*+*+*+*+*+*+*+*+*+*+*+*+*+*+*+*+*+*+*+*+*+*+
            BAR SHORTENED BY       1.000 PERCENT
 GRADIENT CRITERION IN FLEPO =     5.307


          FOR POINT    6 FIRST  STRUCTURE
 DISTANCE A - B      3.094217
 HEAT              -49.129126
 GRADIENT NORM       6.990753
 DIRECTION COSINE   -0.003112
* ===============================
* Input file for Mopac
* ===============================
 PM7 BONDS AUX DUMP=30M ITRY=15000 T=14D CHARGE=0 SINGLET eps=78.4 RELSCF=1


  C     0.00000000 +0    0.0000000 +0    0.0000000 +0     0     0     0
  H     1.09356337 +1    0.0000000 +0    0.0000000 +0     1     0     0
  N     2.46643753 +1   89.8307662 +1    0.0000000 +0     1     2     0
  O     1.21892127 +1   87.7390200 +1  -21.3023107 +1     3     1     2
  O     1.22352592 +1  149.0781704 +1  175.2968292 +1     3     1     2
  H     2.13261884 +1  147.3540575 +1 -159.8454424 +1     1     2     3
  C     1.47340294 +1   34.0398665 +1  141.8978804 +1     3     1     2
  H     1.13438617 +1  107.5404879 +1 -120.8223864 +1     7     3     1
  H     1.12315881 +1  109.0413837 +1  125.9117787 +1     7     3     1
  C     1.08111353 +1   31.2344278 +1    0.2533613 +1     6     1     2
  H     1.08280591 +1  112.6016091 +1 -178.8565673 +1    10     6     1
  C     5.46857889 +1  165.6472319 +1   11.6961189 +1     8     7     3
  C     1.39760656 +1  163.7303448 +1  171.0343432 +1    12     8     7
  C     1.39261121 +1  118.6079896 +1  -17.3337858 +1    13    12     8
  C     1.39289540 +1  119.3700216 +1   -0.2755910 +1    14    13    12
  C     1.39994213 +1  118.5659934 +1    0.2657014 +1    15    14    13
  N     1.34718644 +1  122.3785691 +1   -0.1840387 +1    16    15    14
  H     1.09967495 +1   74.0634189 +1  -24.2769516 +1    12     8     7
  H     1.08971871 +1  120.4858019 +1  162.5853361 +1    13    12     8
  H     1.08913693 +1  121.0224921 +1  179.8289076 +1    15    14    13
  H     1.09955414 +1  121.5156814 +1  179.7700739 +1    16    15    14
  H     1.09232515 +1  120.4001733 +1  179.8272328 +1    14    13    12
  H     2.58156283 +1  132.1010102 +1    7.9243198 +1     8     7     3
  H     1.52267692 +1   78.8721679 +1  158.2645506 +1    23     8     7
  O     0.96452561 +1   50.7029526 +1  129.0236155 +1    23     8     7

 TIME=     0.71
  REACTANTS AND PRODUCTS SWAPPED AROUND
 *+*+*+*+*+*+*+*+*+*+*+*+*+*+*+*+*+*+*+*+*+*+*+*+*+*+*+*+*+*+*+*+*+*+*+*+*+*+*+*+
            BAR SHORTENED BY       1.000 PERCENT
 GRADIENT CRITERION IN FLEPO =     3.991


          FOR POINT    7 SECOND STRUCTURE
 DISTANCE A - B      3.063275
 HEAT              -49.335657
 GRADIENT NORM       7.180071
 DIRECTION COSINE   -0.067005
* ===============================
* Input file for Mopac
* ===============================
 PM7 BONDS AUX DUMP=30M ITRY=15000 T=14D CHARGE=0 SINGLET eps=78.4 RELSCF=1


  C     0.00000000 +0    0.0000000 +0    0.0000000 +0     0     0     0
  H     1.09610551 +1    0.0000000 +0    0.0000000 +0     1     0     0
  N     2.42548433 +1   88.5961544 +1    0.0000000 +0     1     2     0
  O     1.25646180 +1   91.9579818 +1   -4.1820133 +1     3     1     2
  O     1.25977854 +1  150.9459251 +1  176.6711673 +1     3     1     2
  H     2.13216738 +1  145.7107575 +1 -176.2105068 +1     1     2     3
  C     1.33574291 +1   30.2870053 +1  174.0518354 +1     3     1     2
  H     2.16001081 +1   95.4887655 +1 -102.3491118 +1     7     3     1
  H     1.08631312 +1  118.5699651 +1  178.1907727 +1     7     3     1
  C     1.07619396 +1   31.5616201 +1    0.8781990 +1     6     1     2
  H     1.07482799 +1  112.7877435 +1 -179.8411186 +1    10     6     1
  C     4.15038279 +1  163.6616361 +1 -101.8847599 +1     8     7     3
  C     1.39278118 +1  163.1087743 +1  -92.9888159 +1    12     8     7
  C     1.39394740 +1  119.6201248 +1    8.9789602 +1    13    12     8
  C     1.39411142 +1  119.1290497 +1    0.3528614 +1    14    13    12
  C     1.39252192 +1  119.6613765 +1   -0.4221495 +1    15    14    13
  N     1.35979067 +1  120.3950754 +1    0.2194545 +1    16    15    14
  H     1.10434936 +1   74.6349641 +1   94.9680535 +1    12     8     7
  H     1.09317187 +1  119.5630532 +1 -170.8005679 +1    13    12     8
  H     1.09533247 +1  120.6738125 +1 -179.9941560 +1    15    14    13
  H     1.10584553 +1  122.0939978 +1 -179.8715601 +1    16    15    14
  H     1.09580401 +1  120.3543674 +1 -179.6348002 +1    14    13    12
  H     1.52978024 +1  133.3073112 +1   -6.9977539 +1     8     7     3
  H     1.06423602 +1  119.7732447 +1 -177.7380254 +1    17    16    15
  O     0.96707713 +1   38.1855916 +1  156.1926831 +1    23     8     7

 TIME=     0.55
  REACTANTS AND PRODUCTS SWAPPED AROUND
 *+*+*+*+*+*+*+*+*+*+*+*+*+*+*+*+*+*+*+*+*+*+*+*+*+*+*+*+*+*+*+*+*+*+*+*+*+*+*+*+
            BAR SHORTENED BY       1.000 PERCENT
 GRADIENT CRITERION IN FLEPO =     4.180


          FOR POINT    8 FIRST  STRUCTURE
 DISTANCE A - B      3.032642
 HEAT              -49.208409
 GRADIENT NORM       4.728939
 DIRECTION COSINE   -0.122421
* ===============================
* Input file for Mopac
* ===============================
 PM7 BONDS AUX DUMP=30M ITRY=15000 T=14D CHARGE=0 SINGLET eps=78.4 RELSCF=1


  C     0.00000000 +0    0.0000000 +0    0.0000000 +0     0     0     0
  H     1.09306927 +1    0.0000000 +0    0.0000000 +0     1     0     0
  N     2.46471873 +1   89.7536276 +1    0.0000000 +0     1     2     0
  O     1.22103325 +1   87.7492094 +1  -21.2761405 +1     3     1     2
  O     1.22439306 +1  149.2308584 +1  174.9866710 +1     3     1     2
  H     2.13728495 +1  147.4467187 +1 -160.1230493 +1     1     2     3
  C     1.47339615 +1   34.0782418 +1  141.7992527 +1     3     1     2
  H     1.13373775 +1  107.5333479 +1 -120.7919529 +1     7     3     1
  H     1.12376943 +1  109.1229609 +1  125.9960898 +1     7     3     1
  C     1.08271967 +1   31.0052125 +1    0.1448970 +1     6     1     2
  H     1.08098823 +1  112.7745912 +1 -179.7032834 +1    10     6     1
  C     5.45813458 +1  165.9309948 +1   11.0304072 +1     8     7     3
  C     1.39900454 +1  163.7297201 +1  171.7617617 +1    12     8     7
  C     1.39434887 +1  118.5787070 +1  -17.3447993 +1    13    12     8
  C     1.39412412 +1  119.2767068 +1    0.0000000 +1    14    13    12
  C     1.39855572 +1  118.6835452 +1   -0.0887983 +1    15    14    13
  N     1.34835366 +1   42.2925421 +1  149.7065119 +1    12     8     7
  H     1.09869029 +1   74.1726268 +1  -23.6226855 +1    12     8     7
  H     1.08895327 +1  120.5106821 +1  162.6721759 +1    13    12     8
  H     1.08957207 +1  120.9728800 +1  179.8618170 +1    15    14    13
  H     1.09773281 +1  121.5482289 +1  179.9300365 +1    16    15    14
  H     1.09347979 +1  120.3526190 +1  179.8007192 +1    14    13    12
  H     2.57324361 +1  132.3565900 +1    7.8882515 +1     8     7     3
  H     1.52274994 +1   78.8826288 +1  158.7013630 +1    23     8     7
  O     0.96054110 +1   50.8350846 +1  129.6064140 +1    23     8     7

 TIME=     0.29
  REACTANTS AND PRODUCTS SWAPPED AROUND
 *+*+*+*+*+*+*+*+*+*+*+*+*+*+*+*+*+*+*+*+*+*+*+*+*+*+*+*+*+*+*+*+*+*+*+*+*+*+*+*+
            BAR SHORTENED BY       1.000 PERCENT
 GRADIENT CRITERION IN FLEPO =     1.729
           THERE HAVE BEEN 3 ATTEMPTS TO REDUCE THE GRADIENT.
           DURING THESE ATTEMPTS THE ENERGY DROPPED BY LESS THAN 0.3 KCAL/MOLE
           FURTHER CALCULATION IS NOT JUSTIFIED AT THIS TIME.
           TO CONTINUE, START AGAIN WITH THE WORD "PRECISE"


          FOR POINT    9 SECOND STRUCTURE
 DISTANCE A - B      3.002316
 HEAT              -49.383139
 GRADIENT NORM      11.723613
 DIRECTION COSINE    0.112344
* ===============================
* Input file for Mopac
* ===============================
 PM7 BONDS AUX DUMP=30M ITRY=15000 T=14D CHARGE=0 SINGLET eps=78.4 RELSCF=1


  C     0.00000000 +0    0.0000000 +0    0.0000000 +0     0     0     0
  H     1.09582373 +1    0.0000000 +0    0.0000000 +0     1     0     0
  N     2.42880496 +1   88.5644355 +1    0.0000000 +0     1     2     0
  O     1.25758309 +1   91.8286753 +1   -4.4694659 +1     3     1     2
  O     1.26032926 +1  151.0570734 +1  177.2078442 +1     3     1     2
  H     2.13201322 +1  146.0309343 +1 -176.4302825 +1     1     2     3
  C     1.33540728 +1   30.4522635 +1  173.8915187 +1     3     1     2
  H     2.16509832 +1   95.3341872 +1 -102.0845303 +1     7     3     1
  H     1.08611560 +1  118.6639744 +1  178.2777736 +1     7     3     1
  C     1.07555267 +1   31.4074221 +1    0.7608847 +1     6     1     2
  H     1.07606338 +1  112.8723050 +1  179.7349625 +1    10     6     1
  C     4.15473667 +1  163.6723784 +1 -101.3127474 +1     8     7     3
  C     1.39210840 +1  163.1024990 +1  -93.6371219 +1    12     8     7
  C     1.39485232 +1  119.6310506 +1    8.9144036 +1    13    12     8
  C     1.39698992 +1  119.0966888 +1    0.1089451 +1    14    13    12
  C     1.39167954 +1  119.5455094 +1   -0.0074155 +1    15    14    13
  N     1.36039098 +1  120.5833435 +1   -0.1813289 +1    16    15    14
  H     1.11082193 +1   74.7530554 +1   94.2424650 +1    12     8     7
  H     1.09518099 +1  119.6250053 +1 -170.9200370 +1    13    12     8
  H     1.10489046 +1  120.4001626 +1  179.6597302 +1    15    14    13
  H     1.10536547 +1  122.0099661 +1  179.9036083 +1    16    15    14
  H     1.09789086 +1  120.2967192 +1 -179.8455798 +1    14    13    12
  H     1.53695340 +1  133.0490161 +1   -7.2065794 +1     8     7     3
  H     1.06563595 +1  119.9691213 +1 -177.5425868 +1    17    16    15
  O     0.97118375 +1   37.8440848 +1  156.1278408 +1    23     8     7

 *+*+*+*+*+*+*+*+*+*+*+*+*+*+*+*+*+*+*+*+*+*+*+*+*+*+*+*+*+*+*+*+*+*+*+*+*+*+*+*+
            BAR SHORTENED BY       1.000 PERCENT
 GRADIENT CRITERION IN FLEPO =     8.724


          FOR POINT   10 SECOND STRUCTURE
 DISTANCE A - B      2.972293
 HEAT              -49.401612
 GRADIENT NORM       6.313025
 DIRECTION COSINE    0.312983
* ===============================
* Input file for Mopac
* ===============================
 PM7 BONDS AUX DUMP=30M ITRY=15000 T=14D CHARGE=0 SINGLET eps=78.4 RELSCF=1


  C     0.00000000 +0    0.0000000 +0    0.0000000 +0     0     0     0
  H     1.09652413 +1    0.0000000 +0    0.0000000 +0     1     0     0
  N     2.42612211 +1   88.6655901 +1    0.0000000 +0     1     2     0
  O     1.25794344 +1   91.7934479 +1   -4.4729749 +1     3     1     2
  O     1.26081161 +1  151.1080506 +1  176.8988340 +1     3     1     2
  H     2.12955725 +1  145.8371355 +1 -176.0322891 +1     1     2     3
  C     1.33541507 +1   30.4150320 +1  173.7323323 +1     3     1     2
  H     2.16625166 +1   95.2269771 +1 -102.0990615 +1     7     3     1
  H     1.08693559 +1  118.6143878 +1  177.8790712 +1     7     3     1
  C     1.07495918 +1   31.6037012 +1    0.5442428 +1     6     1     2
  H     1.07532751 +1  112.9968675 +1  179.7332406 +1    10     6     1
  C     4.15867459 +1  163.8551383 +1 -101.5227719 +1     8     7     3
  C     1.39301516 +1  163.1511703 +1  -93.1757968 +1    12     8     7
  C     1.39534843 +1  119.6029808 +1    8.6067184 +1    13    12     8
  C     1.39625853 +1  119.2288092 +1    0.1920258 +1    14    13    12
  C     1.39429255 +1  119.4133756 +1   -0.1382801 +1    15    14    13
  N     1.36143677 +1  120.6371024 +1   -0.0808884 +1    16    15    14
  H     1.10638536 +1   74.5394895 +1   94.7815366 +1    12     8     7
  H     1.09573457 +1  119.6277977 +1 -171.2136064 +1    13    12     8
  H     1.09720505 +1  120.5136086 +1  179.6952054 +1    15    14    13
  H     1.10415242 +1  121.9862789 +1  179.9561377 +1    16    15    14
  H     1.09563053 +1  120.2777140 +1 -179.7489756 +1    14    13    12
  H     1.53149227 +1  132.9852300 +1   -7.1045386 +1     8     7     3
  H     1.06732962 +1  119.9412933 +1 -177.6005344 +1    17    16    15
  O     0.97080076 +1   38.0029354 +1  155.8700143 +1    23     8     7

 *+*+*+*+*+*+*+*+*+*+*+*+*+*+*+*+*+*+*+*+*+*+*+*+*+*+*+*+*+*+*+*+*+*+*+*+*+*+*+*+
            BAR SHORTENED BY       1.000 PERCENT
 GRADIENT CRITERION IN FLEPO =     3.313
           THERE HAVE BEEN 3 ATTEMPTS TO REDUCE THE GRADIENT.
           DURING THESE ATTEMPTS THE ENERGY DROPPED BY LESS THAN 0.3 KCAL/MOLE
           FURTHER CALCULATION IS NOT JUSTIFIED AT THIS TIME.
           TO CONTINUE, START AGAIN WITH THE WORD "PRECISE"


          FOR POINT   11 SECOND STRUCTURE
 DISTANCE A - B      2.942570
 HEAT              -49.445780
 GRADIENT NORM       7.586789
 DIRECTION COSINE    0.444248
* ===============================
* Input file for Mopac
* ===============================
 PM7 BONDS AUX DUMP=30M ITRY=15000 T=14D CHARGE=0 SINGLET eps=78.4 RELSCF=1


  C     0.00000000 +0    0.0000000 +0    0.0000000 +0     0     0     0
  H     1.09655552 +1    0.0000000 +0    0.0000000 +0     1     0     0
  N     2.42462887 +1   88.6701866 +1    0.0000000 +0     1     2     0
  O     1.25826978 +1   91.8269334 +1   -4.1937723 +1     3     1     2
  O     1.26028044 +1  151.1266278 +1  177.2518070 +1     3     1     2
  H     2.13284166 +1  145.6500999 +1 -175.8988294 +1     1     2     3
  C     1.33671131 +1   30.4516996 +1  174.3740004 +1     3     1     2
  H     2.17390825 +1   94.7609119 +1 -101.2826481 +1     7     3     1
  H     1.08549824 +1  118.6267577 +1  179.0464503 +1     7     3     1
  C     1.07597723 +1   31.4406843 +1    0.6199512 +1     6     1     2
  H     1.07844943 +1  112.8265684 +1  179.7730767 +1    10     6     1
  C     4.16210340 +1  164.0073694 +1 -101.3993298 +1     8     7     3
  C     1.39415427 +1  163.2660682 +1  -92.7845759 +1    12     8     7
  C     1.39483955 +1  119.5555865 +1    7.8210931 +1    13    12     8
  C     1.39483311 +1  119.1362802 +1    0.3423737 +1    14    13    12
  C     1.39443670 +1  119.6166080 +1   -0.4490709 +1    15    14    13
  N     1.36105565 +1   42.8546149 +1  -82.8042452 +1    12     8     7
  H     1.10560533 +1   74.8091571 +1   94.2656807 +1    12     8     7
  H     1.09449154 +1  119.7152305 +1 -172.0105021 +1    13    12     8
  H     1.09682563 +1  120.5497483 +1  179.9241654 +1    15    14    13
  H     1.10545504 +1  122.0649534 +1 -179.6506252 +1    16    15    14
  H     1.09667720 +1  120.3470553 +1 -179.6364148 +1    14    13    12
  H     1.53612819 +1  132.8130377 +1   -6.9386955 +1     8     7     3
  H     1.06592400 +1  119.3694633 +1    1.4089153 +1    17    12     8
  O     0.97061316 +1   37.9568208 +1  155.8916596 +1    23     8     7

 TIME=     0.68
  REACTANTS AND PRODUCTS SWAPPED AROUND
 *+*+*+*+*+*+*+*+*+*+*+*+*+*+*+*+*+*+*+*+*+*+*+*+*+*+*+*+*+*+*+*+*+*+*+*+*+*+*+*+
            BAR SHORTENED BY       0.000 PERCENT
 GRADIENT CRITERION IN FLEPO =     4.587


          FOR POINT   12 FIRST  STRUCTURE
 DISTANCE A - B      2.942570
 HEAT              -49.209690
 GRADIENT NORM       4.567883
 DIRECTION COSINE   -0.006303
* ===============================
* Input file for Mopac
* ===============================
 PM7 BONDS AUX DUMP=30M ITRY=15000 T=14D CHARGE=0 SINGLET eps=78.4 RELSCF=1


  C     0.00000000 +0    0.0000000 +0    0.0000000 +0     0     0     0
  H     1.09305001 +1    0.0000000 +0    0.0000000 +0     1     0     0
  N     2.46476851 +1   89.7535522 +1    0.0000000 +0     1     2     0
  O     1.22096650 +1   87.7489689 +1  -21.2727583 +1     3     1     2
  O     1.22436050 +1  149.2202600 +1  175.0045838 +1     3     1     2
  H     2.13730500 +1  147.4389769 +1 -160.1040428 +1     1     2     3
  C     1.47339892 +1   34.0763218 +1  141.8047376 +1     3     1     2
  H     1.13384131 +1  107.5493522 +1 -120.8085844 +1     7     3     1
  H     1.12147851 +1  109.1290032 +1  126.0913389 +1     7     3     1
  C     1.08267947 +1   31.0017663 +1    0.1300501 +1     6     1     2
  H     1.08113167 +1  112.7588863 +1 -179.7025721 +1    10     6     1
  C     5.45827514 +1  165.9058817 +1   11.0970321 +1     8     7     3
  C     1.39898080 +1  163.7251776 +1  171.7044510 +1    12     8     7
  C     1.39428749 +1  118.5815892 +1  -17.3505810 +1    13    12     8
  C     1.39410867 +1  119.2772227 +1   -0.0055503 +1    14    13    12
  C     1.39819080 +1  118.6586454 +1   -0.0301840 +1    15    14    13
  N     1.34835181 +1  122.3340102 +1    0.0083045 +1    16    15    14
  H     1.09872153 +1   74.1685000 +1  -23.6835074 +1    12     8     7
  H     1.08900811 +1  120.5055487 +1  162.6625390 +1    13    12     8
  H     1.08955094 +1  120.9620531 +1  179.8765564 +1    15    14    13
  H     1.09833054 +1  121.5514196 +1 -179.9906988 +1    16    15    14
  H     1.09335863 +1  120.3531829 +1  179.8067533 +1    14    13    12
  H     2.57374073 +1  132.3296589 +1    7.9103849 +1     8     7     3
  H     1.52279084 +1   78.8687017 +1  158.6716195 +1    23     8     7
  O     0.96072957 +1   50.8175639 +1  129.5628273 +1    23     8     7

 TIME=     0.11
  REACTANTS AND PRODUCTS SWAPPED AROUND
 *+*+*+*+*+*+*+*+*+*+*+*+*+*+*+*+*+*+*+*+*+*+*+*+*+*+*+*+*+*+*+*+*+*+*+*+*+*+*+*+
            BAR SHORTENED BY       1.000 PERCENT
 GRADIENT CRITERION IN FLEPO =     1.568


          FOR POINT   13 SECOND STRUCTURE
 DISTANCE A - B      2.913144
 HEAT              -49.498619
 GRADIENT NORM       4.109234
 DIRECTION COSINE    0.005973
* ===============================
* Input file for Mopac
* ===============================
 PM7 BONDS AUX DUMP=30M ITRY=15000 T=14D CHARGE=0 SINGLET eps=78.4 RELSCF=1


  C     0.00000000 +0    0.0000000 +0    0.0000000 +0     0     0     0
  H     1.09641908 +1    0.0000000 +0    0.0000000 +0     1     0     0
  N     2.42421878 +1   88.5966262 +1    0.0000000 +0     1     2     0
  O     1.25743934 +1   91.7881823 +1   -4.4451778 +1     3     1     2
  O     1.26047613 +1  151.1318946 +1  177.1441755 +1     3     1     2
  H     2.13122441 +1  145.7069669 +1 -176.1181220 +1     1     2     3
  C     1.33566595 +1   30.4641622 +1  173.6569281 +1     3     1     2
  H     2.17210328 +1   94.7846352 +1 -101.6454493 +1     7     3     1
  H     1.08601515 +1  118.7117555 +1  178.0822304 +1     7     3     1
  C     1.07571121 +1   31.5096466 +1    0.7490479 +1     6     1     2
  H     1.07597377 +1  112.9408520 +1  179.8182655 +1    10     6     1
  C     4.16745887 +1  164.2258552 +1 -101.3233546 +1     8     7     3
  C     1.39273792 +1  163.3082127 +1  -92.6771313 +1    12     8     7
  C     1.39485835 +1  119.5768022 +1    7.5877730 +1    13    12     8
  C     1.39503243 +1  119.0813247 +1    0.2777735 +1    14    13    12
  C     1.39341434 +1  119.6656970 +1   -0.4000084 +1    15    14    13
  N     1.36059530 +1  120.4869249 +1    0.2789050 +1    16    15    14
  H     1.10575198 +1   74.6343841 +1   94.0152614 +1    12     8     7
  H     1.09539659 +1  119.7444877 +1 -172.2829694 +1    13    12     8
  H     1.09474782 +1  120.5485199 +1  179.9362015 +1    15    14    13
  H     1.10503811 +1  122.0452501 +1 -179.7498144 +1    16    15    14
  H     1.09624169 +1  120.3960183 +1 -179.6749655 +1    14    13    12
  H     1.53752189 +1  132.8090430 +1   -6.6987671 +1     8     7     3
  H     1.06555164 +1  119.9713633 +1 -178.0622824 +1    17    16    15
  O     0.97098273 +1   37.9713932 +1  155.4716283 +1    23     8     7

 *+*+*+*+*+*+*+*+*+*+*+*+*+*+*+*+*+*+*+*+*+*+*+*+*+*+*+*+*+*+*+*+*+*+*+*+*+*+*+*+
            BAR SHORTENED BY       1.000 PERCENT
 GRADIENT CRITERION IN FLEPO =     1.109
           THERE HAVE BEEN 3 ATTEMPTS TO REDUCE THE GRADIENT.
           DURING THESE ATTEMPTS THE ENERGY DROPPED BY LESS THAN 0.3 KCAL/MOLE
           FURTHER CALCULATION IS NOT JUSTIFIED AT THIS TIME.
           TO CONTINUE, START AGAIN WITH THE WORD "PRECISE"


          FOR POINT   14 SECOND STRUCTURE
 DISTANCE A - B      2.884013
 HEAT              -49.501904
 GRADIENT NORM      15.654088
 DIRECTION COSINE    0.203760
* ===============================
* Input file for Mopac
* ===============================
 PM7 BONDS AUX DUMP=30M ITRY=15000 T=14D CHARGE=0 SINGLET eps=78.4 RELSCF=1


  C     0.00000000 +0    0.0000000 +0    0.0000000 +0     0     0     0
  H     1.09802524 +1    0.0000000 +0    0.0000000 +0     1     0     0
  N     2.41991388 +1   88.6954375 +1    0.0000000 +0     1     2     0
  O     1.25907070 +1   91.8706601 +1   -4.4602891 +1     3     1     2
  O     1.26392929 +1  151.1832880 +1  177.2064370 +1     3     1     2
  H     2.12861138 +1  145.5250866 +1 -175.7065605 +1     1     2     3
  C     1.33385450 +1   30.4749030 +1  173.7885786 +1     3     1     2
  H     2.17245326 +1   94.7203326 +1 -101.4603974 +1     7     3     1
  H     1.08815259 +1  118.7403421 +1  178.2445918 +1     7     3     1
  C     1.07316903 +1   31.7403977 +1    0.5223446 +1     6     1     2
  H     1.07561123 +1  113.2674705 +1  179.7497966 +1    10     6     1
  C     4.17460879 +1  164.4448992 +1 -100.8833936 +1     8     7     3
  C     1.39139607 +1  163.2729549 +1  -92.4376219 +1    12     8     7
  C     1.39509405 +1  119.6534076 +1    6.5993004 +1    13    12     8
  C     1.39317614 +1  119.0757273 +1    0.3678004 +1    14    13    12
  C     1.39552479 +1  119.8149070 +1   -0.3357268 +1    15    14    13
  N     1.36361399 +1  120.3673339 +1    0.2182872 +1    16    15    14
  H     1.10610115 +1   74.6887916 +1   93.5063095 +1    12     8     7
  H     1.09663122 +1  119.7788202 +1 -172.7697032 +1    13    12     8
  H     1.09777163 +1  120.6957079 +1  179.6910169 +1    15    14    13
  H     1.10484542 +1  122.2129444 +1 -179.9389880 +1    16    15    14
  H     1.09613517 +1  120.4164022 +1 -179.5329172 +1    14    13    12
  H     1.54012665 +1  132.7806675 +1   -6.4491697 +1     8     7     3
  H     1.06644400 +1  120.1214363 +1 -178.0561227 +1    17    16    15
  O     0.97080487 +1   38.0078303 +1  155.2963201 +1    23     8     7

 *+*+*+*+*+*+*+*+*+*+*+*+*+*+*+*+*+*+*+*+*+*+*+*+*+*+*+*+*+*+*+*+*+*+*+*+*+*+*+*+
            BAR SHORTENED BY       1.000 PERCENT
 GRADIENT CRITERION IN FLEPO =    10.000


          FOR POINT   15 SECOND STRUCTURE
 DISTANCE A - B      2.855173
 HEAT              -49.267172
 GRADIENT NORM      13.840837
 DIRECTION COSINE   -0.058346
* ===============================
* Input file for Mopac
* ===============================
 PM7 BONDS AUX DUMP=30M ITRY=15000 T=14D CHARGE=0 SINGLET eps=78.4 RELSCF=1


  C     0.00000000 +0    0.0000000 +0    0.0000000 +0     0     0     0
  H     1.09728063 +1    0.0000000 +0    0.0000000 +0     1     0     0
  N     2.42495064 +1   88.4668720 +1    0.0000000 +0     1     2     0
  O     1.25663127 +1   91.6743149 +1   -4.7828442 +1     3     1     2
  O     1.25884197 +1  151.1522162 +1  176.8418689 +1     3     1     2
  H     2.12627717 +1  145.7860991 +1 -175.8038880 +1     1     2     3
  C     1.33556342 +1   30.4128762 +1  173.4048490 +1     3     1     2
  H     2.17056644 +1   94.7285801 +1 -101.5083655 +1     7     3     1
  H     1.08963071 +1  118.6546081 +1  178.0228229 +1     7     3     1
  C     1.07748417 +1   31.8260189 +1    1.2434995 +1     6     1     2
  H     1.07117867 +1  113.2633857 +1 -179.7156697 +1    10     6     1
  C     4.18028024 +1  164.6776093 +1 -100.5040345 +1     8     7     3
  C     1.39266849 +1  163.4722374 +1  -92.8586059 +1    12     8     7
  C     1.39476513 +1  119.5048722 +1    6.8405902 +1    13    12     8
  C     1.39826354 +1  119.0796140 +1    0.0747885 +1    14    13    12
  C     1.39370726 +1  119.5400870 +1   -0.0998953 +1    15    14    13
  N     1.36001299 +1  120.6044066 +1    0.1349081 +1    16    15    14
  H     1.10580818 +1   74.7372816 +1   93.0263385 +1    12     8     7
  H     1.09564994 +1  119.8565456 +1 -173.1058002 +1    13    12     8
  H     1.09382625 +1  120.4979371 +1  179.8100260 +1    15    14    13
  H     1.10606519 +1  121.8131338 +1 -179.7815055 +1    16    15    14
  H     1.09615856 +1  120.4032974 +1 -179.6653272 +1    14    13    12
  H     1.54397619 +1  132.6653033 +1   -5.9932903 +1     8     7     3
  H     1.06057949 +1  119.5561891 +1 -178.1500103 +1    17    16    15
  O     0.97188535 +1   38.1326811 +1  154.8985409 +1    23     8     7

 TIME=     1.11
  REACTANTS AND PRODUCTS SWAPPED AROUND
 *+*+*+*+*+*+*+*+*+*+*+*+*+*+*+*+*+*+*+*+*+*+*+*+*+*+*+*+*+*+*+*+*+*+*+*+*+*+*+*+
            BAR SHORTENED BY       0.000 PERCENT
 GRADIENT CRITERION IN FLEPO =    10.000


          FOR POINT   16 FIRST  STRUCTURE
 DISTANCE A - B      2.855173
 HEAT              -49.163494
 GRADIENT NORM       4.568335
 DIRECTION COSINE    0.098881
* ===============================
* Input file for Mopac
* ===============================
 PM7 BONDS AUX DUMP=30M ITRY=15000 T=14D CHARGE=0 SINGLET eps=78.4 RELSCF=1


  C     0.00000000 +0    0.0000000 +0    0.0000000 +0     0     0     0
  H     1.09305001 +1    0.0000000 +0    0.0000000 +0     1     0     0
  N     2.46476851 +1   89.7535522 +1    0.0000000 +0     1     2     0
  O     1.22096650 +1   87.7489689 +1  -21.2727583 +1     3     1     2
  O     1.22436050 +1  149.2202600 +1  175.0045838 +1     3     1     2
  H     2.13730500 +1  147.4389769 +1 -160.1040428 +1     1     2     3
  C     1.47339892 +1   34.0763218 +1  141.8047376 +1     3     1     2
  H     1.13384131 +1  107.5493522 +1 -120.8085844 +1     7     3     1
  H     1.12147851 +1  109.1290032 +1  126.0913389 +1     7     3     1
  C     1.08267947 +1   31.0017663 +1    0.1300501 +1     6     1     2
  H     1.08113167 +1  112.7588863 +1 -179.7025721 +1    10     6     1
  C     5.45827514 +1  165.9058817 +1   11.0970321 +1     8     7     3
  C     1.39898080 +1  163.7251776 +1  171.7044510 +1    12     8     7
  C     1.39428749 +1  118.5815892 +1  -17.3505810 +1    13    12     8
  C     1.39410867 +1  119.2772227 +1   -0.0055503 +1    14    13    12
  C     1.39819080 +1  118.6586454 +1   -0.0301840 +1    15    14    13
  N     1.34835181 +1  122.3340102 +1    0.0083045 +1    16    15    14
  H     1.09872153 +1   74.1685000 +1  -23.6835074 +1    12     8     7
  H     1.08900811 +1  120.5055487 +1  162.6625390 +1    13    12     8
  H     1.08955094 +1  120.9620531 +1  179.8765564 +1    15    14    13
  H     1.09833054 +1  121.5514196 +1 -179.9906988 +1    16    15    14
  H     1.09335863 +1  120.3531829 +1  179.8067533 +1    14    13    12
  H     2.57374073 +1  132.3296589 +1    7.9103849 +1     8     7     3
  H     1.52279084 +1   78.8687017 +1  158.6716195 +1    23     8     7
  O     0.96072957 +1   50.8175639 +1  129.5628273 +1    23     8     7

 TIME=     0.06
  REACTANTS AND PRODUCTS SWAPPED AROUND
 *+*+*+*+*+*+*+*+*+*+*+*+*+*+*+*+*+*+*+*+*+*+*+*+*+*+*+*+*+*+*+*+*+*+*+*+*+*+*+*+
            BAR SHORTENED BY       1.000 PERCENT
 GRADIENT CRITERION IN FLEPO =     1.568
           THERE HAVE BEEN 3 ATTEMPTS TO REDUCE THE GRADIENT.
           DURING THESE ATTEMPTS THE ENERGY DROPPED BY LESS THAN 0.3 KCAL/MOLE
           FURTHER CALCULATION IS NOT JUSTIFIED AT THIS TIME.
           TO CONTINUE, START AGAIN WITH THE WORD "PRECISE"


          FOR POINT   17 SECOND STRUCTURE
 DISTANCE A - B      2.826621
 HEAT              -49.404584
 GRADIENT NORM       8.591842
 DIRECTION COSINE    0.076583
* ===============================
* Input file for Mopac
* ===============================
 PM7 BONDS AUX DUMP=30M ITRY=15000 T=14D CHARGE=0 SINGLET eps=78.4 RELSCF=1


  C     0.00000000 +0    0.0000000 +0    0.0000000 +0     0     0     0
  H     1.10073872 +1    0.0000000 +0    0.0000000 +0     1     0     0
  N     2.42325081 +1   88.6008921 +1    0.0000000 +0     1     2     0
  O     1.25720795 +1   91.7148736 +1   -5.0056756 +1     3     1     2
  O     1.26065731 +1  151.1699788 +1  176.8765575 +1     3     1     2
  H     2.13126002 +1  145.6825146 +1 -175.5226397 +1     1     2     3
  C     1.33594023 +1   30.3471621 +1  173.7201195 +1     3     1     2
  H     2.18751865 +1   94.1559875 +1 -101.1868329 +1     7     3     1
  H     1.08585862 +1  118.8671291 +1  177.7637083 +1     7     3     1
  C     1.07628830 +1   31.6383553 +1    0.2039993 +1     6     1     2
  H     1.07651272 +1  113.0028896 +1  179.6918419 +1    10     6     1
  C     4.17677113 +1  164.9892711 +1 -101.1090867 +1     8     7     3
  C     1.39245453 +1  163.4575787 +1  -92.0145438 +1    12     8     7
  C     1.39423298 +1  119.5632321 +1    6.5874386 +1    13    12     8
  C     1.39540618 +1  119.0942015 +1    0.1124043 +1    14    13    12
  C     1.39399855 +1  119.6870327 +1   -0.2777535 +1    15    14    13
  N     1.36098147 +1  120.4180216 +1    0.3761896 +1    16    15    14
  H     1.10601043 +1   74.6065341 +1   93.7373749 +1    12     8     7
  H     1.09344556 +1  119.8206832 +1 -173.3692917 +1    13    12     8
  H     1.09516340 +1  120.5906446 +1  179.9536223 +1    15    14    13
  H     1.10409729 +1  121.9331928 +1 -179.9393027 +1    16    15    14
  H     1.09622217 +1  120.3915388 +1 -179.7378756 +1    14    13    12
  H     1.53531315 +1  132.6819517 +1   -5.3707417 +1     8     7     3
  H     1.06335856 +1  119.8510450 +1 -178.1811447 +1    17    16    15
  O     0.96950361 +1   37.9541104 +1  154.0863764 +1    23     8     7

 *+*+*+*+*+*+*+*+*+*+*+*+*+*+*+*+*+*+*+*+*+*+*+*+*+*+*+*+*+*+*+*+*+*+*+*+*+*+*+*+
            BAR SHORTENED BY       1.000 PERCENT
 GRADIENT CRITERION IN FLEPO =     5.592


          FOR POINT   18 SECOND STRUCTURE
 DISTANCE A - B      2.798355
 HEAT              -49.524320
 GRADIENT NORM       5.766926
 DIRECTION COSINE    0.241091
* ===============================
* Input file for Mopac
* ===============================
 PM7 BONDS AUX DUMP=30M ITRY=15000 T=14D CHARGE=0 SINGLET eps=78.4 RELSCF=1


  C     0.00000000 +0    0.0000000 +0    0.0000000 +0     0     0     0
  H     1.09698598 +1    0.0000000 +0    0.0000000 +0     1     0     0
  N     2.42355566 +1   88.5245097 +1    0.0000000 +0     1     2     0
  O     1.25660319 +1   91.7390363 +1   -5.4011453 +1     3     1     2
  O     1.26125558 +1  151.1906978 +1  176.6067370 +1     3     1     2
  H     2.12939364 +1  145.8386112 +1 -175.8857326 +1     1     2     3
  C     1.33589053 +1   30.5099625 +1  173.3678454 +1     3     1     2
  H     2.19253970 +1   94.0625874 +1 -101.1599863 +1     7     3     1
  H     1.08648099 +1  118.9682196 +1  177.8682215 +1     7     3     1
  C     1.07536758 +1   31.5735042 +1    0.3843347 +1     6     1     2
  H     1.07578313 +1  113.0105735 +1  179.2819599 +1    10     6     1
  C     4.17811367 +1  165.2804001 +1 -100.8323323 +1     8     7     3
  C     1.39252938 +1  163.4123527 +1  -92.0847663 +1    12     8     7
  C     1.39454409 +1  119.6018463 +1    6.1156708 +1    13    12     8
  C     1.39510550 +1  119.0656203 +1    0.0695960 +1    14    13    12
  C     1.39298183 +1  119.6745715 +1   -0.1375108 +1    15    14    13
  N     1.36087183 +1  120.5404366 +1    0.1497600 +1    16    15    14
  H     1.10513652 +1   74.6512028 +1   93.2607570 +1    12     8     7
  H     1.09550855 +1  119.7733051 +1 -173.8149089 +1    13    12     8
  H     1.09514311 +1  120.4653921 +1  179.9153297 +1    15    14    13
  H     1.10586355 +1  121.9418022 +1 -179.8257236 +1    16    15    14
  H     1.09652001 +1  120.3626202 +1 -179.7648497 +1    14    13    12
  H     1.53282442 +1  132.3112752 +1   -5.1846024 +1     8     7     3
  H     1.06515898 +1  119.9498841 +1 -178.0677524 +1    17    16    15
  O     0.96988326 +1   38.0798045 +1  153.4416294 +1    23     8     7

 *+*+*+*+*+*+*+*+*+*+*+*+*+*+*+*+*+*+*+*+*+*+*+*+*+*+*+*+*+*+*+*+*+*+*+*+*+*+*+*+
            BAR SHORTENED BY       1.000 PERCENT
 GRADIENT CRITERION IN FLEPO =     2.767


          FOR POINT   19 SECOND STRUCTURE
 DISTANCE A - B      2.770371
 HEAT              -49.490075
 GRADIENT NORM       7.133520
 DIRECTION COSINE    0.346355
* ===============================
* Input file for Mopac
* ===============================
 PM7 BONDS AUX DUMP=30M ITRY=15000 T=14D CHARGE=0 SINGLET eps=78.4 RELSCF=1


  C     0.00000000 +0    0.0000000 +0    0.0000000 +0     0     0     0
  H     1.09632821 +1    0.0000000 +0    0.0000000 +0     1     0     0
  N     2.42215438 +1   88.5974115 +1    0.0000000 +0     1     2     0
  O     1.25791930 +1   91.6847438 +1   -5.4444802 +1     3     1     2
  O     1.26070446 +1  151.2808463 +1  176.4149326 +1     3     1     2
  H     2.12923094 +1  145.6289083 +1 -175.4875546 +1     1     2     3
  C     1.33536968 +1   30.5188269 +1  173.6571305 +1     3     1     2
  H     2.19996861 +1   93.8853885 +1 -100.6892134 +1     7     3     1
  H     1.08591152 +1  118.8106998 +1  178.2712523 +1     7     3     1
  C     1.07248100 +1   31.5493654 +1    0.1914973 +1     6     1     2
  H     1.07745251 +1  112.9412444 +1  179.3209291 +1    10     6     1
  C     4.18002730 +1  165.3377666 +1 -100.2621078 +1     8     7     3
  C     1.39287448 +1  163.4458122 +1  -92.5346832 +1    12     8     7
  C     1.39516823 +1  119.6036963 +1    5.8169497 +1    13    12     8
  C     1.39493070 +1  118.9565806 +1    0.2241361 +1    14    13    12
  C     1.39370216 +1  119.7711534 +1   -0.2805711 +1    15    14    13
  N     1.36047449 +1   42.8641361 +1  -85.1886105 +1    12     8     7
  H     1.10568936 +1   74.6970372 +1   92.5800833 +1    12     8     7
  H     1.09616415 +1  119.8163529 +1 -173.9828865 +1    13    12     8
  H     1.09611798 +1  120.4847121 +1 -179.9328774 +1    15    14    13
  H     1.10462282 +1  121.9522721 +1 -179.8038208 +1    16    15    14
  H     1.09603021 +1  120.3619808 +1 -179.7569979 +1    14    13    12
  H     1.53264691 +1  131.9468286 +1   -5.3078319 +1     8     7     3
  H     1.06764243 +1  119.4849248 +1    0.5853298 +1    17    12     8
  O     0.96972459 +1   37.8702088 +1  153.7551184 +1    23     8     7

 TIME=     1.10
  REACTANTS AND PRODUCTS SWAPPED AROUND
 *+*+*+*+*+*+*+*+*+*+*+*+*+*+*+*+*+*+*+*+*+*+*+*+*+*+*+*+*+*+*+*+*+*+*+*+*+*+*+*+
            BAR SHORTENED BY       0.000 PERCENT
 GRADIENT CRITERION IN FLEPO =     4.134


          FOR POINT   20 FIRST  STRUCTURE
 DISTANCE A - B      2.770371
 HEAT              -49.213699
 GRADIENT NORM       2.912067
 DIRECTION COSINE    0.133143
* ===============================
* Input file for Mopac
* ===============================
 PM7 BONDS AUX DUMP=30M ITRY=15000 T=14D CHARGE=0 SINGLET eps=78.4 RELSCF=1


  C     0.00000000 +0    0.0000000 +0    0.0000000 +0     0     0     0
  H     1.09265728 +1    0.0000000 +0    0.0000000 +0     1     0     0
  N     2.46518598 +1   89.7504832 +1    0.0000000 +0     1     2     0
  O     1.22035664 +1   87.7514546 +1  -21.2224504 +1     3     1     2
  O     1.22426529 +1  149.1069904 +1  175.2458902 +1     3     1     2
  H     2.13669239 +1  147.3622594 +1 -159.9800113 +1     1     2     3
  C     1.47283913 +1   34.0510002 +1  141.7755415 +1     3     1     2
  H     1.13838453 +1  107.7773749 +1 -121.3023898 +1     7     3     1
  H     1.12259846 +1  109.0652919 +1  125.8703806 +1     7     3     1
  C     1.08194107 +1   30.9794326 +1    0.0225736 +1     6     1     2
  H     1.08231460 +1  112.6291218 +1 -179.6924055 +1    10     6     1
  C     5.45410800 +1  165.5934448 +1   12.7617654 +1     8     7     3
  C     1.39880675 +1  163.6640421 +1  170.3477835 +1    12     8     7
  C     1.39373623 +1  118.6154127 +1  -17.5308164 +1    13    12     8
  C     1.39395669 +1  119.2782706 +1   -0.0365963 +1    14    13    12
  C     1.39945380 +1  118.6458966 +1   -0.0230002 +1    15    14    13
  N     1.34808291 +1  122.3206480 +1    0.0298398 +1    16    15    14
  H     1.09894253 +1   74.1482386 +1  -25.1867691 +1    12     8     7
  H     1.08954744 +1  120.4516027 +1  162.4524531 +1    13    12     8
  H     1.08931701 +1  120.9937614 +1  179.9359392 +1    15    14    13
  H     1.09857279 +1  121.5501942 +1 -179.9856222 +1    16    15    14
  H     1.09241860 +1  120.3665639 +1  179.8558022 +1    14    13    12
  H     2.57475830 +1  131.9483432 +1    8.5341218 +1     8     7     3
  H     1.52394599 +1   78.7108641 +1  158.0645091 +1    23     8     7
  O     0.96209139 +1   50.6733117 +1  128.7259411 +1    23     8     7

 TIME=     0.30
  REACTANTS AND PRODUCTS SWAPPED AROUND
 *+*+*+*+*+*+*+*+*+*+*+*+*+*+*+*+*+*+*+*+*+*+*+*+*+*+*+*+*+*+*+*+*+*+*+*+*+*+*+*+
            BAR SHORTENED BY       1.000 PERCENT
 GRADIENT CRITERION IN FLEPO =     4.134
           THERE HAVE BEEN 3 ATTEMPTS TO REDUCE THE GRADIENT.
           DURING THESE ATTEMPTS THE ENERGY DROPPED BY LESS THAN 0.3 KCAL/MOLE
           FURTHER CALCULATION IS NOT JUSTIFIED AT THIS TIME.
           TO CONTINUE, START AGAIN WITH THE WORD "PRECISE"


          FOR POINT   21 SECOND STRUCTURE
 DISTANCE A - B      2.742667
 HEAT              -49.607325
 GRADIENT NORM      11.397512
 DIRECTION COSINE    0.216520
* ===============================
* Input file for Mopac
* ===============================
 PM7 BONDS AUX DUMP=30M ITRY=15000 T=14D CHARGE=0 SINGLET eps=78.4 RELSCF=1


  C     0.00000000 +0    0.0000000 +0    0.0000000 +0     0     0     0
  H     1.09764853 +1    0.0000000 +0    0.0000000 +0     1     0     0
  N     2.42463136 +1   88.4199206 +1    0.0000000 +0     1     2     0
  O     1.25843604 +1   91.5953919 +1   -5.7263202 +1     3     1     2
  O     1.25862170 +1  151.2987661 +1  176.1627816 +1     3     1     2
  H     2.13145153 +1  145.9300998 +1 -176.3130915 +1     1     2     3
  C     1.33690759 +1   30.5261933 +1  173.1221892 +1     3     1     2
  H     2.20216948 +1   93.6200676 +1 -100.6260202 +1     7     3     1
  H     1.08431385 +1  118.7173771 +1  178.2295596 +1     7     3     1
  C     1.07701159 +1   31.3990759 +1    1.1193285 +1     6     1     2
  H     1.07692822 +1  112.8912454 +1  179.4657962 +1    10     6     1
  C     4.18765202 +1  165.4018888 +1 -100.1496221 +1     8     7     3
  C     1.39280678 +1  163.3862502 +1  -92.5923561 +1    12     8     7
  C     1.39589488 +1  119.6716495 +1    5.7038657 +1    13    12     8
  C     1.39603345 +1  118.9495329 +1    0.0899246 +1    14    13    12
  C     1.39441645 +1  119.7308746 +1   -0.1828940 +1    15    14    13
  N     1.36086511 +1  120.4250917 +1    0.1782988 +1    16    15    14
  H     1.10608751 +1   74.7068289 +1   92.3642310 +1    12     8     7
  H     1.09801030 +1  119.7046285 +1 -174.1919693 +1    13    12     8
  H     1.09679564 +1  120.5013995 +1 -179.9697275 +1    15    14    13
  H     1.10329347 +1  121.9541975 +1 -179.8999747 +1    16    15    14
  H     1.09357833 +1  120.3311461 +1 -179.6698981 +1    14    13    12
  H     1.53529868 +1  131.9691990 +1   -5.2313413 +1     8     7     3
  H     1.06328502 +1  119.9494943 +1 -178.3227122 +1    17    16    15
  O     0.96921238 +1   37.8852624 +1  154.2683520 +1    23     8     7

 *+*+*+*+*+*+*+*+*+*+*+*+*+*+*+*+*+*+*+*+*+*+*+*+*+*+*+*+*+*+*+*+*+*+*+*+*+*+*+*+
            BAR SHORTENED BY       1.000 PERCENT
 GRADIENT CRITERION IN FLEPO =     8.398


          FOR POINT   22 SECOND STRUCTURE
 DISTANCE A - B      2.715241
 HEAT              -49.529377
 GRADIENT NORM      14.601133
 DIRECTION COSINE    0.707788
* ===============================
* Input file for Mopac
* ===============================
 PM7 BONDS AUX DUMP=30M ITRY=15000 T=14D CHARGE=0 SINGLET eps=78.4 RELSCF=1


  C     0.00000000 +0    0.0000000 +0    0.0000000 +0     0     0     0
  H     1.09668178 +1    0.0000000 +0    0.0000000 +0     1     0     0
  N     2.42365058 +1   88.4603043 +1    0.0000000 +0     1     2     0
  O     1.26226834 +1   91.7009222 +1   -4.7317279 +1     3     1     2
  O     1.25910528 +1  151.3323373 +1  176.0515548 +1     3     1     2
  H     2.12939215 +1  145.8783950 +1 -175.9960722 +1     1     2     3
  C     1.33684242 +1   30.5572776 +1  172.8773351 +1     3     1     2
  H     2.19568178 +1   93.7013118 +1 -100.7515846 +1     7     3     1
  H     1.08356477 +1  118.7364552 +1  177.7432334 +1     7     3     1
  C     1.07617866 +1   31.4787539 +1    0.9177117 +1     6     1     2
  H     1.07591321 +1  112.9716544 +1  179.4386107 +1    10     6     1
  C     4.19614795 +1  165.5502892 +1  -99.8813298 +1     8     7     3
  C     1.39288284 +1  163.3980187 +1  -92.6998067 +1    12     8     7
  C     1.39421508 +1  119.6300431 +1    5.4500957 +1    13    12     8
  C     1.39622716 +1  119.0500321 +1    0.1165627 +1    14    13    12
  C     1.39423141 +1  119.6525833 +1   -0.1991130 +1    15    14    13
  N     1.36080445 +1  120.4730227 +1    0.1634803 +1    16    15    14
  H     1.10566994 +1   74.6908293 +1   92.0477298 +1    12     8     7
  H     1.09724038 +1  119.7131064 +1 -174.4216402 +1    13    12     8
  H     1.09498819 +1  120.4815944 +1  179.8930541 +1    15    14    13
  H     1.10383216 +1  121.9491339 +1 -179.8749330 +1    16    15    14
  H     1.09526793 +1  120.3689685 +1 -179.6995398 +1    14    13    12
  H     1.54100033 +1  132.0251193 +1   -5.1588098 +1     8     7     3
  H     1.06905803 +1  120.0562839 +1 -178.2070556 +1    17    16    15
  O     0.96932413 +1   37.9970910 +1  154.0732311 +1    23     8     7

 *+*+*+*+*+*+*+*+*+*+*+*+*+*+*+*+*+*+*+*+*+*+*+*+*+*+*+*+*+*+*+*+*+*+*+*+*+*+*+*+
            BAR SHORTENED BY       1.000 PERCENT
 GRADIENT CRITERION IN FLEPO =    10.000


          FOR POINT   23 SECOND STRUCTURE
 DISTANCE A - B      2.688088
 HEAT              -49.576026
 GRADIENT NORM       7.133923
 DIRECTION COSINE    0.139988
* ===============================
* Input file for Mopac
* ===============================
 PM7 BONDS AUX DUMP=30M ITRY=15000 T=14D CHARGE=0 SINGLET eps=78.4 RELSCF=1


  C     0.00000000 +0    0.0000000 +0    0.0000000 +0     0     0     0
  H     1.09636166 +1    0.0000000 +0    0.0000000 +0     1     0     0
  N     2.42173640 +1   88.5186456 +1    0.0000000 +0     1     2     0
  O     1.25647364 +1   91.6575224 +1   -5.1028443 +1     3     1     2
  O     1.26045208 +1  151.1662719 +1  177.3405453 +1     3     1     2
  H     2.12937309 +1  145.7243648 +1 -175.3867774 +1     1     2     3
  C     1.33639282 +1   30.5776611 +1  173.2140946 +1     3     1     2
  H     2.20279579 +1   93.3335774 +1 -100.4653551 +1     7     3     1
  H     1.08601372 +1  118.8480648 +1  178.0519112 +1     7     3     1
  C     1.07537750 +1   31.6076689 +1    0.1662272 +1     6     1     2
  H     1.07692997 +1  113.1596183 +1  179.0921410 +1    10     6     1
  C     4.19631353 +1  165.7427748 +1 -100.3196717 +1     8     7     3
  C     1.39269303 +1  163.4939715 +1  -92.1906671 +1    12     8     7
  C     1.39495363 +1  119.5639942 +1    5.2079582 +1    13    12     8
  C     1.39473403 +1  119.0782041 +1    0.1476139 +1    14    13    12
  C     1.39368854 +1  119.6717322 +1   -0.2180168 +1    15    14    13
  N     1.36161558 +1  120.5582183 +1    0.1377664 +1    16    15    14
  H     1.10607931 +1   74.6434894 +1   92.3190245 +1    12     8     7
  H     1.09600257 +1  119.7640964 +1 -174.6372328 +1    13    12     8
  H     1.09578954 +1  120.5051301 +1 -179.8157953 +1    15    14    13
  H     1.10323386 +1  121.8571816 +1 -179.7042156 +1    16    15    14
  H     1.09652478 +1  120.3016809 +1 -179.7245441 +1    14    13    12
  H     1.53242417 +1  131.8870486 +1   -5.1273088 +1     8     7     3
  H     1.06765804 +1  120.1213737 +1 -178.1777213 +1    17    16    15
  O     0.96940657 +1   37.9601337 +1  153.9633483 +1    23     8     7

 TIME=     1.07
  REACTANTS AND PRODUCTS SWAPPED AROUND
 *+*+*+*+*+*+*+*+*+*+*+*+*+*+*+*+*+*+*+*+*+*+*+*+*+*+*+*+*+*+*+*+*+*+*+*+*+*+*+*+
            BAR SHORTENED BY       0.000 PERCENT
 GRADIENT CRITERION IN FLEPO =     4.134


          FOR POINT   24 FIRST  STRUCTURE
 DISTANCE A - B      2.688088
 HEAT              -49.213699
 GRADIENT NORM       2.914133
 DIRECTION COSINE    0.212489
* ===============================
* Input file for Mopac
* ===============================
 PM7 BONDS AUX DUMP=30M ITRY=15000 T=14D CHARGE=0 SINGLET eps=78.4 RELSCF=1


  C     0.00000000 +0    0.0000000 +0    0.0000000 +0     0     0     0
  H     1.09265728 +1    0.0000000 +0    0.0000000 +0     1     0     0
  N     2.46518598 +1   89.7504832 +1    0.0000000 +0     1     2     0
  O     1.22035664 +1   87.7514546 +1  -21.2224504 +1     3     1     2
  O     1.22426529 +1  149.1069904 +1  175.2458902 +1     3     1     2
  H     2.13669239 +1  147.3622594 +1 -159.9800113 +1     1     2     3
  C     1.47283913 +1   34.0510002 +1  141.7755415 +1     3     1     2
  H     1.13838453 +1  107.7773749 +1 -121.3023898 +1     7     3     1
  H     1.12259846 +1  109.0652919 +1  125.8703806 +1     7     3     1
  C     1.08194107 +1   30.9794326 +1    0.0225736 +1     6     1     2
  H     1.08231460 +1  112.6291218 +1 -179.6924055 +1    10     6     1
  C     5.45410800 +1  165.5934448 +1   12.7617654 +1     8     7     3
  C     1.39880675 +1  163.6640421 +1  170.3477835 +1    12     8     7
  C     1.39373623 +1  118.6154127 +1  -17.5308164 +1    13    12     8
  C     1.39395669 +1  119.2782706 +1   -0.0365963 +1    14    13    12
  C     1.39945380 +1  118.6458966 +1   -0.0230002 +1    15    14    13
  N     1.34808291 +1  122.3206480 +1    0.0298398 +1    16    15    14
  H     1.09894253 +1   74.1482386 +1  -25.1867691 +1    12     8     7
  H     1.08954744 +1  120.4516027 +1  162.4524531 +1    13    12     8
  H     1.08931701 +1  120.9937614 +1  179.9359392 +1    15    14    13
  H     1.09857279 +1  121.5501942 +1 -179.9856222 +1    16    15    14
  H     1.09241860 +1  120.3665639 +1  179.8558022 +1    14    13    12
  H     2.57475830 +1  131.9483432 +1    8.5341218 +1     8     7     3
  H     1.52394599 +1   78.7108641 +1  158.0645091 +1    23     8     7
  O     0.96209139 +1   50.6733117 +1  128.7259411 +1    23     8     7

 TIME=     0.09
  REACTANTS AND PRODUCTS SWAPPED AROUND
 *+*+*+*+*+*+*+*+*+*+*+*+*+*+*+*+*+*+*+*+*+*+*+*+*+*+*+*+*+*+*+*+*+*+*+*+*+*+*+*+
            BAR SHORTENED BY       1.000 PERCENT
 GRADIENT CRITERION IN FLEPO =     4.134


          FOR POINT   25 SECOND STRUCTURE
 DISTANCE A - B      2.661207
 HEAT              -49.730929
 GRADIENT NORM      10.795314
 DIRECTION COSINE    0.088787
* ===============================
* Input file for Mopac
* ===============================
 PM7 BONDS AUX DUMP=30M ITRY=15000 T=14D CHARGE=0 SINGLET eps=78.4 RELSCF=1


  C     0.00000000 +0    0.0000000 +0    0.0000000 +0     0     0     0
  H     1.09745395 +1    0.0000000 +0    0.0000000 +0     1     0     0
  N     2.41953577 +1   88.6654710 +1    0.0000000 +0     1     2     0
  O     1.26000627 +1   91.5913659 +1   -5.2167207 +1     3     1     2
  O     1.26117826 +1  151.3701702 +1  177.0330975 +1     3     1     2
  H     2.13118959 +1  145.4555378 +1 -175.0078764 +1     1     2     3
  C     1.33536017 +1   30.5581564 +1  173.2958484 +1     3     1     2
  H     2.20912890 +1   93.1913311 +1 -100.1754239 +1     7     3     1
  H     1.08648926 +1  118.7817373 +1  178.1508692 +1     7     3     1
  C     1.07513972 +1   31.6051924 +1    0.1194075 +1     6     1     2
  H     1.07652562 +1  113.1492722 +1  179.1399900 +1    10     6     1
  C     4.19436064 +1  165.8390693 +1  -99.6966846 +1     8     7     3
  C     1.39314614 +1  163.4597543 +1  -92.7393655 +1    12     8     7
  C     1.39388605 +1  119.6437338 +1    4.9796740 +1    13    12     8
  C     1.39550439 +1  119.0270889 +1    0.1901385 +1    14    13    12
  C     1.39268747 +1  119.7194710 +1   -0.2944218 +1    15    14    13
  N     1.36159728 +1  120.5282306 +1    0.3043025 +1    16    15    14
  H     1.10381140 +1   74.5808050 +1   91.6856786 +1    12     8     7
  H     1.09474468 +1  119.8132122 +1 -174.8303861 +1    13    12     8
  H     1.09424252 +1  120.5255649 +1  179.9773769 +1    15    14    13
  H     1.10473793 +1  121.8398865 +1  179.9258632 +1    16    15    14
  H     1.09750883 +1  120.5936482 +1 -179.9603219 +1    14    13    12
  H     1.53261249 +1  131.5923554 +1   -5.0440609 +1     8     7     3
  H     1.07097225 +1  120.2416699 +1 -178.1830620 +1    17    16    15
  O     0.96914279 +1  159.5681369 +1   45.0584238 +1     8     7     3

 *+*+*+*+*+*+*+*+*+*+*+*+*+*+*+*+*+*+*+*+*+*+*+*+*+*+*+*+*+*+*+*+*+*+*+*+*+*+*+*+
            BAR SHORTENED BY       1.000 PERCENT
 GRADIENT CRITERION IN FLEPO =     7.795


          FOR POINT   26 SECOND STRUCTURE
 DISTANCE A - B      2.634595
 HEAT              -49.669178
 GRADIENT NORM      14.676611
 DIRECTION COSINE   -0.263669
* ===============================
* Input file for Mopac
* ===============================
 PM7 BONDS AUX DUMP=30M ITRY=15000 T=14D CHARGE=0 SINGLET eps=78.4 RELSCF=1


  C     0.00000000 +0    0.0000000 +0    0.0000000 +0     0     0     0
  H     1.09734979 +1    0.0000000 +0    0.0000000 +0     1     0     0
  N     2.42279798 +1   88.3250019 +1    0.0000000 +0     1     2     0
  O     1.25435162 +1   91.5688272 +1   -5.6239352 +1     3     1     2
  O     1.25914669 +1  151.1833913 +1  176.5175328 +1     3     1     2
  H     2.12826971 +1  145.7804000 +1 -175.2496577 +1     1     2     3
  C     1.33642082 +1   30.5320690 +1  172.6845691 +1     3     1     2
  H     2.20181792 +1   93.2507708 +1 -100.2802554 +1     7     3     1
  H     1.08449406 +1  118.7558767 +1  177.6432529 +1     7     3     1
  C     1.07635422 +1   31.5358006 +1    0.9425995 +1     6     1     2
  H     1.07559136 +1  113.1057861 +1  179.5818160 +1    10     6     1
  C     4.20461304 +1  165.9323893 +1  -99.6824098 +1     8     7     3
  C     1.39117020 +1  163.6468360 +1  -92.7726265 +1    12     8     7
  C     1.39754556 +1  119.5163702 +1    4.9466190 +1    13    12     8
  C     1.39159236 +1  118.9373364 +1    0.0000000 +1    14    13    12
  C     1.39530725 +1  119.8333025 +1    0.0100180 +1    15    14    13
  N     1.36018797 +1  120.6883281 +1   -0.2553225 +1    16    15    14
  H     1.10749061 +1   74.5085042 +1   91.6353065 +1    12     8     7
  H     1.09924752 +1  120.0542683 +1 -174.9919398 +1    13    12     8
  H     1.09775056 +1  120.4114648 +1  179.9306894 +1    15    14    13
  H     1.10212192 +1  121.7978072 +1  179.9184724 +1    16    15    14
  H     1.09520640 +1  120.4412657 +1 -179.9491612 +1    14    13    12
  H     1.53881192 +1  131.6971334 +1   -5.0492562 +1     8     7     3
  H     1.06985304 +1  120.7060629 +1 -178.3631682 +1    17    16    15
  O     0.97190873 +1   37.9448622 +1  154.5643543 +1    23     8     7

 TIME=     0.45
  REACTANTS AND PRODUCTS SWAPPED AROUND
 *+*+*+*+*+*+*+*+*+*+*+*+*+*+*+*+*+*+*+*+*+*+*+*+*+*+*+*+*+*+*+*+*+*+*+*+*+*+*+*+
            BAR SHORTENED BY       1.000 PERCENT
 GRADIENT CRITERION IN FLEPO =    10.000


          FOR POINT   27 FIRST  STRUCTURE
 DISTANCE A - B      2.608249
 HEAT              -49.160644
 GRADIENT NORM      11.563250
 DIRECTION COSINE    0.461179
* ===============================
* Input file for Mopac
* ===============================
 PM7 BONDS AUX DUMP=30M ITRY=15000 T=14D CHARGE=0 SINGLET eps=78.4 RELSCF=1


  C     0.00000000 +0    0.0000000 +0    0.0000000 +0     0     0     0
  H     1.09414601 +1    0.0000000 +0    0.0000000 +0     1     0     0
  N     2.46484894 +1   89.8285362 +1    0.0000000 +0     1     2     0
  O     1.22066219 +1   87.8172045 +1  -21.1856892 +1     3     1     2
  O     1.22572640 +1  148.9916511 +1  175.1206769 +1     3     1     2
  H     2.13611305 +1  147.1988522 +1 -160.1772948 +1     1     2     3
  C     1.47468479 +1   34.0422201 +1  142.0080889 +1     3     1     2
  H     1.13800079 +1  107.5857585 +1 -121.0525512 +1     7     3     1
  H     1.12086087 +1  109.1447408 +1  126.0838680 +1     7     3     1
  C     1.08139293 +1   31.2187621 +1    0.2668756 +1     6     1     2
  H     1.08013693 +1  112.8414966 +1 -179.2150340 +1    10     6     1
  C     5.44972942 +1  165.9444899 +1   11.7137390 +1     8     7     3
  C     1.39754559 +1  163.5574383 +1  171.3334436 +1    12     8     7
  C     1.39259366 +1  118.6707234 +1  -17.6107299 +1    13    12     8
  C     1.39283331 +1  119.1841342 +1    0.3307130 +1    14    13    12
  C     1.39972305 +1  118.7494759 +1   -0.3234073 +1    15    14    13
  N     1.34707251 +1  122.2339552 +1    0.2877982 +1    16    15    14
  H     1.09887553 +1   74.1961343 +1  -24.1273655 +1    12     8     7
  H     1.08893148 +1  120.2283633 +1  162.7630359 +1    13    12     8
  H     1.09212599 +1  120.7327769 +1  179.7889217 +1    15    14    13
  H     1.09819671 +1  121.4355034 +1 -179.8432172 +1    16    15    14
  H     1.09558771 +1  120.1700266 +1  179.8859230 +1    14    13    12
  H     2.57014047 +1  132.3077478 +1    8.2056219 +1     8     7     3
  H     1.52452268 +1   78.6956431 +1  158.5290723 +1    23     8     7
  O     0.96212555 +1   50.6648372 +1  129.2727904 +1    23     8     7

 TIME=     0.13
  REACTANTS AND PRODUCTS SWAPPED AROUND
 *+*+*+*+*+*+*+*+*+*+*+*+*+*+*+*+*+*+*+*+*+*+*+*+*+*+*+*+*+*+*+*+*+*+*+*+*+*+*+*+
            BAR SHORTENED BY       1.000 PERCENT
 GRADIENT CRITERION IN FLEPO =     8.563


          FOR POINT   28 SECOND STRUCTURE
 DISTANCE A - B      2.582167
 HEAT              -49.517154
 GRADIENT NORM      12.580088
 DIRECTION COSINE    0.258802
* ===============================
* Input file for Mopac
* ===============================
 PM7 BONDS AUX DUMP=30M ITRY=15000 T=14D CHARGE=0 SINGLET eps=78.4 RELSCF=1


  C     0.00000000 +0    0.0000000 +0    0.0000000 +0     0     0     0
  H     1.09495945 +1    0.0000000 +0    0.0000000 +0     1     0     0
  N     2.42356626 +1   88.4514118 +1    0.0000000 +0     1     2     0
  O     1.25656119 +1   91.4459639 +1   -5.8277022 +1     3     1     2
  O     1.26147042 +1  151.3890639 +1  176.6787735 +1     3     1     2
  H     2.13280539 +1  145.8971439 +1 -174.6063801 +1     1     2     3
  C     1.33625863 +1   30.6790790 +1  172.9306860 +1     3     1     2
  H     2.20970051 +1   93.0606094 +1  -99.8469434 +1     7     3     1
  H     1.08505883 +1  118.7632425 +1  178.1352392 +1     7     3     1
  C     1.07770652 +1   31.4672576 +1   -0.0831543 +1     6     1     2
  H     1.07863859 +1  113.1804928 +1  178.8128786 +1    10     6     1
  C     4.20649693 +1  166.1174817 +1  -98.7918158 +1     8     7     3
  C     1.39240315 +1  163.5458036 +1  -93.3442923 +1    12     8     7
  C     1.39541233 +1  119.5620073 +1    4.4914899 +1    13    12     8
  C     1.39403867 +1  118.9680640 +1    0.0433718 +1    14    13    12
  C     1.39479906 +1  119.7702840 +1   -0.2139976 +1    15    14    13
  N     1.36193361 +1   42.7247661 +1  -87.8052853 +1    12     8     7
  H     1.10591574 +1   74.6841605 +1   90.5290222 +1    12     8     7
  H     1.09672476 +1  119.9356615 +1 -175.3780317 +1    13    12     8
  H     1.09632898 +1  120.4599778 +1 -179.8595133 +1    15    14    13
  H     1.10340714 +1  121.7806471 +1  179.7141250 +1    16    15    14
  H     1.09769277 +1  120.4112296 +1 -179.9052722 +1    14    13    12
  H     1.53795560 +1  131.4299599 +1   -4.8884036 +1     8     7     3
  H     1.05218216 +1  119.7515385 +1    0.7439209 +1    17    12     8
  O     0.97136331 +1   37.8014689 +1  153.9758446 +1    23     8     7

 *+*+*+*+*+*+*+*+*+*+*+*+*+*+*+*+*+*+*+*+*+*+*+*+*+*+*+*+*+*+*+*+*+*+*+*+*+*+*+*+
            BAR SHORTENED BY       1.000 PERCENT
 GRADIENT CRITERION IN FLEPO =     9.580


          FOR POINT   29 SECOND STRUCTURE
 DISTANCE A - B      2.556345
 HEAT              -49.361580
 GRADIENT NORM      13.036285
 DIRECTION COSINE   -0.120538
* ===============================
* Input file for Mopac
* ===============================
 PM7 BONDS AUX DUMP=30M ITRY=15000 T=14D CHARGE=0 SINGLET eps=78.4 RELSCF=1


  C     0.00000000 +0    0.0000000 +0    0.0000000 +0     0     0     0
  H     1.09716905 +1    0.0000000 +0    0.0000000 +0     1     0     0
  N     2.42161034 +1   88.5088011 +1    0.0000000 +0     1     2     0
  O     1.25793502 +1   91.4622734 +1   -6.0257944 +1     3     1     2
  O     1.26103255 +1  151.4364879 +1  176.4871499 +1     3     1     2
  H     2.13723324 +1  145.7401629 +1 -173.8299936 +1     1     2     3
  C     1.33508587 +1   30.6065843 +1  172.3894746 +1     3     1     2
  H     2.20615461 +1   93.1403641 +1 -100.2335197 +1     7     3     1
  H     1.08726463 +1  118.7213899 +1  177.4437658 +1     7     3     1
  C     1.08121520 +1   31.4067776 +1   -1.7118911 +1     6     1     2
  H     1.07457526 +1  113.3534057 +1  178.9153399 +1    10     6     1
  C     4.21180902 +1  166.3527641 +1  -98.5611725 +1     8     7     3
  C     1.39269943 +1  163.5194244 +1  -93.1724896 +1    12     8     7
  C     1.39487249 +1  119.5857954 +1    4.0936119 +1    13    12     8
  C     1.39481427 +1  118.9746956 +1    0.0781062 +1    14    13    12
  C     1.39302316 +1  119.7558992 +1   -0.1647579 +1    15    14    13
  N     1.35601547 +1   42.9520990 +1  -88.0522760 +1    12     8     7
  H     1.10573023 +1   74.8314169 +1   90.1598288 +1    12     8     7
  H     1.09582531 +1  119.8573906 +1 -175.7220421 +1    13    12     8
  H     1.09575849 +1  120.3769058 +1 -179.9157891 +1    15    14    13
  H     1.10620346 +1  121.8063524 +1 -179.9918869 +1    16    15    14
  H     1.09670890 +1  120.4102396 +1 -179.8854945 +1    14    13    12
  H     1.53827594 +1  131.4551242 +1   -4.5533979 +1     8     7     3
  H     1.06844696 +1  119.6137789 +1    0.3390797 +1    17    12     8
  O     0.96993797 +1   37.8117597 +1  153.5660557 +1    23     8     7

 TIME=     0.27
  REACTANTS AND PRODUCTS SWAPPED AROUND
 *+*+*+*+*+*+*+*+*+*+*+*+*+*+*+*+*+*+*+*+*+*+*+*+*+*+*+*+*+*+*+*+*+*+*+*+*+*+*+*+
            BAR SHORTENED BY       1.000 PERCENT
 GRADIENT CRITERION IN FLEPO =    10.000


          FOR POINT   30 FIRST  STRUCTURE
 DISTANCE A - B      2.530782
 HEAT              -49.151675
 GRADIENT NORM      12.921099
 DIRECTION COSINE   -0.479747
* ===============================
* Input file for Mopac
* ===============================
 PM7 BONDS AUX DUMP=30M ITRY=15000 T=14D CHARGE=0 SINGLET eps=78.4 RELSCF=1


[...]
            BAR SHORTENED BY       1.000 PERCENT
 GRADIENT CRITERION IN FLEPO =    10.000


          FOR POINT  384 FIRST  STRUCTURE
 DISTANCE A - B      0.100497
 HEAT              -30.831184
 GRADIENT NORM      20.111766
 DIRECTION COSINE    0.848876
* ===============================
* Input file for Mopac
* ===============================
 PM7 BONDS AUX DUMP=30M ITRY=15000 T=14D CHARGE=0 SINGLET eps=78.4 RELSCF=1


  C     0.00000000 +0    0.0000000 +0    0.0000000 +0     0     0     0
  H     1.09484608 +1    0.0000000 +0    0.0000000 +0     1     0     0
  N     2.42895672 +1   90.1675915 +1    0.0000000 +0     1     2     0
  O     1.23113124 +1   89.5930381 +1  -15.1735174 +1     3     1     2
  O     1.23314917 +1  148.5875348 +1 -174.5882879 +1     3     1     2
  H     2.13453350 +1  146.1229055 +1 -158.1495727 +1     1     2     3
  C     1.42063834 +1   33.6695707 +1  143.6851662 +1     3     1     2
  H     1.34630183 +1  108.4188669 +1 -119.9452132 +1     7     3     1
  H     1.10520069 +1  112.9823144 +1  135.1450507 +1     7     3     1
  C     1.07786507 +1   31.0719309 +1   -2.2444500 +1     6     1     2
  H     1.08135299 +1  112.4804890 +1  179.9005919 +1    10     6     1
  C     4.67737616 +1  167.6746267 +1  -64.0248503 +1     8     7     3
  C     1.39651754 +1  162.6249202 +1 -121.8450524 +1    12     8     7
  C     1.39508315 +1  119.3576861 +1   -3.3407943 +1    13    12     8
  C     1.39329110 +1  118.8754013 +1    0.0629338 +1    14    13    12
  C     1.39705929 +1  119.4396499 +1   -0.0503009 +1    15    14    13
  N     1.35541651 +1  121.4329215 +1    0.1840601 +1    16    15    14
  H     1.10248967 +1   76.1039163 +1   55.3610440 +1    12     8     7
  H     1.09514255 +1  120.2314135 +1  176.6561123 +1    13    12     8
  H     1.09371188 +1  120.6075769 +1 -179.9035947 +1    15    14    13
  H     1.10107712 +1  121.4307225 +1 -179.9657689 +1    16    15    14
  H     1.09663145 +1  120.4566715 +1 -179.9691018 +1    14    13    12
  H     1.79672710 +1  139.8321239 +1  -14.0359204 +1     8     7     3
  H     1.23442596 +1  120.4257581 +1 -178.4343989 +1    17    16    15
  O     0.94407177 +1   46.8234516 +1  178.2656174 +1    23     8     7

 TIME=     0.05
  REACTANTS AND PRODUCTS SWAPPED AROUND
 *+*+*+*+*+*+*+*+*+*+*+*+*+*+*+*+*+*+*+*+*+*+*+*+*+*+*+*+*+*+*+*+*+*+*+*+*+*+*+*+
            BAR SHORTENED BY       1.000 PERCENT
 AT END OF STEPWISE ASCENT OF REACTION BARRIER

 -------------------------------------------------------------------------------
 PM7 BONDS AUX DUMP=30M ITRY=15000 T=14D CHARGE=0 SINGLET eps=78.4 RELSCF=1




     TRANSITION STATE LOCATED USING THE "SADDLE" TECHNIQUE    
     SCF FIELD WAS ACHIEVED                                   


                              PM7 CALCULATION
                                                       MOPAC v22.0.6 Linux
                                                       Tue Mar 26 11:50:51 2024




          FINAL HEAT OF FORMATION =        -30.83118 KCAL/MOL =    -128.99768 KJ/MOL
          VAN DER WAALS AREA      =        244.45 SQUARE ANGSTROMS



          DIELECTRIC ENERGY       =         -1.20460 EV
          COSMO AREA              =        244.45 SQUARE ANGSTROMS
          COSMO VOLUME            =        233.82 CUBIC ANGSTROMS

          GRADIENT NORM           =          8.64054          =       1.72811 PER ATOM
          IONIZATION POTENTIAL    =          9.700334 EV
          HOMO LUMO ENERGIES (EV) =         -9.700 -0.919
          NO. OF FILLED LEVELS    =         36
          MOLECULAR WEIGHT        =        184.1944         POINT GROUP:  C1  

          MOLECULAR DIMENSIONS (Angstroms)

            Atom       Atom       Distance
            H    22    H    11    10.48723
            H    20    O     5     6.57349
            H     2    H     6     2.83910


          SCF CALCULATIONS        =       2234

          WALL-CLOCK TIME         =     52.469 SECONDS
          COMPUTATION TIME        =         12 MINUTES AND 32.667 SECONDS



       FINAL  POINT  AND  DERIVATIVES

   PARAMETER     ATOM    TYPE            VALUE        GRADIENT
      1          1  C    CARTESIAN X     0.405109     -1.609706  KCAL/ANGSTROM
      2          1  C    CARTESIAN Y    -0.438179      0.679130  KCAL/ANGSTROM
      3          1  C    CARTESIAN Z     0.118394      0.034201  KCAL/ANGSTROM
      4          2  H    CARTESIAN X     0.873873     -0.645737  KCAL/ANGSTROM
      5          2  H    CARTESIAN Y    -0.955304      0.084184  KCAL/ANGSTROM
      6          2  H    CARTESIAN Z    -0.725134      0.136851  KCAL/ANGSTROM
      7          3  N    CARTESIAN X     0.764300     -1.597080  KCAL/ANGSTROM
      8          3  N    CARTESIAN Y    -2.387423      0.653070  KCAL/ANGSTROM
      9          3  N    CARTESIAN Z     1.522279      0.226683  KCAL/ANGSTROM
     10          4  O    CARTESIAN X     0.985111     -0.688146  KCAL/ANGSTROM
     11          4  O    CARTESIAN Y    -3.060972      0.516598  KCAL/ANGSTROM
     12          4  O    CARTESIAN Z     0.515603     -0.197477  KCAL/ANGSTROM
     13          5  O    CARTESIAN X     0.591749     -1.131513  KCAL/ANGSTROM
     14          5  O    CARTESIAN Y    -2.950279     -0.620740  KCAL/ANGSTROM
     15          5  O    CARTESIAN Z     2.605885      0.224984  KCAL/ANGSTROM
     16          6  H    CARTESIAN X    -0.913100      0.379669  KCAL/ANGSTROM
     17          6  H    CARTESIAN Y     1.126610     -0.181558  KCAL/ANGSTROM
     18          6  H    CARTESIAN Z     0.726676     -0.071270  KCAL/ANGSTROM
     19          7  C    CARTESIAN X     0.732928     -1.402426  KCAL/ANGSTROM
     20          7  C    CARTESIAN Y    -0.968972     -0.867792  KCAL/ANGSTROM
     21          7  C    CARTESIAN Z     1.454422     -0.031400  KCAL/ANGSTROM
     22          8  H    CARTESIAN X     1.949452      0.240167  KCAL/ANGSTROM
     23          8  H    CARTESIAN Y    -0.499789      0.059746  KCAL/ANGSTROM
     24          8  H    CARTESIAN Z     1.793717      0.507868  KCAL/ANGSTROM
     25          9  H    CARTESIAN X     0.194963     -0.197321  KCAL/ANGSTROM
     26          9  H    CARTESIAN Y    -0.507944     -0.226534  KCAL/ANGSTROM
     27          9  H    CARTESIAN Z     2.302611     -0.110532  KCAL/ANGSTROM
     28         10  C    CARTESIAN X    -0.410449      0.342188  KCAL/ANGSTROM
     29         10  C    CARTESIAN Y     0.599588     -1.052080  KCAL/ANGSTROM
     30         10  C    CARTESIAN Z    -0.067909      0.755641  KCAL/ANGSTROM
     31         11  H    CARTESIAN X    -0.641293     -0.409379  KCAL/ANGSTROM
     32         11  H    CARTESIAN Y     1.004745      0.284665  KCAL/ANGSTROM
     33         11  H    CARTESIAN Z    -1.043536     -0.709323  KCAL/ANGSTROM
     34         12  C    CARTESIAN X     5.962900      1.692462  KCAL/ANGSTROM
     35         12  C    CARTESIAN Y     0.717293     -0.182731  KCAL/ANGSTROM
     36         12  C    CARTESIAN Z     3.863013      1.125175  KCAL/ANGSTROM
     37         13  C    CARTESIAN X     7.026254      2.032000  KCAL/ANGSTROM
     38         13  C    CARTESIAN Y     1.465470      1.093039  KCAL/ANGSTROM
     39         13  C    CARTESIAN Z     4.372683      1.031585  KCAL/ANGSTROM
     40         14  C    CARTESIAN X     7.046262      1.193135  KCAL/ANGSTROM
     41         14  C    CARTESIAN Y     2.846690      1.794097  KCAL/ANGSTROM
     42         14  C    CARTESIAN Z     4.177512      0.245664  KCAL/ANGSTROM
     43         15  C    CARTESIAN X     5.999160      1.902392  KCAL/ANGSTROM
     44         15  C    CARTESIAN Y     3.442508      0.890726  KCAL/ANGSTROM
     45         15  C    CARTESIAN Z     3.477618      1.360759  KCAL/ANGSTROM
     46         16  C    CARTESIAN X     4.959498      1.521757  KCAL/ANGSTROM
     47         16  C    CARTESIAN Y     2.647366      0.867936  KCAL/ANGSTROM
     48         16  C    CARTESIAN Z     2.989130      0.282631  KCAL/ANGSTROM
     49         17  N    CARTESIAN X     4.943872     -0.387566  KCAL/ANGSTROM
     50         17  N    CARTESIAN Y     1.306089      2.458565  KCAL/ANGSTROM
     51         17  N    CARTESIAN Z     3.183994     -0.309843  KCAL/ANGSTROM
     52         18  H    CARTESIAN X     5.917036      1.586598  KCAL/ANGSTROM
     53         18  H    CARTESIAN Y    -0.376091      0.692225  KCAL/ANGSTROM
     54         18  H    CARTESIAN Z     3.996737      0.772826  KCAL/ANGSTROM
     55         19  H    CARTESIAN X     7.835810      2.219677  KCAL/ANGSTROM
     56         19  H    CARTESIAN Y     0.971199      0.654235  KCAL/ANGSTROM
     57         19  H    CARTESIAN Z     4.920094      1.416114  KCAL/ANGSTROM
     58         20  H    CARTESIAN X     5.986998      0.964060  KCAL/ANGSTROM
     59         20  H    CARTESIAN Y     4.522759      0.936329  KCAL/ANGSTROM
     60         20  H    CARTESIAN Z     3.306909      0.340103  KCAL/ANGSTROM
     61         21  H    CARTESIAN X     4.116340      1.637451  KCAL/ANGSTROM
     62         21  H    CARTESIAN Y     3.083676      0.045436  KCAL/ANGSTROM
     63         21  H    CARTESIAN Z     2.431367      0.963440  KCAL/ANGSTROM
     64         22  H    CARTESIAN X     7.872722      1.759518  KCAL/ANGSTROM
     65         22  H    CARTESIAN Y     3.451579      1.041142  KCAL/ANGSTROM
     66         22  H    CARTESIAN Z     4.569527      0.945152  KCAL/ANGSTROM
     67         23  H    CARTESIAN X     3.473144      0.662673  KCAL/ANGSTROM
     68         23  H    CARTESIAN Y    -1.063773      0.729645  KCAL/ANGSTROM
     69         23  H    CARTESIAN Z     2.559422      0.116865  KCAL/ANGSTROM
     70         24  H    CARTESIAN X     4.031099      0.129802  KCAL/ANGSTROM
     71         24  H    CARTESIAN Y     0.617800     -1.244108  KCAL/ANGSTROM
     72         24  H    CARTESIAN Z     2.719673      0.436864  KCAL/ANGSTROM
     73         25  O    CARTESIAN X     3.203804     -1.857914  KCAL/ANGSTROM
     74         25  O    CARTESIAN Y    -0.239442      0.745186  KCAL/ANGSTROM
     75         25  O    CARTESIAN Z     2.186246     -0.707218  KCAL/ANGSTROM




   ATOM   CHEMICAL          X               Y               Z
  NUMBER   SYMBOL      (ANGSTROMS)     (ANGSTROMS)     (ANGSTROMS)

     1       C          0.40510879  *  -0.43817912  *   0.11839409  *
     2       H          0.87387269  *  -0.95530424  *  -0.72513367  *
     3       N          0.76429964  *  -2.38742270  *   1.52227906  *
     4       O          0.98511137  *  -3.06097150  *   0.51560303  *
     5       O          0.59174917  *  -2.95027938  *   2.60588513  *
     6       H         -0.91309981  *   1.12660977  *   0.72667634  *
     7       C          0.73292793  *  -0.96897192  *   1.45442174  *
     8       H          1.94945191  *  -0.49978937  *   1.79371745  *
     9       H          0.19496347  *  -0.50794387  *   2.30261053  *
    10       C         -0.41044949  *   0.59958760  *  -0.06790924  *
    11       H         -0.64129296  *   1.00474457  *  -1.04353642  *
    12       C          5.96289963  *   0.71729285  *   3.86301300  *
    13       C          7.02625386  *   1.46547039  *   4.37268277  *
    14       C          7.04626155  *   2.84668961  *   4.17751216  *
    15       C          5.99915968  *   3.44250765  *   3.47761839  *
    16       C          4.95949779  *   2.64736588  *   2.98913017  *
    17       N          4.94387197  *   1.30608867  *   3.18399386  *
    18       H          5.91703603  *  -0.37609094  *   3.99673707  *
    19       H          7.83581009  *   0.97119858  *   4.92009445  *
    20       H          5.98699777  *   4.52275864  *   3.30690939  *
    21       H          4.11633983  *   3.08367646  *   2.43136747  *
    22       H          7.87272163  *   3.45157887  *   4.56952656  *
    23       H          3.47314420  *  -1.06377267  *   2.55942243  *
    24       H          4.03109895  *   0.61780049  *   2.71967263  *
    25       O          3.20380366  *  -0.23944197  *   2.18624610  *

                             CARTESIAN COORDINATES

   1    C        0.405108792    -0.438179121     0.118394092
   2    H        0.873872688    -0.955304236    -0.725133670
   3    N        0.764299638    -2.387422702     1.522279062
   4    O        0.985111372    -3.060971502     0.515603027
   5    O        0.591749166    -2.950279377     2.605885126
   6    H       -0.913099814     1.126609771     0.726676340
   7    C        0.732927929    -0.968971921     1.454421745
   8    H        1.949451908    -0.499789366     1.793717452
   9    H        0.194963473    -0.507943865     2.302610527
  10    C       -0.410449493     0.599587597    -0.067909239
  11    H       -0.641292962     1.004744571    -1.043536420
  12    C        5.962899630     0.717292852     3.863013004
  13    C        7.026253860     1.465470386     4.372682773
  14    C        7.046261549     2.846689611     4.177512158
  15    C        5.999159676     3.442507655     3.477618391
  16    C        4.959497794     2.647365879     2.989130166
  17    N        4.943871973     1.306088665     3.183993858
  18    H        5.917036029    -0.376090938     3.996737070
  19    H        7.835810092     0.971198578     4.920094453
  20    H        5.986997770     4.522758637     3.306909385
  21    H        4.116339831     3.083676455     2.431367471
  22    H        7.872721626     3.451578871     4.569526561
  23    H        3.473144205    -1.063772669     2.559422428
  24    H        4.031098952     0.617800492     2.719672632
  25    O        3.203803663    -0.239441971     2.186246102


           Empirical Formula: C8 H12 N2 O3  =    25 atoms



      MOLECULAR POINT GROUP   :   C1  


                  EIGENVALUES  
 -37.54205 -36.99629 -30.09692 -29.36431 -28.53542 -27.07685 -26.95680 -26.13609
 -22.99724 -22.64221 -22.23786 -19.83849 -19.52306 -18.30416 -17.80427 -17.64751
 -17.18736 -16.67727 -16.29735 -15.65951 -15.29598 -15.15469 -14.85305 -14.72258
 -13.92324 -13.08552 -12.70131 -12.32803 -11.86050 -11.79486 -11.65200 -11.57291
 -11.55018 -11.35589 -10.77296  -9.70033  -0.91895  -0.72333  -0.16029   0.59746
   1.27745   1.63067   1.88031   3.46581   3.62706   3.72318   3.95463   4.09263
   4.49356   4.50252   4.54319   4.84119   5.02304   5.15174   5.39861   5.43453
   5.61510   5.68829   5.74859   5.80161   6.21196   6.34029   6.50025   6.73950


              NET ATOMIC CHARGES AND DIPOLE CONTRIBUTIONS

  ATOM NO.   TYPE          CHARGE      No. of ELECS.   s-Pop       p-Pop       
    1          C          -0.094822        4.0948     1.08403     3.01079
    2          H           0.163782        0.8362     0.83622
    3          N           0.717553        4.2824     1.44343     2.83902
    4          O          -0.527824        6.5278     1.94083     4.58700
    5          O          -0.541102        6.5411     1.94147     4.59963
    6          H           0.154065        0.8459     0.84594
    7          C          -0.455141        4.4551     1.10049     3.35465
    8          H           0.405650        0.5944     0.59435
    9          H           0.208070        0.7919     0.79193
   10          C          -0.351431        4.3514     1.09555     3.25588
   11          H           0.155703        0.8443     0.84430
   12          C           0.054335        3.9457     1.10432     2.84134
   13          C          -0.209329        4.2093     1.09315     3.11618
   14          C          -0.042590        4.0426     1.10001     2.94258
   15          C          -0.211464        4.2115     1.09224     3.11922
   16          C           0.055559        3.9444     1.10384     2.84060
   17          N          -0.305040        5.3050     1.60583     3.69921
   18          H           0.210751        0.7892     0.78925
   19          H           0.196795        0.8032     0.80321
   20          H           0.195512        0.8045     0.80449
   21          H           0.209414        0.7906     0.79059
   22          H           0.185137        0.8149     0.81486
   23          H           0.364242        0.6358     0.63576
   24          H           0.446536        0.5535     0.55346
   25          O          -0.984362        6.9844     1.84488     5.13948
 DIPOLE           X         Y         Z       TOTAL
 POINT-CHG.    11.801    12.837     5.674    18.337
 HYBRID        -0.158    -0.675     0.247     0.736
 SUM           11.643    12.162     5.920    17.847


          ATOMIC ORBITAL ELECTRON POPULATIONS

     Atom    s        px        py        pz   
    1  C   1.08403   0.98856   1.01213   1.01010
    2  H   0.83622
    3  N   1.44343   0.88662   1.01725   0.93515
    4  O   1.94083   1.59840   1.68709   1.30151
    5  O   1.94147   1.61629   1.77145   1.21189
    6  H   0.84594
    7  C   1.10049   1.40176   0.84892   1.10397
    8  H   0.59435
    9  H   0.79193
   10  C   1.09555   1.04140   1.05429   1.16019
   11  H   0.84430
   12  C   1.10432   0.88320   1.06649   0.89166
   13  C   1.09315   1.05964   1.01468   1.04186
   14  C   1.10001   1.01918   1.00985   0.91356
   15  C   1.09224   0.99184   1.11110   1.01628
   16  C   1.10384   1.03320   0.85671   0.95070
   17  N   1.60583   1.27274   1.16647   1.26000
   18  H   0.78925
   19  H   0.80321
   20  H   0.80449
   21  H   0.79059
   22  H   0.81486
   23  H   0.63576
   24  H   0.55346
   25  O   1.84488   1.74912   1.52518   1.86518

          BONDING CONTRIBUTION OF EACH M.O.

  1.3843  1.3610  0.9748  1.8249  1.6585  1.7532  1.2138  1.3136  1.8265  1.9556
  1.2025  1.6950  1.7706  1.4973  1.3596  1.5582  2.0566  1.7424  1.8500  1.3505
  1.8724  2.0009  1.5010  1.9349  1.6171  2.0214  1.5962  1.9377  0.2913  0.7509
  0.5542  0.5894  1.8924  1.2662  2.0770  1.4370 -1.9989 -1.9264 -2.3335 -2.0627
 -2.0663 -1.9593 -1.9246 -1.8937 -1.9197 -1.9610 -2.0090 -1.8902 -1.9258 -1.8861
 -1.9852 -1.9614 -1.9293 -1.9492 -1.9360 -1.9360 -1.9306 -1.9421 -1.9269 -1.9915
 -1.9101 -1.8722 -1.9564 -1.7051





            (VALENCIES)   BOND ORDERS

     1  C     (3.968)    10  C 1.967     7  C 1.019     2  H 0.958

     2  H     (0.973)     1  C 0.958

     3  N     (3.778)     4  O 1.390     5  O 1.378     7  C 0.968    10  C 0.013     8  H 0.011

     4  O     (1.754)     3  N 1.390     5  O 0.249     7  C 0.085

     5  O     (1.740)     3  N 1.378     4  O 0.249     7  C 0.082

     6  H     (0.976)    10  C 0.967

     7  C     (3.724)     1  C 1.019     3  N 0.968     9  H 0.927     8  H 0.542     4  O 0.085     5  O 0.082
                         25  O 0.050    10  C 0.019

     8  H     (0.835)     7  C 0.542    25  O 0.238     3  N 0.011

     9  H     (0.957)     7  C 0.927

    10  C     (3.950)     1  C 1.967     6  H 0.967    11  H 0.965     7  C 0.019     3  N 0.013

    11  H     (0.976)    10  C 0.965

    12  C     (3.910)    13  C 1.449    17  N 1.343    18  H 0.937    15  C 0.112    16  C 0.026    21  H 0.010
                         14  C 0.010

    13  C     (3.962)    12  C 1.449    14  C 1.430    19  H 0.948    16  C 0.112

    14  C     (3.948)    15  C 1.438    13  C 1.430    22  H 0.953    17  N 0.096    12  C 0.010    16  C 0.010

    15  C     (3.962)    16  C 1.441    14  C 1.438    20  H 0.949    12  C 0.112

    16  C     (3.910)    15  C 1.441    17  N 1.352    21  H 0.938    13  C 0.112    12  C 0.026    18  H 0.010
                         14  C 0.010

    17  N     (3.361)    16  C 1.352    12  C 1.343    24  H 0.470    14  C 0.096    25  O 0.057

    18  H     (0.956)    12  C 0.937    16  C 0.010

    19  H     (0.961)    13  C 0.948

    20  H     (0.962)    15  C 0.949

    21  H     (0.956)    16  C 0.938    12  C 0.010

    22  H     (0.966)    14  C 0.953

    23  H     (0.867)    25  O 0.858

    24  H     (0.801)    17  N 0.470    25  O 0.297

    25  O     (1.535)    23  H 0.858    24  H 0.297     8  H 0.238    17  N 0.057     7  C 0.050


 **********************
 *                    *
 * JOB ENDED NORMALLY *
 *                    *
 **********************



 TOTAL JOB TIME:            52.49 SECONDS

 == MOPAC DONE ==
