
                                 *****************
                                 * O   R   C   A *
                                 *****************

                                            #,                                       
                                            ###                                      
                                            ####                                     
                                            #####                                    
                                            ######                                   
                                           ########,                                 
                                     ,,################,,,,,                         
                               ,,#################################,,                 
                          ,,##########################################,,             
                       ,#########################################, ''#####,          
                    ,#############################################,,   '####,        
                  ,##################################################,,,,####,       
                ,###########''''           ''''###############################       
              ,#####''   ,,,,##########,,,,          '''####'''          '####       
            ,##' ,,,,###########################,,,                        '##       
           ' ,,###''''                  '''############,,,                           
         ,,##''                                '''############,,,,        ,,,,,,###''
      ,#''                                            '''#######################'''  
     '                                                          ''''####''''         
             ,#######,   #######,   ,#######,      ##                                
            ,#'     '#,  ##    ##  ,#'     '#,    #''#        ######   ,####,        
            ##       ##  ##   ,#'  ##            #'  '#       #        #'  '#        
            ##       ##  #######   ##           ,######,      #####,   #    #        
            '#,     ,#'  ##    ##  '#,     ,#' ,#      #,         ##   #,  ,#        
             '#######'   ##     ##  '#######'  #'      '#     #####' # '####'        



                  #######################################################
                  #                        -***-                        #
                  #          Department of theory and spectroscopy      #
                  #    Directorship and core code : Frank Neese         #
                  #        Max Planck Institute fuer Kohlenforschung    #
                  #                Kaiser Wilhelm Platz 1               #
                  #                 D-45470 Muelheim/Ruhr               #
                  #                      Germany                        #
                  #                                                     #
                  #                  All rights reserved                #
                  #                        -***-                        #
                  #######################################################


                         Program Version 5.0.4 -  RELEASE  -


 With contributions from (in alphabetic order):
   Daniel Aravena         : Magnetic Suceptibility
   Michael Atanasov       : Ab Initio Ligand Field Theory (pilot matlab implementation)
   Alexander A. Auer      : GIAO ZORA, VPT2 properties, NMR spectrum
   Ute Becker             : Parallelization
   Giovanni Bistoni       : ED, misc. LED, open-shell LED, HFLD
   Martin Brehm           : Molecular dynamics
   Dmytro Bykov           : SCF Hessian
   Vijay G. Chilkuri      : MRCI spin determinant printing, contributions to CSF-ICE
   Dipayan Datta          : RHF DLPNO-CCSD density
   Achintya Kumar Dutta   : EOM-CC, STEOM-CC
   Dmitry Ganyushin       : Spin-Orbit,Spin-Spin,Magnetic field MRCI
   Miquel Garcia          : C-PCM and meta-GGA Hessian, CC/C-PCM, Gaussian charge scheme
   Yang Guo               : DLPNO-NEVPT2, F12-NEVPT2, CIM, IAO-localization
   Andreas Hansen         : Spin unrestricted coupled pair/coupled cluster methods
   Benjamin Helmich-Paris : MC-RPA, TRAH-SCF, COSX integrals
   Lee Huntington         : MR-EOM, pCC
   Robert Izsak           : Overlap fitted RIJCOSX, COSX-SCS-MP3, EOM
   Marcus Kettner         : VPT2
   Christian Kollmar      : KDIIS, OOCD, Brueckner-CCSD(T), CCSD density, CASPT2, CASPT2-K
   Simone Kossmann        : Meta GGA functionals, TD-DFT gradient, OOMP2, MP2 Hessian
   Martin Krupicka        : Initial AUTO-CI
   Lucas Lang             : DCDCAS
   Marvin Lechner         : AUTO-CI (C++ implementation), FIC-MRCC
   Dagmar Lenk            : GEPOL surface, SMD
   Dimitrios Liakos       : Extrapolation schemes; Compound Job, initial MDCI parallelization
   Dimitrios Manganas     : Further ROCIS development; embedding schemes
   Dimitrios Pantazis     : SARC Basis sets
   Anastasios Papadopoulos: AUTO-CI, single reference methods and gradients
   Taras Petrenko         : DFT Hessian,TD-DFT gradient, ASA, ECA, R-Raman, ABS, FL, XAS/XES, NRVS
   Peter Pinski           : DLPNO-MP2, DLPNO-MP2 Gradient
   Christoph Reimann      : Effective Core Potentials
   Marius Retegan         : Local ZFS, SOC
   Christoph Riplinger    : Optimizer, TS searches, QM/MM, DLPNO-CCSD(T), (RO)-DLPNO pert. Triples
   Tobias Risthaus        : Range-separated hybrids, TD-DFT gradient, RPA, STAB
   Michael Roemelt        : Original ROCIS implementation
   Masaaki Saitow         : Open-shell DLPNO-CCSD energy and density
   Barbara Sandhoefer     : DKH picture change effects
   Avijit Sen             : IP-ROCIS
   Kantharuban Sivalingam : CASSCF convergence, NEVPT2, FIC-MRCI
   Bernardo de Souza      : ESD, SOC TD-DFT
   Georgi Stoychev        : AutoAux, RI-MP2 NMR, DLPNO-MP2 response
   Willem Van den Heuvel  : Paramagnetic NMR
   Boris Wezisla          : Elementary symmetry handling
   Frank Wennmohs         : Technical directorship


 We gratefully acknowledge several colleagues who have allowed us to
 interface, adapt or use parts of their codes:
   Stefan Grimme, W. Hujo, H. Kruse, P. Pracht,  : VdW corrections, initial TS optimization,
                  C. Bannwarth, S. Ehlert          DFT functionals, gCP, sTDA/sTD-DF
   Ed Valeev, F. Pavosevic, A. Kumar             : LibInt (2-el integral package), F12 methods
   Garnet Chan, S. Sharma, J. Yang, R. Olivares  : DMRG
   Ulf Ekstrom                                   : XCFun DFT Library
   Mihaly Kallay                                 : mrcc  (arbitrary order and MRCC methods)
   Jiri Pittner, Ondrej Demel                    : Mk-CCSD
   Frank Weinhold                                : gennbo (NPA and NBO analysis)
   Christopher J. Cramer and Donald G. Truhlar   : smd solvation model
   Lars Goerigk                                  : TD-DFT with DH, B97 family of functionals
   V. Asgeirsson, H. Jonsson                     : NEB implementation
   FAccTs GmbH                                   : IRC, NEB, NEB-TS, DLPNO-Multilevel, CI-OPT
                                                   MM, QMMM, 2- and 3-layer-ONIOM, Crystal-QMMM,
                                                   LR-CPCM, SF, NACMEs, symmetry and pop. for TD-DFT,
                                                   nearIR, NL-DFT gradient (VV10), updates on ESD,
                                                   ML-optimized integration grids
   S Lehtola, MJT Oliveira, MAL Marques          : LibXC Library
   Liviu Ungur et al                             : ANISO software


 Your calculation uses the libint2 library for the computation of 2-el integrals
 For citations please refer to: http://libint.valeyev.net

 Your ORCA version has been built with support for libXC version: 5.1.0
 For citations please refer to: https://tddft.org/programs/libxc/

 This ORCA versions uses:
   CBLAS   interface :  Fast vector & matrix operations
   LAPACKE interface :  Fast linear algebra routines
   SCALAPACK package :  Parallel linear algebra routines
   Shared memory     :  Shared parallel matrices
   BLAS/LAPACK       :  OpenBLAS 0.3.15  USE64BITINT DYNAMIC_ARCH NO_AFFINITY Prescott SINGLE_THREADED
        Core in use  :  Prescott
   Copyright (c) 2011-2014, The OpenBLAS Project


Your calculation utilizes the atom-pairwise dispersion correction
with the Becke-Johnson damping scheme (D3BJ)
Cite in your paper:
S.Grimme, S.Ehrlich, L.Goerigk, J Comput Chem, (2011), 32, 1456–1465 
S.Grimme, J.Antony, S.Ehrlich and H.Krieg, J.Chem.Phys., 132, (2010), 154104 
   

================================================================================

----- Orbital basis set information -----
Your calculation utilizes the basis: def2-TZVP
   F. Weigend and R. Ahlrichs, Phys. Chem. Chem. Phys. 7, 3297 (2005).

----- AuxJ basis set information -----
Your calculation utilizes the auxiliary basis: def2/J
   F. Weigend, Phys. Chem. Chem. Phys. 8, 1057 (2006).

================================================================================
                                        WARNINGS
                       Please study these warnings very carefully!
================================================================================

WARNING: Gradients needed for Numerical Frequencies
  ===> : Setting RunTyp to EnGrad

INFO   : the flag for use of the SHARK integral package has been found!

================================================================================
                                       INPUT FILE
================================================================================
NAME = /home/rudenko/mop_saddle_orca_4_serv/for_orca/p-o2nc6h4chno2ch3_oh/orca/freq_D/f_D.inp
|  1> !  NUMFREQ B3LYP def2-TZVP CPCM D3 
|  2> %pal nprocs 102 end
|  3> %cpcm epsilon 78.4 end 
|  4> *xyz -1 1 
|  5> C   -2.30464014848278 0.72763458466024 -0.44420667920315
|  6> C   -1.01197202230754 0.69185711953914 0.04350343577021
|  7> C   -0.05083013227896 -0.16805606961217 -0.50627789658735
|  8> C   -0.43365014453427 -1.0109540719666 -1.55497914674746
|  9> C   -1.72584836485977 -0.9921281650286 -2.05515703805846
| 10> C   -2.64813637759601 -0.11862646064301 -1.49406480254355
| 11> H   -3.04285190108956 1.38756911067654 -0.01457643978367
| 12> H   -0.73960566894996 1.33315743870864 0.868610669752
| 13> H   0.28201546298777 -1.68985779301763 -1.99566098898666
| 14> C   1.32999410353942 -0.22528702651272 0.07364170756143
| 15> H   1.19435830285241 -0.16284283654258 1.30803773561243 M = 2
| 16> C   2.13825462578643 -1.47702989006006 -0.20711985626983
| 17> H   3.01347995222877 -1.5176697360525 0.43743992782761
| 18> H   2.47477071494591 -1.54386350678983 -1.24459369374335
| 19> H   1.51888450576571 -2.34700219307718 0.011532857224
| 20> N   2.101693870776 0.99237216332408 -0.18307054595787
| 21> O   3.33370430496651 0.92208544472784 -0.14885739856172
| 22> O   1.51607555829377 2.06742352998828 -0.33836336513849
| 23> O   2.64327083281436 1.82092419869132 3.53642277837023
| 24> H   2.29652781335872 2.14466497718408 4.37494324973002
| 25> H   -2.01451325090521 -1.63803562677165 -2.87042622283186
| 26> N   -4.01145424874978 -0.09474003943342 -2.01096341136261
| 27> O   -4.31889569880957 -0.89890790004052 -2.88518974003407
| 28> O   -4.79659947577501 0.72811095636666 -1.55019607686953
| 29> H   0.15801817153829 0.12237345285902 2.86930866722738
| 30> H   2.02022766252508 1.07603239252174 3.25794557047967
| 31> O   1.07772155195925 -0.12920405369908 2.72231670312465
| 32> *
| 33> 
| 34>                          ****END OF INPUT****
================================================================================

                     *******************************
                     * Energy+Gradient Calculation *
                     *******************************

---------------------------------
CARTESIAN COORDINATES (ANGSTROEM)
---------------------------------
  C     -2.304640    0.727635   -0.444207
  C     -1.011972    0.691857    0.043503
  C     -0.050830   -0.168056   -0.506278
  C     -0.433650   -1.010954   -1.554979
  C     -1.725848   -0.992128   -2.055157
  C     -2.648136   -0.118626   -1.494065
  H     -3.042852    1.387569   -0.014576
  H     -0.739606    1.333157    0.868611
  H      0.282015   -1.689858   -1.995661
  C      1.329994   -0.225287    0.073642
  H      1.194358   -0.162843    1.308038
  C      2.138255   -1.477030   -0.207120
  H      3.013480   -1.517670    0.437440
  H      2.474771   -1.543864   -1.244594
  H      1.518885   -2.347002    0.011533
  N      2.101694    0.992372   -0.183071
  O      3.333704    0.922085   -0.148857
  O      1.516076    2.067424   -0.338363
  O      2.643271    1.820924    3.536423
  H      2.296528    2.144665    4.374943
  H     -2.014513   -1.638036   -2.870426
  N     -4.011454   -0.094740   -2.010963
  O     -4.318896   -0.898908   -2.885190
  O     -4.796599    0.728111   -1.550196
  H      0.158018    0.122373    2.869309
  H      2.020228    1.076032    3.257946
  O      1.077722   -0.129204    2.722317

----------------------------
CARTESIAN COORDINATES (A.U.)
----------------------------
  NO LB      ZA    FRAG     MASS         X           Y           Z
   0 C     6.0000    0    12.011   -4.355139    1.375030   -0.839429
   1 C     6.0000    0    12.011   -1.912350    1.307420    0.082210
   2 C     6.0000    0    12.011   -0.096055   -0.317580   -0.956727
   3 C     6.0000    0    12.011   -0.819480   -1.910426   -2.938485
   4 C     6.0000    0    12.011   -3.261381   -1.874851   -3.883684
   5 C     6.0000    0    12.011   -5.004253   -0.224172   -2.823373
   6 H     1.0000    0     1.008   -5.750157    2.622126   -0.027545
   7 H     1.0000    0     1.008   -1.397652    2.519302    1.641436
   8 H     1.0000    0     1.008    0.532932   -3.193368   -3.771253
   9 C     6.0000    0    12.011    2.513325   -0.425731    0.139163
  10 H     1.0000    0     2.000    2.257010   -0.307728    2.471833
  11 C     6.0000    0    12.011    4.040716   -2.791182   -0.391400
  12 H     1.0000    0     1.008    5.694652   -2.867980    0.826642
  13 H     1.0000    0     1.008    4.676639   -2.917479   -2.351941
  14 H     1.0000    0     1.008    2.870276   -4.435191    0.021794
  15 N     7.0000    0    14.007    3.971626    1.875312   -0.345953
  16 O     8.0000    0    15.999    6.299788    1.742489   -0.281300
  17 O     8.0000    0    15.999    2.864968    3.906864   -0.639414
  18 O     8.0000    0    15.999    4.995058    3.441048    6.682871
  19 H     1.0000    0     1.008    4.339809    4.052829    8.267445
  20 H     1.0000    0     1.008   -3.806878   -3.095439   -5.424319
  21 N     7.0000    0    14.007   -7.580550   -0.179033   -3.800170
  22 O     8.0000    0    15.999   -8.161530   -1.698690   -5.452218
  23 O     8.0000    0    15.999   -9.064259    1.375930   -2.929446
  24 H     1.0000    0     1.008    0.298611    0.231252    5.422208
  25 H     1.0000    0     1.008    3.817677    2.033407    6.156625
  26 O     8.0000    0    15.999    2.036599   -0.244160    5.144433

--------------------------------
INTERNAL COORDINATES (ANGSTROEM)
--------------------------------
 C      0   0   0     0.000000000000     0.00000000     0.00000000
 C      1   0   0     1.382075275695     0.00000000     0.00000000
 C      2   1   0     1.401964314472   121.24597157     0.00000000
 C      3   2   1     1.398857575396   118.42197150   359.08415408
 C      4   3   2     1.385751990199   121.17127362     0.73776242
 C      5   4   3     1.388684594412   118.81712435   359.83609762
 H      1   2   3     1.079375890475   121.00070474   179.68006907
 H      2   1   3     1.079931237337   119.34941924   180.47176647
 H      4   3   2     1.080411037673   120.20808537   180.40447199
 C      3   2   1     1.498752047514   120.21920821   182.29537496
 H     10   3   2     1.243394507531   106.36259839    39.83223043
 C     10   3   2     1.516236236208   116.80799067   158.47453461
 H     12  10   3     1.087717005661   110.49030154   193.13654233
 H     12  10   3     1.092731336620   112.98329974    71.74362829
 H     12  10   3     1.090082640312   108.59256462   311.37792727
 N     10   3   2     1.464279896213   112.70325365   290.12366570
 O     16  10   3     1.234487939277   118.27822661   202.69514548
 O     16  10   3     1.234017872063   119.76289425    27.43236303
 O     11  10   3     3.316681936567   130.49584366   231.25376079
 H     19  11  10     0.963408217782   128.94218590   149.96438721
 H      5   4   3     1.079438608357   120.92051457   179.44608350
 N      6   5   4     1.458214782096   119.20948964   180.19322876
 O     22   6   5     1.226979163226   118.43028091     3.59631769
 O     22   6   5     1.227128080253   118.42904305   183.55077233
 H     11  10   3     1.895498910951   152.24038682   349.95507909
 H     19  11  10     1.010245589081    26.40950559   180.74395631
 O     25  11  10     0.964754988209    46.69038804   177.72468430

---------------------------
INTERNAL COORDINATES (A.U.)
---------------------------
 C      0   0   0     0.000000000000     0.00000000     0.00000000
 C      1   0   0     2.611743767527     0.00000000     0.00000000
 C      2   1   0     2.649328603883   121.24597157     0.00000000
 C      3   2   1     2.643457717860   118.42197150   359.08415408
 C      4   3   2     2.618691751013   121.17127362     0.73776242
 C      5   4   3     2.624233569834   118.81712435   359.83609762
 H      1   2   3     2.039724828555   121.00070474   179.68006907
 H      2   1   3     2.040774282035   119.34941924   180.47176647
 H      4   3   2     2.041680973268   120.20808537   180.40447199
 C      3   2   1     2.832230912455   120.21920821   182.29537496
 H     10   3   2     2.349675095655   106.36259839    39.83223043
 C     10   3   2     2.865271240760   116.80799067   158.47453461
 H     12  10   3     2.055487251908   110.49030154   193.13654233
 H     12  10   3     2.064962964165   112.98329974    71.74362829
 H     12  10   3     2.059957653531   108.59256462   311.37792727
 N     10   3   2     2.767087987249   112.70325365   290.12366570
 O     16  10   3     2.332844120862   118.27822661   202.69514548
 O     16  10   3     2.331955822563   119.76289425    27.43236303
 O     11  10   3     6.267620533435   130.49584366   231.25376079
 H     19  11  10     1.820577686777   128.94218590   149.96438721
 H      5   4   3     2.039843348176   120.92051457   179.44608350
 N      6   5   4     2.755626582598   119.20948964   180.19322876
 O     22   6   5     2.318654590525   118.43028091     3.59631769
 O     22   6   5     2.318936002923   118.42904305   183.55077233
 H     11  10   3     3.581973828844   152.24038682   349.95507909
 H     19  11  10     1.909087491365    26.40950559   180.74395631
 O     25  11  10     1.823122714050    46.69038804   177.72468430

---------------------
BASIS SET INFORMATION
---------------------
There are 4 groups of distinct atoms

 Group   1 Type C   : 11s6p2d1f contracted to 5s3p2d1f pattern {62111/411/11/1}
 Group   2 Type H   : 5s1p contracted to 3s1p pattern {311/1}
 Group   3 Type N   : 11s6p2d1f contracted to 5s3p2d1f pattern {62111/411/11/1}
 Group   4 Type O   : 11s6p2d1f contracted to 5s3p2d1f pattern {62111/411/11/1}

Atom   0C    basis set group =>   1
Atom   1C    basis set group =>   1
Atom   2C    basis set group =>   1
Atom   3C    basis set group =>   1
Atom   4C    basis set group =>   1
Atom   5C    basis set group =>   1
Atom   6H    basis set group =>   2
Atom   7H    basis set group =>   2
Atom   8H    basis set group =>   2
Atom   9C    basis set group =>   1
Atom  10H    basis set group =>   2
Atom  11C    basis set group =>   1
Atom  12H    basis set group =>   2
Atom  13H    basis set group =>   2
Atom  14H    basis set group =>   2
Atom  15N    basis set group =>   3
Atom  16O    basis set group =>   4
Atom  17O    basis set group =>   4
Atom  18O    basis set group =>   4
Atom  19H    basis set group =>   2
Atom  20H    basis set group =>   2
Atom  21N    basis set group =>   3
Atom  22O    basis set group =>   4
Atom  23O    basis set group =>   4
Atom  24H    basis set group =>   2
Atom  25H    basis set group =>   2
Atom  26O    basis set group =>   4
---------------------------------
AUXILIARY/J BASIS SET INFORMATION
---------------------------------
There are 4 groups of distinct atoms

 Group   1 Type C   : 12s5p4d2f1g contracted to 6s4p3d1f1g pattern {711111/2111/211/2/1}
 Group   2 Type H   : 5s2p1d contracted to 3s1p1d pattern {311/2/1}
 Group   3 Type N   : 12s5p4d2f1g contracted to 6s4p3d1f1g pattern {711111/2111/211/2/1}
 Group   4 Type O   : 12s5p4d2f1g contracted to 6s4p3d1f1g pattern {711111/2111/211/2/1}

Atom   0C    basis set group =>   1
Atom   1C    basis set group =>   1
Atom   2C    basis set group =>   1
Atom   3C    basis set group =>   1
Atom   4C    basis set group =>   1
Atom   5C    basis set group =>   1
Atom   6H    basis set group =>   2
Atom   7H    basis set group =>   2
Atom   8H    basis set group =>   2
Atom   9C    basis set group =>   1
Atom  10H    basis set group =>   2
Atom  11C    basis set group =>   1
Atom  12H    basis set group =>   2
Atom  13H    basis set group =>   2
Atom  14H    basis set group =>   2
Atom  15N    basis set group =>   3
Atom  16O    basis set group =>   4
Atom  17O    basis set group =>   4
Atom  18O    basis set group =>   4
Atom  19H    basis set group =>   2
Atom  20H    basis set group =>   2
Atom  21N    basis set group =>   3
Atom  22O    basis set group =>   4
Atom  23O    basis set group =>   4
Atom  24H    basis set group =>   2
Atom  25H    basis set group =>   2
Atom  26O    basis set group =>   4


           ************************************************************
           *        Program running with 102 parallel MPI-processes   *
           *              working on a common directory               *
           ************************************************************
------------------------------------------------------------------------------
                           ORCA GTO INTEGRAL CALCULATION
                           -- RI-GTO INTEGRALS CHOSEN --
------------------------------------------------------------------------------
------------------------------------------------------------------------------
                   ___                                                        
                  /   \      - P O W E R E D   B Y -                         
                 /     \                                                     
                 |  |  |   _    _      __       _____    __    __             
                 |  |  |  | |  | |    /  \     |  _  \  |  |  /  |          
                  \  \/   | |  | |   /    \    | | | |  |  | /  /          
                 / \  \   | |__| |  /  /\  \   | |_| |  |  |/  /          
                |  |  |   |  __  | /  /__\  \  |    /   |      \           
                |  |  |   | |  | | |   __   |  |    \   |  |\   \          
                \     /   | |  | | |  |  |  |  | |\  \  |  | \   \       
                 \___/    |_|  |_| |__|  |__|  |_| \__\ |__|  \__/        
                                                                              
                      - O R C A' S   B I G   F R I E N D -                    
                                      &                                       
                       - I N T E G R A L  F E E D E R -                       
                                                                              
 v1 FN, 2020, v2 2021                                                         
------------------------------------------------------------------------------


Reading SHARK input file /home/rudenko/mop_saddle_orca_4_serv/for_orca/p-o2nc6h4chno2ch3_oh/orca/freq_D/f_D.SHARKINP.tmp ... ok
----------------------
SHARK INTEGRAL PACKAGE
----------------------

Number of atoms                             ...     27
Number of basis functions                   ...    562
Number of shells                            ...    220
Maximum angular momentum                    ...      3
Integral batch strategy                     ... SHARK/LIBINT Hybrid
RI-J (if used) integral strategy            ... SPLIT-RIJ (Revised 2003 algorithm where possible)
Printlevel                                  ...      1
Contraction scheme used                     ... SEGMENTED contraction
Coulomb Range Separation                    ... NOT USED
Exchange Range Separation                   ... NOT USED
Finite Nucleus Model                        ... NOT USED
Auxiliary Coulomb fitting basis             ... AVAILABLE
   # of basis functions in Aux-J            ...    905
   # of shells in Aux-J                     ...    295
   Maximum angular momentum in Aux-J        ...      4
Auxiliary J/K fitting basis                 ... NOT available
Auxiliary Correlation fitting basis         ... NOT available
Auxiliary 'external' fitting basis          ... NOT available
Integral threshold                          ...     2.500000e-11
Primitive cut-off                           ...     2.500000e-12
Primitive pair pre-selection threshold      ...     2.500000e-12

Calculating pre-screening integrals         ... done (  0.1 sec) Dimension = 220
Organizing shell pair data                  ... done (  0.5 sec)
Shell pair information
Total number of shell pairs                 ...     24310
Shell pairs after pre-screening             ...     17944
Total number of primitive shell pairs       ...     75076
Primitive shell pairs kept                  ...     37869
          la=0 lb=0:   4620 shell pairs
          la=1 lb=0:   5127 shell pairs
          la=1 lb=1:   1453 shell pairs
          la=2 lb=0:   2561 shell pairs
          la=2 lb=1:   1459 shell pairs
          la=2 lb=2:    380 shell pairs
          la=3 lb=0:   1212 shell pairs
          la=3 lb=1:    698 shell pairs
          la=3 lb=2:    345 shell pairs
          la=3 lb=3:     89 shell pairs

Calculating one electron integrals          ... done (  0.1 sec)
Calculating RI/J V-Matrix + Cholesky decomp.... done (  0.1 sec)
Calculating Nuclear repulsion               ... done (  0.0 sec) ENN=   1108.585206660350 Eh

SHARK setup successfully completed in   1.1 seconds

Maximum memory used throughout the entire GTOINT-calculation: 30.2 MB


           ************************************************************
           *        Program running with 102 parallel MPI-processes   *
           *              working on a common directory               *
           ************************************************************
-------------------------------------------------------------------------------
                                 ORCA SCF
-------------------------------------------------------------------------------

------------
SCF SETTINGS
------------
Hamiltonian:
 Density Functional     Method          .... DFT(GTOs)
 Exchange Functional    Exchange        .... B88
   X-Alpha parameter    XAlpha          ....  0.666667
   Becke's b parameter  XBeta           ....  0.004200
 Correlation Functional Correlation     .... LYP
 LDA part of GGA corr.  LDAOpt          .... VWN-5
 Gradients option       PostSCFGGA      .... off
 Hybrid DFT is turned on
   Fraction HF Exchange ScalHFX         ....  0.200000
   Scaling of DF-GGA-X  ScalDFX         ....  0.720000
   Scaling of DF-GGA-C  ScalDFC         ....  0.810000
   Scaling of DF-LDA-C  ScalLDAC        ....  1.000000
   Perturbative correction              ....  0.000000
   Density functional embedding theory  .... OFF
   NL short-range parameter             ....  4.800000
 RI-approximation to the Coulomb term is turned on
   Number of AuxJ basis functions       .... 905
   RIJ-COSX (HFX calculated with COS-X)).... on


General Settings:
 Integral files         IntName         .... /home/rudenko/mop_saddle_orca_4_serv/for_orca/p-o2nc6h4chno2ch3_oh/orca/freq_D/f_D
 Hartree-Fock type      HFTyp           .... RHF
 Total Charge           Charge          ....   -1
 Multiplicity           Mult            ....    1
 Number of Electrons    NEL             ....  122
 Basis Dimension        Dim             ....  562
 Nuclear Repulsion      ENuc            ....   1108.5852066603 Eh

Convergence Acceleration:
 DIIS                   CNVDIIS         .... on
   Start iteration      DIISMaxIt       ....    12
   Startup error        DIISStart       ....  0.200000
   # of expansion vecs  DIISMaxEq       ....     5
   Bias factor          DIISBfac        ....   1.050
   Max. coefficient     DIISMaxC        ....  10.000
 Trust-Rad. Augm. Hess. CNVTRAH         .... auto
   Auto Start mean grad. ratio tolernc. ....  1.125000
   Auto Start start iteration           ....    20
   Auto Start num. interpolation iter.  ....    10
   Max. Number of Micro iterations      ....    16
   Max. Number of Macro iterations      .... Maxiter - #DIIS iter
   Number of Davidson start vectors     ....     2
   Converg. threshold I  (grad. norm)   ....   1.000e-05
   Converg. threshold II (energy diff.) ....   1.000e-08
   Grad. Scal. Fac. for Micro threshold ....   0.100
   Minimum threshold for Micro iter.    ....   0.010
   NR start threshold (gradient norm)   ....   0.001
   Initial trust radius                 ....   0.400
   Minimum AH scaling param. (alpha)    ....   1.000
   Maximum AH scaling param. (alpha)    .... 1000.000
   Orbital update algorithm             .... Taylor
   White noise on init. David. guess    .... on
   Maximum white noise                  ....   0.010
   Quad. conv. algorithm                .... NR
 SOSCF                  CNVSOSCF        .... on
   Start iteration      SOSCFMaxIt      ....   150
   Startup grad/error   SOSCFStart      ....  0.003300
 Level Shifting         CNVShift        .... on
   Level shift para.    LevelShift      ....    0.2500
   Turn off err/grad.   ShiftErr        ....    0.0010
 Zerner damping         CNVZerner       .... off
 Static damping         CNVDamp         .... on
   Fraction old density DampFac         ....    0.7000
   Max. Damping (<1)    DampMax         ....    0.9800
   Min. Damping (>=0)   DampMin         ....    0.0000
   Turn off err/grad.   DampErr         ....    0.1000
 Fernandez-Rico         CNVRico         .... off

SCF Procedure:
 Maximum # iterations   MaxIter         ....   125
 SCF integral mode      SCFMode         .... Direct
   Integral package                     .... SHARK and LIBINT hybrid scheme
 Reset frequency        DirectResetFreq ....    20
 Integral Threshold     Thresh          ....  2.500e-11 Eh
 Primitive CutOff       TCut            ....  2.500e-12 Eh

Convergence Tolerance:
 Convergence Check Mode ConvCheckMode   .... Total+1el-Energy
 Convergence forced     ConvForced      .... 0
 Energy Change          TolE            ....  1.000e-08 Eh
 1-El. energy change                    ....  1.000e-05 Eh
 Orbital Gradient       TolG            ....  1.000e-05
 Orbital Rotation angle TolX            ....  1.000e-05
 DIIS Error             TolErr          ....  5.000e-07


Diagonalization of the overlap matrix:
Smallest eigenvalue                        ... 7.190e-06
Time for diagonalization                   ...    0.170 sec
Threshold for overlap eigenvalues          ... 1.000e-08
Number of eigenvalues below threshold      ... 0
Time for construction of square roots      ...    0.237 sec
Total time needed                          ...    0.411 sec

Time for model grid setup =    0.209 sec

------------------------------
INITIAL GUESS: MODEL POTENTIAL
------------------------------
Loading Hartree-Fock densities                     ... done
Calculating cut-offs                               ... done
Initializing the effective Hamiltonian             ... done
Setting up the integral package (SHARK)            ... done
Starting the Coulomb interaction                   ... done (   0.1 sec)
Reading the grid                                   ... done
Mapping shells                                     ... done
Starting the XC term evaluation                    ... done (   0.1 sec)
  promolecular density results
     # of electrons  =    120.990752154
     EX              =   -106.682101403
     EC              =     -4.220977520
     EX+EC           =   -110.903078923
Transforming the Hamiltonian                       ... done (   0.2 sec)
Diagonalizing the Hamiltonian                      ... done (   0.2 sec)
Back transforming the eigenvectors                 ... done (   0.1 sec)
Now organizing SCF variables                       ... done
                      ------------------
                      INITIAL GUESS DONE (   0.9 sec)
                      ------------------
-------------------
DFT GRID GENERATION
-------------------

General Integration Accuracy     IntAcc      ... 4.388
Radial Grid Type                 RadialGrid  ... OptM3 with GC (2021)
Angular Grid (max. ang.)         AngularGrid ... 4 (Lebedev-302)
Angular grid pruning method      GridPruning ... 4 (adaptive)
Weight generation scheme         WeightScheme... Becke
Basis function cutoff            BFCut       ... 1.0000e-11
Integration weight cutoff        WCut        ... 1.0000e-14
Angular grids for H and He will be reduced by one unit
Partially contracted basis set               ... off
Rotationally invariant grid construction     ... off

Total number of grid points                  ...   131585
Total number of batches                      ...     2070
Average number of points per batch           ...       63
Average number of grid points per atom       ...     4874
Time for grid setup =    1.060 sec

--------------------
COSX GRID GENERATION
--------------------

GRIDX 1
-------
General Integration Accuracy     IntAcc      ... 3.816
Radial Grid Type                 RadialGrid  ... OptM3 with GC (2021)
Angular Grid (max. ang.)         AngularGrid ... 1 (Lebedev-50)
Angular grid pruning method      GridPruning ... 4 (adaptive)
Weight generation scheme         WeightScheme... Becke
Basis function cutoff            BFCut       ... 1.0000e-11
Integration weight cutoff        WCut        ... 1.0000e-14
Angular grids for H and He will be reduced by one unit
Partially contracted basis set               ... on
Rotationally invariant grid construction     ... off

Total number of grid points                  ...    16725
Total number of batches                      ...      273
Average number of points per batch           ...       61
Average number of grid points per atom       ...      619
UseSFitting                                  ... on

GRIDX 2
-------
General Integration Accuracy     IntAcc      ... 4.020
Radial Grid Type                 RadialGrid  ... OptM3 with GC (2021)
Angular Grid (max. ang.)         AngularGrid ... 2 (Lebedev-110)
Angular grid pruning method      GridPruning ... 4 (adaptive)
Weight generation scheme         WeightScheme... Becke
Basis function cutoff            BFCut       ... 1.0000e-11
Integration weight cutoff        WCut        ... 1.0000e-14
Angular grids for H and He will be reduced by one unit
Partially contracted basis set               ... on
Rotationally invariant grid construction     ... off

Total number of grid points                  ...    36859
Total number of batches                      ...      588
Average number of points per batch           ...       62
Average number of grid points per atom       ...     1365
UseSFitting                                  ... on

GRIDX 3
-------
General Integration Accuracy     IntAcc      ... 4.338
Radial Grid Type                 RadialGrid  ... OptM3 with GC (2021)
Angular Grid (max. ang.)         AngularGrid ... 3 (Lebedev-194)
Angular grid pruning method      GridPruning ... 4 (adaptive)
Weight generation scheme         WeightScheme... Becke
Basis function cutoff            BFCut       ... 1.0000e-11
Integration weight cutoff        WCut        ... 1.0000e-14
Angular grids for H and He will be reduced by one unit
Partially contracted basis set               ... on
Rotationally invariant grid construction     ... off

Total number of grid points                  ...    80806
Total number of batches                      ...     1276
Average number of points per batch           ...       63
Average number of grid points per atom       ...     2993
UseSFitting                                  ... on

Time for X-Grid setup             =    1.665 sec


--------------------
CPCM SOLVATION MODEL
--------------------
CPCM parameters:
  Epsilon                                         ...      78.4000
  Refrac                                          ...       1.3300
  Rsolv                                           ...       1.3000
  Surface type                                    ... GAUSSIAN VDW
  Epsilon function type                           ...         CPCM
Radii:
 Radius for C  used is    3.8550 Bohr (=   2.0400 Ang.)
 Radius for H  used is    2.4944 Bohr (=   1.3200 Ang.)
 Radius for N  used is    3.5149 Bohr (=   1.8600 Ang.)
 Radius for O  used is    3.4469 Bohr (=   1.8240 Ang.)
Calculating surface                               ...        done! (  0.0s)
GEPOL surface points                              ...         1519
GEPOL Volume                                      ...    1779.7734
GEPOL Surface-area                                ...     995.1821
Calculating surface distance matrix               ...        done! (  0.1s)
Performing Cholesky decomposition & store         ...        done! (  0.4s)
Overall time for CPCM initialization              ...                 0.6s
--------------
SCF ITERATIONS
--------------
ITER       Energy         Delta-E        Max-DP      RMS-DP      [F,P]     Damp
               ***  Starting incremental Fock matrix formation  ***
  0   -871.4984704561   0.000000000000 0.74929209  0.00276608  0.4135159 0.7000
  1   -871.8395644180  -0.341093961886 0.59143207  0.00216542  0.1450876 0.7000
                               ***Turning on DIIS***
  2   -871.9486912338  -0.109126815861 0.43102284  0.00211574  0.0389186 0.0000
  3   -872.1564855227  -0.207794288860 0.57774511  0.00199425  0.0852559 0.0000
  4   -872.1873376381  -0.030852115417 0.13732446  0.00050091  0.0229009 0.0000
  5   -872.1905072756  -0.003169637520 0.03586841  0.00015920  0.0035812 0.0000
                      *** Initiating the SOSCF procedure ***
                           *** Shutting down DIIS ***
                      *** Re-Reading the Fockian *** 
                      *** Removing any level shift *** 
ITER      Energy       Delta-E        Grad      Rot      Max-DP    RMS-DP
  6   -872.19060454  -0.0000972655  0.000714  0.000714  0.007482  0.000051
               *** Restarting incremental Fock matrix formation ***
  7   -872.19064357  -0.0000390283  0.000303  0.001891  0.003207  0.000029
  8   -872.19064595  -0.0000023835  0.000229  0.001251  0.001392  0.000017
  9   -872.19064835  -0.0000023977  0.000106  0.000617  0.001767  0.000011
 10   -872.19064844  -0.0000000884  0.000081  0.000136  0.000296  0.000004
 11   -872.19064863  -0.0000001877  0.000043  0.000229  0.000672  0.000004
 12   -872.19064866  -0.0000000368  0.000030  0.000049  0.000381  0.000002
 13   -872.19064867  -0.0000000034  0.000014  0.000059  0.000151  0.000002
 14   -872.19064867  -0.0000000064  0.000005  0.000009  0.000084  0.000001
 15   -872.19064868  -0.0000000075  0.000003  0.000019  0.000246  0.000002
                  ***Gradient check signals convergence***
              ***Rediagonalizing the Fockian in SOSCF/NRSCF***

               *****************************************************
               *                     SUCCESS                       *
               *           SCF CONVERGED AFTER  16 CYCLES          *
               *****************************************************

Old exchange energy                            =    -21.594258912 Eh
New exchange energy                            =    -21.594234141 Eh
Exchange energy change after final integration =      0.000024771 Eh
Total energy after final integration           =   -872.190623912 Eh
Final COS-X integration done in                =     2.019 sec

----------------
TOTAL SCF ENERGY
----------------

Total Energy       :         -872.19062391 Eh          -23733.51347 eV

Components:
Nuclear Repulsion  :         1108.58520666 Eh           30166.13709 eV
Electronic Energy  :        -1980.77583057 Eh          -53899.65056 eV
One Electron Energy:        -3410.18163960 Eh          -92795.76006 eV
Two Electron Energy:         1429.40580902 Eh           38896.10950 eV
Max COSX asymmetry :            0.00000204 Eh               0.00006 eV
CPCM Dielectric    :           -0.10158053 Eh              -2.76415 eV

Virial components:
Potential Energy   :        -1740.95064242 Eh          -47373.67541 eV
Kinetic Energy     :          868.76001851 Eh           23640.16195 eV
Virial Ratio       :            2.00394885


DFT components:
N(Alpha)           :       60.999988781124 electrons
N(Beta)            :       60.999988781124 electrons
N(Total)           :      121.999977562247 electrons
E(X)               :      -86.081594097166 Eh       
E(C)               :       -5.004740358363 Eh       
E(XC)              :      -91.086334455529 Eh       
DFET-embed. en.    :        0.000000000000 Eh       
CPCM Solvation Model Properties:
Surface-charge          :            0.97375202
Charge-correction       :           -0.00307249 Eh              -0.08361 eV
Free-energy (cav+disp)  :  This term is not implemented in the current solvation scheme

---------------
SCF CONVERGENCE
---------------

  Last Energy change         ...   -2.1259e-09  Tolerance :   1.0000e-08
  Last MAX-Density change    ...    1.4433e-15  Tolerance :   1.0000e-07
  Last RMS-Density change    ...    1.3769e-17  Tolerance :   5.0000e-09
  Last Orbital Gradient      ...    2.2663e-06  Tolerance :   1.0000e-05
  Last Orbital Rotation      ...    5.9582e-06  Tolerance :   1.0000e-05

             **** THE GBW FILE WAS UPDATED (/home/rudenko/mop_saddle_orca_4_serv/for_orca/p-o2nc6h4chno2ch3_oh/orca/freq_D/f_D.gbw) ****
             **** DENSITY /home/rudenko/mop_saddle_orca_4_serv/for_orca/p-o2nc6h4chno2ch3_oh/orca/freq_D/f_D.scfp WAS UPDATED ****
             **** ENERGY FILE WAS UPDATED (/home/rudenko/mop_saddle_orca_4_serv/for_orca/p-o2nc6h4chno2ch3_oh/orca/freq_D/f_D.en.tmp) ****
             **** THE GBW FILE WAS UPDATED (/home/rudenko/mop_saddle_orca_4_serv/for_orca/p-o2nc6h4chno2ch3_oh/orca/freq_D/f_D.gbw) ****
             **** DENSITY /home/rudenko/mop_saddle_orca_4_serv/for_orca/p-o2nc6h4chno2ch3_oh/orca/freq_D/f_D.scfp WAS UPDATED ****
----------------
ORBITAL ENERGIES
----------------

  NO   OCC          E(Eh)            E(eV) 
   0   2.0000     -19.164454      -521.4913 
   1   2.0000     -19.164330      -521.4879 
   2   2.0000     -19.142704      -520.8994 
   3   2.0000     -19.141295      -520.8611 
   4   2.0000     -19.081618      -519.2372 
   5   2.0000     -19.047170      -518.2998 
   6   2.0000     -14.557866      -396.1397 
   7   2.0000     -14.530328      -395.3903 
   8   2.0000     -10.232918      -278.4519 
   9   2.0000     -10.202246      -277.6172 
  10   2.0000     -10.200161      -277.5605 
  11   2.0000     -10.194909      -277.4176 
  12   2.0000     -10.193803      -277.3875 
  13   2.0000     -10.185752      -277.1684 
  14   2.0000     -10.184134      -277.1244 
  15   2.0000     -10.159488      -276.4537 
  16   2.0000      -1.237165       -33.6650 
  17   2.0000      -1.210496       -32.9393 
  18   2.0000      -1.061265       -28.8785 
  19   2.0000      -1.034167       -28.1411 
  20   2.0000      -0.964448       -26.2440 
  21   2.0000      -0.899112       -24.4661 
  22   2.0000      -0.890290       -24.2260 
  23   2.0000      -0.838157       -22.8074 
  24   2.0000      -0.789499       -21.4833 
  25   2.0000      -0.767022       -20.8717 
  26   2.0000      -0.700277       -19.0555 
  27   2.0000      -0.693729       -18.8773 
  28   2.0000      -0.626978       -17.0609 
  29   2.0000      -0.604094       -16.4382 
  30   2.0000      -0.570383       -15.5209 
  31   2.0000      -0.565724       -15.3941 
  32   2.0000      -0.544483       -14.8161 
  33   2.0000      -0.533617       -14.5205 
  34   2.0000      -0.530497       -14.4356 
  35   2.0000      -0.525789       -14.3074 
  36   2.0000      -0.506848       -13.7920 
  37   2.0000      -0.490004       -13.3337 
  38   2.0000      -0.474214       -12.9040 
  39   2.0000      -0.460983       -12.5440 
  40   2.0000      -0.457760       -12.4563 
  41   2.0000      -0.439417       -11.9572 
  42   2.0000      -0.412509       -11.2249 
  43   2.0000      -0.395991       -10.7755 
  44   2.0000      -0.393299       -10.7022 
  45   2.0000      -0.388250       -10.5648 
  46   2.0000      -0.372173       -10.1273 
  47   2.0000      -0.364294        -9.9130 
  48   2.0000      -0.357550        -9.7294 
  49   2.0000      -0.339870        -9.2483 
  50   2.0000      -0.327410        -8.9093 
  51   2.0000      -0.326285        -8.8787 
  52   2.0000      -0.308998        -8.4083 
  53   2.0000      -0.306862        -8.3501 
  54   2.0000      -0.305742        -8.3197 
  55   2.0000      -0.291248        -7.9253 
  56   2.0000      -0.284031        -7.7289 
  57   2.0000      -0.275054        -7.4846 
  58   2.0000      -0.267435        -7.2773 
  59   2.0000      -0.248533        -6.7629 
  60   2.0000      -0.217409        -5.9160 
  61   0.0000      -0.100722        -2.7408 
  62   0.0000      -0.057732        -1.5710 
  63   0.0000      -0.023562        -0.6411 
  64   0.0000      -0.005147        -0.1401 
  65   0.0000       0.043040         1.1712 
  66   0.0000       0.060774         1.6538 
  67   0.0000       0.070474         1.9177 
  68   0.0000       0.086644         2.3577 
  69   0.0000       0.092863         2.5269 
  70   0.0000       0.103072         2.8047 
  71   0.0000       0.115121         3.1326 
  72   0.0000       0.116290         3.1644 
  73   0.0000       0.133872         3.6429 
  74   0.0000       0.136717         3.7203 
  75   0.0000       0.139512         3.7963 
  76   0.0000       0.153452         4.1756 
  77   0.0000       0.163689         4.4542 
  78   0.0000       0.178837         4.8664 
  79   0.0000       0.184148         5.0109 
  80   0.0000       0.192553         5.2396 
  81   0.0000       0.201955         5.4955 
  82   0.0000       0.206416         5.6169 
  83   0.0000       0.211869         5.7652 
  84   0.0000       0.218159         5.9364 
  85   0.0000       0.227697         6.1960 
  86   0.0000       0.230034         6.2596 
  87   0.0000       0.236710         6.4412 
  88   0.0000       0.251527         6.8444 
  89   0.0000       0.254258         6.9187 
  90   0.0000       0.257515         7.0073 
  91   0.0000       0.262119         7.1326 
  92   0.0000       0.281449         7.6586 
  93   0.0000       0.288733         7.8568 
  94   0.0000       0.294241         8.0067 
  95   0.0000       0.302088         8.2202 
  96   0.0000       0.309755         8.4289 
  97   0.0000       0.321452         8.7472 
  98   0.0000       0.334762         9.1093 
  99   0.0000       0.336965         9.1693 
 100   0.0000       0.341197         9.2844 
 101   0.0000       0.349071         9.4987 
 102   0.0000       0.355523         9.6743 
 103   0.0000       0.361564         9.8386 
 104   0.0000       0.368315        10.0224 
 105   0.0000       0.376287        10.2393 
 106   0.0000       0.383223        10.4280 
 107   0.0000       0.388670        10.5762 
 108   0.0000       0.391504        10.6534 
 109   0.0000       0.396317        10.7843 
 110   0.0000       0.403252        10.9730 
 111   0.0000       0.409142        11.1333 
 112   0.0000       0.413761        11.2590 
 113   0.0000       0.421472        11.4688 
 114   0.0000       0.426837        11.6148 
 115   0.0000       0.432022        11.7559 
 116   0.0000       0.438207        11.9242 
 117   0.0000       0.443501        12.0683 
 118   0.0000       0.447629        12.1806 
 119   0.0000       0.453748        12.3471 
 120   0.0000       0.458721        12.4824 
 121   0.0000       0.467360        12.7175 
 122   0.0000       0.472351        12.8533 
 123   0.0000       0.475073        12.9274 
 124   0.0000       0.483652        13.1608 
 125   0.0000       0.490640        13.3510 
 126   0.0000       0.496452        13.5091 
 127   0.0000       0.498582        13.5671 
 128   0.0000       0.500328        13.6146 
 129   0.0000       0.508075        13.8254 
 130   0.0000       0.515435        14.0257 
 131   0.0000       0.522668        14.2225 
 132   0.0000       0.532267        14.4837 
 133   0.0000       0.539442        14.6790 
 134   0.0000       0.544609        14.8196 
 135   0.0000       0.557991        15.1837 
 136   0.0000       0.566885        15.4257 
 137   0.0000       0.579643        15.7729 
 138   0.0000       0.584075        15.8935 
 139   0.0000       0.587612        15.9897 
 140   0.0000       0.604940        16.4612 
 141   0.0000       0.611363        16.6360 
 142   0.0000       0.614283        16.7155 
 143   0.0000       0.626032        17.0352 
 144   0.0000       0.635584        17.2951 
 145   0.0000       0.646164        17.5830 
 146   0.0000       0.649175        17.6650 
 147   0.0000       0.653971        17.7954 
 148   0.0000       0.662618        18.0307 
 149   0.0000       0.672523        18.3003 
 150   0.0000       0.684238        18.6191 
 151   0.0000       0.691595        18.8193 
 152   0.0000       0.699474        19.0336 
 153   0.0000       0.714985        19.4557 
 154   0.0000       0.724496        19.7145 
 155   0.0000       0.743258        20.2251 
 156   0.0000       0.752593        20.4791 
 157   0.0000       0.758999        20.6534 
 158   0.0000       0.768216        20.9042 
 159   0.0000       0.781138        21.2559 
 160   0.0000       0.795125        21.6365 
 161   0.0000       0.800969        21.7955 
 162   0.0000       0.809932        22.0394 
 163   0.0000       0.823670        22.4132 
 164   0.0000       0.834127        22.6978 
 165   0.0000       0.835440        22.7335 
 166   0.0000       0.849559        23.1177 
 167   0.0000       0.883362        24.0375 
 168   0.0000       0.888706        24.1829 
 169   0.0000       0.896619        24.3982 
 170   0.0000       0.908117        24.7111 
 171   0.0000       0.922572        25.1045 
 172   0.0000       0.937078        25.4992 
 173   0.0000       0.956654        26.0319 
 174   0.0000       0.972161        26.4539 
 175   0.0000       0.985129        26.8067 
 176   0.0000       0.993811        27.0430 
 177   0.0000       1.006115        27.3778 
 178   0.0000       1.021702        27.8019 
 179   0.0000       1.028295        27.9813 
 180   0.0000       1.051322        28.6079 
 181   0.0000       1.056783        28.7565 
 182   0.0000       1.068722        29.0814 
 183   0.0000       1.070121        29.1195 
 184   0.0000       1.084139        29.5009 
 185   0.0000       1.094552        29.7843 
 186   0.0000       1.111212        30.2376 
 187   0.0000       1.126601        30.6564 
 188   0.0000       1.139384        31.0042 
 189   0.0000       1.158319        31.5195 
 190   0.0000       1.189730        32.3742 
 191   0.0000       1.203812        32.7574 
 192   0.0000       1.210059        32.9274 
 193   0.0000       1.217420        33.1277 
 194   0.0000       1.220841        33.2208 
 195   0.0000       1.249043        33.9882 
 196   0.0000       1.254982        34.1498 
 197   0.0000       1.257247        34.2114 
 198   0.0000       1.269767        34.5521 
 199   0.0000       1.280970        34.8570 
 200   0.0000       1.294200        35.2170 
 201   0.0000       1.302031        35.4301 
 202   0.0000       1.320098        35.9217 
 203   0.0000       1.332514        36.2595 
 204   0.0000       1.337620        36.3985 
 205   0.0000       1.345754        36.6198 
 206   0.0000       1.371367        37.3168 
 207   0.0000       1.392177        37.8831 
 208   0.0000       1.395058        37.9615 
 209   0.0000       1.400522        38.1101 
 210   0.0000       1.412117        38.4257 
 211   0.0000       1.425474        38.7891 
 212   0.0000       1.429890        38.9093 
 213   0.0000       1.463938        39.8358 
 214   0.0000       1.467095        39.9217 
 215   0.0000       1.477524        40.2055 
 216   0.0000       1.496995        40.7353 
 217   0.0000       1.500671        40.8353 
 218   0.0000       1.520336        41.3704 
 219   0.0000       1.525328        41.5063 
 220   0.0000       1.534854        41.7655 
 221   0.0000       1.548686        42.1419 
 222   0.0000       1.558644        42.4129 
 223   0.0000       1.569105        42.6975 
 224   0.0000       1.573691        42.8223 
 225   0.0000       1.583045        43.0769 
 226   0.0000       1.594796        43.3966 
 227   0.0000       1.606843        43.7244 
 228   0.0000       1.618668        44.0462 
 229   0.0000       1.624907        44.2160 
 230   0.0000       1.628248        44.3069 
 231   0.0000       1.641216        44.6597 
 232   0.0000       1.645837        44.7855 
 233   0.0000       1.662811        45.2474 
 234   0.0000       1.673154        45.5288 
 235   0.0000       1.679378        45.6982 
 236   0.0000       1.684562        45.8393 
 237   0.0000       1.690785        46.0086 
 238   0.0000       1.703112        46.3440 
 239   0.0000       1.718762        46.7699 
 240   0.0000       1.739066        47.3224 
 241   0.0000       1.747859        47.5617 
 242   0.0000       1.753642        47.7190 
 243   0.0000       1.768229        48.1160 
 244   0.0000       1.777897        48.3790 
 245   0.0000       1.786309        48.6079 
 246   0.0000       1.792048        48.7641 
 247   0.0000       1.818196        49.4756 
 248   0.0000       1.831495        49.8375 
 249   0.0000       1.839435        50.0536 
 250   0.0000       1.848272        50.2940 
 251   0.0000       1.884207        51.2719 
 252   0.0000       1.891804        51.4786 
 253   0.0000       1.896315        51.6014 
 254   0.0000       1.908646        51.9369 
 255   0.0000       1.946726        52.9731 
 256   0.0000       1.951833        53.1121 
 257   0.0000       1.961698        53.3805 
 258   0.0000       1.984765        54.0082 
 259   0.0000       1.992332        54.2141 
 260   0.0000       2.006512        54.6000 
 261   0.0000       2.020282        54.9747 
 262   0.0000       2.023471        55.0615 
 263   0.0000       2.032592        55.3096 
 264   0.0000       2.040118        55.5144 
 265   0.0000       2.060963        56.0816 
 266   0.0000       2.067997        56.2731 
 267   0.0000       2.076181        56.4958 
 268   0.0000       2.096860        57.0585 
 269   0.0000       2.104580        57.2685 
 270   0.0000       2.114903        57.5494 
 271   0.0000       2.120110        57.6911 
 272   0.0000       2.148004        58.4502 
 273   0.0000       2.153391        58.5967 
 274   0.0000       2.157537        58.7096 
 275   0.0000       2.160748        58.7969 
 276   0.0000       2.166843        58.9628 
 277   0.0000       2.179030        59.2944 
 278   0.0000       2.183657        59.4203 
 279   0.0000       2.191207        59.6258 
 280   0.0000       2.201268        59.8995 
 281   0.0000       2.227352        60.6093 
 282   0.0000       2.236951        60.8705 
 283   0.0000       2.259301        61.4787 
 284   0.0000       2.269188        61.7477 
 285   0.0000       2.270475        61.7828 
 286   0.0000       2.291782        62.3625 
 287   0.0000       2.301081        62.6156 
 288   0.0000       2.334538        63.5260 
 289   0.0000       2.348667        63.9105 
 290   0.0000       2.362818        64.2955 
 291   0.0000       2.363454        64.3129 
 292   0.0000       2.373486        64.5858 
 293   0.0000       2.408082        65.5273 
 294   0.0000       2.423473        65.9461 
 295   0.0000       2.433029        66.2061 
 296   0.0000       2.453239        66.7560 
 297   0.0000       2.461986        66.9940 
 298   0.0000       2.473270        67.3011 
 299   0.0000       2.476284        67.3831 
 300   0.0000       2.487810        67.6968 
 301   0.0000       2.498324        67.9829 
 302   0.0000       2.547103        69.3102 
 303   0.0000       2.557267        69.5868 
 304   0.0000       2.562961        69.7417 
 305   0.0000       2.570503        69.9469 
 306   0.0000       2.577899        70.1482 
 307   0.0000       2.590941        70.5031 
 308   0.0000       2.599835        70.7451 
 309   0.0000       2.612146        71.0801 
 310   0.0000       2.621043        71.3222 
 311   0.0000       2.624978        71.4293 
 312   0.0000       2.639729        71.8307 
 313   0.0000       2.656732        72.2933 
 314   0.0000       2.659580        72.3709 
 315   0.0000       2.663244        72.4706 
 316   0.0000       2.680702        72.9456 
 317   0.0000       2.682826        73.0034 
 318   0.0000       2.689063        73.1731 
 319   0.0000       2.696817        73.3841 
 320   0.0000       2.714626        73.8687 
 321   0.0000       2.716896        73.9305 
 322   0.0000       2.724571        74.1393 
 323   0.0000       2.736420        74.4618 
 324   0.0000       2.742578        74.6293 
 325   0.0000       2.753179        74.9178 
 326   0.0000       2.760549        75.1184 
 327   0.0000       2.776808        75.5608 
 328   0.0000       2.797292        76.1182 
 329   0.0000       2.803930        76.2988 
 330   0.0000       2.817130        76.6580 
 331   0.0000       2.823174        76.8225 
 332   0.0000       2.827294        76.9346 
 333   0.0000       2.836312        77.1800 
 334   0.0000       2.851196        77.5850 
 335   0.0000       2.869510        78.0833 
 336   0.0000       2.886348        78.5415 
 337   0.0000       2.892055        78.6968 
 338   0.0000       2.902945        78.9932 
 339   0.0000       2.920318        79.4659 
 340   0.0000       2.932929        79.8091 
 341   0.0000       2.937752        79.9403 
 342   0.0000       2.952801        80.3498 
 343   0.0000       2.961801        80.5947 
 344   0.0000       2.984506        81.2125 
 345   0.0000       2.997127        81.5560 
 346   0.0000       3.005233        81.7766 
 347   0.0000       3.019535        82.1657 
 348   0.0000       3.037624        82.6580 
 349   0.0000       3.067079        83.4595 
 350   0.0000       3.070102        83.5417 
 351   0.0000       3.076917        83.7272 
 352   0.0000       3.099905        84.3527 
 353   0.0000       3.109408        84.6113 
 354   0.0000       3.113982        84.7357 
 355   0.0000       3.119955        84.8983 
 356   0.0000       3.142630        85.5153 
 357   0.0000       3.149384        85.6991 
 358   0.0000       3.171160        86.2916 
 359   0.0000       3.175780        86.4174 
 360   0.0000       3.183757        86.6344 
 361   0.0000       3.190073        86.8063 
 362   0.0000       3.201835        87.1263 
 363   0.0000       3.211049        87.3771 
 364   0.0000       3.214294        87.4654 
 365   0.0000       3.242732        88.2392 
 366   0.0000       3.248877        88.4064 
 367   0.0000       3.263238        88.7972 
 368   0.0000       3.266220        88.8784 
 369   0.0000       3.283771        89.3559 
 370   0.0000       3.312148        90.1281 
 371   0.0000       3.314311        90.1870 
 372   0.0000       3.319477        90.3276 
 373   0.0000       3.335332        90.7590 
 374   0.0000       3.348410        91.1149 
 375   0.0000       3.350340        91.1674 
 376   0.0000       3.370724        91.7221 
 377   0.0000       3.380580        91.9903 
 378   0.0000       3.389525        92.2337 
 379   0.0000       3.392456        92.3134 
 380   0.0000       3.409772        92.7846 
 381   0.0000       3.412773        92.8663 
 382   0.0000       3.432684        93.4081 
 383   0.0000       3.463167        94.2376 
 384   0.0000       3.474173        94.5370 
 385   0.0000       3.492621        95.0391 
 386   0.0000       3.495303        95.1120 
 387   0.0000       3.516905        95.6999 
 388   0.0000       3.522062        95.8402 
 389   0.0000       3.554523        96.7235 
 390   0.0000       3.572107        97.2020 
 391   0.0000       3.584314        97.5341 
 392   0.0000       3.621294        98.5404 
 393   0.0000       3.654994        99.4574 
 394   0.0000       3.677741       100.0764 
 395   0.0000       3.693589       100.5077 
 396   0.0000       3.717254       101.1516 
 397   0.0000       3.731958       101.5518 
 398   0.0000       3.742941       101.8506 
 399   0.0000       3.757061       102.2348 
 400   0.0000       3.765714       102.4703 
 401   0.0000       3.786378       103.0326 
 402   0.0000       3.791235       103.1648 
 403   0.0000       3.823031       104.0299 
 404   0.0000       3.840879       104.5156 
 405   0.0000       3.869449       105.2931 
 406   0.0000       3.883102       105.6646 
 407   0.0000       3.890786       105.8737 
 408   0.0000       3.925576       106.8204 
 409   0.0000       3.941504       107.2538 
 410   0.0000       3.959116       107.7330 
 411   0.0000       3.988770       108.5400 
 412   0.0000       3.993688       108.6738 
 413   0.0000       4.019273       109.3700 
 414   0.0000       4.028252       109.6143 
 415   0.0000       4.040310       109.9424 
 416   0.0000       4.060148       110.4822 
 417   0.0000       4.066855       110.6648 
 418   0.0000       4.076405       110.9246 
 419   0.0000       4.111598       111.8823 
 420   0.0000       4.135234       112.5254 
 421   0.0000       4.152196       112.9870 
 422   0.0000       4.168923       113.4422 
 423   0.0000       4.194755       114.1451 
 424   0.0000       4.207435       114.4901 
 425   0.0000       4.211027       114.5879 
 426   0.0000       4.218499       114.7912 
 427   0.0000       4.232293       115.1666 
 428   0.0000       4.242520       115.4448 
 429   0.0000       4.251755       115.6961 
 430   0.0000       4.281627       116.5090 
 431   0.0000       4.328836       117.7936 
 432   0.0000       4.352349       118.4334 
 433   0.0000       4.385326       119.3308 
 434   0.0000       4.413305       120.0921 
 435   0.0000       4.478964       121.8788 
 436   0.0000       4.522125       123.0533 
 437   0.0000       4.528894       123.2375 
 438   0.0000       4.532522       123.3362 
 439   0.0000       4.554881       123.9446 
 440   0.0000       4.598615       125.1347 
 441   0.0000       4.627056       125.9086 
 442   0.0000       4.637941       126.2048 
 443   0.0000       4.658801       126.7724 
 444   0.0000       4.664560       126.9291 
 445   0.0000       4.675928       127.2385 
 446   0.0000       4.694768       127.7511 
 447   0.0000       4.713611       128.2639 
 448   0.0000       4.756145       129.4213 
 449   0.0000       4.766108       129.6924 
 450   0.0000       4.792773       130.4180 
 451   0.0000       4.810281       130.8944 
 452   0.0000       4.836245       131.6009 
 453   0.0000       4.885300       132.9358 
 454   0.0000       4.899740       133.3287 
 455   0.0000       4.912132       133.6659 
 456   0.0000       4.922336       133.9436 
 457   0.0000       4.951166       134.7281 
 458   0.0000       4.995827       135.9434 
 459   0.0000       5.041413       137.1838 
 460   0.0000       5.054404       137.5373 
 461   0.0000       5.076821       138.1473 
 462   0.0000       5.086477       138.4101 
 463   0.0000       5.117882       139.2647 
 464   0.0000       5.123644       139.4214 
 465   0.0000       5.133609       139.6926 
 466   0.0000       5.136121       139.7610 
 467   0.0000       5.142396       139.9317 
 468   0.0000       5.145347       140.0120 
 469   0.0000       5.151628       140.1829 
 470   0.0000       5.173775       140.7856 
 471   0.0000       5.177503       140.8870 
 472   0.0000       5.183085       141.0389 
 473   0.0000       5.218926       142.0142 
 474   0.0000       5.229783       142.3096 
 475   0.0000       5.257448       143.0624 
 476   0.0000       5.271489       143.4445 
 477   0.0000       5.276225       143.5734 
 478   0.0000       5.289504       143.9347 
 479   0.0000       5.297955       144.1647 
 480   0.0000       5.311627       144.5367 
 481   0.0000       5.367541       146.0582 
 482   0.0000       5.389323       146.6509 
 483   0.0000       5.401251       146.9755 
 484   0.0000       5.416011       147.3771 
 485   0.0000       5.425823       147.6441 
 486   0.0000       5.438761       147.9962 
 487   0.0000       5.454412       148.4221 
 488   0.0000       5.462480       148.6416 
 489   0.0000       5.467553       148.7797 
 490   0.0000       5.491762       149.4384 
 491   0.0000       5.519452       150.1919 
 492   0.0000       5.569023       151.5408 
 493   0.0000       5.608979       152.6281 
 494   0.0000       5.623990       153.0366 
 495   0.0000       5.638400       153.4287 
 496   0.0000       5.648136       153.6936 
 497   0.0000       5.730379       155.9315 
 498   0.0000       5.775577       157.1614 
 499   0.0000       5.802882       157.9044 
 500   0.0000       5.812277       158.1601 
 501   0.0000       5.953344       161.9987 
 502   0.0000       5.960508       162.1937 
 503   0.0000       6.034312       164.2020 
 504   0.0000       6.209084       168.9578 
 505   0.0000       6.225850       169.4140 
 506   0.0000       6.259931       170.3414 
 507   0.0000       6.265342       170.4886 
 508   0.0000       6.281726       170.9344 
 509   0.0000       6.313595       171.8016 
 510   0.0000       6.317253       171.9012 
 511   0.0000       6.332035       172.3034 
 512   0.0000       6.360168       173.0690 
 513   0.0000       6.387961       173.8253 
 514   0.0000       6.390423       173.8922 
 515   0.0000       6.392787       173.9566 
 516   0.0000       6.401408       174.1912 
 517   0.0000       6.414897       174.5582 
 518   0.0000       6.425574       174.8488 
 519   0.0000       6.432344       175.0330 
 520   0.0000       6.443880       175.3469 
 521   0.0000       6.493434       176.6953 
 522   0.0000       6.521111       177.4485 
 523   0.0000       6.612446       179.9338 
 524   0.0000       6.697625       182.2517 
 525   0.0000       6.737770       183.3440 
 526   0.0000       6.835817       186.0120 
 527   0.0000       6.858714       186.6351 
 528   0.0000       6.860865       186.6936 
 529   0.0000       6.875925       187.1034 
 530   0.0000       6.881184       187.2465 
 531   0.0000       6.917113       188.2242 
 532   0.0000       6.923033       188.3853 
 533   0.0000       6.993647       190.3068 
 534   0.0000       7.074433       192.5051 
 535   0.0000       7.116514       193.6502 
 536   0.0000       7.120896       193.7694 
 537   0.0000       7.128081       193.9650 
 538   0.0000       7.249386       197.2658 
 539   0.0000       7.260058       197.5562 
 540   0.0000       7.299347       198.6253 
 541   0.0000       7.390587       201.1081 
 542   0.0000       7.443314       202.5429 
 543   0.0000       7.479087       203.5163 
 544   0.0000       7.503006       204.1672 
 545   0.0000       7.545007       205.3101 
 546   0.0000      22.237102       605.1023 
 547   0.0000      22.421409       610.1176 
 548   0.0000      22.697049       617.6181 
 549   0.0000      22.711292       618.0057 
 550   0.0000      22.754891       619.1921 
 551   0.0000      22.874879       622.4571 
 552   0.0000      22.934287       624.0737 
 553   0.0000      23.312035       634.3527 
 554   0.0000      32.469760       883.5471 
 555   0.0000      32.499398       884.3536 
 556   0.0000      43.409729      1181.2388 
 557   0.0000      43.700598      1189.1537 
 558   0.0000      44.015798      1197.7307 
 559   0.0000      44.040288      1198.3972 
 560   0.0000      44.088994      1199.7225 
 561   0.0000      44.105873      1200.1818 

                    ********************************
                    * MULLIKEN POPULATION ANALYSIS *
                    ********************************

-----------------------
MULLIKEN ATOMIC CHARGES
-----------------------
   0 C :   -0.194704
   1 C :   -0.163497
   2 C :    0.106129
   3 C :   -0.167279
   4 C :   -0.188635
   5 C :    0.145107
   6 H :    0.162600
   7 H :    0.132310
   8 H :    0.161267
   9 C :    0.000006
  10 H :    0.223595
  11 C :   -0.400678
  12 H :    0.132473
  13 H :    0.127097
  14 H :    0.136413
  15 N :    0.420450
  16 O :   -0.403183
  17 O :   -0.403845
  18 O :   -0.788715
  19 H :    0.330186
  20 H :    0.163207
  21 N :    0.443180
  22 O :   -0.362429
  23 O :   -0.362515
  24 H :    0.301345
  25 H :    0.353852
  26 O :   -0.903738
Sum of atomic charges:   -1.0000000

--------------------------------
MULLIKEN REDUCED ORBITAL CHARGES
--------------------------------
  0 C s       :     3.280175  s :     3.280175
      pz      :     0.919077  p :     2.820112
      px      :     0.949761
      py      :     0.951275
      dz2     :     0.020255  d :     0.086905
      dxz     :     0.020252
      dyz     :     0.010092
      dx2y2   :     0.012984
      dxy     :     0.023321
      f0      :     0.001079  f :     0.007511
      f+1     :     0.001066
      f-1     :     0.000798
      f+2     :     0.001237
      f-2     :     0.001363
      f+3     :     0.000666
      f-3     :     0.001303
  1 C s       :     3.252591  s :     3.252591
      pz      :     0.972880  p :     2.822856
      px      :     0.914148
      py      :     0.935829
      dz2     :     0.012308  d :     0.080605
      dxz     :     0.018207
      dyz     :     0.011106
      dx2y2   :     0.018521
      dxy     :     0.020463
      f0      :     0.000312  f :     0.007445
      f+1     :     0.001342
      f-1     :     0.000901
      f+2     :     0.001225
      f-2     :     0.001169
      f+3     :     0.001092
      f-3     :     0.001405
  2 C s       :     3.249731  s :     3.249731
      pz      :     0.798972  p :     2.506127
      px      :     0.831454
      py      :     0.875700
      dz2     :     0.029600  d :     0.128029
      dxz     :     0.032770
      dyz     :     0.014407
      dx2y2   :     0.027478
      dxy     :     0.023775
      f0      :     0.001016  f :     0.009985
      f+1     :     0.001795
      f-1     :     0.001104
      f+2     :     0.001747
      f-2     :     0.001442
      f+3     :     0.001407
      f-3     :     0.001472
  3 C s       :     3.239668  s :     3.239668
      pz      :     0.904809  p :     2.842492
      px      :     0.964467
      py      :     0.973216
      dz2     :     0.017095  d :     0.077727
      dxz     :     0.018670
      dyz     :     0.009142
      dx2y2   :     0.010637
      dxy     :     0.022184
      f0      :     0.000947  f :     0.007392
      f+1     :     0.001103
      f-1     :     0.000740
      f+2     :     0.001309
      f-2     :     0.001374
      f+3     :     0.000688
      f-3     :     0.001231
  4 C s       :     3.274209  s :     3.274209
      pz      :     0.956419  p :     2.819145
      px      :     0.920409
      py      :     0.942317
      dz2     :     0.012074  d :     0.087721
      dxz     :     0.022252
      dyz     :     0.010758
      dx2y2   :     0.019295
      dxy     :     0.023341
      f0      :     0.000305  f :     0.007560
      f+1     :     0.001444
      f-1     :     0.000975
      f+2     :     0.001194
      f-2     :     0.001149
      f+3     :     0.001042
      f-3     :     0.001451
  5 C s       :     3.072301  s :     3.072301
      pz      :     0.927088  p :     2.651810
      px      :     0.768878
      py      :     0.955844
      dz2     :     0.026138  d :     0.118799
      dxz     :     0.026213
      dyz     :     0.015144
      dx2y2   :     0.033598
      dxy     :     0.017705
      f0      :     0.001283  f :     0.011983
      f+1     :     0.001775
      f-1     :     0.001197
      f+2     :     0.002377
      f-2     :     0.001675
      f+3     :     0.001985
      f-3     :     0.001691
  6 H s       :     0.814658  s :     0.814658
      pz      :     0.005493  p :     0.022742
      px      :     0.009217
      py      :     0.008031
  7 H s       :     0.844901  s :     0.844901
      pz      :     0.010373  p :     0.022790
      px      :     0.004458
      py      :     0.007959
  8 H s       :     0.815928  s :     0.815928
      pz      :     0.005871  p :     0.022805
      px      :     0.008555
      py      :     0.008379
  9 C s       :     3.126091  s :     3.126091
      pz      :     1.111709  p :     2.717408
      px      :     0.827094
      py      :     0.778604
      dz2     :     0.030422  d :     0.146116
      dxz     :     0.019297
      dyz     :     0.021431
      dx2y2   :     0.036973
      dxy     :     0.037993
      f0      :     0.001662  f :     0.010379
      f+1     :     0.000987
      f-1     :     0.000802
      f+2     :     0.000720
      f-2     :     0.001495
      f+3     :     0.002225
      f-3     :     0.002489
 10 H s       :     0.722301  s :     0.722301
      pz      :     0.045202  p :     0.054104
      px      :     0.004301
      py      :     0.004602
 11 C s       :     3.325796  s :     3.325796
      pz      :     1.060421  p :     3.019554
      px      :     1.029839
      py      :     0.929294
      dz2     :     0.009153  d :     0.051290
      dxz     :     0.010605
      dyz     :     0.010647
      dx2y2   :     0.010698
      dxy     :     0.010188
      f0      :     0.000852  f :     0.004039
      f+1     :     0.000679
      f-1     :     0.000207
      f+2     :     0.000148
      f-2     :     0.000434
      f+3     :     0.000990
      f-3     :     0.000728
 12 H s       :     0.845615  s :     0.845615
      pz      :     0.007183  p :     0.021912
      px      :     0.010245
      py      :     0.004484
 13 H s       :     0.851668  s :     0.851668
      pz      :     0.011755  p :     0.021234
      px      :     0.005241
      py      :     0.004239
 14 H s       :     0.842027  s :     0.842027
      pz      :     0.004623  p :     0.021560
      px      :     0.006749
      py      :     0.010188
 15 N s       :     3.310735  s :     3.310735
      pz      :     1.100024  p :     3.017608
      px      :     0.907326
      py      :     1.010258
      dz2     :     0.008189  d :     0.237111
      dxz     :     0.049638
      dyz     :     0.033165
      dx2y2   :     0.066046
      dxy     :     0.080075
      f0      :     0.001317  f :     0.014095
      f+1     :     0.001013
      f-1     :     0.000934
      f+2     :     0.002073
      f-2     :     0.001236
      f+3     :     0.002110
      f-3     :     0.005411
 16 O s       :     3.871661  s :     3.871661
      pz      :     1.485150  p :     4.488515
      px      :     1.146098
      py      :     1.857266
      dz2     :     0.004822  d :     0.039831
      dxz     :     0.011417
      dyz     :     0.000214
      dx2y2   :     0.015093
      dxy     :     0.008285
      f0      :     0.000289  f :     0.003177
      f+1     :     0.000480
      f-1     :     0.000039
      f+2     :     0.000588
      f-2     :     0.000019
      f+3     :     0.001050
      f-3     :     0.000712
 17 O s       :     3.870620  s :     3.870620
      pz      :     1.477835  p :     4.490140
      px      :     1.694979
      py      :     1.317325
      dz2     :     0.004880  d :     0.039916
      dxz     :     0.002830
      dyz     :     0.009214
      dx2y2   :     0.010365
      dxy     :     0.012627
      f0      :     0.000285  f :     0.003169
      f+1     :     0.000143
      f-1     :     0.000383
      f+2     :     0.000207
      f-2     :     0.000450
      f+3     :     0.001018
      f-3     :     0.000684
 18 O s       :     3.801140  s :     3.801140
      pz      :     1.527988  p :     4.968446
      px      :     1.770440
      py      :     1.670018
      dz2     :     0.004921  d :     0.017975
      dxz     :     0.004601
      dyz     :     0.001329
      dx2y2   :     0.000998
      dxy     :     0.006126
      f0      :     0.000123  f :     0.001154
      f+1     :     0.000227
      f-1     :     0.000300
      f+2     :     0.000052
      f-2     :     0.000202
      f+3     :     0.000176
      f-3     :     0.000072
 19 H s       :     0.623422  s :     0.623422
      pz      :     0.018269  p :     0.046392
      px      :     0.013877
      py      :     0.014245
 20 H s       :     0.814033  s :     0.814033
      pz      :     0.010268  p :     0.022760
      px      :     0.004661
      py      :     0.007831
 21 N s       :     3.266070  s :     3.266070
      pz      :     1.011457  p :     3.032854
      px      :     1.055337
      py      :     0.966060
      dz2     :     0.052097  d :     0.243665
      dxz     :     0.047493
      dyz     :     0.035354
      dx2y2   :     0.064192
      dxy     :     0.044528
      f0      :     0.001528  f :     0.014231
      f+1     :     0.001939
      f-1     :     0.001902
      f+2     :     0.002066
      f-2     :     0.002437
      f+3     :     0.001868
      f-3     :     0.002491
 22 O s       :     3.880724  s :     3.880724
      pz      :     1.287213  p :     4.437670
      px      :     1.784059
      py      :     1.366399
      dz2     :     0.010560  d :     0.040813
      dxz     :     0.005724
      dyz     :     0.013161
      dx2y2   :     0.005550
      dxy     :     0.005819
      f0      :     0.000444  f :     0.003222
      f+1     :     0.000225
      f-1     :     0.000840
      f+2     :     0.000632
      f-2     :     0.000595
      f+3     :     0.000277
      f-3     :     0.000209
 23 O s       :     3.881171  s :     3.881171
      pz      :     1.548144  p :     4.437314
      px      :     1.537667
      py      :     1.351503
      dz2     :     0.005436  d :     0.040809
      dxz     :     0.007648
      dyz     :     0.006750
      dx2y2   :     0.008598
      dxy     :     0.012377
      f0      :     0.000304  f :     0.003221
      f+1     :     0.000310
      f-1     :     0.000328
      f+2     :     0.000264
      f-2     :     0.000750
      f+3     :     0.000693
      f-3     :     0.000571
 24 H s       :     0.651423  s :     0.651423
      pz      :     0.014011  p :     0.047233
      px      :     0.018013
      py      :     0.015209
 25 H s       :     0.585890  s :     0.585890
      pz      :     0.012331  p :     0.060258
      px      :     0.021188
      py      :     0.026739
 26 O s       :     3.850575  s :     3.850575
      pz      :     1.730538  p :     5.037803
      px      :     1.426976
      py      :     1.880288
      dz2     :     0.005253  d :     0.014505
      dxz     :     0.001041
      dyz     :     0.000524
      dx2y2   :     0.004586
      dxy     :     0.003101
      f0      :     0.000129  f :     0.000856
      f+1     :     0.000150
      f-1     :     0.000012
      f+2     :     0.000069
      f-2     :     0.000034
      f+3     :     0.000233
      f-3     :     0.000229


                     *******************************
                     * LOEWDIN POPULATION ANALYSIS *
                     *******************************

----------------------
LOEWDIN ATOMIC CHARGES
----------------------
   0 C :   -0.089861
   1 C :   -0.092305
   2 C :   -0.110976
   3 C :   -0.086371
   4 C :   -0.087750
   5 C :   -0.166114
   6 H :    0.160213
   7 H :    0.154122
   8 H :    0.161521
   9 C :   -0.265549
  10 H :    0.187052
  11 C :   -0.287653
  12 H :    0.125595
  13 H :    0.123993
  14 H :    0.133919
  15 N :   -0.034625
  16 O :   -0.103066
  17 O :   -0.099810
  18 O :   -0.425897
  19 H :    0.148082
  20 H :    0.160490
  21 N :   -0.013950
[...]
     66       0.000021  -0.000008  -0.000010   0.000199   0.000033  -0.000451
     67       0.000027  -0.000006   0.000001  -0.000151  -0.000039   0.000437
     68       0.000028  -0.000013  -0.000006  -0.000086  -0.000033   0.000273
     69       0.000030  -0.000015  -0.000015   0.000034  -0.000095   0.000225
     70      -0.000014   0.000007   0.000007  -0.000052  -0.000188   0.000208
     71      -0.000008   0.000006  -0.000005  -0.000048  -0.000242   0.000301
     72       0.000041  -0.000239   0.000201   0.000031   0.001517   0.000188
     73       0.000004   0.000126  -0.000194  -0.000011  -0.000454  -0.000047
     74       0.000112  -0.000329   0.000255   0.000057   0.000045  -0.000041
     75       0.002291   0.000022  -0.000126   0.000224   0.000918   0.000117
     76       0.002829   0.000002  -0.000135   0.000287   0.001180   0.000149
     77       0.001155  -0.000067  -0.000026   0.000106   0.000451   0.000057
     78       0.000015   0.000037  -0.000028  -0.000003  -0.000221  -0.000022
     79       0.000040  -0.000000   0.000001   0.000001   0.000077   0.000009
     80      -0.000306  -0.000005   0.000062   0.000002  -0.000084  -0.000019
                 78         79         80    
      0      -0.050456   0.000043   0.000006
      1       0.045212   0.000009  -0.000003
      2       0.029358   0.000012   0.000004
      3       0.010597  -0.000049  -0.000002
      4       0.018756   0.000118   0.000003
      5       0.025268   0.000011   0.000013
      6       0.001520   0.000061   0.000022
      7      -0.000507   0.000038  -0.000007
      8       0.000008   0.000059   0.000011
      9       0.008220  -0.000007  -0.000004
     10      -0.006994  -0.000008  -0.000004
     11      -0.004185  -0.000007  -0.000006
     12      -0.008419  -0.000002   0.000004
     13      -0.020534  -0.000000   0.000000
     14      -0.025622  -0.000004  -0.000003
     15      -0.001932  -0.000041  -0.000009
     16      -0.000875  -0.000020   0.000001
     17      -0.001712  -0.000029  -0.000003
     18       0.568924  -0.000002  -0.000010
     19      -0.512260  -0.000007   0.000003
     20      -0.334064  -0.000007   0.000009
     21      -0.094018  -0.000511   0.000002
     22      -0.215883  -0.000731  -0.000081
     23      -0.277667  -0.001678  -0.000072
     24      -0.083519   0.000030  -0.000009
     25       0.077793  -0.000063   0.000033
     26       0.049715  -0.000016   0.000007
     27      -0.000041   0.000129   0.000029
     28       0.000005   0.000070   0.000029
     29       0.000029  -0.000250  -0.000089
     30      -0.000336  -0.002235  -0.000199
     31       0.000020   0.000637   0.000009
     32       0.000244   0.001886   0.000894
     33      -0.000097   0.000006  -0.000000
     34      -0.000091  -0.000014  -0.000001
     35      -0.000113  -0.000028  -0.000000
     36       0.000402  -0.000245   0.000002
     37       0.000209   0.000274   0.000111
     38       0.000495  -0.000194  -0.000026
     39      -0.000090   0.000126   0.000007
     40      -0.000003  -0.000157   0.000003
     41       0.001283  -0.000137  -0.000019
     42       0.000778   0.000059  -0.000033
     43       0.000965   0.000082  -0.000064
     44      -0.000218   0.000030  -0.000013
     45      -0.000057  -0.000146  -0.000035
     46       0.000170  -0.000216  -0.000056
     47      -0.000048   0.000004   0.000011
     48      -0.000017   0.000127   0.000025
     49      -0.000034  -0.000000  -0.000004
     50       0.000020   0.000010  -0.000006
     51       0.000116  -0.000046  -0.000005
     52      -0.000063   0.000106   0.000016
     53      -0.000052  -0.000011   0.000002
     54       0.000004   0.000155  -0.019324
     55       0.000012   0.000364   0.023431
     56       0.000001   0.000374   0.053934
     57      -0.000012   0.001614   0.340278
     58       0.000012  -0.001895  -0.351727
     59       0.000044  -0.004652  -0.868974
     60       0.100173   0.000001   0.000002
     61       0.229904   0.000016   0.000011
     62       0.289019   0.000025  -0.000008
     63      -0.000729   0.000053   0.000011
     64       0.000400  -0.000006   0.000005
     65       0.000110   0.000018   0.000007
     66       0.000033  -0.000013  -0.000003
     67       0.000153  -0.000009   0.000003
     68       0.000166  -0.000020  -0.000005
     69      -0.000001  -0.000018  -0.000003
     70      -0.000387   0.000011   0.000003
     71      -0.000417   0.000004   0.000006
     72      -0.000589   0.952000  -0.005157
     73       0.000168  -0.257465   0.001801
     74       0.000018  -0.153057   0.000859
     75      -0.000123  -0.005224  -0.031872
     76      -0.000160  -0.001629  -0.015840
     77      -0.000046  -0.000659   0.015899
     78       0.000086  -0.059666   0.000219
     79      -0.000023   0.015979  -0.000376
     80       0.000008   0.009667  -0.000303


-----------
IR SPECTRUM
-----------

 Mode   freq       eps      Int      T**2         TX        TY        TZ
       cm**-1   L/(mol*cm) km/mol    a.u.
----------------------------------------------------------------------------
  8:     21.82   0.001792    9.05  0.025624  (-0.076144  0.107882 -0.090485)
  9:     32.26   0.003607   18.23  0.034896  (-0.111803  0.072973 -0.130657)
 10:     44.12   0.002077   10.50  0.014690  ( 0.097926  0.042577 -0.057340)
 11:     52.88   0.000654    3.31  0.003861  ( 0.045087  0.042579  0.003846)
 12:     60.16   0.000346    1.75  0.001794  ( 0.006208  0.037410 -0.018875)
 13:     70.20   0.000533    2.70  0.002371  (-0.042579 -0.001820 -0.023560)
 14:     82.67   0.003393   17.15  0.012810  (-0.029399 -0.009062 -0.108920)
 15:    101.72   0.001946    9.83  0.005968  ( 0.060668 -0.035534 -0.032019)
 16:    158.33   0.000960    4.85  0.001893  ( 0.042532  0.008651 -0.002964)
 17:    192.28   0.002495   12.61  0.004049  ( 0.039674  0.042904  0.025174)
 18:    249.64   0.001591    8.04  0.001989  (-0.018011 -0.030250 -0.027373)
 19:    266.74   0.009244   46.71  0.010814  (-0.054630 -0.058019 -0.066810)
 20:    274.24   0.000924    4.67  0.001052  (-0.009427 -0.027108 -0.015102)
 21:    293.10   0.008835   44.65  0.009406  (-0.063058 -0.071995  0.015709)
 22:    296.81   0.011753   59.39  0.012356  ( 0.042220  0.096256 -0.036177)
 23:    340.96   0.002665   13.47  0.002439  (-0.003048 -0.031907  0.037570)
 24:    360.39   0.002687   13.58  0.002327  ( 0.008557  0.005093  0.047196)
 25:    419.66   0.001756    8.88  0.001306  ( 0.016373 -0.006122  0.031629)
 26:    430.23   0.041510  209.77  0.030108  ( 0.004525  0.030468 -0.170762)
 27:    488.62   0.020114  101.65  0.012846  (-0.026023 -0.033892  0.104978)
 28:    507.24   0.002999   15.16  0.001845  (-0.033026  0.010850  0.025234)
 29:    527.06   0.004535   22.92  0.002685  ( 0.015998  0.047049  0.014688)
 30:    541.63   0.018811   95.06  0.010838  ( 0.007572  0.032137  0.098733)
 31:    589.74   0.019208   97.07  0.010164  ( 0.013650  0.084312 -0.053564)
 32:    596.68   0.052912  267.40  0.027673  ( 0.055631  0.038574  0.151954)
 33:    645.75   0.004400   22.23  0.002126  (-0.011243 -0.008424  0.043918)
 34:    661.91   0.042488  214.71  0.020031  (-0.029024 -0.045598  0.130804)
 35:    710.51   0.029195  147.54  0.012823  ( 0.016280  0.042531 -0.103676)
 36:    725.30   0.028952  146.31  0.012457  ( 0.002801  0.056423 -0.096256)
 37:    758.42   0.007042   35.59  0.002897  ( 0.038266  0.036487  0.010094)
 38:    792.16   0.001984   10.03  0.000782  (-0.024724 -0.008329 -0.010042)
 39:    817.77   0.013221   66.81  0.005045  (-0.024878 -0.019465  0.063618)
 40:    843.84   0.002074   10.48  0.000767  ( 0.024529  0.008998 -0.009188)
 41:    874.98   0.010176   51.42  0.003629  (-0.059279 -0.001367 -0.010647)
 42:    889.37   0.020614  104.18  0.007233  ( 0.022115  0.047890 -0.066713)
 43:    912.08   0.015008   75.84  0.005135  ( 0.002163 -0.063595 -0.032952)
 44:    917.69   0.032188  162.67  0.010946  (-0.070722  0.040128 -0.065832)
 45:    978.22   0.002872   14.52  0.000916  (-0.028950 -0.008118 -0.003503)
 46:    996.64   0.000061    0.31  0.000019  (-0.003240 -0.002473  0.001573)
 47:   1001.06   0.000115    0.58  0.000036  (-0.004593  0.002962  0.002431)
 48:   1034.97   0.003123   15.78  0.000942  ( 0.029716  0.001242  0.007547)
 49:   1062.25   0.008803   44.48  0.002586  (-0.043228 -0.026031  0.006300)
 50:   1101.91   0.013958   70.54  0.003953  ( 0.033640 -0.039956  0.034998)
 51:   1125.01   0.047757  241.35  0.013247  (-0.110666 -0.019496 -0.024905)
 52:   1136.11   0.000944    4.77  0.000259  (-0.010359  0.007950  0.009416)
 53:   1144.78   0.003642   18.40  0.000993  (-0.011341 -0.024573  0.016135)
 54:   1177.95   0.006248   31.57  0.001655  ( 0.000123 -0.013734  0.038295)
 55:   1212.83   0.002869   14.50  0.000738  (-0.025858 -0.007809 -0.002919)
 56:   1303.60   0.015083   76.22  0.003611  ( 0.029457  0.050667  0.013261)
 57:   1333.79   0.064967  328.32  0.015200  (-0.115129 -0.035441 -0.026257)
 58:   1340.37   0.249046  1258.58  0.057982  ( 0.225027  0.023940  0.082294)
 59:   1355.83   0.006729   34.01  0.001549  ( 0.012392 -0.018468 -0.032468)
 60:   1370.94   0.020867  105.45  0.004750  (-0.004478 -0.068706 -0.003050)
 61:   1419.76   0.019730   99.71  0.004337  (-0.012339 -0.062066 -0.018228)
 62:   1440.12   0.007073   35.74  0.001533  ( 0.036165 -0.003794  0.014504)
 63:   1474.69   0.027417  138.56  0.005802  ( 0.058215 -0.036628  0.032731)
 64:   1482.21   0.082229  415.55  0.017312  ( 0.104423 -0.080049 -0.000739)
 65:   1494.11   0.025276  127.73  0.005279  (-0.069344  0.020706  0.006461)
 66:   1522.32   0.102693  518.97  0.021051  ( 0.023124 -0.108810 -0.093149)
 67:   1529.76   0.005329   26.93  0.001087  ( 0.029117 -0.015418 -0.001221)
 68:   1628.01   0.008310   42.00  0.001593  ( 0.002012  0.028126  0.028247)
 69:   1635.74   0.020673  104.47  0.003944  ( 0.061182 -0.007583  0.011973)
 70:   1654.12   0.017512   88.50  0.003304  (-0.045577 -0.010262  0.033486)
 71:   2879.72   0.419216  2118.55  0.045429  ( 0.122239  0.139020  0.105640)
 72:   3034.54   0.006379   32.23  0.000656  ( 0.011902 -0.018683 -0.012854)
 73:   3100.59   0.005440   27.49  0.000548  (-0.008634 -0.011096  0.018705)
 74:   3128.19   0.004283   21.65  0.000427  (-0.017745 -0.002428 -0.010320)
 75:   3206.11   0.000505    2.55  0.000049  ( 0.004499 -0.004812 -0.002389)
 76:   3212.20   0.000433    2.19  0.000042  (-0.000657 -0.003193 -0.005605)
 77:   3227.76   0.000130    0.65  0.000013  ( 0.001615  0.001913  0.002502)
 78:   3228.48   0.000555    2.81  0.000054  ( 0.006773 -0.000948  0.002625)
 79:   3790.27   0.002205   11.14  0.000182  ( 0.007600  0.000256 -0.011123)
 80:   3819.12   0.009413   47.57  0.000769  ( 0.001074 -0.013951 -0.023945)

* The epsilon (eps) is given for a Dirac delta lineshape.
** The dipole moment derivative (T) already includes vibrational overlap.

The first frequency considered to be a vibration is 8
The total number of vibrations considered is 73


--------------------------
THERMOCHEMISTRY AT 298.15K
--------------------------

Temperature         ... 298.15 K
Pressure            ... 1.00 atm
Total Mass          ... 232.18 AMU

Throughout the following assumptions are being made:
  (1) The electronic state is orbitally nondegenerate
  (2) There are no thermally accessible electronically excited states
  (3) Hindered rotations indicated by low frequency modes are not
      treated as such but are treated as vibrations and this may
      cause some error
  (4) All equations used are the standard statistical mechanics
      equations for an ideal gas
  (5) All vibrations are strictly harmonic

freq.      21.82  E(vib)   ...       0.56 
freq.      32.26  E(vib)   ...       0.55 
freq.      44.12  E(vib)   ...       0.53 
freq.      52.88  E(vib)   ...       0.52 
freq.      60.16  E(vib)   ...       0.51 
freq.      70.20  E(vib)   ...       0.50 
freq.      82.67  E(vib)   ...       0.48 
freq.     101.72  E(vib)   ...       0.46 
freq.     158.33  E(vib)   ...       0.39 
freq.     192.28  E(vib)   ...       0.36 
freq.     249.64  E(vib)   ...       0.31 
freq.     266.74  E(vib)   ...       0.29 
freq.     274.24  E(vib)   ...       0.28 
freq.     293.10  E(vib)   ...       0.27 
freq.     296.81  E(vib)   ...       0.27 
freq.     340.96  E(vib)   ...       0.23 
freq.     360.39  E(vib)   ...       0.22 
freq.     419.66  E(vib)   ...       0.18 
freq.     430.23  E(vib)   ...       0.18 
freq.     488.62  E(vib)   ...       0.15 
freq.     507.24  E(vib)   ...       0.14 
freq.     527.06  E(vib)   ...       0.13 
freq.     541.63  E(vib)   ...       0.12 
freq.     589.74  E(vib)   ...       0.10 
freq.     596.68  E(vib)   ...       0.10 
freq.     645.75  E(vib)   ...       0.09 
freq.     661.91  E(vib)   ...       0.08 
freq.     710.51  E(vib)   ...       0.07 
freq.     725.30  E(vib)   ...       0.06 
freq.     758.42  E(vib)   ...       0.06 
freq.     792.16  E(vib)   ...       0.05 
freq.     817.77  E(vib)   ...       0.05 
freq.     843.84  E(vib)   ...       0.04 
freq.     874.98  E(vib)   ...       0.04 
freq.     889.37  E(vib)   ...       0.04 
freq.     912.08  E(vib)   ...       0.03 
freq.     917.69  E(vib)   ...       0.03 
freq.     978.22  E(vib)   ...       0.03 
freq.     996.64  E(vib)   ...       0.02 
freq.    1001.06  E(vib)   ...       0.02 
freq.    1034.97  E(vib)   ...       0.02 
freq.    1062.25  E(vib)   ...       0.02 
freq.    1101.91  E(vib)   ...       0.02 
freq.    1125.01  E(vib)   ...       0.01 
freq.    1136.11  E(vib)   ...       0.01 
freq.    1144.78  E(vib)   ...       0.01 
freq.    1177.95  E(vib)   ...       0.01 
freq.    1212.83  E(vib)   ...       0.01 
freq.    1303.60  E(vib)   ...       0.01 
freq.    1333.79  E(vib)   ...       0.01 
freq.    1340.37  E(vib)   ...       0.01 
freq.    1355.83  E(vib)   ...       0.01 
freq.    1370.94  E(vib)   ...       0.01 
freq.    1419.76  E(vib)   ...       0.00 
freq.    1440.12  E(vib)   ...       0.00 
freq.    1474.69  E(vib)   ...       0.00 
freq.    1482.21  E(vib)   ...       0.00 
freq.    1494.11  E(vib)   ...       0.00 
freq.    1522.32  E(vib)   ...       0.00 
freq.    1529.76  E(vib)   ...       0.00 
freq.    1628.01  E(vib)   ...       0.00 
freq.    1635.74  E(vib)   ...       0.00 
freq.    1654.12  E(vib)   ...       0.00 
freq.    2879.72  E(vib)   ...       0.00 
freq.    3034.54  E(vib)   ...       0.00 
freq.    3100.59  E(vib)   ...       0.00 
freq.    3128.19  E(vib)   ...       0.00 
freq.    3206.11  E(vib)   ...       0.00 
freq.    3212.20  E(vib)   ...       0.00 
freq.    3227.76  E(vib)   ...       0.00 
freq.    3228.48  E(vib)   ...       0.00 
freq.    3790.27  E(vib)   ...       0.00 
freq.    3819.12  E(vib)   ...       0.00 

------------
INNER ENERGY
------------

The inner energy is: U= E(el) + E(ZPE) + E(vib) + E(rot) + E(trans)
    E(el)   - is the total energy from the electronic structure calculation
              = E(kin-el) + E(nuc-el) + E(el-el) + E(nuc-nuc)
    E(ZPE)  - the the zero temperature vibrational energy from the frequency calculation
    E(vib)  - the the finite temperature correction to E(ZPE) due to population
              of excited vibrational states
    E(rot)  - is the rotational thermal energy
    E(trans)- is the translational thermal energy

Summary of contributions to the inner energy U:
Electronic energy                ...   -872.24043231 Eh
Zero point energy                ...      0.18939105 Eh     118.84 kcal/mol
Thermal vibrational correction   ...      0.01388134 Eh       8.71 kcal/mol
Thermal rotational correction    ...      0.00141627 Eh       0.89 kcal/mol
Thermal translational correction ...      0.00141627 Eh       0.89 kcal/mol
-----------------------------------------------------------------------
Total thermal energy                   -872.03432737 Eh


Summary of corrections to the electronic energy:
(perhaps to be used in another calculation)
Total thermal correction                  0.01671388 Eh      10.49 kcal/mol
Non-thermal (ZPE) correction              0.18939105 Eh     118.84 kcal/mol
-----------------------------------------------------------------------
Total correction                          0.20610494 Eh     129.33 kcal/mol


--------
ENTHALPY
--------

The enthalpy is H = U + kB*T
                kB is Boltzmann's constant
Total free energy                 ...   -872.03432737 Eh 
Thermal Enthalpy correction       ...      0.00094421 Eh       0.59 kcal/mol
-----------------------------------------------------------------------
Total Enthalpy                    ...   -872.03338316 Eh


Note: Only C1 symmetry has been detected, increase convergence thresholds 
      if your molecule has a higher symmetry. Symmetry factor of 1.0 is   
      used for the rotational entropy correction. 
 

Note: Rotational entropy computed according to Herzberg 
Infrared and Raman Spectra, Chapter V,1, Van Nostrand Reinhold, 1945 
Point Group:  C1, Symmetry Number:   1  
Rotational constants in cm-1:     0.032746     0.007728     0.007129 

Vibrational entropy computed according to the QRRHO of S. Grimme
Chem.Eur.J. 2012 18 9955


-------
ENTROPY
-------

The entropy contributions are T*S = T*(S(el)+S(vib)+S(rot)+S(trans))
     S(el)   - electronic entropy
     S(vib)  - vibrational entropy
     S(rot)  - rotational entropy
     S(trans)- translational entropy
The entropies will be listed as multiplied by the temperature to get
units of energy

Electronic entropy                ...      0.00000000 Eh      0.00 kcal/mol
Vibrational entropy               ...      0.02505594 Eh     15.72 kcal/mol
Rotational entropy                ...      0.01575441 Eh      9.89 kcal/mol
Translational entropy             ...      0.02006420 Eh     12.59 kcal/mol
-----------------------------------------------------------------------
Final entropy term                ...      0.06087456 Eh     38.20 kcal/mol

In case the symmetry of your molecule has not been determined correctly
or in case you have a reason to use a different symmetry number we print 
out the resulting rotational entropy values for sn=1,12 :
 --------------------------------------------------------
|  sn= 1 | S(rot)=       0.01575441 Eh      9.89 kcal/mol|
|  sn= 2 | S(rot)=       0.01509995 Eh      9.48 kcal/mol|
|  sn= 3 | S(rot)=       0.01471712 Eh      9.24 kcal/mol|
|  sn= 4 | S(rot)=       0.01444550 Eh      9.06 kcal/mol|
|  sn= 5 | S(rot)=       0.01423481 Eh      8.93 kcal/mol|
|  sn= 6 | S(rot)=       0.01406266 Eh      8.82 kcal/mol|
|  sn= 7 | S(rot)=       0.01391712 Eh      8.73 kcal/mol|
|  sn= 8 | S(rot)=       0.01379104 Eh      8.65 kcal/mol|
|  sn= 9 | S(rot)=       0.01367983 Eh      8.58 kcal/mol|
|  sn=10 | S(rot)=       0.01358035 Eh      8.52 kcal/mol|
|  sn=11 | S(rot)=       0.01349036 Eh      8.47 kcal/mol|
|  sn=12 | S(rot)=       0.01340821 Eh      8.41 kcal/mol|
 --------------------------------------------------------


-------------------
GIBBS FREE ENERGY
-------------------

The Gibbs free energy is G = H - T*S

Total enthalpy                    ...   -872.03338316 Eh 
Total entropy correction          ...     -0.06087456 Eh    -38.20 kcal/mol
-----------------------------------------------------------------------
Final Gibbs free energy         ...   -872.09425772 Eh

For completeness - the Gibbs free energy minus the electronic energy
G-E(el)                           ...      0.14617459 Eh     91.73 kcal/mol



Timings for individual modules:

Sum of individual times         ...     1935.892 sec (=  32.265 min)
GTO integral calculation        ...        9.974 sec (=   0.166 min)   0.5 %
SCF iterations                  ...      110.772 sec (=   1.846 min)   5.7 %
SCF Gradient evaluation         ...       23.854 sec (=   0.398 min)   1.2 %
Numerical frequency calculation ...     1791.291 sec (=  29.855 min)  92.5 %
                             ****ORCA TERMINATED NORMALLY****
TOTAL RUN TIME: 0 days 0 hours 31 minutes 7 seconds 751 msec
