 *******************************************************************************
 **                                                                           **
 **                              MOPAC v22.1.1                                **
 **                                                                           **
 *******************************************************************************
 **          Digital Object Identifier (DOI): 10.5281/zenodo.6511958          **
 **    Visit the DOI location for information on how to cite this program.    **
 *******************************************************************************

                              PM7 CALCULATION RESULTS

 *******************************************************************************
 *  CALCULATION DONE:                                Wed Nov  6 13:22:55 2024  *
 *  PM7        - The PM7 Hamiltonian to be used
 *  SINGLET    - SPIN STATE DEFINED AS A SINGLET
 *
 *
 *
 *                 CHARGE ON SYSTEM = -1
 *
 *
 *
 *  EPS=78.4   - USE ANDREAS KLAMT'S COSMO IMPLICIT SOLVATION MODEL
 *  THREADS=1  - MULTI-THREADING NOT USED
 *  T=         - A TIME OF 14.0 DAYS REQUESTED
 *  DUMP=N     - RESTART FILE WRITTEN EVERY 30.0 MINUTES REQUESTED
 *  RELSCF     - DEFAULT SCF CRITERION MULTIPLIED BY 1.0000
 *              (DEFAULT SCF CRITERION = 0.00010)
 *  ITRY=      - DO A MAXIMUM OF 15000 ITERATIONS FOR SCF
 *  AUX        - OUTPUT AUXILIARY INFORMATION
 *  BONDS      - FINAL BOND-ORDER MATRIX TO BE PRINTED
 *******************************************************************************
PM7 BONDS AUX DUMP=30M ITRY=15000 T=14D CHARGE=-1 SINGLET eps=78.4 THREADS=True RELSCF=1
 Title: ASE calculation

   ATOM   CHEMICAL          X               Y               Z
  NUMBER   SYMBOL      (ANGSTROMS)     (ANGSTROMS)     (ANGSTROMS)

     1       C          1.12718957  *   0.77420756  *  -1.46372464  *
     2       C          1.15130088  *  -0.59663543  *  -1.20284751  *
     3       C         -0.05388134  *  -1.26314265  *  -1.04044663  *
     4       C         -1.27905488  *  -0.61112758  *  -1.10863177  *
     5       C         -1.28794141  *   0.75994653  *  -1.35895830  *
     6       C         -0.08862739  *   1.44931604  *  -1.54019551  *
     7       H          2.06459745  *   1.31488437  *  -1.60322136  *
     8       C          2.48451946  *  -1.28950458  *  -1.09610681  *
     9      Br         -0.04916030  *  -3.14401068  *  -0.71406850  *
    10       H         -2.22239594  *  -1.14191592  *  -0.97100929  *
    11       H         -2.23679977  *   1.29422165  *  -1.41149535  *
    12       H         -0.10434907  *   2.52163571  *  -1.74108699  *
    13       O          2.97470863  *  -1.67875185  *  -2.18640870  *
    14       C          3.04333133     -1.41273007      0.13646944   
    15       O          6.84056356     -2.23833249      0.33616692   
    16       H          7.02092052  *  -2.24283797  *   1.28937038  *
    17       H          7.35068685  *  -3.79190580  *  -0.15173854  *
    18       O          7.65628450  *  -4.67286087  *  -0.43250530  *
    19       H          6.84909538  *  -5.17917507  *  -0.56021418  *
    20       H          3.98856442  *  -1.87846143  *   0.29371641  *
    21       H          2.57670137  *  -1.06536497  *   1.02611694  *
    22       H          5.84583947     -2.23555054  *   0.33653631  *



          CARTESIAN COORDINATES 

    NO.       ATOM           X           Y           Z

     1         C          1.1272      0.7742     -1.4637
     2         C          1.1513     -0.5966     -1.2028
     3         C         -0.0539     -1.2631     -1.0404
     4         C         -1.2791     -0.6111     -1.1086
     5         C         -1.2879      0.7599     -1.3590
     6         C         -0.0886      1.4493     -1.5402
     7         H          2.0646      1.3149     -1.6032
     8         C          2.4845     -1.2895     -1.0961
     9        Br         -0.0492     -3.1440     -0.7141
    10         H         -2.2224     -1.1419     -0.9710
    11         H         -2.2368      1.2942     -1.4115
    12         H         -0.1043      2.5216     -1.7411
    13         O          2.9747     -1.6788     -2.1864
    14         C          3.0433     -1.4127      0.1365
    15         O          6.8406     -2.2383      0.3362
    16         H          7.0209     -2.2428      1.2894
    17         H          7.3507     -3.7919     -0.1517
    18         O          7.6563     -4.6729     -0.4325
    19         H          6.8491     -5.1792     -0.5602
    20         H          3.9886     -1.8785      0.2937
    21         H          2.5767     -1.0654      1.0261
    22         H          5.8458     -2.2356      0.3365

 General Reference for PM7:
 "Optimization of Parameters for Semiempirical Methods VI: More Modifications to the 
 NDDO Approximations and Re-optimization of Parameters", J. J. P. Stewart, J. Mol. Mod., 1:32, 19 (2013)
 https://link.springer.com/article/10.1007/s00894-012-1667-x

           Empirical Formula: C8 H10 O3 Br  =    22 atoms



      MOLECULAR POINT GROUP   :   C1  


 SINGLET STATE CALCULATION


      RHF CALCULATION, NO. OF DOUBLY OCCUPIED LEVELS = 34


          Geometry optimization using EF
  SCF CRITERION =    0.1000E-03

          DIAGONAL MATRIX USED AS START HESSIAN

 CYCLE:     1 TIME:   0.043 TIME LEFT:  2.00W  GRAD.:     5.030 HEAT: -231.4248
 CYCLE:     2 TIME:   0.082 TIME LEFT:  2.00W  GRAD.:     4.178 HEAT: -231.4348
 CYCLE:     3 TIME:   0.016 TIME LEFT:  2.00W  GRAD.:     3.366 HEAT: -231.4445
 CYCLE:     4 TIME:   0.035 TIME LEFT:  2.00W  GRAD.:     2.801 HEAT: -231.4498
 CYCLE:     5 TIME:   0.035 TIME LEFT:  2.00W  GRAD.:     3.076 HEAT: -231.4554
 CYCLE:     6 TIME:   0.027 TIME LEFT:  2.00W  GRAD.:     2.490 HEAT: -231.4573
 CYCLE:     7 TIME:   0.012 TIME LEFT:  2.00W  GRAD.:     1.897 HEAT: -231.4716
 CYCLE:     8 TIME:   0.012 TIME LEFT:  2.00W  GRAD.:     4.361 HEAT: -231.4718
 CYCLE:     9 TIME:   0.023 TIME LEFT:  2.00W  GRAD.:     1.456 HEAT: -231.4767
 CYCLE:    10 TIME:   0.062 TIME LEFT:  2.00W  GRAD.:     1.063 HEAT: -231.4808
 CYCLE:    11 TIME:   0.027 TIME LEFT:  2.00W  GRAD.:     1.839 HEAT: -231.4877
 CYCLE:    12 TIME:   0.105 TIME LEFT:  2.00W  GRAD.:     1.615 HEAT: -231.4880

     TRUST RADIUS NOW LESS THAN  0.00010 OPTIMIZATION TERMINATING
      THE GEOMETRY MAY NOT BE COMPLETELY OPTIMIZED
      (TO CONTINUE, ADD 'LET DDMIN=0.0' TO THE KEYWORD LINE)

 -------------------------------------------------------------------------------
 PM7 BONDS AUX DUMP=30M ITRY=15000 T=14D CHARGE=-1 SINGLET eps=78.4 THREADS=True RELSCF=1
 Title: ASE calculation



     GEOMETRY OPTIMISED USING EIGENVECTOR FOLLOWING (EF).     
     SCF FIELD WAS ACHIEVED                                   


                              PM7 CALCULATION
                                                       MOPAC v22.1.1 Linux
                                                       Wed Nov  6 13:22:55 2024




          FINAL HEAT OF FORMATION =       -231.48797 KCAL/MOL =    -968.54566 KJ/MOL
          VAN DER WAALS AREA      =        242.77 SQUARE ANGSTROMS



          DIELECTRIC ENERGY       =         -3.57210 EV
          COSMO AREA              =        242.77 SQUARE ANGSTROMS
          COSMO VOLUME            =        235.24 CUBIC ANGSTROMS

          GRADIENT NORM           =          1.61534          =       0.34439 PER ATOM
          IONIZATION POTENTIAL    =          8.375234 EV
          HOMO LUMO ENERGIES (EV) =         -8.375 -0.177
          NO. OF FILLED LEVELS    =         34
          MOLECULAR WEIGHT        =        234.0692         POINT GROUP:  C1  

          MOLECULAR DIMENSIONS (Angstroms)

            Atom       Atom       Distance
            O    18    H    11    11.59519
           Br     9    H     7     4.98207
            H    16    O    13     3.37200


          SCF CALCULATIONS        =         45

          WALL-CLOCK TIME         =      0.613 SECONDS
          COMPUTATION TIME        =     17.025 SECONDS




   ATOM   CHEMICAL          X               Y               Z
  NUMBER   SYMBOL      (ANGSTROMS)     (ANGSTROMS)     (ANGSTROMS)

     1       C          1.12628519  *   0.77662824  *  -1.46311305  *
     2       C          1.15124503  *  -0.59418878  *  -1.20262182  *
     3       C         -0.05361180  *  -1.26132231  *  -1.04205360  *
     4       C         -1.27947754  *  -0.61070586  *  -1.11109174  *
     5       C         -1.28911123  *   0.76083348  *  -1.36182713  *
     6       C         -0.08995708  *   1.45071373  *  -1.54121943  *
     7       H          2.06347010  *   1.31847201  *  -1.60115777  *
     8       C          2.48426943  *  -1.28760890  *  -1.09617990  *
     9      Br         -0.04823609  *  -3.14233517  *  -0.71504286  *
    10       H         -2.22256246  *  -1.14185218  *  -0.97515846  *
    11       H         -2.23822325  *   1.29421378  *  -1.41588282  *
    12       H         -0.10625054  *   2.52313841  *  -1.74199575  *
    13       O          2.97445092  *  -1.67717515  *  -2.18658045  *
    14       C          3.04333133     -1.41273007      0.13646944   
    15       O          6.84056356     -2.23833249      0.33616692   
    16       H          7.04834965  *  -2.23479915  *   1.28585943  *
    17       H          7.35329985  *  -3.79155709  *  -0.15697635  *
    18       O          7.65647178  *  -4.67174254  *  -0.44080701  *
    19       H          6.84905810  *  -5.17956162  *  -0.55789800  *
    20       H          3.98661703  *  -1.88051855  *   0.29281286  *
    21       H          2.57778318  *  -1.06472324  *   1.02649524  *
    22       H          5.84583947     -2.22604773  *   0.33159905  *

                             CARTESIAN COORDINATES

   1    C        1.126285193     0.776628237    -1.463113050
   2    C        1.151245031    -0.594188783    -1.202621823
   3    C       -0.053611802    -1.261322306    -1.042053596
   4    C       -1.279477543    -0.610705855    -1.111091739
   5    C       -1.289111233     0.760833484    -1.361827132
   6    C       -0.089957080     1.450713728    -1.541219431
   7    H        2.063470099     1.318472010    -1.601157765
   8    C        2.484269427    -1.287608905    -1.096179897
   9   Br       -0.048236087    -3.142335168    -0.715042862
  10    H       -2.222562462    -1.141852179    -0.975158456
  11    H       -2.238223249     1.294213778    -1.415882818
  12    H       -0.106250541     2.523138408    -1.741995754
  13    O        2.974450922    -1.677175153    -2.186580450
  14    C        3.043331330    -1.412730070     0.136469440
  15    O        6.840563560    -2.238332490     0.336166920
  16    H        7.048349651    -2.234799151     1.285859430
  17    H        7.353299853    -3.791557094    -0.156976352
  18    O        7.656471776    -4.671742545    -0.440807014
  19    H        6.849058102    -5.179561622    -0.557897995
  20    H        3.986617035    -1.880518549     0.292812864
  21    H        2.577783176    -1.064723243     1.026495241
  22    H        5.845839470    -2.226047726     0.331599049


           Empirical Formula: C8 H10 O3 Br  =    22 atoms



      MOLECULAR POINT GROUP   :   C1  


                  EIGENVALUES  
 -30.94399 -29.64390 -28.77214 -28.69525 -26.71149 -26.22285 -24.73107 -24.07901
 -21.33646 -20.76835 -18.60379 -17.76558 -17.59355 -16.86750 -15.92851 -15.36412
 -14.93980 -14.74559 -14.58206 -14.36107 -14.02705 -13.53132 -12.91263 -12.85429
 -12.45979 -12.30656 -12.05219 -11.83209 -11.38550 -10.63944 -10.02638  -9.74439
  -9.64662  -8.37523  -0.17659  -0.04710   0.54806   2.08621   2.23359   3.54604
   3.88911   4.31575   4.60236   4.77938   4.80995   4.82398   4.96753   5.60969
   5.71591   5.75835   6.06072   6.08691   6.12507   6.16746   6.40845   6.82625
   7.17482   7.95393 257.26703 257.28381 257.42585 258.05400 258.06797


              NET ATOMIC CHARGES AND DIPOLE CONTRIBUTIONS

  ATOM NO.   TYPE          CHARGE      No. of ELECS.   s-Pop       p-Pop       d-Pop       
    1          C          -0.158048        4.1580     1.08579     3.07226
    2          C          -0.082155        4.0822     1.09472     2.98743
    3          C          -0.028860        4.0289     1.09425     2.93461
    4          C          -0.156982        4.1570     1.08657     3.07041
    5          C          -0.158632        4.1586     1.08649     3.07215
    6          C          -0.139414        4.1394     1.08933     3.05008
    7          H           0.172844        0.8272     0.82716
    8          C           0.521407        3.4786     1.05995     2.41864
    9         Br          -0.111352        7.1114     1.95297     5.15450     0.00389
   10          H           0.176905        0.8231     0.82309
   11          H           0.164931        0.8351     0.83507
   12          H           0.166807        0.8332     0.83319
   13          O          -0.878451        6.8785     1.88395     4.99450
   14          C          -0.770298        4.7703     1.05664     3.71366
   15          O          -0.725030        6.7250     1.82703     4.89800
   16          H           0.380130        0.6199     0.61987
   17          H           0.378942        0.6211     0.62106
   18          O          -0.778528        6.7785     1.81576     4.96277
   19          H           0.371277        0.6287     0.62872
   20          H           0.141003        0.8590     0.85900
   21          H           0.144433        0.8556     0.85557
   22          H           0.369070        0.6309     0.63093
 DIPOLE           X         Y         Z       TOTAL
 POINT-CHG.   -10.469     2.983     5.226    12.075
 HYBRID        -0.636     0.005     0.054     0.639
 SUM          -11.105     2.988     5.280    12.654


          ATOMIC ORBITAL ELECTRON POPULATIONS

     Atom    s        px        py        pz      x^2-y^2     xz        z^2       yz        xy
    1  C   1.08579   1.06389   1.00113   1.00723
    2  C   1.09472   1.03093   1.00078   0.95572
    3  C   1.09425   0.99972   0.85291   1.08199
    4  C   1.08657   1.05233   1.01670   1.00138
    5  C   1.08649   1.07018   1.00216   0.99981
    6  C   1.08933   0.98224   1.08838   0.97946
    7  H   0.82716
    8  C   1.05995   0.81367   0.76264   0.84234
    9 Br   1.95297   1.99431   1.20416   1.95603   0.00147   0.00006   0.00062   0.00070   0.00105
   10  H   0.82309
   11  H   0.83507
   12  H   0.83319
   13  O   1.88395   1.79870   1.73071   1.46509
   14  C   1.05664   1.20971   1.42877   1.07519
   15  O   1.82703   1.44470   1.97428   1.47902
   16  H   0.61987
   17  H   0.62106
   18  O   1.81576   1.52436   1.48620   1.95221
   19  H   0.62872
   20  H   0.85900
   21  H   0.85557
   22  H   0.63093

          BONDING CONTRIBUTION OF EACH M.O.

  1.9192  1.1243  1.2069  1.4379  1.3894  1.6467  1.0249  1.6897  1.9291  1.8164
  1.7315  1.6295  1.6220  1.6936  1.9676  1.7329  0.9766  1.7674  1.4657  0.6830
  1.8700  1.6728  1.5533  1.5495  0.1421  0.0004  1.7328  1.7738  0.8344  0.1210
  1.9491  0.8749  1.1918  0.9903 -2.0562 -1.9806 -1.9865 -2.1348 -2.0099 -1.7621
 -1.9845 -1.9580 -2.0135 -1.9575 -1.9150 -1.8411 -2.0061 -1.9959 -1.9710 -1.9486
 -1.9664 -1.7447 -1.9575 -1.9580 -1.9587 -1.7229 -1.9428 -1.9271 -0.0024 -0.0053
 -0.0032 -0.0001 -0.0004





            (VALENCIES)   BOND ORDERS

     1  C     (3.969)     6  C 1.449     2  C 1.414     7  H 0.957     4  C 0.112     9 Br 0.011

     2  C     (3.970)     3  C 1.421     1  C 1.414     8  C 0.926     5  C 0.109    13  O 0.046     9 Br 0.019
                         14  C 0.013

     3  C     (3.958)     4  C 1.421     2  C 1.421     9 Br 0.970     6  C 0.110

     4  C     (3.968)     5  C 1.446     3  C 1.421    10  H 0.955     1  C 0.112     9 Br 0.019

     5  C     (3.972)     4  C 1.446     6  C 1.433    11  H 0.960     2  C 0.109     9 Br 0.011

     6  C     (3.971)     1  C 1.449     5  C 1.433    12  H 0.960     3  C 0.110

     7  H     (0.970)     1  C 0.957

     8  C     (3.862)    14  C 1.593    13  O 1.320     2  C 0.926

     9 Br     (1.043)     3  C 0.970     4  C 0.019     2  C 0.019     1  C 0.011     5  C 0.011

    10  H     (0.969)     4  C 0.955

    11  H     (0.973)     5  C 0.960

    12  H     (0.972)     6  C 0.960

    13  O     (1.540)     8  C 1.320    14  C 0.147     2  C 0.046

    14  C     (3.708)     8  C 1.593    21  H 0.968    20  H 0.962    13  O 0.147     2  C 0.013

    15  O     (1.773)    22  H 0.853    16  H 0.852    17  H 0.043    18  O 0.020

    16  H     (0.856)    15  O 0.852

    17  H     (0.856)    18  O 0.812    15  O 0.043

    18  O     (1.695)    19  H 0.861    17  H 0.812    15  O 0.020

    19  H     (0.862)    18  O 0.861

    20  H     (0.980)    14  C 0.962

    21  H     (0.979)    14  C 0.968

    22  H     (0.864)    15  O 0.853


 **********************
 *                    *
 * JOB ENDED NORMALLY *
 *                    *
 **********************



 TOTAL JOB TIME:             0.62 SECONDS

 == MOPAC DONE ==
