 *******************************************************************************
 **                                                                           **
 **                              MOPAC v22.0.6                                **
 **                                                                           **
 *******************************************************************************
 **          Digital Object Identifier (DOI): 10.5281/zenodo.6511958          **
 **    Visit the DOI location for information on how to cite this program.    **
 *******************************************************************************

                              PM7 CALCULATION RESULTS

 *******************************************************************************
 *  CALCULATION DONE:                                Tue Mar 26 11:07:02 2024  *
 *  PM7        - The PM7 Hamiltonian to be used
 *  DOUBLET    - SPIN STATE DEFINED AS A DOUBLET
 *
 *
 *
 *                 CHARGE ON SYSTEM = 0
 *
 *
 *
 *  EPS=78.4   - USE ANDREAS KLAMT'S COSMO IMPLICIT SOLVATION MODEL
 *  LET        - OVERRIDE SOME SAFETY CHECKS
 *  THREADS    - USE A MAXIMUM OF 30 THREADS
 *  T=         - A TIME OF 14.0 DAYS REQUESTED
 *  DUMP=N     - RESTART FILE WRITTEN EVERY 30.0 MINUTES REQUESTED
 *  RELSCF     - DEFAULT SCF CRITERION MULTIPLIED BY 1.0000
 *              (DEFAULT SCF CRITERION = 0.00010)
 *  ITRY=      - DO A MAXIMUM OF 15000 ITERATIONS FOR SCF
 *  AUX        - OUTPUT AUXILIARY INFORMATION
 *  ISOTOPE    - SAVE THE FORCE MATRIX FOR USE LATER
 *  BONDS      - FINAL BOND-ORDER MATRIX TO BE PRINTED
 *  LARGE      - EXPANDED OUTPUT TO BE PRINTED
 *  THERMO     - THERMODYNAMIC QUANTITIES TO BE CALCULATED
 *******************************************************************************
PM7 AUX LARGE THERMO(298,298) LET ISOTOPE BONDS DUMP=30M ITRY=15000 T=14D THREADS=30 CHARGE=0 DOUBLET eps=78.4 RELSCF=1
 Title: ASE calculation

   ATOM   CHEMICAL          X               Y               Z
  NUMBER   SYMBOL      (ANGSTROMS)     (ANGSTROMS)     (ANGSTROMS)

     1       C          0.89068343  *   0.43481178  *   0.63849971  *
     2       C          1.01985729  *  -0.41941420  *  -0.45538092  *
     3       C         -0.10722822  *  -0.96647009  *  -1.07706809  *
     4       C         -1.37915659  *  -0.65042346  *  -0.59062466  *
     5       C         -1.49454101  *   0.20706033  *   0.50893441  *
     6       C         -0.36805210  *   0.75756048  *   1.13195028  *
     7       H          1.78426940  *   0.85258888  *   1.11173587  *
     8       H          2.02117475  *  -0.65739388  *  -0.82609194  *
     9       H         -2.27344415  *  -1.06693152  *  -1.06781610  *
    10       H         -0.47108949  *   1.42929676  *   1.99107982  *
    11       N         -2.80150734  *   0.53388505  *   1.02496071  *
    12       O         -2.89474244  *   1.28936762  *   1.98360505  *
    13       O         -3.79409003  *   0.04841517  *   0.49819748  *
    14       C          0.06342039  *  -1.88224498  *  -2.23019999  *
    15       C         -0.30280930  *  -3.31781504  *  -1.94253220  *
    16       H         -0.00519411  *  -3.99260283  *  -2.75506977  *
    17       H         -1.38688018  *  -3.43806128  *  -1.79310380  *
    18       H          0.18570565  *  -3.67836407  *  -1.02813910  *
    19       N         -0.46462883  *  -1.39213308  *  -3.44812696  *
    20       O         -0.48307244  *  -2.10448593  *  -4.45735997  *
    21       O         -0.86752836  *  -0.22716558  *  -3.52999378  *
    22       D          1.49455634  *  -2.00280360  *  -2.46328381  *
    23       C          3.59246428  *  -5.39381565  *   0.59835739  *
    24       C          4.46367027  *  -6.40885971  *  -0.00554329  *
    25       C          5.44470143  *  -5.80305273  *  -1.01652420  *
    26       C          4.72766386  *  -4.82285133  *  -1.95382647  *
    27       N          4.07830030  *  -3.70062917  *  -1.19938358  *
    28       C          3.12391807  *  -4.21954482  *  -0.16006588  *
    29       H          3.20847768  *  -5.54563487  *   1.59166212  *
    30       H          5.02220132  *  -6.97823350  *   0.77058564  *
    31       H          3.82942458  *  -7.18008369  *  -0.50951212  *
    32       H          5.92957158  *  -6.60680314  *  -1.60757276  *
    33       H          6.27094818  *  -5.29797064  *  -0.48007390  *
    34       H          5.45348853  *  -4.38259844  *  -2.67570091  *
    35       H          3.94887697  *  -5.35193742  *  -2.54902756  *
    36       H          4.81362610  *  -3.13263199  *  -0.74050967  *
    37       H          2.87961793  *  -3.36890945  *   0.52551114  *
    38       H          2.16390495  *  -4.48762672  *  -0.68116663  *
    39       H          3.39784212  *  -2.94976887  *  -1.97323447  *
    40       H          3.10913267  *  -1.30750953  *  -2.59722390  *
    41       O          2.67321050  *  -2.15552472  *  -2.67059038  *


                                Isotopes Used

              Atom:   22  H  Default mass  1.0079,  mass used:  2.0140 amu


          CARTESIAN COORDINATES 

    NO.       ATOM           X           Y           Z

     1         C          0.8907      0.4348      0.6385
     2         C          1.0199     -0.4194     -0.4554
     3         C         -0.1072     -0.9665     -1.0771
     4         C         -1.3792     -0.6504     -0.5906
     5         C         -1.4945      0.2071      0.5089
     6         C         -0.3681      0.7576      1.1320
     7         H          1.7843      0.8526      1.1117
     8         H          2.0212     -0.6574     -0.8261
     9         H         -2.2734     -1.0669     -1.0678
    10         H         -0.4711      1.4293      1.9911
    11         N         -2.8015      0.5339      1.0250
    12         O         -2.8947      1.2894      1.9836
    13         O         -3.7941      0.0484      0.4982
    14         C          0.0634     -1.8822     -2.2302
    15         C         -0.3028     -3.3178     -1.9425
    16         H         -0.0052     -3.9926     -2.7551
    17         H         -1.3869     -3.4381     -1.7931
    18         H          0.1857     -3.6784     -1.0281
    19         N         -0.4646     -1.3921     -3.4481
    20         O         -0.4831     -2.1045     -4.4574
    21         O         -0.8675     -0.2272     -3.5300
    22         H          1.4946     -2.0028     -2.4633
    23         C          3.5925     -5.3938      0.5984
    24         C          4.4637     -6.4089     -0.0055
    25         C          5.4447     -5.8031     -1.0165
    26         C          4.7277     -4.8229     -1.9538
    27         N          4.0783     -3.7006     -1.1994
    28         C          3.1239     -4.2195     -0.1601
    29         H          3.2085     -5.5456      1.5917
    30         H          5.0222     -6.9782      0.7706
    31         H          3.8294     -7.1801     -0.5095
    32         H          5.9296     -6.6068     -1.6076
    33         H          6.2709     -5.2980     -0.4801
    34         H          5.4535     -4.3826     -2.6757
    35         H          3.9489     -5.3519     -2.5490
    36         H          4.8136     -3.1326     -0.7405
    37         H          2.8796     -3.3689      0.5255
    38         H          2.1639     -4.4876     -0.6812
    39         H          3.3978     -2.9498     -1.9732
    40         H          3.1091     -1.3075     -2.5972
    41         O          2.6732     -2.1555     -2.6706

 General Reference for PM7:
 "Optimization of Parameters for Semiempirical Methods VI: More Modifications to the 
 NDDO Approximations and Re-optimization of Parameters", J. J. P. Stewart, J. Mol. Mod., 1:32, 19 (2013)
 https://link.springer.com/article/10.1007/s00894-012-1667-x

           Empirical Formula: C13 H20 N3 O5  =    41 atoms



      MOLECULAR POINT GROUP   :   C1  


 DOUBLET STATE CALCULATION


          UHF CALCULATION, NO. OF ALPHA ELECTRONS =   59
                           NO. OF BETA  ELECTRONS =   58
  SCF CRITERION =    0.1000E-03


          HEAT OF FORMATION =     -61.828238 KCALS/MOLE


          CARTESIAN COORDINATE DERIVATIVES

   NUMBER  ATOM         X            Y            Z

     1       C      1.114422     0.044741     0.252574
     2       C     -0.201243     0.988874     0.315625
     3       C      0.443044    -0.238332     0.400152
     4       C      0.199275     0.776845     0.110194
     5       C     -0.026060     0.224458     0.018870
     6       C     -0.438500     0.643505     0.094421
     7       H     -0.588707    -0.626149    -0.032296
     8       H      0.130959    -0.063431    -0.017952
     9       H     -0.244896     0.374652     0.168044
    10       H     -0.196005    -0.024870    -0.020583
    11       N     -1.511193     0.396160     0.015912
    12       O      1.376988     0.336927    -0.015376
    13       O     -1.581980    -0.525329     0.025964
    14       C      1.139223    -4.754259    -0.383031
    15       C      1.152459     0.578115    -0.129065
    16       H     -1.179455     0.446515     0.136635
    17       H     -0.280599     0.074374     0.624472
    18       H      0.442096     0.492853     0.364203
    19       N     -0.138491     0.926857     2.670349
    20       O      0.671919     0.175742     0.402770
    21       O     -0.019913     3.352978    -1.466915
    22       H     -4.986719    15.521421     0.889243
    23       C      0.175556    -0.326905    -0.582788
    24       C      0.050866    -0.081081    -0.572695
    25       C      0.714030    -0.470026    -1.404111
    26       C     -0.078038    -2.204876    -0.917870
    27       N     -0.396872    -2.605706    -1.680191
    28       C      0.341931    -1.014015    -0.735164
    29       H      0.160849     0.171590     0.074910
    30       H     -0.124398     0.011686    -0.607717
    31       H     -0.032086    -0.161328     0.040629
    32       H      0.430442    -0.191186    -0.848130
    33       H      0.299631     0.437847    -0.911381
    34       H     -0.219168    -0.774006    -0.576262
    35       H      0.041888     0.110498    -0.030266
    36       H     -0.078564    -1.103701    -1.101564
    37       H      0.382911    -0.626114     0.297166
    38       H      0.012537    -0.617234     0.488044
    39       H      0.278132     2.511924     6.835285
    40       H      0.062592    -2.248892    -1.024124
    41       O      2.701224    -9.942288    -1.167955

 DIPOLE           X         Y         Z       TOTAL
 POINT-CHG.     2.425   -19.325   -13.349    23.612
 HYBRID        -0.705     0.768     0.382     1.110
 SUM            1.720   -18.557   -12.967    22.704


          GRADIENT NORM =  22.89190



 ** GRADIENT IS VERY LARGE, BUT SINCE "LET" IS USED, CALCULATION WILL CONTINUE


                              **** WARNING ****

           GRADIENT IS VERY LARGE FOR A THERMO CALCULATION
           RESULTS ARE LIKELY TO BE INACCURATE IF THERE ARE
           ANY LOW-LYING VIBRATIONS (LESS THAN ABOUT 400CM-1)
           GRADIENT NORM SHOULD BE LESS THAN ABOUT 1.3 FOR THERMO
           TO GIVE ACCURATE RESULTS


          TIME FOR SCF CALCULATION =    0.42

          TIME FOR DERIVATIVES     =    0.05

          MOLECULAR WEIGHT =  299.32



          ROTATIONAL CONSTANTS IN CM(-1)

          A =    0.01484922   B =    0.00445967   C =    0.00385267



           PRINCIPAL MOMENTS OF INERTIA IN UNITS OF 10**(-40)*GRAM-CM**2

          A =     1885.1329   B =     6276.8696   C =     7265.8033


          ORIENTATION OF MOLECULE IN FORCE CALCULATION

    NO.       ATOM         X         Y         Z

     1          C      -2.6669   -0.4566    0.8719
     2          C      -1.2730   -0.4566    0.8719
     3          C      -0.5544    0.7432    0.8719
     4          C      -1.2477    1.9572    0.8707
     5          C      -2.6467    1.9429    0.8692
     6          C      -3.3686    0.7433    0.8711
     7          H      -3.2115   -1.4055    0.8715
     8          H      -0.7435   -1.4138    0.8738
     9          H      -0.7008    2.9068    0.8745
    10          H      -4.4640    0.7448    0.8718
    11          N      -3.3731    3.1893    0.8596
    12          O      -4.5970    3.1688    0.8641
    13          O      -2.7542    4.2453    0.8438
    14          C       0.9276    0.7103    0.8585
    15          C       1.5477    1.1884   -0.4317
    16          H       2.6264    0.9913   -0.4715
    17          H       1.4036    2.2704   -0.5748
    18          H       1.0963    0.6904   -1.2995
    19          N       1.5341    1.2506    2.0172
    20          O       2.7609    1.3808    2.0822
    21          O       0.8471    1.5519    2.9987
    22          H       1.3170   -0.6916    0.8502
    23          C       1.1869   -2.6247   -3.7888
    24          C       2.3636   -3.3722   -4.2477
    25          C       2.8766   -4.3534   -3.1868
    26          C       2.9450   -3.6821   -1.8091
    27          N       1.6051   -3.1720   -1.3680
    28          C       1.0190   -2.2264   -2.3792
    29          H       0.4648   -2.2769   -4.5063
    30          H       2.1552   -3.9145   -5.1969
    31          H       3.1729   -2.6484   -4.5163
    32          H       3.8780   -4.7359   -3.4722
    33          H       2.2227   -5.2461   -3.1550
    34          H       3.3090   -4.4086   -1.0466
    35          H       3.6642   -2.8316   -1.8254
    36          H       0.9650   -3.9761   -1.2351
    37          H      -0.0629   -2.0919   -2.1251
    38          H       1.5033   -1.2224   -2.2290
    39          H       1.6892   -2.5246   -0.2728
    40          H       1.1457   -2.3533    1.4139
    41          O       1.6825   -1.8407    0.8109


    FIRST DERIVATIVES WILL BE USED IN THE CALCULATION OF SECOND DERIVATIVES

          ESTIMATED TIME TO COMPLETE CALCULATION =      116.27 SECONDS

    FOR POINT-GROUP C1   THERE ARE   1 UNIQUE SYMMETRY FUNCTIONS.

 STEP:   1 TIME =     0.28 SECS, INTEGRAL =      0.28 TIME LEFT:1209599.25
 STEP:   2 TIME =     0.34 SECS, INTEGRAL =      0.62 TIME LEFT:1209598.91
 STEP:   3 TIME =     0.18 SECS, INTEGRAL =      0.79 TIME LEFT:1209598.73
 STEP:   4 TIME =     0.26 SECS, INTEGRAL =      1.05 TIME LEFT:1209598.48
 STEP:   5 TIME =     0.19 SECS, INTEGRAL =      1.24 TIME LEFT:1209598.29
 STEP:   6 TIME =     0.32 SECS, INTEGRAL =      1.56 TIME LEFT:1209597.96
 STEP:   7 TIME =     0.17 SECS, INTEGRAL =      1.73 TIME LEFT:1209597.80
 STEP:   8 TIME =     0.28 SECS, INTEGRAL =      2.01 TIME LEFT:1209597.52
 STEP:   9 TIME =     0.20 SECS, INTEGRAL =      2.21 TIME LEFT:1209597.31
 STEP:  10 TIME =     0.26 SECS, INTEGRAL =      2.48 TIME LEFT:1209597.05
 STEP:  11 TIME =     0.17 SECS, INTEGRAL =      2.65 TIME LEFT:1209596.88
 STEP:  12 TIME =     0.28 SECS, INTEGRAL =      2.93 TIME LEFT:1209596.60
 STEP:  13 TIME =     0.22 SECS, INTEGRAL =      3.15 TIME LEFT:1209596.38
 STEP:  14 TIME =     0.25 SECS, INTEGRAL =      3.40 TIME LEFT:1209596.12
 STEP:  15 TIME =     0.22 SECS, INTEGRAL =      3.62 TIME LEFT:1209595.91
 STEP:  16 TIME =     0.21 SECS, INTEGRAL =      3.83 TIME LEFT:1209595.70
 STEP:  17 TIME =     0.27 SECS, INTEGRAL =      4.10 TIME LEFT:1209595.43
 STEP:  18 TIME =     0.17 SECS, INTEGRAL =      4.27 TIME LEFT:1209595.26
 STEP:  19 TIME =     0.23 SECS, INTEGRAL =      4.50 TIME LEFT:1209595.03
 STEP:  20 TIME =     0.37 SECS, INTEGRAL =      4.87 TIME LEFT:1209594.66
 STEP:  21 TIME =     0.22 SECS, INTEGRAL =      5.09 TIME LEFT:1209594.44
 STEP:  22 TIME =     0.33 SECS, INTEGRAL =      5.42 TIME LEFT:1209594.11
 STEP:  23 TIME =     0.18 SECS, INTEGRAL =      5.60 TIME LEFT:1209593.93
 STEP:  24 TIME =     0.31 SECS, INTEGRAL =      5.91 TIME LEFT:1209593.62
 STEP:  25 TIME =     0.17 SECS, INTEGRAL =      6.08 TIME LEFT:1209593.45
 STEP:  26 TIME =     0.18 SECS, INTEGRAL =      6.26 TIME LEFT:1209593.27
 STEP:  27 TIME =     0.16 SECS, INTEGRAL =      6.42 TIME LEFT:1209593.11
 STEP:  28 TIME =     0.16 SECS, INTEGRAL =      6.59 TIME LEFT:1209592.94
 STEP:  29 TIME =     0.17 SECS, INTEGRAL =      6.76 TIME LEFT:1209592.77
 STEP:  30 TIME =     0.19 SECS, INTEGRAL =      6.95 TIME LEFT:1209592.58
 STEP:  31 TIME =     0.19 SECS, INTEGRAL =      7.14 TIME LEFT:1209592.39
 STEP:  32 TIME =     0.17 SECS, INTEGRAL =      7.30 TIME LEFT:1209592.22
 STEP:  33 TIME =     0.16 SECS, INTEGRAL =      7.47 TIME LEFT:1209592.06
 STEP:  34 TIME =     0.17 SECS, INTEGRAL =      7.64 TIME LEFT:1209591.89
 STEP:  35 TIME =     0.16 SECS, INTEGRAL =      7.80 TIME LEFT:1209591.73
 STEP:  36 TIME =     0.18 SECS, INTEGRAL =      7.98 TIME LEFT:1209591.55
 STEP:  37 TIME =     0.18 SECS, INTEGRAL =      8.16 TIME LEFT:1209591.37
 STEP:  38 TIME =     0.17 SECS, INTEGRAL =      8.33 TIME LEFT:1209591.20
 STEP:  39 TIME =     0.17 SECS, INTEGRAL =      8.50 TIME LEFT:1209591.03
 STEP:  40 TIME =     0.17 SECS, INTEGRAL =      8.66 TIME LEFT:1209590.86
 STEP:  41 TIME =     0.21 SECS, INTEGRAL =      8.88 TIME LEFT:1209590.65
 STEP:  42 TIME =     0.17 SECS, INTEGRAL =      9.04 TIME LEFT:1209590.48
 STEP:  43 TIME =     0.17 SECS, INTEGRAL =      9.21 TIME LEFT:1209590.32
 STEP:  44 TIME =     0.18 SECS, INTEGRAL =      9.39 TIME LEFT:1209590.14
 STEP:  45 TIME =     0.17 SECS, INTEGRAL =      9.55 TIME LEFT:1209589.97
 STEP:  46 TIME =     0.17 SECS, INTEGRAL =      9.72 TIME LEFT:1209589.80
 STEP:  47 TIME =     0.18 SECS, INTEGRAL =      9.91 TIME LEFT:1209589.62
 STEP:  48 TIME =     0.18 SECS, INTEGRAL =     10.08 TIME LEFT:1209589.45
 STEP:  49 TIME =     0.17 SECS, INTEGRAL =     10.25 TIME LEFT:1209589.28
 STEP:  50 TIME =     0.17 SECS, INTEGRAL =     10.42 TIME LEFT:1209589.11
 STEP:  51 TIME =     0.17 SECS, INTEGRAL =     10.59 TIME LEFT:1209588.94
 STEP:  52 TIME =     0.16 SECS, INTEGRAL =     10.75 TIME LEFT:1209588.78
 STEP:  53 TIME =     0.21 SECS, INTEGRAL =     10.96 TIME LEFT:1209588.56
 STEP:  54 TIME =     0.18 SECS, INTEGRAL =     11.15 TIME LEFT:1209588.38
 STEP:  55 TIME =     0.17 SECS, INTEGRAL =     11.32 TIME LEFT:1209588.21
 STEP:  56 TIME =     0.16 SECS, INTEGRAL =     11.48 TIME LEFT:1209588.05
 STEP:  57 TIME =     0.17 SECS, INTEGRAL =     11.65 TIME LEFT:1209587.88
 STEP:  58 TIME =     0.17 SECS, INTEGRAL =     11.82 TIME LEFT:1209587.71
 STEP:  59 TIME =     0.18 SECS, INTEGRAL =     11.99 TIME LEFT:1209587.54
 STEP:  60 TIME =     0.18 SECS, INTEGRAL =     12.17 TIME LEFT:1209587.36
 STEP:  61 TIME =     0.17 SECS, INTEGRAL =     12.34 TIME LEFT:1209587.19
 STEP:  62 TIME =     0.17 SECS, INTEGRAL =     12.51 TIME LEFT:1209587.02
 STEP:  63 TIME =     0.17 SECS, INTEGRAL =     12.68 TIME LEFT:1209586.85
 STEP:  64 TIME =     0.19 SECS, INTEGRAL =     12.87 TIME LEFT:1209586.66
 STEP:  65 TIME =     0.18 SECS, INTEGRAL =     13.05 TIME LEFT:1209586.48
 STEP:  66 TIME =     0.18 SECS, INTEGRAL =     13.23 TIME LEFT:1209586.30
 STEP:  67 TIME =     0.17 SECS, INTEGRAL =     13.40 TIME LEFT:1209586.13
 STEP:  68 TIME =     0.17 SECS, INTEGRAL =     13.57 TIME LEFT:1209585.96
 STEP:  69 TIME =     0.17 SECS, INTEGRAL =     13.73 TIME LEFT:1209585.79
 STEP:  70 TIME =     0.17 SECS, INTEGRAL =     13.90 TIME LEFT:1209585.62
 STEP:  71 TIME =     0.17 SECS, INTEGRAL =     14.07 TIME LEFT:1209585.46
 STEP:  72 TIME =     0.17 SECS, INTEGRAL =     14.24 TIME LEFT:1209585.29
 STEP:  73 TIME =     0.17 SECS, INTEGRAL =     14.41 TIME LEFT:1209585.12
 STEP:  74 TIME =     0.17 SECS, INTEGRAL =     14.57 TIME LEFT:1209584.95
 STEP:  75 TIME =     0.17 SECS, INTEGRAL =     14.74 TIME LEFT:1209584.79
 STEP:  76 TIME =     0.16 SECS, INTEGRAL =     14.91 TIME LEFT:1209584.62
 STEP:  77 TIME =     0.17 SECS, INTEGRAL =     15.07 TIME LEFT:1209584.45
 STEP:  78 TIME =     0.17 SECS, INTEGRAL =     15.24 TIME LEFT:1209584.29
 STEP:  79 TIME =     0.17 SECS, INTEGRAL =     15.41 TIME LEFT:1209584.12
 STEP:  80 TIME =     0.20 SECS, INTEGRAL =     15.61 TIME LEFT:1209583.91
 STEP:  81 TIME =     0.17 SECS, INTEGRAL =     15.79 TIME LEFT:1209583.74
 STEP:  82 TIME =     0.17 SECS, INTEGRAL =     15.95 TIME LEFT:1209583.57
 STEP:  83 TIME =     0.17 SECS, INTEGRAL =     16.12 TIME LEFT:1209583.41
 STEP:  84 TIME =     0.17 SECS, INTEGRAL =     16.29 TIME LEFT:1209583.23
 STEP:  85 TIME =     0.17 SECS, INTEGRAL =     16.46 TIME LEFT:1209583.06
 STEP:  86 TIME =     0.17 SECS, INTEGRAL =     16.64 TIME LEFT:1209582.89
 STEP:  87 TIME =     0.18 SECS, INTEGRAL =     16.81 TIME LEFT:1209582.71
 STEP:  88 TIME =     0.16 SECS, INTEGRAL =     16.98 TIME LEFT:1209582.55
 STEP:  89 TIME =     0.15 SECS, INTEGRAL =     17.13 TIME LEFT:1209582.40
 STEP:  90 TIME =     0.17 SECS, INTEGRAL =     17.30 TIME LEFT:1209582.23
 STEP:  91 TIME =     0.16 SECS, INTEGRAL =     17.46 TIME LEFT:1209582.07
 STEP:  92 TIME =     0.17 SECS, INTEGRAL =     17.63 TIME LEFT:1209581.90
 STEP:  93 TIME =     0.17 SECS, INTEGRAL =     17.80 TIME LEFT:1209581.73
 STEP:  94 TIME =     0.17 SECS, INTEGRAL =     17.96 TIME LEFT:1209581.56
 STEP:  95 TIME =     0.17 SECS, INTEGRAL =     18.13 TIME LEFT:1209581.39
 STEP:  96 TIME =     0.17 SECS, INTEGRAL =     18.30 TIME LEFT:1209581.23
 STEP:  97 TIME =     0.17 SECS, INTEGRAL =     18.47 TIME LEFT:1209581.06
 STEP:  98 TIME =     0.17 SECS, INTEGRAL =     18.64 TIME LEFT:1209580.89
 STEP:  99 TIME =     0.16 SECS, INTEGRAL =     18.80 TIME LEFT:1209580.73
 STEP: 100 TIME =     0.17 SECS, INTEGRAL =     18.97 TIME LEFT:1209580.56
 STEP: 101 TIME =     0.20 SECS, INTEGRAL =     19.16 TIME LEFT:1209580.36
 STEP: 102 TIME =     0.17 SECS, INTEGRAL =     19.33 TIME LEFT:1209580.20
 STEP: 103 TIME =     0.20 SECS, INTEGRAL =     19.53 TIME LEFT:1209580.00
 STEP: 104 TIME =     0.18 SECS, INTEGRAL =     19.71 TIME LEFT:1209579.82
 STEP: 105 TIME =     0.22 SECS, INTEGRAL =     19.93 TIME LEFT:1209579.60
 STEP: 106 TIME =     0.16 SECS, INTEGRAL =     20.09 TIME LEFT:1209579.44
 STEP: 107 TIME =     0.17 SECS, INTEGRAL =     20.26 TIME LEFT:1209579.27
 STEP: 108 TIME =     0.17 SECS, INTEGRAL =     20.43 TIME LEFT:1209579.10
 STEP: 109 TIME =     0.17 SECS, INTEGRAL =     20.60 TIME LEFT:1209578.93
 STEP: 110 TIME =     0.17 SECS, INTEGRAL =     20.77 TIME LEFT:1209578.76
 STEP: 111 TIME =     0.18 SECS, INTEGRAL =     20.95 TIME LEFT:1209578.58
 STEP: 112 TIME =     0.17 SECS, INTEGRAL =     21.12 TIME LEFT:1209578.41
 STEP: 113 TIME =     0.17 SECS, INTEGRAL =     21.29 TIME LEFT:1209578.24
 STEP: 114 TIME =     0.17 SECS, INTEGRAL =     21.46 TIME LEFT:1209578.07
 STEP: 115 TIME =     0.16 SECS, INTEGRAL =     21.61 TIME LEFT:1209577.91
 STEP: 116 TIME =     0.13 SECS, INTEGRAL =     21.74 TIME LEFT:1209577.79
 STEP: 117 TIME =     0.17 SECS, INTEGRAL =     21.91 TIME LEFT:1209577.62
 STEP: 118 TIME =     0.18 SECS, INTEGRAL =     22.09 TIME LEFT:1209577.44
 STEP: 119 TIME =     0.17 SECS, INTEGRAL =     22.26 TIME LEFT:1209577.27
 STEP: 120 TIME =     0.17 SECS, INTEGRAL =     22.43 TIME LEFT:1209577.10
 STEP: 121 TIME =     0.17 SECS, INTEGRAL =     22.60 TIME LEFT:1209576.93
 STEP: 122 TIME =     0.17 SECS, INTEGRAL =     22.77 TIME LEFT:1209576.76
 STEP: 123 TIME =     0.18 SECS, INTEGRAL =     22.95 TIME LEFT:1209576.58

(To convert to Hartree/Bohr^2, multiply by (10^(-21) x N x a0^2)/(4.184 x 627.51) =  0.0642)


           FORCE MATRIX IN MILLIDYNES/ANGSTROM


                  C  1       C  2       C  3       C  4       C  5       C  6
 ------------------------------------------------------------------------------
     C    1  14.815671
     C    2   5.873458  14.987810
     C    3   2.132716   5.813467  15.798148
     C    4   1.406461   2.043434   5.788298  14.834163
     C    5   2.084908   1.251612   1.951481   5.663568  15.914750
     C    6   6.167648   2.097195   1.319499   1.891623   5.622404  15.099842
     H    7   3.392637   0.751878   0.084057   0.011001   0.086497   0.758038
     H    8   0.744148   3.399846   0.728278   0.085936   0.036476   0.085594
     H    9   0.035492   0.088763   0.711017   3.366607   0.745139   0.079310
     H   10   0.720178   0.091963   0.024308   0.077989   0.735077   3.382773
     N   11   0.210820   0.023295   0.212657   1.176977   3.216750   1.200479
     O   12   0.033174   0.015358   0.051068   0.120938   1.461660   0.096393
     O   13   0.057520   0.011357   0.031779   0.097898   1.433000   0.120421
     C   14   0.094837   0.795353   3.828299   0.781798   0.097955   0.021289
     C   15   0.013535   0.025546   0.666563   0.035594   0.011538   0.005327
     H   16   0.002422   0.003799   0.042004   0.002173   0.002495   0.001242
     H   17   0.003307   0.002940   0.015118   0.003950   0.002606   0.002929
     H   18   0.001966   0.003057   0.029234   0.003648   0.001809   0.002224
     N   19   0.026193   0.038793   1.032774   0.089107   0.054560   0.021681
     O   20   0.008089   0.021368   0.123086   0.017832   0.017415   0.007756
     O   21   0.013398   0.011401   0.081013   0.047483   0.037180   0.013336
     H   22   0.015815   0.052334   0.479570   0.034341   0.010689   0.008776
     C   23   0.000911   0.000602   0.001232   0.000438   0.000995   0.000844
     C   24   0.001048   0.000692   0.000662   0.000612   0.000715   0.000835
     C   25   0.000751   0.000523   0.001231   0.000682   0.000732   0.000704
     C   26   0.001990   0.000685   0.003721   0.001469   0.001188   0.001096
     N   27   0.004286   0.002877   0.019454   0.003297   0.003677   0.002732
     C   28   0.001175   0.001887   0.004066   0.001383   0.001557   0.001062
     H   29   0.000318   0.000513   0.000618   0.000349   0.000659   0.000488
     H   30   0.000300   0.000278   0.000252   0.000284   0.000637   0.000541
     H   31   0.000532   0.000202   0.000329   0.000545   0.000545   0.000255
     H   32   0.000417   0.000226   0.000456   0.000463   0.000679   0.000482
     H   33   0.000547   0.000208   0.000571   0.000173   0.000326   0.000291
     H   34   0.000624   0.000552   0.001176   0.000429   0.000280   0.000356
     H   35   0.000667   0.000308   0.000560   0.000462   0.000356   0.000264
     H   36   0.001411   0.001277   0.003491   0.000498   0.000597   0.000920
     H   37   0.001471   0.001735   0.001820   0.000603   0.001296   0.000760
     H   38   0.001686   0.000937   0.002295   0.000646   0.001385   0.000873
     H   39   0.008782   0.006438   0.047688   0.007857   0.007959   0.005508
     H   40   0.008211   0.011203   0.017838   0.003457   0.006417   0.004196
     O   41   0.018646   0.030461   0.126489   0.018087   0.013071   0.009207


                  H  7       H  8       H  9       H 10       N 11       O 12
 ------------------------------------------------------------------------------
     H    7   4.309045
     H    8   0.031190   4.297215
     H    9   0.010197   0.010156   4.237784
     H   10   0.038968   0.009843   0.008878   4.258186
     N   11   0.033749   0.041142   0.105521   0.104844  18.876269
     O   12   0.011483   0.009979   0.026318   0.042875   9.238780  12.103786
     O   13   0.010294   0.010188   0.039225   0.026921   9.200694   2.642823
     C   14   0.009505   0.038986   0.027683   0.009045   0.031937   0.013788
     C   15   0.003697   0.006600   0.008377   0.004647   0.020732   0.007939
     H   16   0.000515   0.001651   0.002542   0.000686   0.003046   0.001189
     H   17   0.001122   0.000833   0.007774   0.001272   0.007584   0.002703
     H   18   0.001654   0.002287   0.002571   0.001778   0.007394   0.002883
     N   19   0.013886   0.022923   0.044641   0.012984   0.079230   0.029555
     O   20   0.005556   0.011084   0.017279   0.006015   0.035845   0.013569
     O   21   0.006316   0.008539   0.015481   0.006851   0.036282   0.012707
     H   22   0.011290   0.064503   0.018894   0.007586   0.032658   0.012849
     C   23   0.000437   0.001136   0.000474   0.000659   0.002016   0.001097
     C   24   0.000501   0.001170   0.000580   0.000656   0.001968   0.000868
     C   25   0.000578   0.001328   0.000563   0.000569   0.001925   0.000932
     C   26   0.000889   0.001160   0.000865   0.000829   0.003659   0.001600
     N   27   0.002852   0.006762   0.002153   0.002447   0.010588   0.004466
     C   28   0.001102   0.002112   0.001073   0.000869   0.003019   0.001033
     H   29   0.000209   0.000632   0.000218   0.000412   0.001838   0.000791
     H   30   0.000252   0.000436   0.000206   0.000461   0.001736   0.000802
     H   31   0.000349   0.000531   0.000490   0.000153   0.001399   0.000500
     H   32   0.000146   0.000425   0.000387   0.000366   0.001738   0.000765
     H   33   0.000472   0.000348   0.000144   0.000278   0.001002   0.000518
     H   34   0.000315   0.000500   0.000226   0.000313   0.001210   0.000607
     H   35   0.000564   0.000651   0.000560   0.000151   0.000996   0.000382
     H   36   0.001437   0.003103   0.000774   0.000788   0.001948   0.001155
     H   37   0.000462   0.002255   0.000447   0.000817   0.001765   0.000822
     H   38   0.000935   0.002717   0.000970   0.000723   0.001831   0.000932
     H   39   0.005579   0.022525   0.004761   0.004632   0.021695   0.008726
     H   40   0.003177   0.034425   0.002284   0.002400   0.011999   0.003814
     O   41   0.010573   0.029391   0.012428   0.006894   0.034261   0.011729


                  O 13       C 14       C 15       H 16       H 17       H 18
 ------------------------------------------------------------------------------
     O   13  12.044867
     C   14   0.015780  12.520966
     C   15   0.007280   3.246565  11.168613
     H   16   0.001565   0.691872   3.373015   4.189534
     H   17   0.002896   0.698079   3.341138   0.461528   4.144217
     H   18   0.002475   0.662159   3.371664   0.462232   0.460187   4.187589
     N   19   0.027032   3.835323   0.875745   0.099753   0.058237   0.089640
     O   20   0.012304   1.551277   0.113560   0.023397   0.020672   0.015458
     O   21   0.012333   1.596265   0.114162   0.032975   0.017803   0.016733
     H   22   0.011459   1.459333   0.467044   0.044597   0.043817   0.039278
     C   23   0.000816   0.009620   0.003364   0.001347   0.000447   0.001918
     C   24   0.000881   0.006322   0.002516   0.001211   0.000807   0.001514
     C   25   0.000780   0.016635   0.001265   0.001160   0.000606   0.001152
     C   26   0.001769   0.019468   0.001836   0.001967   0.001220   0.001960
     N   27   0.003843   0.194602   0.008160   0.006208   0.003385   0.006129
     C   28   0.001298   0.029278   0.013792   0.004279   0.001927   0.008886
     H   29   0.000657   0.002914   0.001281   0.000482   0.000402   0.000504
     H   30   0.000688   0.001665   0.000723   0.000377   0.000288   0.000398
     H   31   0.000684   0.003338   0.001050   0.000749   0.000345   0.000497
     H   32   0.000733   0.003107   0.000755   0.000589   0.000283   0.000467
     H   33   0.000343   0.002930   0.000543   0.000325   0.000279   0.000397
     H   34   0.000514   0.008419   0.001088   0.000760   0.000706   0.000589
     H   35   0.000605   0.009664   0.001174   0.001449   0.000780   0.000975
     H   36   0.000848   0.018550   0.001282   0.001513   0.001559   0.001971
     H   37   0.000794   0.014672   0.004384   0.001759   0.001153   0.004455
     H   38   0.000870   0.015943   0.008869   0.006137   0.002418   0.013612
     H   39   0.007706   0.510532   0.027806   0.013963   0.007964   0.014647
     H   40   0.003430   0.184665   0.008165   0.005254   0.003157   0.005747
     O   41   0.011298   1.800958   0.085041   0.024590   0.022675   0.022810


                  N 19       O 20       O 21       H 22       C 23       C 24
 ------------------------------------------------------------------------------
     N   19  18.702958
     O   20   8.667131  11.438274
     O   21   8.649970   2.585227  11.363055
     H   22   1.582233   0.359854   0.376879   1.377761
     C   23   0.006088   0.002289   0.002561   0.016142  12.170995
     C   24   0.003295   0.001463   0.001628   0.009571   4.285546  11.957634
     C   25   0.011088   0.004684   0.003872   0.026056   0.727965   2.881074
     C   26   0.009473   0.004845   0.002741   0.029702   0.056960   0.680882
     N   27   0.112674   0.031213   0.039531   0.299038   0.857916   0.038699
     C   28   0.021371   0.007482   0.008826   0.034942   4.043258   0.663371
     H   29   0.002240   0.001083   0.001095   0.004788   3.514578   0.660739
     H   30   0.002273   0.000903   0.001400   0.002248   0.743864   3.216314
     H   31   0.002609   0.001425   0.000771   0.005369   0.758809   3.111548
     H   32   0.003019   0.001390   0.001504   0.003468   0.044699   0.668649
     H   33   0.002458   0.000909   0.001458   0.005198   0.013776   0.690419
     H   34   0.006539   0.002725   0.002469   0.010837   0.006225   0.045492
     H   35   0.007355   0.003666   0.002108   0.015297   0.002680   0.009260
     H   36   0.010203   0.003377   0.004824   0.026642   0.023211   0.017690
     H   37   0.012370   0.004117   0.005359   0.019714   0.729867   0.044308
     H   38   0.014604   0.004495   0.006741   0.023027   0.748747   0.020622
     H   39   0.292617   0.086684   0.097374   0.829534   0.075154   0.032878
     H   40   0.111641   0.034428   0.035534   0.490210   0.004951   0.003412
     O   41   0.871875   0.229117   0.250201   1.243390   0.035770   0.019539


                  C 25       C 26       N 27       C 28       H 29       H 30
 ------------------------------------------------------------------------------
     C   25  11.705583
     C   26   2.801882  11.899205
     N   27   0.875943   3.436867  12.254421
     C   28   0.045900   0.742133   3.383335  12.213065
     H   29   0.035803   0.008129   0.061350   0.669007   4.322706
     H   30   0.662152   0.045600   0.009700   0.042152   0.018992   4.189049
     H   31   0.679906   0.012693   0.010203   0.016995   0.016869   0.446552
     H   32   3.275354   0.665145   0.068446   0.007169   0.006225   0.020158
     H   33   3.291773   0.690838   0.015067   0.004664   0.009957   0.021718
     H   34   0.660486   3.210860   0.781988   0.072326   0.001442   0.006546
     H   35   0.669537   3.219057   0.790841   0.027076   0.002442   0.003178
     H   36   0.019819   0.813328   3.492970   0.791489   0.008655   0.007304
     H   37   0.008369   0.069734   0.785432   3.151283   0.028338   0.006100
     H   38   0.006667   0.025094   0.791452   3.060018   0.016645   0.004003
     H   39   0.105235   0.418021   0.810176   0.478116   0.015771   0.006136
     H   40   0.009182   0.014242   0.118974   0.016174   0.001278   0.000845
     O   41   0.059652   0.088584   1.282209   0.087088   0.008325   0.003582


                  H 31       H 32       H 33       H 34       H 35       H 36
 ------------------------------------------------------------------------------
     H   31   4.109583
     H   32   0.026768   4.195316
     H   33   0.042991   0.449259   4.215844
     H   34   0.004705   0.020312   0.019384   4.142949
     H   35   0.015155   0.017795   0.045327   0.427656   4.165088
     H   36   0.004046   0.003950   0.017194   0.035652   0.073588   4.290389
     H   37   0.004764   0.000783   0.002785   0.014971   0.004317   0.040747
     H   38   0.007871   0.001992   0.002933   0.004530   0.008403   0.071153
     H   39   0.015834   0.015998   0.021272   0.048903   0.055601   0.310918
     H   40   0.001379   0.001357   0.002307   0.004101   0.004508   0.024452
     O   41   0.009906   0.008168   0.012110   0.025198   0.025672   0.075807


                  H 37       H 38       H 39       H 40       O 41
 ------------------------------------------------------------------
     H   37   4.123895
     H   38   0.431385   4.044283
     H   39   0.055735   0.072898   1.302115
     H   40   0.007120   0.007094   0.436752   4.186001
     O   41   0.031432   0.037246   0.560329   3.815953   4.835854


          HEAT OF FORMATION =     -61.828238 KCALS/MOLE


          TRIVIAL VIBRATIONS, SHOULD BE ZERO

  46.9447=TX  29.9154=TY -13.0037=TZ  13.3353=RX  22.6938=RY   0.1191=RZ


      MOLECULAR POINT GROUP   :   C1  


           EIGENVECTORS  


   Root No.       1         2         3         4         5         6         7         8

                 1 A       2 A       3 A       4 A       5 A       6 A       7 A       8 A   

                  -2.8      -0.0      -0.0      -0.0      -0.0       0.0       0.0       0.0
  
           1   -0.0074   -0.0453   -0.0268    0.0455    0.0814    0.0152    0.0406   -0.0668
           2   -0.0030    0.0479   -0.0026   -0.0504   -0.0816   -0.0025   -0.0135    0.0208
           3    0.0014   -0.1602    0.2428   -0.1671   -0.0812   -0.0542   -0.0579   -0.0474
           4   -0.0156   -0.0447   -0.0261    0.0447    0.0798    0.0153    0.0398   -0.0649
           5   -0.0060    0.0382   -0.0090   -0.0289   -0.0236   -0.0094   -0.0074   -0.0108
           6    0.0034   -0.1626    0.1837   -0.1118   -0.0697   -0.0114   -0.0800   -0.0545
           7   -0.0071   -0.0354   -0.0196    0.0305    0.0314    0.0194    0.0342   -0.0408
           8   -0.0098    0.0326   -0.0130   -0.0193    0.0063   -0.0127   -0.0040   -0.0273
           9   -0.0018   -0.0094    0.0496   -0.0362   -0.0233    0.0179   -0.0627   -0.0434
          10    0.0187   -0.0273   -0.0145    0.0135   -0.0181    0.0248    0.0290   -0.0149
          11   -0.0066    0.0384   -0.0101   -0.0293   -0.0228   -0.0095   -0.0070   -0.0105
          12    0.0032    0.1882   -0.0205   -0.0180    0.0082    0.0104   -0.0222   -0.0176
          13    0.0086   -0.0269   -0.0148    0.0132   -0.0186    0.0253    0.0288   -0.0137
          14   -0.0012    0.0504   -0.0037   -0.0507   -0.0816   -0.0025   -0.0135    0.0212
          15   -0.0005    0.2638    0.0075   -0.0595    0.0040   -0.0322    0.0032   -0.0015
          16    0.0016   -0.0353   -0.0208    0.0287    0.0305    0.0201    0.0344   -0.0394
          17    0.0040    0.0527   -0.0001   -0.0597   -0.1097    0.0008   -0.0161    0.0353
          18    0.0009    0.0682    0.1174   -0.1147   -0.0350   -0.0574   -0.0113   -0.0132
          19   -0.0059   -0.0514   -0.0295    0.0586    0.1189    0.0106    0.0438   -0.0874
          20   -0.0031    0.0514   -0.0006   -0.0577   -0.1031    0.0002   -0.0156    0.0326
          21    0.0013   -0.2830    0.3173   -0.2047   -0.1051   -0.0720   -0.0655   -0.0574
          22    0.0003   -0.0490   -0.0319    0.0584    0.1176    0.0125    0.0435   -0.0834
          23   -0.0068    0.0349   -0.0126   -0.0215   -0.0019   -0.0112   -0.0048   -0.0216
          24    0.0018   -0.2674    0.2197   -0.1147   -0.0881   -0.0024   -0.1041   -0.0671
          25    0.0039   -0.0164   -0.0087    0.0014   -0.0585    0.0290    0.0232    0.0062
          26    0.0022    0.0319   -0.0133   -0.0230    0.0002   -0.0116   -0.0037   -0.0224
          27    0.0009    0.2583   -0.0866    0.0363    0.0341    0.0348   -0.0143   -0.0139
          28   -0.0004   -0.0352   -0.0207    0.0289    0.0303    0.0202    0.0342   -0.0392
          29    0.0030    0.0606    0.0072   -0.0762   -0.1577    0.0058   -0.0228    0.0619
          30    0.0010    0.0802    0.1020   -0.1084   -0.0231   -0.0759    0.0142   -0.0025
          31    0.0032   -0.0198   -0.0081   -0.0036   -0.0685    0.0345    0.0232    0.0130
          32    0.0011    0.0518   -0.0007   -0.0599   -0.1096    0.0030   -0.0158    0.0368
          33    0.0013    0.3419   -0.0551   -0.0212    0.0273   -0.0321    0.0283    0.0131
          34    0.0039   -0.0209   -0.0085   -0.0033   -0.0677    0.0346    0.0234    0.0126
          35   -0.0026    0.0579    0.0048   -0.0742   -0.1543    0.0125   -0.0208    0.0616
          36    0.0011    0.2212   -0.0436   -0.0068    0.0178   -0.0201    0.0224    0.0126
          37    0.0029   -0.0171   -0.0038   -0.0178   -0.1114    0.0439    0.0193    0.0359
          38   -0.0005    0.0500   -0.0036   -0.0509   -0.0841   -0.0022   -0.0135    0.0233
          39    0.0012    0.2870   -0.0719    0.0053    0.0327   -0.0225    0.0321    0.0120
          40    0.0509   -0.0362   -0.0197    0.0286    0.0314    0.0214    0.0345   -0.0392
          41   -0.3478    0.0181   -0.0315   -0.0197    0.0604   -0.0086    0.0094   -0.0411
          42   -0.0541   -0.0506   -0.0187    0.0227   -0.0083    0.0293   -0.0959   -0.0771
          43   -0.0002   -0.0655   -0.0737    0.0858    0.0276   -0.0149   -0.0098   -0.0910
          44    0.0198   -0.0208   -0.0781   -0.1440    0.0649    0.0419    0.0284    0.0104
          45   -0.0024   -0.0804   -0.0651    0.0005   -0.0059    0.0291   -0.1074   -0.0831
          46    0.0055   -0.0608   -0.0724    0.0608    0.0335    0.0820   -0.0103   -0.0987
          47    0.0167    0.0046   -0.0631   -0.2807    0.0949    0.5384    0.0351   -0.0133
          48   -0.0116   -0.0869   -0.0971    0.0094    0.0029    0.2096   -0.1478   -0.1517
          49   -0.0159   -0.0965   -0.0997    0.2214   -0.0011   -0.5155   -0.0187   -0.0711
          50    0.0038   -0.0305   -0.0867   -0.1310    0.0598   -0.0520    0.0302    0.0219
          51    0.0301   -0.1233   -0.1069   -0.0382   -0.0159   -0.1874   -0.0878   -0.0196
          52    0.0066   -0.0631   -0.0998    0.0192    0.0466    0.3409   -0.0365   -0.1510
          53    0.0174   -0.0685   -0.1227   -0.1168    0.0466   -0.3282    0.0412    0.0704
          54   -0.0174   -0.0537   -0.0253    0.0202   -0.0056    0.0569   -0.1015   -0.0871
          55    0.0488    0.0025    0.0387    0.0026    0.0087    0.0101    0.0577   -0.0128
          56   -0.0316    0.0679    0.0600    0.1173    0.0517    0.0093   -0.0230   -0.0639
          57    0.0906   -0.0894   -0.0831   -0.0258    0.0001    0.0323   -0.0964   -0.0745
          58   -0.0093    0.0128    0.0580    0.0221    0.0026    0.0145    0.0461   -0.0241
          59    0.0173   -0.0333   -0.1377   -0.1187    0.1234   -0.0559    0.1319    0.0734
          60   -0.0030   -0.0919   -0.0730    0.0758   -0.0063    0.0704   -0.1768   -0.1516
          61   -0.0019    0.0225    0.0653   -0.0422    0.0015   -0.0083    0.0963    0.0228
          62    0.0563    0.2325    0.3826    0.5241   -0.0445    0.0990   -0.2382   -0.2449
          63   -0.0479   -0.1269   -0.1655   -0.1830    0.0256   -0.0094   -0.0028    0.0050
          64   -0.2113   -0.0438   -0.0381    0.0316    0.0791    0.0359    0.0433   -0.0347
          65    0.6937    0.0222   -0.0177   -0.0306    0.0475    0.0119    0.0036   -0.0135
          66   -0.0494   -0.0264    0.0026    0.1219   -0.0009    0.0049   -0.0765   -0.0575
          67   -0.0016    0.0786    0.1254   -0.0898    0.0520   -0.0417   -0.0180    0.0557
          68    0.0048   -0.0682    0.1094    0.0738    0.0999    0.0049    0.0330    0.1411
          69   -0.0147   -0.0339   -0.0234    0.0935   -0.0144    0.0402    0.0596    0.1444
          70    0.0022    0.0909    0.1166   -0.1025   -0.0201   -0.0442    0.0775   -0.0710
          71   -0.0013   -0.0761    0.0817    0.0942   -0.0346    0.0260    0.1726    0.0146
          72   -0.0075    0.0107   -0.0003    0.0290    0.0189    0.0006    0.0769    0.0276
          73    0.0117    0.0599    0.0042   -0.0496   -0.1547   -0.0233   -0.0069   -0.0138
          74   -0.0098   -0.0569   -0.0043    0.0734   -0.0847    0.0001    0.0528   -0.0179
          75   -0.0151    0.0426   -0.0258   -0.0153    0.0385   -0.0333    0.0062   -0.0291
          76   -0.0115    0.0310   -0.0215   -0.0055   -0.1258    0.0100   -0.0836    0.1166
          77   -0.0085   -0.0294   -0.0814    0.0377   -0.0921   -0.0325   -0.0735   -0.0517
          78   -0.0155    0.0300    0.0112    0.0003    0.0423   -0.0199    0.0713   -0.0198
          79   -0.0068    0.0184   -0.0174    0.0034   -0.0701    0.0167   -0.0889    0.1445
          80   -0.0537   -0.0190   -0.0228    0.0077    0.0791   -0.0399   -0.0864   -0.0614
          81   -0.0816   -0.0126   -0.0276    0.0650   -0.0012    0.0206    0.0597    0.0838
          82    0.0036    0.0459    0.0780   -0.0468    0.0823   -0.0078   -0.1306    0.1358
          83   -0.0210   -0.0353    0.0585    0.0271    0.1445   -0.0183   -0.0917    0.0395
          84   -0.0081   -0.0472   -0.0157    0.1111   -0.0222    0.0495    0.0809    0.1793
          85   -0.0003    0.0906    0.1739   -0.1097    0.0993   -0.0634   -0.0068    0.0927
          86    0.0017   -0.0936    0.1728    0.1056    0.1650    0.0110    0.0253    0.3313
          87   -0.0065   -0.0579   -0.0419    0.1276   -0.0295    0.0645    0.0456    0.1956
          88   -0.0003    0.1169    0.1411   -0.1362   -0.0595   -0.0536    0.2205   -0.2480
          89   -0.0003   -0.0917    0.1427    0.1131   -0.0191    0.0511    0.2942    0.0134
          90   -0.0031    0.0138   -0.0414    0.0254    0.0189   -0.0115   -0.0229    0.0653
          91   -0.0005    0.0981    0.1672   -0.1192    0.0686   -0.0523    0.0693   -0.0369
          92    0.0004   -0.0803    0.0554    0.1061   -0.1285    0.0385    0.2557   -0.0697
          93    0.0010    0.0204    0.0844    0.0108    0.0339    0.0088    0.2831   -0.0998
          94    0.0058    0.0645   -0.0028   -0.0550   -0.1851   -0.0299    0.0059   -0.0489
          95   -0.0020   -0.0691   -0.0480    0.0943   -0.1870    0.0046    0.0659   -0.0435
          96   -0.0073    0.0737    0.0045   -0.0631    0.0693   -0.0641    0.0354   -0.1200
          97    0.0005    0.0548   -0.0474   -0.0363   -0.2477   -0.0241   -0.0263   -0.0340
          98    0.0004   -0.0534    0.0304    0.0637   -0.0166    0.0001    0.0632   -0.0024
          99   -0.0029    0.0450   -0.1104   -0.0147    0.0198   -0.0411   -0.1275    0.0079
         100   -0.0058    0.0116   -0.1026    0.0335   -0.2422    0.0250   -0.1383    0.1765
         101    0.0053   -0.0147   -0.1420    0.0219   -0.1379   -0.0510   -0.1500   -0.0682
         102   -0.0047    0.0533   -0.0074   -0.0334    0.0539   -0.0441    0.0255   -0.0646
         103   -0.0140    0.0323    0.0306   -0.0174   -0.0174    0.0114   -0.0650    0.1173
         104   -0.0032   -0.0303   -0.1226    0.0474   -0.1832   -0.0334   -0.0857   -0.0534
         105    0.0005    0.0297    0.0898   -0.0053    0.0672   -0.0160    0.1890   -0.0606
         106   -0.0025    0.0133   -0.0707    0.0196   -0.1754    0.0188   -0.0747    0.1324
         107   -0.0145   -0.0168    0.0061   -0.0057    0.1638   -0.0446   -0.0925   -0.0607
         108   -0.0321   -0.0169   -0.0930    0.0664   -0.0115    0.0179    0.0774    0.0402
         109    0.0099    0.0402    0.0711   -0.0401    0.0976   -0.0010   -0.1606    0.1513
         110   -0.0020   -0.0262    0.0975    0.0030    0.3019   -0.0197   -0.2271    0.0613
         111    0.0033   -0.0759   -0.0622    0.1530   -0.0436    0.0809    0.0280    0.2385
         112    0.0017    0.0470    0.1208   -0.0564    0.2260   -0.0007   -0.2507    0.1820
         113   -0.0192   -0.0342    0.0274    0.0306    0.0760   -0.0215   -0.0483    0.0096
         114    0.0091   -0.0572    0.0569    0.1241   -0.0309    0.0546    0.1794    0.2422
         115    0.0036   -0.0133   -0.0385    0.0262   -0.0093    0.0286   -0.0594    0.1512
         116    0.1698   -0.0276   -0.1291   -0.0259    0.1272   -0.0938   -0.0389   -0.1592
         117    0.3161   -0.0497   -0.0809    0.0649    0.0564   -0.0292    0.0791    0.0639
         118   -0.0130   -0.0699   -0.1581    0.0298    0.1859   -0.0387    0.0721   -0.0946
         119   -0.0704    0.0221   -0.0169   -0.0376    0.0603    0.0226    0.0578    0.0155
         120   -0.0329   -0.0361   -0.0424    0.0874    0.0531   -0.0033    0.0670    0.0269
         121    0.1370   -0.0578   -0.0944    0.0235    0.1190   -0.0011    0.0445   -0.0263
         122   -0.3928    0.0099   -0.0624   -0.0283    0.0848   -0.0205    0.0134   -0.0385
         123   -0.0485   -0.0285   -0.0047    0.0913   -0.0032    0.0063   -0.0032    0.0565


   Root No.       9        10        11        12        13        14        15        16

                 9 A      10 A      11 A      12 A      13 A      14 A      15 A      16 A   

                   0.0       0.0       0.0       0.0       0.0       0.1       0.1       0.1
  
           1    0.0580    0.0211   -0.0604   -0.0649   -0.0441    0.0497   -0.0105   -0.0108
           2   -0.0037   -0.0090    0.0331    0.0466    0.0282    0.0604   -0.0636    0.0045
           3   -0.0067    0.0115    0.0935   -0.0200    0.0048    0.0091   -0.0084   -0.0579
           4    0.0556    0.0206   -0.0581   -0.0628   -0.0414    0.0430   -0.0050   -0.0110
           5    0.0460    0.0023    0.0166    0.0252    0.0042    0.1296   -0.1185    0.0051
           6   -0.0061    0.0124   -0.1154    0.0825    0.0132    0.0648    0.0263    0.1647
           7    0.0189    0.0115   -0.0486   -0.0506   -0.0296    0.0028    0.0172   -0.0077
           8    0.0700    0.0082    0.0088    0.0168   -0.0049    0.1596   -0.1385    0.0043
           9   -0.0053    0.0107   -0.1907    0.1121    0.0159    0.0719    0.0250   -0.0457
          10   -0.0204    0.0020   -0.0396   -0.0371   -0.0161   -0.0473    0.0535   -0.0099
          11    0.0452    0.0022    0.0167    0.0266    0.0054    0.1291   -0.1185    0.0022
          12   -0.0005    0.0080   -0.1659    0.0845    0.0120    0.0684    0.0153   -0.1742
          13   -0.0223    0.0017   -0.0385   -0.0361   -0.0144   -0.0536    0.0608   -0.0116
          14   -0.0034   -0.0091    0.0339    0.0474    0.0288    0.0616   -0.0655    0.0038
          15    0.0004    0.0064    0.0404   -0.0122   -0.0010    0.0207    0.0064   -0.0648
          16    0.0174    0.0111   -0.0482   -0.0501   -0.0289   -0.0015    0.0231   -0.0120
          17   -0.0265   -0.0143    0.0385    0.0546    0.0366    0.0309   -0.0420    0.0041
          18   -0.0046    0.0063    0.1818   -0.0700   -0.0034   -0.0254   -0.0162   -0.1783
          19    0.0908    0.0284   -0.0715   -0.0788   -0.0600    0.0957   -0.0432   -0.0098
          20   -0.0224   -0.0132    0.0393    0.0547    0.0374    0.0347   -0.0458    0.0041
          21   -0.0074    0.0122    0.1804   -0.0575    0.0037   -0.0115   -0.0216   -0.0946
          22    0.0873    0.0277   -0.0665   -0.0689   -0.0494    0.0848   -0.0383   -0.0129
          23    0.0626    0.0064    0.0121    0.0221    0.0003    0.1529   -0.1373    0.0045
          24   -0.0043    0.0142   -0.1808    0.1229    0.0164    0.0941    0.0558    0.4884
          25   -0.0537   -0.0057   -0.0277   -0.0241    0.0002   -0.1029    0.0977   -0.0120
          26    0.0643    0.0066    0.0105    0.0190   -0.0039    0.1609   -0.1436    0.0039
          27    0.0075    0.0078   -0.2685    0.1247    0.0189    0.0955    0.0133   -0.3289
          28    0.0172    0.0111   -0.0487   -0.0499   -0.0288   -0.0023    0.0245   -0.0120
          29   -0.0668   -0.0238    0.0507    0.0714    0.0543   -0.0245   -0.0026    0.0035
          30   -0.0010    0.0039    0.3510   -0.1564   -0.0157   -0.0829   -0.0380   -0.3395
          31   -0.0673   -0.0077   -0.0297   -0.0189    0.0086   -0.1477    0.1660   -0.0119
          32   -0.0305   -0.0145    0.0387    0.0567    0.0415    0.0072   -0.0051    0.0049
          33    0.0082    0.0039    0.0954   -0.0470   -0.0114    0.0060    0.0259    0.2318
          34   -0.0670   -0.0076   -0.0302   -0.0191    0.0083   -0.1478    0.1671   -0.0125
          35   -0.0736   -0.0231    0.0450    0.0736    0.0646   -0.0904    0.1087    0.0035
          36    0.0026    0.0011    0.0732   -0.0352   -0.0063   -0.0085    0.0268    0.1052
          37   -0.1085   -0.0157   -0.0243   -0.0042    0.0293   -0.2407    0.2767   -0.0149
          38   -0.0061   -0.0098    0.0356    0.0481    0.0296    0.0603   -0.0676    0.0122
          39    0.0138    0.0029    0.1003   -0.0574   -0.0191    0.0018    0.0387    0.5693
          40    0.0230    0.0112   -0.0479   -0.0537   -0.0325    0.0033    0.0212   -0.0068
          41    0.0826    0.0164    0.0074    0.0166    0.0083    0.1036   -0.0172    0.0013
          42    0.0129    0.0168   -0.0948    0.1004    0.0166    0.0720    0.0603   -0.0588
          43    0.0540    0.0201    0.1439   -0.1050   -0.0560    0.0781   -0.0214    0.0244
          44    0.2291    0.0102   -0.0449   -0.0359    0.0502   -0.1159    0.0005    0.0045
          45    0.0777    0.0190   -0.0156    0.0550    0.0219    0.0279    0.0405   -0.0425
          46    0.0387    0.0261    0.1543   -0.1165   -0.0591    0.0746   -0.0276    0.0270
          47    0.1515    0.0371   -0.0446   -0.0783    0.0506   -0.1798   -0.0136    0.0038
          48    0.0464    0.0410    0.1754   -0.0042   -0.0135    0.1271   -0.0060   -0.0101
          49    0.1388   -0.0063    0.1746   -0.0776   -0.0605    0.1463   -0.0130    0.0352
          50    0.2618    0.0039   -0.0520   -0.0346    0.0578   -0.1377    0.0050    0.0049
          51    0.2398   -0.0020   -0.0909    0.0392    0.0713   -0.1664    0.0667   -0.0480
          52    0.0161    0.0485    0.2950   -0.1803   -0.0837    0.1111   -0.0713    0.0558
          53    0.3879   -0.0161   -0.0872   -0.0405    0.0903   -0.2535    0.0213    0.0072
          54    0.0071    0.0192   -0.0688    0.0956    0.0132    0.0890    0.0548   -0.0600
          55   -0.0114    0.0041   -0.1937   -0.0231   -0.0423    0.0435   -0.1254   -0.0172
          56    0.0436    0.0203    0.0096    0.0417   -0.0053    0.1024    0.2485   -0.0169
          57    0.0662    0.0173   -0.0197    0.0605    0.0181    0.0421    0.0281   -0.0444
          58   -0.0026    0.0067   -0.2054   -0.0181   -0.0307    0.0291   -0.1718   -0.0163
          59   -0.1145   -0.0118    0.0466    0.0264   -0.1303    0.3163    0.6447   -0.0386
          60    0.1653    0.0365    0.1261    0.0302    0.0813   -0.0877    0.0100   -0.0194
          61   -0.0625   -0.0050   -0.3221    0.0053   -0.0637    0.1067   -0.2248   -0.0317
          62    0.2089    0.0605   -0.0339    0.0871    0.1303   -0.1374    0.1215   -0.0151
          63   -0.0239   -0.0012   -0.0931    0.0687   -0.0354    0.1601   -0.0021   -0.0546
          64    0.0066    0.0174   -0.0263    0.0256    0.0646   -0.1112    0.1109    0.0040
          65    0.1354    0.0114   -0.0165   -0.0056   -0.0329    0.0693    0.0704    0.0018
          66   -0.1147    0.0098   -0.0272    0.0701   -0.0438    0.0733    0.1055   -0.0633
          67   -0.0099    0.1414    0.0194    0.0107    0.0027    0.0108    0.0026    0.0009
          68   -0.0580    0.1325    0.0014   -0.0494    0.0093   -0.0038   -0.0058   -0.0063
          69    0.0283   -0.0494    0.0044   -0.0221   -0.0038   -0.0141   -0.0236    0.0061
          70   -0.0042    0.0282    0.0254    0.0501   -0.0446   -0.0140   -0.0025    0.0021
          71   -0.0246   -0.0629    0.0202    0.0215   -0.0376   -0.0127   -0.0104   -0.0088
          72   -0.0090   -0.0145   -0.0117   -0.0397   -0.0364   -0.0553   -0.0237    0.0116
          73   -0.0178   -0.0359   -0.0117   -0.0709    0.1108    0.0492    0.0060    0.0004
          74   -0.0828   -0.0400   -0.0265   -0.0866    0.0336   -0.0064   -0.0055   -0.0060
          75   -0.0575    0.0326   -0.0368   -0.0820   -0.0477   -0.0815   -0.0254    0.0156
          76    0.0353   -0.0027    0.0277    0.0658   -0.0617    0.0025   -0.0116   -0.0008
          77   -0.1307    0.0497   -0.0456   -0.0751   -0.1080   -0.0939   -0.0355    0.0054
          78   -0.0398   -0.0160   -0.0270   -0.0901    0.0314   -0.0313   -0.0115    0.0092
          79    0.0429   -0.0162    0.0549    0.1328   -0.0555    0.0259   -0.0048   -0.0082
          80   -0.1225    0.0014   -0.0105    0.0173   -0.0722   -0.0564    0.0027   -0.0091
          81    0.0094   -0.0087    0.0043   -0.0022   -0.0124   -0.0159   -0.0143    0.0030
          82    0.0041   -0.1030    0.0300    0.0290   -0.0112    0.0184   -0.0104    0.0006
          83   -0.0971   -0.0693   -0.0218   -0.0622   -0.0407   -0.0526   -0.0045   -0.0019
          84    0.0376   -0.0223    0.0126   -0.0138    0.0045   -0.0013   -0.0271    0.0047
          85   -0.0349    0.3667    0.0086   -0.0397    0.0531    0.0246    0.0085    0.0019
          86   -0.0598    0.4581    0.0015   -0.1137    0.1160    0.0567    0.0006   -0.0089
          87    0.0511   -0.1275    0.0165    0.0005   -0.0068   -0.0005   -0.0286    0.0042
          88    0.0097   -0.1001    0.0436    0.1373   -0.1610   -0.0715   -0.0138    0.0059
          89    0.0319   -0.1182    0.0641    0.1353   -0.1255   -0.0274   -0.0193   -0.0104
          90   -0.0440    0.0409   -0.0399   -0.1201    0.0330   -0.0376   -0.0180    0.0122
          91   -0.0019    0.1097    0.0367    0.0784   -0.0877   -0.0315   -0.0050    0.0031
          92   -0.0066   -0.1975    0.0269    0.0516   -0.0543   -0.0174   -0.0146   -0.0087
          93    0.0434   -0.1319    0.0432    0.1315   -0.2127   -0.1198   -0.0435    0.0144
          94   -0.0355   -0.0613   -0.0332   -0.1444    0.2174    0.0859    0.0211   -0.0009
          95   -0.1079   -0.1225   -0.0694   -0.2474    0.2850    0.0918    0.0243   -0.0105
          96   -0.0908    0.0552   -0.0512   -0.1140   -0.0337   -0.0953   -0.0215    0.0185
          97   -0.0458   -0.0878   -0.0559   -0.2200    0.3215    0.1271    0.0323   -0.0026
          98   -0.0642    0.0003    0.0060    0.0241   -0.1229   -0.0646   -0.0258   -0.0036
          99   -0.0802    0.0882   -0.0476   -0.0687   -0.1528   -0.1396   -0.0500    0.0229
         100    0.0418    0.0661    0.0202    0.0748   -0.1937   -0.0597   -0.0569    0.0121
         101   -0.1619    0.1223   -0.0671   -0.0889   -0.2325   -0.1774   -0.0725    0.0205
         102   -0.0711    0.0193   -0.0443   -0.1092   -0.0167   -0.0777   -0.0220    0.0167
         103    0.0494   -0.0510    0.0546    0.1225   -0.0093    0.0473    0.0204   -0.0141
         104   -0.1417    0.0884   -0.0690   -0.1251   -0.1508   -0.1326   -0.0623    0.0170
         105   -0.0319   -0.1041   -0.0301   -0.1592    0.2256    0.0582    0.0277   -0.0012
         106    0.0407    0.0337    0.0489    0.1300   -0.0827    0.0146   -0.0196   -0.0058
         107   -0.1271   -0.0280    0.0034    0.0462   -0.0465   -0.0416    0.0131   -0.0132
         108    0.0152    0.0483    0.0464    0.1463   -0.0164    0.0066    0.0036   -0.0106
         109    0.0038   -0.1802    0.0301    0.0238   -0.0153    0.0163   -0.0176    0.0027
         110   -0.1317   -0.3663   -0.0440   -0.1554   -0.0270   -0.0731   -0.0268    0.0115
         111    0.0627   -0.1717    0.0248    0.0151   -0.0158    0.0030   -0.0382    0.0050
         112   -0.0219   -0.3859    0.0142   -0.0542    0.0055    0.0094   -0.0347    0.0119
         113   -0.0884    0.0413   -0.0143   -0.0182   -0.0549   -0.0515    0.0067   -0.0074
         114    0.0658    0.1460    0.0149   -0.0455    0.0495    0.0210   -0.0252    0.0065
         115    0.0441   -0.0113    0.0848    0.2234   -0.0125    0.0186    0.0062   -0.0096
         116   -0.2401    0.0450    0.0598    0.1616    0.0109    0.0271   -0.0580   -0.0144
         117   -0.1652   -0.0156    0.0433    0.0176    0.0404    0.0353   -0.1097    0.0006
         118   -0.2162    0.0446    0.1528    0.3527    0.4353   -0.1522   -0.1591    0.0414
         119    0.1561    0.0039   -0.0225   -0.0649    0.0080   -0.0276    0.0658    0.0294
         120   -0.1158   -0.0091    0.0130   -0.0051    0.0883   -0.0736   -0.0657    0.0037
         121   -0.0904    0.0235    0.0687    0.2067    0.2190   -0.1355   -0.0277    0.0335
         122    0.0158    0.0209    0.0431    0.0893    0.0689    0.0238   -0.0132    0.0121
         123   -0.0816   -0.0174   -0.0208   -0.0261   -0.0752   -0.0222    0.0093   -0.0176


   Root No.      17        18        19        20        21        22        23        24

                17 A      18 A      19 A      20 A      21 A      22 A      23 A      24 A   

                   0.1       0.2       0.2       0.2       0.2       0.3       0.3       0.3
  
           1    0.0094   -0.0570    0.0932    0.0780   -0.0693    0.0062    0.0370   -0.0387
           2   -0.0262   -0.0253    0.0129    0.0039   -0.0240   -0.0634    0.0093    0.0352
           3   -0.0303    0.1363    0.0874   -0.0158   -0.0411    0.0030   -0.0538    0.0018
           4    0.0096   -0.0530    0.0861    0.0716   -0.0620    0.0069    0.0340   -0.0323
           5   -0.0253   -0.0426    0.0359    0.0281   -0.0405   -0.0004    0.0067   -0.0345
           6   -0.0278    0.0305   -0.0792    0.0450    0.0499    0.0110    0.1247    0.0009
           7    0.0095   -0.0316    0.0455    0.0309   -0.0354   -0.0344    0.0256    0.0219
           8   -0.0252   -0.0524    0.0557    0.0475   -0.0525    0.0271    0.0074   -0.0680
           9   -0.0275   -0.0494   -0.0233   -0.0204    0.0756    0.0136    0.0011    0.0014
          10    0.0123   -0.0332    0.0496    0.0350   -0.0424   -0.1105    0.0412    0.0752
          11   -0.0261   -0.0531    0.0537    0.0429   -0.0558   -0.0333    0.0191   -0.0199
          12   -0.0772    0.1842    0.0152    0.0214    0.0428   -0.0000    0.1115    0.0013
          13    0.0135   -0.0330    0.0497    0.0353   -0.0422   -0.1137    0.0433    0.0816
          14   -0.0269   -0.0336    0.0247    0.0148   -0.0351   -0.0862    0.0190    0.0435
          15   -0.0201    0.0291   -0.0882    0.0586    0.0372    0.0065    0.1032   -0.0000
          16    0.0109   -0.0512    0.0795    0.0624   -0.0643   -0.0791    0.0484    0.0359
          17   -0.0251   -0.0214    0.0079   -0.0014   -0.0217   -0.1007    0.0144    0.0663
          18    0.0139   -0.0903   -0.0280   -0.0210    0.0921    0.0124    0.1140   -0.0040
          19    0.0108   -0.0713    0.1161    0.1059   -0.0899    0.0855    0.0370   -0.1223
          20   -0.0275   -0.0190    0.0018   -0.0102   -0.0152   -0.1126    0.0121    0.0838
          21   -0.0527    0.3475    0.2933   -0.0577   -0.2300   -0.0176   -0.3551    0.0096
          22    0.0022   -0.0810    0.1268    0.1132   -0.0924    0.0387    0.0374   -0.1099
          23   -0.0284   -0.0575    0.0589    0.0521   -0.0578    0.0201    0.0103   -0.0760
          24   -0.0266    0.0277   -0.2479    0.1571    0.1035    0.0082    0.4464   -0.0008
          25    0.0176   -0.0244    0.0401    0.0271   -0.0370   -0.1846    0.0573    0.1531
          26   -0.0289   -0.0610    0.0600    0.0490   -0.0603    0.0092    0.0098   -0.0661
          27   -0.1610    0.5195    0.1303    0.0355    0.0108   -0.0161    0.2684   -0.0026
          28    0.0113   -0.0520    0.0812    0.0642   -0.0662   -0.0796    0.0502    0.0354
          29   -0.0250   -0.0056   -0.0186   -0.0269   -0.0067   -0.1878    0.0190    0.1547
          30    0.0791   -0.3789   -0.0494   -0.0969    0.2619    0.0265    0.3215   -0.0203
          31    0.0297    0.0081    0.0181    0.0316    0.0024    0.0832    0.0012   -0.0527
          32   -0.0177   -0.0104    0.0064    0.0115   -0.0100    0.0274   -0.0082   -0.0346
          33    0.0168   -0.0000   -0.0735    0.0783   -0.0881   -0.0054   -0.0889    0.0042
          34    0.0302    0.0080    0.0173    0.0338    0.0014    0.0878   -0.0004   -0.0563
          35    0.0004    0.0381   -0.0287    0.0115    0.0446    0.2977   -0.0638   -0.2288
          36    0.0072   -0.0207   -0.4612    0.3968   -0.3301   -0.0293   -0.3329    0.0139
          37    0.0489    0.0513   -0.0099    0.0323    0.0536    0.3381   -0.0487   -0.2339
          38   -0.0279   -0.0349    0.0313    0.0056   -0.0363   -0.1122    0.0209    0.0638
          39    0.0586   -0.0054    0.4796   -0.3434    0.1003    0.0198   -0.0193   -0.0079
          40    0.0066   -0.0294    0.0435    0.0293   -0.0297   -0.0474    0.0245    0.0275
          41   -0.0072   -0.0125    0.0317    0.0397   -0.0017    0.1460   -0.0021   -0.0474
          42   -0.0102   -0.1569    0.0201   -0.0357    0.0391    0.0113   -0.1162    0.0030
          43   -0.0266    0.1026   -0.0699   -0.0327    0.0159   -0.0086    0.0300    0.0118
          44    0.0182    0.0195   -0.0267   -0.0537   -0.0658    0.0463    0.0383   -0.0161
          45   -0.0130   -0.0846   -0.0449   -0.0898    0.0231    0.0024   -0.0918    0.0055
          46   -0.0255    0.1160   -0.0865   -0.0516    0.0111   -0.0114    0.0379    0.0159
          47    0.0457    0.0039   -0.0343   -0.1076   -0.1536    0.0078    0.0786    0.0081
          48   -0.0551    0.0726   -0.2052   -0.2042    0.1030    0.0625   -0.1024   -0.0164
          49   -0.0600    0.1737   -0.1217   -0.0318    0.0939    0.0524    0.0246   -0.0075
          50    0.0200    0.0292   -0.0435   -0.0774   -0.0812    0.0443    0.0484   -0.0128
          51    0.0140   -0.0726   -0.1151   -0.2286   -0.0776   -0.0879   -0.0584    0.0460
          52   -0.0485    0.2535   -0.2175   -0.1496    0.0441   -0.0027    0.0704    0.0097
          53    0.0350    0.0647   -0.0904   -0.1456   -0.1479    0.0120    0.1051    0.0055
          54   -0.0123   -0.1822    0.0534    0.0039    0.0533    0.0208   -0.1512   -0.0049
          55    0.0350   -0.0413   -0.0549   -0.1144    0.0413    0.0054   -0.0701    0.0102
          56   -0.0643   -0.0410   -0.0083   -0.0720   -0.0465    0.0278   -0.0043   -0.0077
          57   -0.0039   -0.1314    0.0830    0.0889    0.0432   -0.0037   -0.0804   -0.0065
          58    0.0497   -0.0415   -0.0646   -0.1267    0.0503    0.0312   -0.0850    0.0093
          59   -0.1995   -0.0554   -0.0436   -0.1661   -0.1012   -0.1195    0.0296    0.0044
          60    0.0175   -0.1039    0.2492    0.3586   -0.0355   -0.0178    0.0726    0.0027
          61    0.0537   -0.0641   -0.1824   -0.3148    0.1172    0.0741   -0.2094   -0.0025
          62   -0.0192   -0.0429   -0.0618   -0.1654   -0.0565    0.0294   -0.0309    0.0069
          63   -0.0046   -0.1483    0.0170   -0.0142    0.0906    0.0495   -0.1597   -0.0196
          64   -0.0149    0.0026    0.0450    0.0894    0.1593   -0.0431   -0.0559    0.2081
          65   -0.0203    0.0102    0.0333    0.1159    0.2515   -0.0169   -0.1548   -0.0219
          66    0.0833   -0.1498    0.0222   -0.1229   -0.2034   -0.0216   -0.0180    0.0151
          67   -0.0111   -0.0170   -0.0086    0.0007   -0.0233    0.0292   -0.0045    0.0992
          68    0.0048    0.0073   -0.0125    0.0079    0.0165   -0.0404   -0.0035    0.0242
          69   -0.0074    0.0133    0.0001    0.0055    0.0166   -0.0266   -0.0050   -0.0380
          70   -0.0199   -0.0188   -0.0089    0.0022   -0.0226    0.0288   -0.0042    0.0836
          71    0.0015    0.0038   -0.0091    0.0062    0.0066   -0.0100    0.0036    0.0487
          72   -0.0086    0.0168   -0.0065    0.0119    0.0356   -0.0760   -0.0170   -0.1117
          73    0.0149   -0.0046   -0.0026    0.0025   -0.0045   -0.0013   -0.0057    0.0097
          74    0.0336    0.0140   -0.0057    0.0049    0.0103   -0.0193    0.0010    0.0826
          75   -0.0013    0.0189   -0.0063    0.0110    0.0304   -0.0709   -0.0182   -0.0495
          76    0.0272    0.0094   -0.0004    0.0002    0.0104   -0.0375   -0.0121    0.0210
          77   -0.0294    0.0078    0.0005    0.0041    0.0113   -0.0211    0.0010    0.0245
          78    0.0293    0.0183   -0.0076    0.0096    0.0174   -0.0428   -0.0119   -0.0063
          79    0.1256    0.0287   -0.0014   -0.0026    0.0007   -0.0146   -0.0020    0.0233
          80    0.2034    0.0565   -0.0126    0.0030    0.0270   -0.0645   -0.0072    0.0167
          81    0.0394    0.0150    0.0020    0.0023   -0.0033    0.0302    0.0026    0.0178
          82   -0.0065   -0.0083   -0.0021   -0.0005   -0.0206    0.0343    0.0026    0.0514
          83    0.0484    0.0244   -0.0144    0.0073    0.0382   -0.0927   -0.0171   -0.0051
          84   -0.0226    0.0073    0.0023    0.0043    0.0048    0.0007    0.0026   -0.0222
          85   -0.0277   -0.0237   -0.0103    0.0087   -0.0170    0.0390   -0.0030   -0.0567
          86   -0.0267   -0.0042   -0.0093    0.0186    0.0182    0.0091    0.0089   -0.2126
          87   -0.0084    0.0142    0.0036    0.0027    0.0097   -0.0096    0.0006    0.0051
          88   -0.0622   -0.0293   -0.0099    0.0061   -0.0218    0.0365   -0.0029   -0.0260
          89   -0.0453   -0.0111   -0.0085    0.0069   -0.0023    0.0216    0.0106   -0.0311
          90    0.0233    0.0276   -0.0065    0.0112    0.0420   -0.0984   -0.0214   -0.0565
          91   -0.0376   -0.0241   -0.0119    0.0023   -0.0258    0.0306   -0.0056    0.0896
          92   -0.0063    0.0035   -0.0068    0.0089    0.0136   -0.0140    0.0054   -0.0497
          93   -0.0764    0.0010   -0.0099    0.0186    0.0397   -0.0756   -0.0143   -0.3168
          94    0.0312   -0.0056   -0.0025    0.0038   -0.0036    0.0101   -0.0045   -0.0403
          95    0.0784    0.0175   -0.0032    0.0077    0.0176   -0.0068    0.0046   -0.0540
          96   -0.0172    0.0098   -0.0088    0.0118    0.0189   -0.0434   -0.0151   -0.0134
          97    0.0516   -0.0014   -0.0001    0.0044    0.0066   -0.0006   -0.0063   -0.1453
          98    0.0069    0.0119   -0.0073    0.0035    0.0018   -0.0181    0.0022    0.1878
          99   -0.0155    0.0314   -0.0030    0.0117    0.0502   -0.1279   -0.0262   -0.0651
         100   -0.1844   -0.0371    0.0183   -0.0026   -0.0166    0.0615    0.0060   -0.0170
         101   -0.1795   -0.0179    0.0092    0.0067    0.0122   -0.0055    0.0039   -0.0746
         102    0.0015    0.0199   -0.0095    0.0137    0.0359   -0.0881   -0.0205   -0.0806
         103    0.2220    0.0528   -0.0133   -0.0003    0.0285   -0.1034   -0.0236    0.0513
         104   -0.1981   -0.0295    0.0111    0.0051   -0.0024    0.0336    0.0102   -0.0070
         105    0.1453    0.0409   -0.0213    0.0132    0.0321   -0.1059   -0.0231    0.0919
         106    0.0793    0.0190    0.0050   -0.0051   -0.0120    0.0110    0.0051    0.0340
         107    0.2882    0.0762   -0.0180    0.0048    0.0328   -0.0686   -0.0055   -0.0054
         108    0.3080    0.0803   -0.0021    0.0038    0.0083    0.0518    0.0154   -0.0537
         109   -0.0308   -0.0112    0.0001    0.0003   -0.0206    0.0432    0.0059    0.0174
         110   -0.1133   -0.0092   -0.0085    0.0119    0.0298   -0.0389   -0.0081   -0.1020
         111   -0.0143    0.0200    0.0055    0.0063    0.0219   -0.0269    0.0034   -0.1162
         112   -0.1786   -0.0483    0.0085    0.0054   -0.0425    0.1308    0.0212   -0.0276
         113    0.1423    0.0475   -0.0188    0.0050    0.0511   -0.1388   -0.0259    0.0185
         114   -0.1103   -0.0168   -0.0019    0.0048   -0.0005   -0.0040   -0.0007    0.0242
         115    0.2466    0.0730   -0.0085    0.0103    0.0633   -0.1169   -0.0147   -0.0974
         116    0.3427    0.0729    0.0096    0.0023   -0.1010    0.2447    0.0952   -0.0214
         117    0.0021   -0.0200    0.0265   -0.0233   -0.2093    0.3711    0.1303    0.2120
         118   -0.3231   -0.0365   -0.0300   -0.0954   -0.0357   -0.1061   -0.0033   -0.1274
         119   -0.0724    0.0860    0.0362    0.2230    0.4603    0.2271   -0.2062    0.3541
         120   -0.1489   -0.0491    0.0063   -0.0571   -0.1315    0.2479    0.0332    0.3838
         121   -0.1022    0.0310   -0.0058    0.0415    0.1973   -0.1688   -0.0790    0.0177
         122    0.0221    0.0459    0.0101    0.0662    0.1324    0.1405   -0.0568   -0.0327
         123    0.1141   -0.0216    0.0022   -0.0555   -0.1394    0.0462    0.0501    0.1730


   Root No.      25        26        27        28        29        30        31        32

                25 A      26 A      27 A      28 A      29 A      30 A      31 A      32 A   

                   0.3       0.4       0.4       0.4       0.5       0.5       0.6       0.7
  
           1    0.0361   -0.0085    0.0141    0.0074   -0.0087    0.0074   -0.0805    0.0114
           2   -0.0255   -0.0007    0.0022    0.0121    0.0427    0.0113    0.0284   -0.0103
           3   -0.0069    0.0067   -0.0076   -0.0220   -0.0664    0.1980    0.0026    0.0054
           4    0.0294   -0.0051    0.0092    0.0011   -0.0095    0.0070   -0.0575    0.0064
           5    0.0382   -0.0270    0.0288    0.0510    0.0797    0.0315   -0.0010   -0.0045
           6    0.0059    0.0040    0.0003   -0.0208   -0.0639    0.1550   -0.0002   -0.0009
           7   -0.0188    0.0083   -0.0061   -0.0111    0.0068    0.0103    0.0518   -0.0189
           8    0.0679   -0.0350    0.0377    0.0576    0.0653    0.0268   -0.0454    0.0065
           9   -0.0030    0.0160   -0.0173   -0.0444   -0.0754    0.1579   -0.0194   -0.0183
          10   -0.0655    0.0294   -0.0209   -0.0429   -0.0795   -0.0280   -0.0492    0.0076
          11    0.0259   -0.0192    0.0249    0.0370    0.0305    0.0096   -0.0900    0.0177
          12    0.0022    0.0034   -0.0044   -0.0241   -0.0823    0.2188   -0.0041    0.0036
          13   -0.0724    0.0348   -0.0266   -0.0544   -0.0961   -0.0368   -0.0557    0.0084
          14   -0.0320    0.0029    0.0015    0.0065    0.0130   -0.0002   -0.0507    0.0108
          15    0.0010    0.0052   -0.0074   -0.0399   -0.1639    0.4933    0.0094    0.0258
          16   -0.0304    0.0189   -0.0098   -0.0325   -0.0789   -0.0285   -0.1197    0.0232
          17   -0.0533    0.0111   -0.0076   -0.0049    0.0065   -0.0063   -0.0037   -0.0002
          18    0.0044    0.0027   -0.0040   -0.0199   -0.0763    0.2405    0.0069    0.0115
          19    0.1128   -0.0407    0.0479    0.0565    0.0509    0.0420   -0.1443    0.0193
          20   -0.0695    0.0173   -0.0161   -0.0144    0.0114   -0.0070    0.0592   -0.0143
          21   -0.0291    0.0081   -0.0119    0.0053    0.0602   -0.1402   -0.0040   -0.0043
          22    0.1049   -0.0432    0.0532    0.0756    0.0347    0.0390   -0.2343    0.0628
          23    0.0775   -0.0473    0.0507    0.0913    0.1171    0.0533   -0.0991    0.0251
          24    0.0266   -0.0191    0.0333    0.0418    0.0755   -0.1927    0.0156    0.0129
          25   -0.1401    0.0723   -0.0629   -0.1263   -0.2261   -0.0885   -0.1150    0.0248
          26    0.0704   -0.0447    0.0502    0.0865    0.1143    0.0471   -0.0625    0.0101
          27    0.0162   -0.0232    0.0269    0.0593    0.1408   -0.3628    0.0150   -0.0020
          28   -0.0300    0.0195   -0.0099   -0.0344   -0.0852   -0.0299   -0.1325    0.0262
          29   -0.1340    0.0453   -0.0410   -0.0568   -0.0654   -0.0344    0.0223   -0.0027
          30    0.0282   -0.0133    0.0165    0.0422    0.1373   -0.3679   -0.0047   -0.0133
          31    0.0386    0.0021   -0.0022   -0.0196   -0.0525   -0.0196   -0.0270    0.0033
          32    0.0330   -0.0182    0.0175    0.0327    0.0535    0.0103   -0.0351    0.0082
          33   -0.0100    0.0037   -0.0041   -0.0072   -0.0238    0.0857    0.0011    0.0060
          34    0.0416    0.0013   -0.0016   -0.0190   -0.0519   -0.0219   -0.0289    0.0034
          35    0.1970   -0.0729    0.0610    0.1006    0.1449    0.0570    0.0004    0.0037
          36   -0.0274    0.0058   -0.0048    0.0147    0.0911   -0.2574   -0.0076   -0.0159
          37    0.1906   -0.0456    0.0349    0.0344    0.0154    0.0125    0.0043   -0.0023
          38   -0.0492    0.0073   -0.0021    0.0044    0.0182   -0.0094   -0.0550    0.0117
          39    0.0038    0.0008   -0.0013    0.0046    0.0354   -0.1145   -0.0061   -0.0095
          40   -0.0210    0.0042   -0.0011    0.0018    0.0193    0.0201    0.1189   -0.0304
          41    0.0213    0.0313   -0.0519   -0.1156   -0.0920   -0.0453    0.1350   -0.0446
          42   -0.0114    0.0197   -0.0230   -0.0360    0.0050   -0.0247   -0.0170   -0.0249
          43   -0.0068   -0.0020    0.0016    0.0041    0.0087    0.0085    0.1007   -0.0239
          44    0.0055    0.0118   -0.0147   -0.0391   -0.0555   -0.0158    0.1102   -0.0357
          45   -0.0111    0.0123   -0.0116   -0.0159    0.0170   -0.0173   -0.0687   -0.0150
          46   -0.0105   -0.0029    0.0022    0.0061    0.0173    0.0173    0.1096   -0.0296
          47   -0.0171    0.0084   -0.0073   -0.0225    0.0089    0.0088    0.1805   -0.0713
          48    0.0065    0.0095   -0.0194   -0.0362   -0.0303   -0.0232   -0.2977    0.0324
          49    0.0065    0.0074   -0.0176   -0.0426   -0.0691    0.0057    0.2298   -0.0908
          50    0.0015    0.0121   -0.0127   -0.0343   -0.0448   -0.0095    0.0992   -0.0309
          51   -0.0444   -0.0002    0.0285    0.0872    0.1623    0.0265   -0.3248    0.0925
          52   -0.0015   -0.0163    0.0218    0.0467    0.0111    0.0583    0.0055    0.0664
          53   -0.0128   -0.0002    0.0057    0.0036    0.0022    0.0344    0.0127    0.0371
          54   -0.0055    0.0277   -0.0346   -0.0633   -0.0136   -0.0705    0.0302   -0.1041
          55   -0.0121    0.0045   -0.0046   -0.0020   -0.0035   -0.0011    0.0957   -0.0223
          56   -0.0068    0.0223   -0.0287   -0.0536   -0.0099   -0.0131    0.0636   -0.0178
          57    0.0076    0.0054   -0.0067   -0.0137   -0.0307   -0.0212    0.0617   -0.0299
          58   -0.0156    0.0091   -0.0132   -0.0152   -0.0021   -0.0113    0.1062   -0.0211
          59    0.0009    0.0067    0.0088    0.0043    0.0325    0.0253   -0.0739   -0.0453
          60    0.0033    0.0093   -0.0125   -0.0357   -0.0500    0.0328    0.1970   -0.0530
          61   -0.0127    0.0122   -0.0206   -0.0209   -0.0015   -0.0617    0.0647   -0.0178
          62   -0.0286    0.0353   -0.0386   -0.0624    0.0144   -0.0204   -0.0744   -0.0351
          63    0.0117    0.0110   -0.0200   -0.0356   -0.0382   -0.0578    0.0815   -0.0264
          64   -0.1897    0.0240   -0.0768    0.0334    0.5423    0.1967    0.1911    0.0175
          65    0.0409   -0.0302    0.0314    0.0868   -0.1706   -0.0806    0.2142    0.0738
          66   -0.0147   -0.0554    0.0680    0.1449    0.0447   -0.0113    0.4748    0.2190
          67    0.0734   -0.1639   -0.1153   -0.0075   -0.0136   -0.0217   -0.0018    0.0234
          68    0.0847   -0.1098   -0.0498   -0.0871    0.0065    0.0004   -0.0055    0.0751
          69   -0.0020   -0.0968   -0.0511   -0.0373   -0.0108    0.0003   -0.0018   -0.0566
          70    0.0620   -0.0730   -0.0976    0.0361   -0.0134   -0.0191   -0.0045   -0.0642
          71    0.0853    0.0046   -0.0695    0.0189   -0.0127    0.0058   -0.0064   -0.0248
          72   -0.0297   -0.0224    0.0412   -0.0770    0.0154   -0.0022   -0.0022   -0.0234
          73    0.0263   -0.0073   -0.0056   -0.0283    0.0133   -0.0084   -0.0020   -0.0561
          74    0.1399    0.1109   -0.0609    0.0768   -0.0100    0.0105   -0.0046    0.0090
          75    0.0393    0.0473    0.0008   -0.0049    0.0083   -0.0034   -0.0040   -0.0041
          76    0.1037    0.0852    0.0900   -0.0657    0.0137   -0.0058    0.0094    0.0207
          77    0.0556    0.0379    0.0024    0.0096    0.0047    0.0093   -0.0051    0.0287
          78    0.0673    0.0798   -0.0337    0.0209    0.0001   -0.0048   -0.0010    0.0009
          79    0.0480    0.0196    0.0947   -0.0469   -0.0094   -0.0063   -0.0073   -0.0213
          80    0.0181   -0.0846    0.1172    0.0021   -0.0316    0.0007   -0.0150   -0.0187
          81   -0.0329   -0.0123   -0.0667    0.1219   -0.0519   -0.0034    0.0030    0.0071
          82    0.0366   -0.0236   -0.0242   -0.0204   -0.0015   -0.0114   -0.0013    0.0256
          83    0.0589   -0.1758    0.0637   -0.0927    0.0044    0.0037   -0.0051   -0.0163
          84   -0.0029   -0.0614   -0.0739   -0.0225   -0.0071    0.0036   -0.0038   -0.0391
          85   -0.1267    0.0743    0.0520    0.0842   -0.0109   -0.0146    0.0008   -0.0982
          86   -0.2309    0.3293    0.1738    0.0812   -0.0052    0.0125    0.0018   -0.0538
          87    0.0474   -0.1290   -0.1206   -0.0522   -0.0195   -0.0017   -0.0023   -0.0090
          88   -0.0870    0.1077    0.0537    0.1050   -0.0006   -0.0091    0.0047   -0.1298
          89   -0.0636   -0.0915   -0.0192   -0.0404   -0.0181   -0.0004    0.0015    0.1855
          90    0.0756   -0.0059   -0.0110   -0.0684    0.0185   -0.0008   -0.0093   -0.1258
          91    0.0531   -0.2306   -0.1349   -0.0385   -0.0185   -0.0321   -0.0031    0.2101
[...]
 FREQUENCY          1369.89         C 15 -- H 18         +16.4% ( 46.4%)      0.5%
 TRANSITION DIPOLE   0.9703         C 15 -- H 17         +15.1% ( 44.5%)      0.9%
 TRAVEL (Ang.)       0.4119         C 15 -- H 16         +11.6% ( 39.0%)      2.4%
 REDUCED MASS        0.2901         C  3 -- C 14          +8.2% ( 32.8%)     80.5%
 EFFECTIVE MASS      4.3516
 FORCE CONSTANT      0.3207

 VIBRATION         86   86A           ATOM PAIR      ENERGY CONTRIBUTION    RADIAL
 FREQUENCY          1379.73         C 23 -- C 28         +16.6% ( 50.0%)     99.3%
 TRANSITION DIPOLE   0.5828         C 24 -- H 30         +10.8% ( 40.4%)      0.2%
 TRAVEL (Ang.)       0.2828         C 23 -- H 29         +10.0% ( 38.8%)      3.1%
 REDUCED MASS        0.6110         C 25 -- H 32          +8.0% ( 34.7%)      0.0%
 EFFECTIVE MASS      4.9495
 FORCE CONSTANT      0.6854

 VIBRATION         87   87A           ATOM PAIR      ENERGY CONTRIBUTION    RADIAL
 FREQUENCY          1392.96         C  1 -- C  6         +12.3% ( 50.4%)     97.1%
 TRANSITION DIPOLE   0.6527         C  3 -- C  4         +11.7% ( 49.0%)     88.9%
 TRAVEL (Ang.)       0.2125         C  2 -- C  3         +10.9% ( 47.3%)     99.0%
 REDUCED MASS        1.0720         C  4 -- C  5         +10.0% ( 45.4%)     95.7%
 EFFECTIVE MASS      7.7936
 FORCE CONSTANT      1.2255

 VIBRATION         88   88A           ATOM PAIR      ENERGY CONTRIBUTION    RADIAL
 FREQUENCY          1396.05         C  3 -- C 14         +16.5% ( 57.1%)     99.1%
 TRANSITION DIPOLE   0.9931         C  1 -- C  2          +9.8% ( 44.2%)     90.4%
 TRAVEL (Ang.)       0.2061         C  5 -- C  6          +8.1% ( 40.0%)     98.8%
 REDUCED MASS        1.1370         C  2 -- C  3          +7.8% ( 39.2%)     46.5%
 EFFECTIVE MASS      8.5468
 FORCE CONSTANT      1.3056

 VIBRATION         89   89A           ATOM PAIR      ENERGY CONTRIBUTION    RADIAL
 FREQUENCY          1406.09         C 23 -- C 24         +29.2% ( 75.1%)     95.9%
 TRANSITION DIPOLE   0.7946         C 23 -- C 28         +17.2% ( 57.7%)     66.2%
 TRAVEL (Ang.)       0.1341         C 23 -- H 29         +15.5% ( 54.7%)      1.3%
 REDUCED MASS        2.6649         C 24 -- C 25          +7.1% ( 37.1%)      5.2%
 EFFECTIVE MASS      8.3409
 FORCE CONSTANT      3.1042

 VIBRATION         90   90A           ATOM PAIR      ENERGY CONTRIBUTION    RADIAL
 FREQUENCY          1439.24         N 27 -- H 39         +35.4% ( 68.5%)      9.7%
 TRANSITION DIPOLE   1.3188         H 39 -- O 41         +35.3% ( 68.4%)      1.5%
 TRAVEL (Ang.)       0.3300         N 27 -- H 36         +14.4% ( 43.7%)      0.2%
 REDUCED MASS        0.4302         C 23 -- C 28          +3.2% ( 20.7%)     97.4%
 EFFECTIVE MASS      1.8989
 FORCE CONSTANT      0.5251

 VIBRATION         91   91A           ATOM PAIR      ENERGY CONTRIBUTION    RADIAL
 FREQUENCY          1482.33         N 27 -- H 36         +71.3% ( 90.4%)      0.0%
 TRANSITION DIPOLE   0.5930         N 27 -- H 39          +8.3% ( 30.9%)      0.1%
 TRAVEL (Ang.)       0.2476         C 26 -- N 27          +4.5% ( 22.6%)     38.0%
 REDUCED MASS        0.7422         N 27 -- C 28          +4.3% ( 22.3%)     25.4%
 EFFECTIVE MASS      2.2581
 FORCE CONSTANT      0.9608

 VIBRATION         92   92A           ATOM PAIR      ENERGY CONTRIBUTION    RADIAL
 FREQUENCY          1489.25         N 11 -- O 13         +29.4% ( 75.8%)     65.0%
 TRANSITION DIPOLE   7.4446         N 11 -- O 12         +29.0% ( 75.4%)     64.0%
 TRAVEL (Ang.)       0.0988         C  5 -- N 11         +18.3% ( 59.9%)    100.0%
 REDUCED MASS        4.6353         O 12 -- O 13         +15.7% ( 55.3%)    100.0%
 EFFECTIVE MASS     14.6812
 FORCE CONSTANT      6.0571

 VIBRATION         93   93A           ATOM PAIR      ENERGY CONTRIBUTION    RADIAL
 FREQUENCY          1506.53         C  4 -- C  5         +12.8% ( 49.8%)     98.8%
 TRANSITION DIPOLE   0.7815         C  5 -- C  6         +11.7% ( 47.8%)     21.3%
 TRAVEL (Ang.)       0.1878         C  6 -- H 10         +10.0% ( 44.0%)      0.0%
 REDUCED MASS        1.2687         C  1 -- C  2          +9.9% ( 43.8%)     99.7%
 EFFECTIVE MASS     10.0711
 FORCE CONSTANT      1.6966

 VIBRATION         94   94A           ATOM PAIR      ENERGY CONTRIBUTION    RADIAL
 FREQUENCY          1521.52         N 19 -- O 21         +27.7% ( 73.4%)     60.3%
 TRANSITION DIPOLE   6.3991         N 19 -- O 20         +26.4% ( 71.6%)     57.4%
 TRAVEL (Ang.)       0.1001         C 14 -- N 19         +21.8% ( 65.1%)     97.9%
 REDUCED MASS        4.4201         O 20 -- O 21         +10.0% ( 44.1%)     99.9%
 EFFECTIVE MASS     13.7817
 FORCE CONSTANT      6.0290

 VIBRATION         95   95A           ATOM PAIR      ENERGY CONTRIBUTION    RADIAL
 FREQUENCY          1559.32         C  2 -- C  3         +15.3% ( 55.0%)     62.6%
 TRANSITION DIPOLE   1.8593         C  3 -- C  4         +13.6% ( 52.0%)     62.8%
 TRAVEL (Ang.)       0.1722         C  3 -- C 14         +10.9% ( 46.5%)     99.7%
 REDUCED MASS        1.4578         C  5 -- C  6          +9.1% ( 42.5%)     79.3%
 EFFECTIVE MASS     10.4951
 FORCE CONSTANT      2.0884

 VIBRATION         96   96A           ATOM PAIR      ENERGY CONTRIBUTION    RADIAL
 FREQUENCY          1593.07         N 19 -- O 20         +36.0% ( 85.6%)     89.9%
 TRANSITION DIPOLE  10.7847         N 19 -- O 21         +33.6% ( 82.7%)     85.4%
 TRAVEL (Ang.)       0.0807         C 14 -- N 19         +21.0% ( 65.3%)      0.2%
 REDUCED MASS        6.5051         O 20 -- O 21          +6.2% ( 35.6%)      0.8%
 EFFECTIVE MASS     14.5090
 FORCE CONSTANT      9.7269

 VIBRATION         97   97A           ATOM PAIR      ENERGY CONTRIBUTION    RADIAL
 FREQUENCY          1653.34         N 11 -- O 12         +35.6% ( 85.1%)     89.4%
 TRANSITION DIPOLE  11.3542         N 11 -- O 13         +34.9% ( 84.2%)     88.2%
 TRAVEL (Ang.)       0.0781         C  5 -- N 11         +21.2% ( 65.6%)      0.0%
 REDUCED MASS        6.6813         O 12 -- O 13          +6.3% ( 35.8%)      0.1%
 EFFECTIVE MASS     14.6097
 FORCE CONSTANT     10.7606

 VIBRATION         98   98A           ATOM PAIR      ENERGY CONTRIBUTION    RADIAL
 FREQUENCY          1666.35         C  1 -- C  6         +19.2% ( 61.9%)     96.9%
 TRANSITION DIPOLE   0.9359         C  3 -- C  4         +15.1% ( 54.9%)     94.6%
 TRAVEL (Ang.)       0.1278         C  2 -- C  3         +12.4% ( 49.6%)     75.9%
 REDUCED MASS        2.4792         C  5 -- C  6         +11.7% ( 48.3%)     73.5%
 EFFECTIVE MASS     12.0418
 FORCE CONSTANT      4.0559

 VIBRATION         99   99A           ATOM PAIR      ENERGY CONTRIBUTION    RADIAL
 FREQUENCY          1684.88         C  4 -- C  5         +18.5% ( 61.2%)     97.3%
 TRANSITION DIPOLE   1.7766         C  1 -- C  2         +14.6% ( 54.4%)     98.9%
 TRAVEL (Ang.)       0.1285         C  5 -- C  6         +13.4% ( 52.1%)     71.9%
 REDUCED MASS        2.4238         C  2 -- C  3         +10.3% ( 45.5%)     60.6%
 EFFECTIVE MASS     11.9999
 FORCE CONSTANT      4.0541

 VIBRATION        100  100A           ATOM PAIR      ENERGY CONTRIBUTION    RADIAL
 FREQUENCY          2601.25         C 28 -- H 38         +60.4% ( 80.3%)     99.0%
 TRANSITION DIPOLE   0.7270         C 28 -- H 37         +35.7% ( 61.8%)     97.2%
 TRAVEL (Ang.)       0.2264         N 27 -- H 36          +1.8% ( 13.9%)     99.6%
 REDUCED MASS        0.5056         N 27 -- C 28          +0.9% (  9.6%)      0.4%
 EFFECTIVE MASS      1.4095
 FORCE CONSTANT      2.0156

 VIBRATION        101  101A           ATOM PAIR      ENERGY CONTRIBUTION    RADIAL
 FREQUENCY          2621.89         C 24 -- H 31         +50.6% ( 73.6%)     99.1%
 TRANSITION DIPOLE   0.7331         C 24 -- H 30         +27.3% ( 54.1%)     97.0%
 TRAVEL (Ang.)       0.2714         C 25 -- H 33          +6.7% ( 26.8%)     98.3%
 REDUCED MASS        0.3491         C 26 -- H 35          +5.0% ( 23.2%)     98.1%
 EFFECTIVE MASS      1.3904
 FORCE CONSTANT      1.4138

 VIBRATION        102  102A           ATOM PAIR      ENERGY CONTRIBUTION    RADIAL
 FREQUENCY          2629.60         C 26 -- H 34         +42.1% ( 67.2%)     98.4%
 TRANSITION DIPOLE   0.5608         C 26 -- H 35         +39.0% ( 64.7%)     98.0%
 TRAVEL (Ang.)       0.2707         C 24 -- H 31          +7.8% ( 29.0%)     99.0%
 REDUCED MASS        0.3499         C 24 -- H 30          +5.0% ( 23.2%)     97.0%
 EFFECTIVE MASS      1.4321
 FORCE CONSTANT      1.4254

 VIBRATION        103  103A           ATOM PAIR      ENERGY CONTRIBUTION    RADIAL
 FREQUENCY          2652.36         C 25 -- H 32         +50.0% ( 73.0%)     98.6%
 TRANSITION DIPOLE   0.9110         C 25 -- H 33         +35.8% ( 61.7%)     97.3%
 TRAVEL (Ang.)       0.2541         C 26 -- H 34          +4.4% ( 21.6%)     99.5%
 REDUCED MASS        0.3936         C 24 -- H 30          +3.9% ( 20.5%)     97.8%
 EFFECTIVE MASS      1.4415
 FORCE CONSTANT      1.6315

 VIBRATION        104  104A           ATOM PAIR      ENERGY CONTRIBUTION    RADIAL
 FREQUENCY          2653.21         C 15 -- H 17         +69.6% ( 86.1%)     99.7%
 TRANSITION DIPOLE   0.7753         C 15 -- H 18         +17.5% ( 43.2%)     87.6%
 TRAVEL (Ang.)       0.2162         C 15 -- H 16         +11.7% ( 35.3%)     80.9%
 REDUCED MASS        0.5436         C 14 -- C 15          +0.9% (  9.5%)      0.0%
 EFFECTIVE MASS      1.4418
 FORCE CONSTANT      2.2546

 VIBRATION        105  105A           ATOM PAIR      ENERGY CONTRIBUTION    RADIAL
 FREQUENCY          2664.73         C 15 -- H 16         +51.8% ( 74.3%)     98.4%
 TRANSITION DIPOLE   0.8487         C 15 -- H 18         +45.9% ( 69.9%)     97.6%
 TRAVEL (Ang.)       0.2261         C 15 -- H 17          +1.1% ( 10.7%)      7.2%
 REDUCED MASS        0.4951         C 14 -- C 15          +0.9% (  9.7%)      0.0%
 EFFECTIVE MASS      1.4456
 FORCE CONSTANT      2.0711

 VIBRATION        106  106A           ATOM PAIR      ENERGY CONTRIBUTION    RADIAL
 FREQUENCY          2687.02         N 27 -- H 36         +89.0% ( 94.8%)     99.8%
 TRANSITION DIPOLE   1.2553         C 28 -- H 38          +4.1% ( 20.3%)     98.1%
 TRAVEL (Ang.)       0.1803         C 26 -- H 34          +3.6% ( 19.0%)     98.9%
 REDUCED MASS        0.7718         C 26 -- N 27          +0.6% (  7.5%)      8.2%
 EFFECTIVE MASS      1.3488
 FORCE CONSTANT      3.2831

 VIBRATION        107  107A           ATOM PAIR      ENERGY CONTRIBUTION    RADIAL
 FREQUENCY          2692.41         C 28 -- H 37         +62.8% ( 77.9%)     98.3%
 TRANSITION DIPOLE   0.8882         C 28 -- H 38         +32.0% ( 55.7%)     93.6%
 TRAVEL (Ang.)       0.2274         N 27 -- H 36          +3.2% ( 17.7%)     97.3%
 REDUCED MASS        0.4843         N 27 -- C 28          +0.5% (  7.0%)     16.2%
 EFFECTIVE MASS      1.2320
 FORCE CONSTANT      2.0684

 VIBRATION        108  108A           ATOM PAIR      ENERGY CONTRIBUTION    RADIAL
 FREQUENCY          2701.85         C  6 -- H 10         +81.5% ( 91.3%)    100.0%
 TRANSITION DIPOLE   1.3406         C  4 -- H  9         +13.2% ( 36.7%)    100.0%
 TRAVEL (Ang.)       0.1939         C  1 -- H  7          +3.1% ( 17.7%)     99.5%
 REDUCED MASS        0.6641         C  1 -- C  6          +0.9% (  9.7%)     15.0%
 EFFECTIVE MASS      1.3831
 FORCE CONSTANT      2.8561

 VIBRATION        109  109A           ATOM PAIR      ENERGY CONTRIBUTION    RADIAL
 FREQUENCY          2707.06         C  4 -- H  9         +82.4% ( 91.7%)    100.0%
 TRANSITION DIPOLE   1.4960         C  6 -- H 10         +10.6% ( 33.0%)    100.0%
 TRAVEL (Ang.)       0.1922         C  1 -- H  7          +4.0% ( 20.2%)     99.8%
 REDUCED MASS        0.6740         C  4 -- C  5          +0.9% (  9.8%)     26.6%
 EFFECTIVE MASS      1.4014
 FORCE CONSTANT      2.9099

 VIBRATION        110  110A           ATOM PAIR      ENERGY CONTRIBUTION    RADIAL
 FREQUENCY          2712.81         C 26 -- H 35         +52.6% ( 71.3%)     96.9%
 TRANSITION DIPOLE   0.8444         C 26 -- H 34         +43.0% ( 64.5%)     95.7%
 TRAVEL (Ang.)       0.2339         C 25 -- H 32          +1.1% ( 10.3%)     93.7%
 REDUCED MASS        0.4544         C 24 -- H 30          +0.8% (  9.0%)     98.6%
 EFFECTIVE MASS      1.2372
 FORCE CONSTANT      1.9703

 VIBRATION        111  111A           ATOM PAIR      ENERGY CONTRIBUTION    RADIAL
 FREQUENCY          2721.38         C  2 -- H  8         +52.5% ( 73.0%)    100.0%
 TRANSITION DIPOLE   0.9140         C  1 -- H  7         +22.1% ( 47.3%)     99.9%
 TRAVEL (Ang.)       0.2659         H 40 -- O 41         +20.3% ( 45.4%)     99.9%
 REDUCED MASS        0.3506         C 24 -- H 30          +1.7% ( 13.2%)     98.1%
 EFFECTIVE MASS      1.3577
 FORCE CONSTANT      1.5296

 VIBRATION        112  112A           ATOM PAIR      ENERGY CONTRIBUTION    RADIAL
 FREQUENCY          2722.50         C 24 -- H 30         +59.8% ( 76.1%)     98.0%
 TRANSITION DIPOLE   0.7279         C 24 -- H 31         +34.0% ( 57.3%)     94.3%
 TRAVEL (Ang.)       0.2313         C  2 -- H  8          +1.6% ( 12.3%)    100.0%
 REDUCED MASS        0.4630         C  1 -- H  7          +0.7% (  8.3%)     99.9%
 EFFECTIVE MASS      1.2510
 FORCE CONSTANT      2.0220

 VIBRATION        113  113A           ATOM PAIR      ENERGY CONTRIBUTION    RADIAL
 FREQUENCY          2730.39         H 40 -- O 41         +68.5% ( 82.4%)     99.9%
 TRANSITION DIPOLE   1.7742         C  1 -- H  7         +23.7% ( 48.5%)    100.0%
 TRAVEL (Ang.)       0.2216         C  2 -- H  8          +4.0% ( 19.8%)     99.6%
 REDUCED MASS        0.5027         C  6 -- H 10          +1.8% ( 13.2%)     99.4%
 EFFECTIVE MASS      1.3500
 FORCE CONSTANT      2.2080

 VIBRATION        114  114A           ATOM PAIR      ENERGY CONTRIBUTION    RADIAL
 FREQUENCY          2736.57         C  1 -- H  7         +45.4% ( 67.8%)    100.0%
 TRANSITION DIPOLE   0.9824         C  2 -- H  8         +40.0% ( 63.6%)    100.0%
 TRAVEL (Ang.)       0.2610         H 40 -- O 41          +7.6% ( 27.8%)     99.9%
 REDUCED MASS        0.3618         C  6 -- H 10          +3.2% ( 17.9%)     99.5%
 EFFECTIVE MASS      1.4164
 FORCE CONSTANT      1.5962

 VIBRATION        115  115A           ATOM PAIR      ENERGY CONTRIBUTION    RADIAL
 FREQUENCY          2738.87         C 25 -- H 33         +54.8% ( 72.8%)     97.3%
 TRANSITION DIPOLE   0.7766         C 25 -- H 32         +42.1% ( 63.8%)     95.7%
 TRAVEL (Ang.)       0.2288         C 26 -- H 35          +0.6% (  7.5%)     90.8%
 REDUCED MASS        0.4701         C 23 -- H 29          +0.6% (  7.4%)     99.9%
 EFFECTIVE MASS      1.2453
 FORCE CONSTANT      2.0779

 VIBRATION        116  116A           ATOM PAIR      ENERGY CONTRIBUTION    RADIAL
 FREQUENCY          2754.74         C 23 -- H 29         +97.4% ( 99.4%)    100.0%
 TRANSITION DIPOLE   0.7801         C 23 -- C 24          +0.8% (  9.2%)     24.3%
 TRAVEL (Ang.)       0.1637         C 23 -- C 28          +0.8% (  9.2%)     20.6%
 REDUCED MASS        0.9129         C 25 -- H 33          +0.3% (  5.2%)     95.9%
 EFFECTIVE MASS      1.3688
 FORCE CONSTANT      4.0819

 VIBRATION        117  117A           ATOM PAIR      ENERGY CONTRIBUTION    RADIAL
 FREQUENCY          2775.89         C 15 -- H 16         +35.9% ( 57.5%)     95.9%
 TRANSITION DIPOLE   0.6004         C 15 -- H 18         +35.9% ( 57.4%)     96.0%
 TRAVEL (Ang.)       0.2717         C 15 -- H 17         +27.7% ( 50.4%)     94.2%
 REDUCED MASS        0.3292         C 14 -- C 15          +0.3% (  4.9%)     98.0%
 EFFECTIVE MASS      1.1374
 FORCE CONSTANT      1.4944

      SYMMETRY NUMBER FOR POINT-GROUP C1  =  1


          SYSTEM IS A GROUND STATE



 Title: ASE calculation


          MOLECULE IS NOT LINEAR

          THERE ARE  117 GENUINE VIBRATIONS IN THIS SYSTEM
          THIS THERMODYNAMICS CALCULATION IS LIMITED TO
          MOLECULES WHICH HAVE NO INTERNAL ROTATIONS




                    CALCULATED THERMODYNAMIC PROPERTIES
                                          *
   TEMP. (K)   PARTITION FUNCTION   H.O.F.    ENTHALPY  HEAT CAPACITY ENTROPY
                                   KCAL/MOL   CAL/MOLE    CAL/K/MOL  CAL/K/MOL


 298.00  VIB.     0.1553D+12                 12620.8727    75.9604    93.5592
         ROT.     0.1046D+08                   888.2803     2.9808    35.1001
         INT.     0.1624D+19                 13509.1530    78.9412   128.6593
         TRA.     0.5007D+28                  1480.4672     4.9680    42.9838
         TOT.                      -61.828   14989.6202    83.9092   171.6431

   *: NOTE: HEATS OF FORMATION ARE RELATIVE TO THE
            ELEMENTS IN THEIR STANDARD STATE AT 298K
              (=  Standard Enthalpy of Formation).

            Hvib:  Zero-point energy is not included.
                   frequencies of less than zero cm-1 are not included.
            Hrot = (3/2)RT
            Htra = (3/2)RT + pV = (5/2)RT

            Heat capacity is Cp, not Cv

          For more information, see: HTTP://OpenMOPAC.net/Manual/thermochemistry.html


           FORCE CONSTANT IN CARTESIAN COORDINATES (Millidynes/A)

    ATOM   CHEMICAL       X               Y               Z
   NUMBER   SYMBOL  FORCE CONSTANT  FORCE CONSTANT  FORCE CONSTANT

      1       C       10.821107       10.046969        2.200753
      2       C       10.797299        9.773594        2.256741
      3       C       10.989978       11.226482        2.777760
      4       C       10.835101        9.853321        2.303808
      5       C       11.668956       10.469639        2.108055
      6       C        9.697392       11.454074        2.168614
      7       H        1.714470        3.357978        0.383163
      8       H        1.707057        3.399909        0.375382
      9       H        1.735176        3.292108        0.362131
     10       H        4.085179        0.899017        0.383720
     11       N       14.060774       12.136128        2.682561
     12       O       11.933089        1.676870        0.334037
     13       O        4.432556        9.110512        0.234362
     14       C        8.932352        3.237789        8.222766
     15       C        6.398729        6.005383        6.843975
     16       H        3.973711        0.668281        0.733602
     17       H        0.618250        3.909589        0.784492
     18       H        1.143328        1.269729        2.942170
     19       N       13.664936        4.243584       11.200510
     20       O       11.142002        0.639898        1.515519
     21       O        4.674796        1.027309        7.446770
     22       H        0.594888       -0.785272        0.751938
     23       C        6.644288        4.049163        8.195822
     24       C        7.061008        6.740563        6.826692
     25       C        6.547299        6.832704        6.853230
     26       C        6.946770        6.815812        6.904119
     27       N        7.731262        7.071522        6.088966
     28       C        6.608887        6.356668        8.075099
     29       H        2.229963        0.735402        2.377376
     30       H        0.783548        1.485994        3.210692
     31       H        2.493078        2.003014        0.834491
     32       H        3.358203        1.106641        1.044942
     33       H        1.763456        2.983625        0.825217
     34       H        1.152040        2.020778        2.325024
     35       H        2.254027        2.566932        0.724301
     36       H        2.292627        2.802733        0.879769
     37       H        3.725246        0.702551        1.019984
     38       H        1.128946        3.335830        0.876412
     39       H        0.849742        0.548643        0.412997
     40       H        1.377113        1.456842        1.995972
     41       O        1.858879        2.164523        3.093392

 **********************
 *                    *
 * JOB ENDED NORMALLY *
 *                    *
 **********************



 TOTAL JOB TIME:            23.69 SECONDS

 == MOPAC DONE ==
