 *******************************************************************************
 **                                                                           **
 **                              MOPAC v22.0.6                                **
 **                                                                           **
 *******************************************************************************
 **          Digital Object Identifier (DOI): 10.5281/zenodo.6511958          **
 **    Visit the DOI location for information on how to cite this program.    **
 *******************************************************************************

                              PM7 CALCULATION RESULTS

 *******************************************************************************
 *  CALCULATION DONE:                                Sun Mar 24 01:22:20 2024  *
 *  PM7        - The PM7 Hamiltonian to be used
 *  DOUBLET    - SPIN STATE DEFINED AS A DOUBLET
 *
 *
 *
 *                 CHARGE ON SYSTEM = 0
 *
 *
 *
 *  EPS=78.4   - USE ANDREAS KLAMT'S COSMO IMPLICIT SOLVATION MODEL
 *  LET        - OVERRIDE SOME SAFETY CHECKS
 *  THREADS    - USE A MAXIMUM OF 30 THREADS
 *  T=         - A TIME OF 14.0 DAYS REQUESTED
 *  DUMP=N     - RESTART FILE WRITTEN EVERY 30.0 MINUTES REQUESTED
 *  RELSCF     - DEFAULT SCF CRITERION MULTIPLIED BY 1.0000
 *              (DEFAULT SCF CRITERION = 0.00010)
 *  ITRY=      - DO A MAXIMUM OF 15000 ITERATIONS FOR SCF
 *  AUX        - OUTPUT AUXILIARY INFORMATION
 *  ISOTOPE    - SAVE THE FORCE MATRIX FOR USE LATER
 *  BONDS      - FINAL BOND-ORDER MATRIX TO BE PRINTED
 *  LARGE      - EXPANDED OUTPUT TO BE PRINTED
 *  THERMO     - THERMODYNAMIC QUANTITIES TO BE CALCULATED
 *******************************************************************************
PM7 AUX LARGE THERMO(298,298) LET ISOTOPE BONDS DUMP=30M ITRY=15000 T=14D THREADS=30 CHARGE=0 DOUBLET eps=78.4 RELSCF=1
 Title: ASE calculation

   ATOM   CHEMICAL          X               Y               Z
  NUMBER   SYMBOL      (ANGSTROMS)     (ANGSTROMS)     (ANGSTROMS)

     1       C          1.17781227  *   0.38881094  *   0.74318585  *
     2       C          1.18176565  *  -0.71097096  *  -0.10958664  *
     3       C          0.43654754  *  -1.86273029  *   0.19224783  *
     4       C         -0.31746314  *  -1.89020355  *   1.37061716  *
     5       C         -0.30479507  *  -0.78019361  *   2.21951264  *
     6       C          0.43507706  *   0.36780605  *   1.91933540  *
     7       H          1.76483818  *   1.27601315  *   0.48909429  *
     8       H          1.77300702  *  -0.67375159  *  -1.03025762  *
     9       H         -0.92234280  *  -2.77028904  *   1.61977197  *
    10       H          0.43347571  *   1.23125000  *   2.59184316  *
    11       N         -1.08056027  *  -0.81986155  *   3.43568739  *
    12       O         -1.19351353  *   0.19958550  *   4.10609893  *
    13       O         -1.60349076  *  -1.87189289  *   3.77952579  *
    14       C          0.44948943  *  -3.02342433  *  -0.67996296  *
    15       C          0.27701058  *  -4.38445554  *  -0.09027255  *
    16       H          0.70032644  *  -5.17839339  *  -0.72604482  *
    17       H         -0.78769579  *  -4.63523125  *   0.04895067  *
    18       H          0.75595563  *  -4.47655002  *   0.89382699  *
    19       N          0.37521536  *  -2.88761329  *  -2.02416442  *
    20       O          0.33531386  *  -3.89198835  *  -2.77195805  *
    21       O          0.39555695  *  -1.75988342  *  -2.57051021  *
    22       D          2.39485143  *  -3.31147538  *  -0.76717819  *
    23       C          3.00193261  *  -2.52050759  *   3.93521931  *
    24       N          4.00586547  *  -3.11668945  *   4.62499919  *
    25       C          5.07016929  *  -3.83435215  *   3.91276966  *
    26       C          4.69030615  *  -4.14550182  *   2.45997262  *
    27       N          4.23472467  *  -2.87772292  *   1.78847651  *
    28       C          2.97717719  *  -2.37438377  *   2.45823441  *
    29       H          2.16902592  *  -2.10934629  *   4.48940127  *
    30       H          3.82459829  *  -3.43276410  *   5.57430498  *
    31       H          5.32686325  *  -4.78122520  *   4.44653428  *
    32       H          5.99674237  *  -3.20684487  *   3.94957997  *
    33       H          5.56662889  *  -4.56378016  *   1.90846571  *
    34       H          3.88182806  *  -4.91177610  *   2.40482707  *
    35       H          4.98582756  *  -2.15666194  *   1.85076245  *
    36       H          2.83651449  *  -1.29833650  *   2.17435685  *
    37       H          2.10263217  *  -2.94003352  *   2.04278918  *
    38       H          4.04608329  *  -3.05788549  *   0.72943574  *
    39       H          3.82969391  *  -4.24127574  *  -0.98971663  *
    40       O          3.67738652  *  -3.31928575  *  -0.76279857  *


                                Isotopes Used

              Atom:   22  H  Default mass  1.0079,  mass used:  2.0140 amu


          CARTESIAN COORDINATES 

    NO.       ATOM           X           Y           Z

     1         C          1.1778      0.3888      0.7432
     2         C          1.1818     -0.7110     -0.1096
     3         C          0.4365     -1.8627      0.1922
     4         C         -0.3175     -1.8902      1.3706
     5         C         -0.3048     -0.7802      2.2195
     6         C          0.4351      0.3678      1.9193
     7         H          1.7648      1.2760      0.4891
     8         H          1.7730     -0.6738     -1.0303
     9         H         -0.9223     -2.7703      1.6198
    10         H          0.4335      1.2312      2.5918
    11         N         -1.0806     -0.8199      3.4357
    12         O         -1.1935      0.1996      4.1061
    13         O         -1.6035     -1.8719      3.7795
    14         C          0.4495     -3.0234     -0.6800
    15         C          0.2770     -4.3845     -0.0903
    16         H          0.7003     -5.1784     -0.7260
    17         H         -0.7877     -4.6352      0.0490
    18         H          0.7560     -4.4766      0.8938
    19         N          0.3752     -2.8876     -2.0242
    20         O          0.3353     -3.8920     -2.7720
    21         O          0.3956     -1.7599     -2.5705
    22         H          2.3949     -3.3115     -0.7672
    23         C          3.0019     -2.5205      3.9352
    24         N          4.0059     -3.1167      4.6250
    25         C          5.0702     -3.8344      3.9128
    26         C          4.6903     -4.1455      2.4600
    27         N          4.2347     -2.8777      1.7885
    28         C          2.9772     -2.3744      2.4582
    29         H          2.1690     -2.1093      4.4894
    30         H          3.8246     -3.4328      5.5743
    31         H          5.3269     -4.7812      4.4465
    32         H          5.9967     -3.2068      3.9496
    33         H          5.5666     -4.5638      1.9085
    34         H          3.8818     -4.9118      2.4048
    35         H          4.9858     -2.1567      1.8508
    36         H          2.8365     -1.2983      2.1744
    37         H          2.1026     -2.9400      2.0428
    38         H          4.0461     -3.0579      0.7294
    39         H          3.8297     -4.2413     -0.9897
    40         O          3.6774     -3.3193     -0.7628

 General Reference for PM7:
 "Optimization of Parameters for Semiempirical Methods VI: More Modifications to the 
 NDDO Approximations and Re-optimization of Parameters", J. J. P. Stewart, J. Mol. Mod., 1:32, 19 (2013)
 https://link.springer.com/article/10.1007/s00894-012-1667-x

           Empirical Formula: C12 H19 N4 O5  =    40 atoms



      MOLECULAR POINT GROUP   :   C1  


 DOUBLET STATE CALCULATION


          UHF CALCULATION, NO. OF ALPHA ELECTRONS =   59
                           NO. OF BETA  ELECTRONS =   58
  SCF CRITERION =    0.1000E-03


          HEAT OF FORMATION =     -57.278528 KCALS/MOLE


          CARTESIAN COORDINATE DERIVATIVES

   NUMBER  ATOM         X            Y            Z

     1       C     -0.287674     0.474990     0.095330
     2       C     -0.075792    -0.140247     0.095251
     3       C     -0.228318     0.284270    -0.095425
     4       C      0.303194    -0.266339     0.159721
     5       C     -0.089894     0.492280     0.127140
     6       C      0.216508    -0.755090     0.125618
     7       H      0.026247     0.012348     0.037242
     8       H      0.130942    -0.021039    -0.009895
     9       H     -0.004767     0.089044     0.052605
    10       H     -0.139484     0.051055     0.077915
    11       N      0.609244     0.399585    -0.074204
    12       O     -0.251401    -0.176927     0.208333
    13       O     -0.266357    -0.251352    -0.009620
    14       C     -1.434078     3.296499     4.119531
    15       C      0.023058    -0.084126     0.019323
    16       H     -0.033321     0.036410     0.117040
    17       H     -0.030896    -0.085430     0.024713
    18       H      0.015429     0.055201     0.089507
    19       N     -0.002540     0.305724     0.293266
    20       O      0.138861     0.445784    -0.625750
    21       O     -0.359617    -0.398607     0.148046
    22       H     -0.482195    64.246554    81.268051
    23       C      0.107331     0.112739    -0.296686
    24       N     -0.151339    -0.045563     0.403932
    25       C      0.028708    -0.119063    -0.038121
    26       C      0.052745     0.053292     0.080255
    27       N     -0.106584     0.207533    -0.027362
    28       C      0.126370    -0.058978     0.015021
    29       H      0.114016    -0.083106     0.038190
    30       H      0.343868    -0.172738    -0.127112
    31       H      0.139527    -0.058130     0.016967
    32       H     -0.040867    -0.017400    -0.007325
    33       H     -0.078314    -0.073565    -0.091337
    34       H      0.001057    -0.155408     0.019472
    35       H      0.140748     0.146923     0.135474
    36       H     -0.031108    -0.016754     0.047582
    37       H     -0.042018     0.051773    -0.042533
    38       H     -0.076079     0.028372    -0.047364
    39       H      0.259078     0.176346     0.306877
    40       O      1.435817   -67.986911   -86.629807

 DIPOLE           X         Y         Z       TOTAL
 POINT-CHG.    -4.778    -1.072   -23.862    24.359
 HYBRID         0.243     0.493     0.233     0.597
 SUM           -4.534    -0.580   -23.629    24.068


          GRADIENT NORM = 151.31348



 ** GRADIENT IS VERY LARGE, BUT SINCE "LET" IS USED, CALCULATION WILL CONTINUE


                              **** WARNING ****

           GRADIENT IS VERY LARGE FOR A THERMO CALCULATION
           RESULTS ARE LIKELY TO BE INACCURATE IF THERE ARE
           ANY LOW-LYING VIBRATIONS (LESS THAN ABOUT 400CM-1)
           GRADIENT NORM SHOULD BE LESS THAN ABOUT 1.3 FOR THERMO
           TO GIVE ACCURATE RESULTS


          TIME FOR SCF CALCULATION =    1.80

          TIME FOR DERIVATIVES     =    0.15

          MOLECULAR WEIGHT =  300.31



          ROTATIONAL CONSTANTS IN CM(-1)

          A =    0.00946276   B =    0.00831306   C =    0.00532931



           PRINCIPAL MOMENTS OF INERTIA IN UNITS OF 10**(-40)*GRAM-CM**2

          A =     2958.2019   B =     3367.3236   C =     5252.5996


          ORIENTATION OF MOLECULE IN FORCE CALCULATION

    NO.       ATOM         X         Y         Z

     1          C      -1.7125   -1.4688    1.4119
     2          C      -0.3208   -1.4688    1.4119
     3          C       0.4023   -0.2646    1.4119
     4          C      -0.3002    0.9455    1.4132
     5          C      -1.6975    0.9278    1.4060
     6          C      -2.4187   -0.2702    1.4079
     7          H      -2.2562   -2.4179    1.4123
     8          H       0.2156   -2.4232    1.4151
     9          H       0.2409    1.8991    1.4319
    10          H      -3.5131   -0.2693    1.4053
    11          N      -2.4136    2.1807    1.4012
    12          O      -3.6303    2.1742    1.5460
    13          O      -1.7944    3.2249    1.2440
    14          C       1.8541   -0.2529    1.3913
    15          C       2.5678    0.8748    0.7214
    16          H       3.5860    0.6014    0.4016
    17          H       2.6776    1.7425    1.3929
    18          H       2.0389    1.2308   -0.1729
    19          N       2.5702   -1.1038    2.1620
    20          O       3.8220   -1.0576    2.1809
    21          O       2.0139   -1.9978    2.8416
    22          H       2.1407   -1.3752   -0.2003
    23          C      -1.3641    0.7758   -2.6894
    24          N      -1.3128    0.8669   -4.0415
    25          C      -0.3062    0.1116   -4.7975
    26          C       0.8288   -0.4014   -3.9030
    27          N       0.2371   -1.1450   -2.7357
    28          C      -0.5746   -0.1929   -1.8884
    29          H      -2.0310    1.4374   -2.1532
    30          H      -1.6453    1.7189   -4.4859
    31          H       0.1157    0.7389   -5.6197
    32          H      -0.8221   -0.7430   -5.3047
    33          H       1.4998   -1.0848   -4.4773
    34          H       1.4658    0.4355   -3.5319
    35          H      -0.3688   -1.9201   -3.0824
    36          H      -1.2514   -0.7998   -1.2312
    37          H       0.1245    0.3654   -1.2124
    38          H       1.0279   -1.5963   -2.1351
    39          H       3.0159   -1.9552   -1.5679
    40          O       2.1478   -2.1646   -1.2111


    FIRST DERIVATIVES WILL BE USED IN THE CALCULATION OF SECOND DERIVATIVES

          ESTIMATED TIME TO COMPLETE CALCULATION =      467.81 SECONDS

    FOR POINT-GROUP C1   THERE ARE   1 UNIQUE SYMMETRY FUNCTIONS.

 STEP:   1 TIME =     0.48 SECS, INTEGRAL =      0.48 TIME LEFT:1209597.57
 STEP:   2 TIME =     0.32 SECS, INTEGRAL =      0.80 TIME LEFT:1209597.25
 STEP:   3 TIME =     0.29 SECS, INTEGRAL =      1.09 TIME LEFT:1209596.96
 STEP:   4 TIME =     0.24 SECS, INTEGRAL =      1.33 TIME LEFT:1209596.72
 STEP:   5 TIME =     0.20 SECS, INTEGRAL =      1.53 TIME LEFT:1209596.52
 STEP:   6 TIME =     0.19 SECS, INTEGRAL =      1.72 TIME LEFT:1209596.33
 STEP:   7 TIME =     0.39 SECS, INTEGRAL =      2.10 TIME LEFT:1209595.95
 STEP:   8 TIME =     0.36 SECS, INTEGRAL =      2.47 TIME LEFT:1209595.58
 STEP:   9 TIME =     0.43 SECS, INTEGRAL =      2.90 TIME LEFT:1209595.15
 STEP:  10 TIME =     0.36 SECS, INTEGRAL =      3.26 TIME LEFT:1209594.79
 STEP:  11 TIME =     0.61 SECS, INTEGRAL =      3.87 TIME LEFT:1209594.18
 STEP:  12 TIME =     0.70 SECS, INTEGRAL =      4.57 TIME LEFT:1209593.48
 STEP:  13 TIME =     0.73 SECS, INTEGRAL =      5.30 TIME LEFT:1209592.75
 STEP:  14 TIME =     0.28 SECS, INTEGRAL =      5.58 TIME LEFT:1209592.47
 STEP:  15 TIME =     0.29 SECS, INTEGRAL =      5.87 TIME LEFT:1209592.19
 STEP:  16 TIME =     0.30 SECS, INTEGRAL =      6.16 TIME LEFT:1209591.89
 STEP:  17 TIME =     0.35 SECS, INTEGRAL =      6.51 TIME LEFT:1209591.54
 STEP:  18 TIME =     0.33 SECS, INTEGRAL =      6.84 TIME LEFT:1209591.21
 STEP:  19 TIME =     0.33 SECS, INTEGRAL =      7.17 TIME LEFT:1209590.88
 STEP:  20 TIME =     0.31 SECS, INTEGRAL =      7.48 TIME LEFT:1209590.57
 STEP:  21 TIME =     0.48 SECS, INTEGRAL =      7.96 TIME LEFT:1209590.09
 STEP:  22 TIME =     0.51 SECS, INTEGRAL =      8.48 TIME LEFT:1209589.57
 STEP:  23 TIME =     0.28 SECS, INTEGRAL =      8.75 TIME LEFT:1209589.30
 STEP:  24 TIME =     0.18 SECS, INTEGRAL =      8.93 TIME LEFT:1209589.12
 STEP:  25 TIME =     0.24 SECS, INTEGRAL =      9.17 TIME LEFT:1209588.88
 STEP:  26 TIME =     0.19 SECS, INTEGRAL =      9.35 TIME LEFT:1209588.70
 STEP:  27 TIME =     0.22 SECS, INTEGRAL =      9.57 TIME LEFT:1209588.48
 STEP:  28 TIME =     0.19 SECS, INTEGRAL =      9.76 TIME LEFT:1209588.29
 STEP:  29 TIME =     0.20 SECS, INTEGRAL =      9.97 TIME LEFT:1209588.08
 STEP:  30 TIME =     0.25 SECS, INTEGRAL =     10.22 TIME LEFT:1209587.83
 STEP:  31 TIME =     0.21 SECS, INTEGRAL =     10.44 TIME LEFT:1209587.61
 STEP:  32 TIME =     0.36 SECS, INTEGRAL =     10.80 TIME LEFT:1209587.25
 STEP:  33 TIME =     0.34 SECS, INTEGRAL =     11.14 TIME LEFT:1209586.91
 STEP:  34 TIME =     0.37 SECS, INTEGRAL =     11.51 TIME LEFT:1209586.54
 STEP:  35 TIME =     0.39 SECS, INTEGRAL =     11.90 TIME LEFT:1209586.15
 STEP:  36 TIME =     0.35 SECS, INTEGRAL =     12.25 TIME LEFT:1209585.80
 STEP:  37 TIME =     0.21 SECS, INTEGRAL =     12.46 TIME LEFT:1209585.59
 STEP:  38 TIME =     0.25 SECS, INTEGRAL =     12.71 TIME LEFT:1209585.34
 STEP:  39 TIME =     0.28 SECS, INTEGRAL =     13.00 TIME LEFT:1209585.05
 STEP:  40 TIME =     0.32 SECS, INTEGRAL =     13.32 TIME LEFT:1209584.73
 STEP:  41 TIME =     0.27 SECS, INTEGRAL =     13.58 TIME LEFT:1209584.47
 STEP:  42 TIME =     0.33 SECS, INTEGRAL =     13.91 TIME LEFT:1209584.14
 STEP:  43 TIME =     0.26 SECS, INTEGRAL =     14.17 TIME LEFT:1209583.88
 STEP:  44 TIME =     0.28 SECS, INTEGRAL =     14.45 TIME LEFT:1209583.60
 STEP:  45 TIME =     0.19 SECS, INTEGRAL =     14.64 TIME LEFT:1209583.41
 STEP:  46 TIME =     0.25 SECS, INTEGRAL =     14.89 TIME LEFT:1209583.16
 STEP:  47 TIME =     0.17 SECS, INTEGRAL =     15.06 TIME LEFT:1209582.99
 STEP:  48 TIME =     0.23 SECS, INTEGRAL =     15.29 TIME LEFT:1209582.76
 STEP:  49 TIME =     0.26 SECS, INTEGRAL =     15.55 TIME LEFT:1209582.50
 STEP:  50 TIME =     0.21 SECS, INTEGRAL =     15.76 TIME LEFT:1209582.29
 STEP:  51 TIME =     0.22 SECS, INTEGRAL =     15.98 TIME LEFT:1209582.07
 STEP:  52 TIME =     0.25 SECS, INTEGRAL =     16.23 TIME LEFT:1209581.82
 STEP:  53 TIME =     0.25 SECS, INTEGRAL =     16.48 TIME LEFT:1209581.57
 STEP:  54 TIME =     0.18 SECS, INTEGRAL =     16.66 TIME LEFT:1209581.39
 STEP:  55 TIME =     0.21 SECS, INTEGRAL =     16.88 TIME LEFT:1209581.17
 STEP:  56 TIME =     0.25 SECS, INTEGRAL =     17.12 TIME LEFT:1209580.93
 STEP:  57 TIME =     0.20 SECS, INTEGRAL =     17.33 TIME LEFT:1209580.73
 STEP:  58 TIME =     0.21 SECS, INTEGRAL =     17.54 TIME LEFT:1209580.51
 STEP:  59 TIME =     0.62 SECS, INTEGRAL =     18.16 TIME LEFT:1209579.89
 STEP:  60 TIME =     0.36 SECS, INTEGRAL =     18.52 TIME LEFT:1209579.53
 STEP:  61 TIME =     0.38 SECS, INTEGRAL =     18.90 TIME LEFT:1209579.15
 STEP:  62 TIME =     0.35 SECS, INTEGRAL =     19.25 TIME LEFT:1209578.80
 STEP:  63 TIME =     0.54 SECS, INTEGRAL =     19.80 TIME LEFT:1209578.25
 STEP:  64 TIME =     0.54 SECS, INTEGRAL =     20.34 TIME LEFT:1209577.71
 STEP:  65 TIME =     0.47 SECS, INTEGRAL =     20.81 TIME LEFT:1209577.24
 STEP:  66 TIME =     0.58 SECS, INTEGRAL =     21.38 TIME LEFT:1209576.67
 STEP:  67 TIME =     0.55 SECS, INTEGRAL =     21.93 TIME LEFT:1209576.12
 STEP:  68 TIME =     0.53 SECS, INTEGRAL =     22.46 TIME LEFT:1209575.59
 STEP:  69 TIME =     0.50 SECS, INTEGRAL =     22.96 TIME LEFT:1209575.09
 STEP:  70 TIME =     0.51 SECS, INTEGRAL =     23.48 TIME LEFT:1209574.58
 STEP:  71 TIME =     0.50 SECS, INTEGRAL =     23.98 TIME LEFT:1209574.07
 STEP:  72 TIME =     0.50 SECS, INTEGRAL =     24.48 TIME LEFT:1209573.57
 STEP:  73 TIME =     0.44 SECS, INTEGRAL =     24.92 TIME LEFT:1209573.13
 STEP:  74 TIME =     0.32 SECS, INTEGRAL =     25.24 TIME LEFT:1209572.81
 STEP:  75 TIME =     0.79 SECS, INTEGRAL =     26.03 TIME LEFT:1209572.02
 STEP:  76 TIME =     0.38 SECS, INTEGRAL =     26.41 TIME LEFT:1209571.64
 STEP:  77 TIME =     0.49 SECS, INTEGRAL =     26.90 TIME LEFT:1209571.15
 STEP:  78 TIME =     0.49 SECS, INTEGRAL =     27.40 TIME LEFT:1209570.65
 STEP:  79 TIME =     0.50 SECS, INTEGRAL =     27.90 TIME LEFT:1209570.16
 STEP:  80 TIME =     0.45 SECS, INTEGRAL =     28.34 TIME LEFT:1209569.71
 STEP:  81 TIME =     0.50 SECS, INTEGRAL =     28.84 TIME LEFT:1209569.21
 STEP:  82 TIME =     0.52 SECS, INTEGRAL =     29.37 TIME LEFT:1209568.68
 STEP:  83 TIME =     0.56 SECS, INTEGRAL =     29.92 TIME LEFT:1209568.13
 STEP:  84 TIME =     0.46 SECS, INTEGRAL =     30.38 TIME LEFT:1209567.67
 STEP:  85 TIME =     0.67 SECS, INTEGRAL =     31.06 TIME LEFT:1209566.99
 STEP:  86 TIME =     0.68 SECS, INTEGRAL =     31.74 TIME LEFT:1209566.31
 STEP:  87 TIME =     0.50 SECS, INTEGRAL =     32.25 TIME LEFT:1209565.81
 STEP:  88 TIME =     0.27 SECS, INTEGRAL =     32.51 TIME LEFT:1209565.54
 STEP:  89 TIME =     0.24 SECS, INTEGRAL =     32.76 TIME LEFT:1209565.30
 STEP:  90 TIME =     0.22 SECS, INTEGRAL =     32.97 TIME LEFT:1209565.08
 STEP:  91 TIME =     0.27 SECS, INTEGRAL =     33.24 TIME LEFT:1209564.81
 STEP:  92 TIME =     0.27 SECS, INTEGRAL =     33.52 TIME LEFT:1209564.54
 STEP:  93 TIME =     0.19 SECS, INTEGRAL =     33.70 TIME LEFT:1209564.35
 STEP:  94 TIME =     0.22 SECS, INTEGRAL =     33.92 TIME LEFT:1209564.13
 STEP:  95 TIME =     0.22 SECS, INTEGRAL =     34.15 TIME LEFT:1209563.90
 STEP:  96 TIME =     0.30 SECS, INTEGRAL =     34.45 TIME LEFT:1209563.60
 STEP:  97 TIME =     0.22 SECS, INTEGRAL =     34.67 TIME LEFT:1209563.38
 STEP:  98 TIME =     0.35 SECS, INTEGRAL =     35.03 TIME LEFT:1209563.03
 STEP:  99 TIME =     0.52 SECS, INTEGRAL =     35.54 TIME LEFT:1209562.51
 STEP: 100 TIME =     0.46 SECS, INTEGRAL =     36.01 TIME LEFT:1209562.04
 STEP: 101 TIME =     0.19 SECS, INTEGRAL =     36.20 TIME LEFT:1209561.85
 STEP: 102 TIME =     0.25 SECS, INTEGRAL =     36.45 TIME LEFT:1209561.61
 STEP: 103 TIME =     0.33 SECS, INTEGRAL =     36.78 TIME LEFT:1209561.28
 STEP: 104 TIME =     0.69 SECS, INTEGRAL =     37.47 TIME LEFT:1209560.58
 STEP: 105 TIME =     0.72 SECS, INTEGRAL =     38.19 TIME LEFT:1209559.86
 STEP: 106 TIME =     0.61 SECS, INTEGRAL =     38.80 TIME LEFT:1209559.25
