 *******************************************************************************
 **                                                                           **
 **                              MOPAC v22.0.6                                **
 **                                                                           **
 *******************************************************************************
 **          Digital Object Identifier (DOI): 10.5281/zenodo.6511958          **
 **    Visit the DOI location for information on how to cite this program.    **
 *******************************************************************************

                              PM7 CALCULATION RESULTS

 *******************************************************************************
 *  CALCULATION DONE:                                Mon Mar 25 22:41:51 2024  *
 *  PM7        - The PM7 Hamiltonian to be used
 *  SINGLET    - SPIN STATE DEFINED AS A SINGLET
 *
 *
 *
 *                 CHARGE ON SYSTEM = 0
 *
 *
 *
 *  EPS=78.4   - USE ANDREAS KLAMT'S COSMO IMPLICIT SOLVATION MODEL
 *  SADDLE     - TRANSITION STATE TO BE OPTIMIZED
 *  T=         - A TIME OF 14.0 DAYS REQUESTED
 *  DUMP=N     - RESTART FILE WRITTEN EVERY 30.0 MINUTES REQUESTED
 *  RELSCF     - DEFAULT SCF CRITERION MULTIPLIED BY 1.0000
 *              (DEFAULT SCF CRITERION = 0.00010)
 *  ITRY=      - DO A MAXIMUM OF 15000 ITERATIONS FOR SCF
 *  AUX        - OUTPUT AUXILIARY INFORMATION
 *  BONDS      - FINAL BOND-ORDER MATRIX TO BE PRINTED
 *******************************************************************************
SADDLE PM7 BONDS AUX DUMP=30M ITRY=15000 T=14D CHARGE=0 SINGLET eps=78.4 RELSCF=1


   ATOM   CHEMICAL          X               Y               Z
  NUMBER   SYMBOL      (ANGSTROMS)     (ANGSTROMS)     (ANGSTROMS)

     1       C          1.99166212  *   2.64948521  *   2.19207050  *
     2       C          2.20482700  *   1.28470641  *   2.00297386  *
     3       C          1.14812813  *   0.44631417  *   1.64201395  *
     4       C         -0.13085538  *   0.97489115  *   1.45381703  *
     5       C         -0.30963471  *   2.33617237  *   1.64776830  *
     6       C          0.71955357  *   3.19188644  *   2.01650875  *
     7       H          2.82438194  *   3.29733246  *   2.47984229  *
     8       H          3.20989243  *   0.87426445  *   2.14041779  *
     9       H         -0.96253418  *   0.32759412  *   1.15933716  *
    10      Cl         -1.88174070  *   2.98717368  *   1.41784840  *
    11       H          0.55117238  *   4.26106133  *   2.16615722  *
    12       C          1.40466645  *  -1.02877953  *   1.47778345  *
    13       C          0.44365582  *  -1.88397369  *   2.29332204  *
    14       H          0.64349267  *  -2.95918875  *   2.17693432  *
    15       H         -0.61070777  *  -1.71504644  *   2.03479531  *
    16       H          0.55673650  *  -1.65808785  *   3.36753338  *
    17       N          1.25358148  *  -1.36816984  *   0.02073952  *
    18       O          2.25192188  *  -1.69567241  *  -0.60054777  *
    19       O          0.15225556  *  -1.29941230  *  -0.49873094  *
    20       N          5.74974523  *  -0.00721541  *   3.22343402  *
    21       C          6.24449034  *  -1.28586284  *   2.65587255  *
    22       C          7.71659634  *  -1.21005867  *   2.21341074  *
    23       C          7.90279482  *  -0.06744940  *   1.20750200  *
    24       C          7.38916293  *   1.25338850  *   1.79402083  *
    25       C          5.92524793  *   1.09317807  *   2.24468541  *
    26       H          2.46990561  *  -1.28597762  *   1.77588494  *
    27       H          6.10791651  *  -2.07996576  *   3.42043072  *
    28       H          5.59894006  *  -1.55633832  *   1.79113744  *
    29       H          8.03069360  *  -2.17235162  *   1.76984132  *
    30       H          8.37003818  *  -1.05405723  *   3.09152543  *
    31       H          8.96867423  *   0.02659596  *   0.92986225  *
    32       H          7.36373305  *  -0.29853584  *   0.26861665  *
    33       H          7.47091076  *   2.06608218  *   1.04952840  *
    34       H          8.01949818  *   1.56153076  *   2.64829916  *
    35       H          5.55580390  *   2.03302830  *   2.70805601  *
    36       H          5.28093063  *   0.88675932  *   1.36150234  *
    37       H          6.26235262  *   0.21214302  *   4.08485364  *
    38       H          2.60878223  *  -0.13246504  *   4.33239022  *
    39       H          3.94725146  *  -0.56883844  *   3.71718987  *
    40       O          3.05217194  *  -0.88962496  *   3.94839666  *



          CARTESIAN COORDINATES 

    NO.       ATOM           X           Y           Z

     1         C          1.9917      2.6495      2.1921
     2         C          2.2048      1.2847      2.0030
     3         C          1.1481      0.4463      1.6420
     4         C         -0.1309      0.9749      1.4538
     5         C         -0.3096      2.3362      1.6478
     6         C          0.7196      3.1919      2.0165
     7         H          2.8244      3.2973      2.4798
     8         H          3.2099      0.8743      2.1404
     9         H         -0.9625      0.3276      1.1593
    10        Cl         -1.8817      2.9872      1.4178
    11         H          0.5512      4.2611      2.1662
    12         C          1.4047     -1.0288      1.4778
    13         C          0.4437     -1.8840      2.2933
    14         H          0.6435     -2.9592      2.1769
    15         H         -0.6107     -1.7150      2.0348
    16         H          0.5567     -1.6581      3.3675
    17         N          1.2536     -1.3682      0.0207
    18         O          2.2519     -1.6957     -0.6005
    19         O          0.1523     -1.2994     -0.4987
    20         N          5.7497     -0.0072      3.2234
    21         C          6.2445     -1.2859      2.6559
    22         C          7.7166     -1.2101      2.2134
    23         C          7.9028     -0.0674      1.2075
    24         C          7.3892      1.2534      1.7940
    25         C          5.9252      1.0932      2.2447
    26         H          2.4699     -1.2860      1.7759
    27         H          6.1079     -2.0800      3.4204
    28         H          5.5989     -1.5563      1.7911
    29         H          8.0307     -2.1724      1.7698
    30         H          8.3700     -1.0541      3.0915
    31         H          8.9687      0.0266      0.9299
    32         H          7.3637     -0.2985      0.2686
    33         H          7.4709      2.0661      1.0495
    34         H          8.0195      1.5615      2.6483
    35         H          5.5558      2.0330      2.7081
    36         H          5.2809      0.8868      1.3615
    37         H          6.2624      0.2121      4.0849
    38         H          2.6088     -0.1325      4.3324
    39         H          3.9473     -0.5688      3.7172
    40         O          3.0522     -0.8896      3.9484

 General Reference for PM7:
 "Optimization of Parameters for Semiempirical Methods VI: More Modifications to the 
 NDDO Approximations and Re-optimization of Parameters", J. J. P. Stewart, J. Mol. Mod., 1:32, 19 (2013)
 https://link.springer.com/article/10.1007/s00894-012-1667-x

           Empirical Formula: C13 H21 N2 O3 Cl  =    40 atoms



      MOLECULAR POINT GROUP   :   C1  


 SINGLET STATE CALCULATION


      RHF CALCULATION, NO. OF DOUBLY OCCUPIED LEVELS = 54



  CARTESIAN GEOMETRY OF FIRST SYSTEM


   1    C          2.14277       2.64528      -1.21665
   2    C          2.27793       1.39360      -0.62243
   3    C          1.39734       0.34468      -0.93705
   4    C          0.36233       0.58490      -1.85360
   5    C          0.27021       1.83593      -2.43772
   6    C          1.13040       2.88447      -2.14633
   7    H          2.84205       3.44488      -0.96398
   8    H          3.08616       1.22630       0.09066
   9    H         -0.33777      -0.21494      -2.10504
  10   Cl         -0.96746       2.08815      -3.60703
  11    H          1.03526       3.85861      -2.62277
  12    C          1.55919      -0.95994      -0.32451
  13    C          1.83370      -1.05093       1.13775
  14    H          2.28379      -2.01372       1.42379
  15    H          0.90938      -0.93625       1.72604
  16    H          2.52954      -0.27008       1.47726
  17    N          1.39260      -2.08516      -1.03567
  18    O          1.48486      -3.22019      -0.49657
  19    O          1.19589      -2.05821      -2.27961
  20    N          4.10261      -0.45240      -4.00792
  21    C          3.95328      -1.69796      -4.85661
  22    C          3.55792      -1.31589      -6.28345
  23    C          2.24550      -0.52558      -6.28342
  24    C          2.38179       0.71526      -5.39585
  25    C          2.79791       0.31118      -3.98268
  26    H          3.74412      -1.39030      -0.97598
  27    H          4.91927      -2.25342      -4.84226
  28    H          3.18460      -2.36059      -4.39312
  29    H          3.46159      -2.23266      -6.90077
  30    H          4.36205      -0.72756      -6.76957
  31    H          1.97670      -0.22966      -7.31570
  32    H          1.41011      -1.16313      -5.93073
  33    H          1.42477       1.27397      -5.35882
  34    H          3.11202       1.42573      -5.83228
  35    H          2.92355       1.20631      -3.33100
  36    H          2.01470      -0.33817      -3.51046
  37    H          4.86368       0.15013      -4.38929
  38    H          4.95106      -0.45695      -0.77029
  39    H          4.37821      -0.71511      -3.02397
  40    O          4.62142      -1.18010      -1.32217


  CARTESIAN GEOMETRY OF SECOND SYSTEM


   1    C          1.34217       2.50285      -1.78460
   2    C          1.61400       1.13647      -1.73047
   3    C          1.16328       0.36685      -0.65607
   4    C          0.42234       0.96144       0.36769
   5    C          0.16732       2.32179       0.28358
   6    C          0.61116       3.11366      -0.76685
   7    H          1.70384       3.09841      -2.62747
   8    H          2.18549       0.67040      -2.53898
   9    H          0.05480       0.36405       1.20760
  10   Cl         -0.74251       3.05432       1.54206
  11    H          0.39910       4.18476      -0.80754
  12    C          1.50206      -1.10007      -0.61080
  13    C          2.14958      -1.51051       0.70535
  14    H          2.40380      -2.58031       0.72727
  15    H          1.51805      -1.30405       1.58034
  16    H          3.09530      -0.96007       0.84801
  17    N          0.22903      -1.87786      -0.79905
  18    O          0.09101      -2.51505      -1.83099
  19    O         -0.62642      -1.84504       0.06964
  20    N          4.25121      -0.11965      -4.41232
  21    C          4.25216      -1.56555      -4.74579
  22    C          4.32410      -1.82644      -6.26084
  23    C          3.16773      -1.11161      -6.97070
  24    C          3.16610       0.38241      -6.62377
  25    C          3.12726       0.56596      -5.09517
  26    H          2.19694      -1.37750      -1.46516
  27    H          5.11251      -2.03992      -4.22754
  28    H          3.32970      -2.02144      -4.32285
  29    H          4.29053      -2.91264      -6.46199
  30    H          5.29241      -1.47428      -6.66179
  31    H          3.24772      -1.24980      -8.06456
  32    H          2.20321      -1.56850      -6.67667
  33    H          2.30048       0.88770      -7.08940
  34    H          4.06380       0.87203      -7.04385
  35    H          3.16631       1.64468      -4.83179
  36    H          2.17113       0.16380      -4.69286
  37    H          5.14017       0.30413      -4.70057
  38    H          4.23661       0.52538      -1.14202
  39    H          4.24734      -0.25473      -2.46554
  40    O          4.24419      -0.36561      -1.49332


   "DISTANCE":    11.027429


  REACTION COORDINATE VECTOR


   1    C          0.80060       0.14243       0.56795
   2    C          0.66393       0.25713       1.10804
   3    C          0.23406      -0.02217      -0.28098
   4    C         -0.06000      -0.37655      -2.22129
   5    C          0.10289      -0.48586      -2.72130
   6    C          0.51924      -0.22920      -1.37948
   7    H          1.13821       0.34647       1.66349
   8    H          0.90067       0.55590       2.62963
   9    H         -0.39257      -0.57899      -3.31264
  10   Cl         -0.22495      -0.96617      -5.14909
  11    H          0.63616      -0.32615      -1.81523
  12    C          0.05714       0.14014       0.28630
  13    C         -0.31587       0.45959       0.43240
  14    H         -0.12002       0.56659       0.69652
  15    H         -0.60866       0.36781       0.14570
  16    H         -0.56576       0.68999       0.62925
  17    N          1.16357      -0.20730      -0.23661
  18    O          1.39384      -0.70514       1.33442
  19    O          1.82231      -0.21318      -2.34925
  20    N         -0.14860      -0.33275       0.40440
  21    C         -0.29888      -0.13241      -0.11081
  22    C         -0.76618       0.51055      -0.02261
  23    C         -0.92223       0.58603       0.68728
  24    C         -0.78431       0.33285       1.22792
  25    C         -0.32935      -0.25478       1.11249
  26    H          1.54717      -0.01280       0.48917
  27    H         -0.19324      -0.21351      -0.61472
  28    H         -0.14510      -0.33915      -0.07027
  29    H         -0.82894       0.67999      -0.43878
  30    H         -0.93037       0.74671      -0.10778
  31    H         -1.27102       1.02014       0.74887
  32    H         -0.79310       0.40537       0.74594
  33    H         -0.87571       0.38626       1.73058
  34    H         -0.95178       0.55370       1.21158
  35    H         -0.24276      -0.43837       1.50080
  36    H         -0.15644      -0.50197       1.18240
  37    H         -0.27650      -0.15400       0.31128
  38    H          0.71446      -0.98234       0.37174
  39    H          0.13088      -0.46038      -0.55842
  40    O          0.37723      -0.81449       0.17114
 *+*+*+*+*+*+*+*+*+*+*+*+*+*+*+*+*+*+*+*+*+*+*+*+*+*+*+*+*+*+*+*+*+*+*+*+*+*+*+*+
            BAR SHORTENED BY       0.000 PERCENT
 GRADIENT CRITERION IN FLEPO =     1.000
  SCF CRITERION =    0.1000E-03
           THERE HAVE BEEN 3 ATTEMPTS TO REDUCE THE GRADIENT.
           DURING THESE ATTEMPTS THE ENERGY DROPPED BY LESS THAN 0.3 KCAL/MOLE
           FURTHER CALCULATION IS NOT JUSTIFIED AT THIS TIME.
           TO CONTINUE, START AGAIN WITH THE WORD "PRECISE"


          FOR POINT    1 SECOND STRUCTURE
 DISTANCE A - B     11.027429
 HEAT             -116.925353
 GRADIENT NORM       3.096902
 DIRECTION COSINE    0.000013
* ===============================
* Input file for Mopac
* ===============================
 PM7 BONDS AUX DUMP=30M ITRY=15000 T=14D CHARGE=0 SINGLET eps=78.4 RELSCF=1


  C     0.00000000 +0    0.0000000 +0    0.0000000 +0     0     0     0
  C     1.39099584 +1    0.0000000 +0    0.0000000 +0     1     0     0
  C     1.40385742 +1  121.0058291 +1    0.0000000 +0     2     1     0
  C     1.40389647 +1  118.7962448 +1   -0.7475450 +1     3     2     1
  C     1.38473170 +1  118.5342855 +1    1.5875190 +1     4     3     2
  C     1.38548095 +1  123.6428978 +1   -1.4308099 +1     5     4     3
  H     1.09225503 +1  119.8845836 +1 -179.6291009 +1     1     2     3
  H     1.09146295 +1  119.2569095 +1  179.4506120 +1     2     1     3
  H     1.09177049 +1  119.9573985 +1 -179.6030543 +1     4     3     2
 Cl     1.72176375 +1  117.7858741 +1  177.5895557 +1     5     4     3
  H     1.08910634 +1  122.0199496 +1  179.9137961 +1     6     5     4
  C     1.45179186 +1  120.5119229 +1  179.1587170 +1     3     2     1
  C     1.49089036 +1  119.2318818 +1   44.3294954 +1    12     3     2
  H     1.10004861 +1  112.4277569 +1 -159.6834365 +1    13    12     3
  H     1.10068046 +1  111.2862500 +1   80.1864578 +1    13    12     3
  H     1.09943175 +1  112.0582134 +1  -39.6600972 +1    13    12     3
  N     1.33999914 +1  121.1028665 +1 -139.3784487 +1    12     3     2
  O     1.26188118 +1  121.2390954 +1 -177.4666757 +1    17    12     3
  O     1.25854919 +1  121.7359381 +1    5.6494843 +1    17    12     3
  N     3.74449283 +1  110.0685770 +1   60.7132124 +1    19    17    12
  C     1.51443052 +1   80.1815414 +1  131.1835390 +1    20    19    17
  C     1.52892376 +1  110.0453726 +1  115.2896607 +1    21    20    19
  C     1.53201788 +1  110.5324480 +1  -58.4109555 +1    22    21    20
  C     1.53173735 +1  110.0425306 +1   56.8125406 +1    23    22    21
  C     1.51225675 +1   62.5558635 +1 -110.2323062 +1    20    19    17
  H     2.32062309 +1   98.8947762 +1  -56.6516580 +1    12     3     2
  H     1.11433019 +1  108.4936859 +1 -122.9310826 +1    21    20    19
  H     1.11597691 +1  108.9071210 +1   -6.5398774 +1    21    20    19
  H     1.10976378 +1  109.6551108 +1  179.8338319 +1    22    21    20
  H     1.10632264 +1  110.6974335 +1   64.4768765 +1    22    21    20
  H     1.10691878 +1  110.2425893 +1  178.5906466 +1    23    22    21
  H     1.10854321 +1  110.3856430 +1  -65.2843633 +1    23    22    21
  H     1.10837173 +1  110.5093319 +1 -177.8127482 +1    24    23    22
  H     1.10925609 +1  110.5284705 +1   66.4485113 +1    24    23    22
  H     1.11500728 +1  108.4689318 +1  111.6460318 +1    25    20    19
  H     1.12196380 +1  108.5319505 +1   -4.7165721 +1    25    20    19
  H     1.04232569 +1  169.5180019 +1  -62.9261734 +1    20    19    17
  H     1.53853169 +1  125.9781680 +1   51.5663201 +1    26    12     3
  H     1.05468762 +1   70.2425937 +1   15.5797782 +1    20    19    17
  O     0.96676767 +1  156.0148293 +1   13.1775177 +1    26    12     3

 TIME=    12.67
  REACTANTS AND PRODUCTS SWAPPED AROUND
 *+*+*+*+*+*+*+*+*+*+*+*+*+*+*+*+*+*+*+*+*+*+*+*+*+*+*+*+*+*+*+*+*+*+*+*+*+*+*+*+
            BAR SHORTENED BY       1.000 PERCENT
 GRADIENT CRITERION IN FLEPO =     1.000
 

                    SINCE COS WAS JUST RESET,THE SEARCH IS BEING ENDED


          FOR POINT    2 FIRST  STRUCTURE
 DISTANCE A - B     10.917155
 HEAT             -102.160430
 GRADIENT NORM      10.699361
 DIRECTION COSINE    0.089190
* ===============================
* Input file for Mopac
* ===============================
 PM7 BONDS AUX DUMP=30M ITRY=15000 T=14D CHARGE=0 SINGLET eps=78.4 RELSCF=1


  C     0.00000000 +0    0.0000000 +0    0.0000000 +0     0     0     0
  C     1.39339910 +1    0.0000000 +0    0.0000000 +0     1     0     0
  C     1.39594738 +1  120.6397808 +1    0.0000000 +0     2     1     0
  C     1.39656654 +1  119.7556491 +1    0.4901054 +1     3     2     1
  C     1.38686203 +1  118.2323702 +1   -0.1361495 +1     4     3     2
  C     1.38884985 +1  123.1890307 +1   -0.6693807 +1     5     4     3
  H     1.09295387 +1  120.2159406 +1  179.7801739 +1     1     2     3
  H     1.09344305 +1  119.5933344 +1  179.4527443 +1     2     1     3
  H     1.09354968 +1  120.0670420 +1  178.4959974 +1     4     3     2
 Cl     1.71150767 +1  118.5040800 +1  179.6176090 +1     5     4     3
  H     1.09172545 +1  122.1056727 +1 -179.6647634 +1     6     5     4
  C     1.50424606 +1  119.3129432 +1 -178.4563122 +1     3     2     1
  C     1.52309600 +1  112.5621480 +1  127.3600278 +1    12     3     2
  H     1.09914697 +1  112.1758873 +1 -179.6806358 +1    13    12     3
  H     1.10029632 +1  113.1593738 +1   58.6590892 +1    13    12     3
  H     1.10326511 +1  109.5941258 +1  -61.0807968 +1    13    12     3
  N     1.50208939 +1  107.8210447 +1 -112.4813919 +1    12     3     2
  O     1.22102322 +1  118.2620374 +1  112.6082485 +1    17    12     3
  O     1.22237668 +1  119.2531182 +1  -67.3268611 +1    17    12     3
  N     2.88317060 +1  165.2704022 +1   64.6490757 +1     8     2     1
  C     1.48387623 +1  114.6428413 +1  142.6597310 +1    20     8     2
  C     1.53904165 +1  112.6297146 +1  131.0583142 +1    21    20     8
  C     1.53544584 +1  110.0800363 +1  -56.1497662 +1    22    21    20
  C     1.53404230 +1  110.3687831 +1   54.9891070 +1    23    22    21
  C     1.48353215 +1   68.0771526 +1 -114.2333480 +1    20     8     2
  H     1.13441841 +1  110.7564981 +1    5.1202237 +1    12     3     2
  H     1.11132304 +1  108.1716380 +1 -106.5127439 +1    21    20     8
  H     1.11251054 +1  108.1852257 +1    8.9801404 +1    21    20     8
  H     1.10333335 +1  110.1365708 +1 -178.1162833 +1    22    21    20
  H     1.10819626 +1  110.0520873 +1   65.5197086 +1    22    21    20
  H     1.10507020 +1  109.9346399 +1  176.8978511 +1    23    22    21
  H     1.10453793 +1  110.0242900 +1  -66.6487186 +1    23    22    21
  H     1.10635603 +1  110.3586664 +1 -177.0916670 +1    24    23    22
  H     1.10444394 +1  110.2977433 +1   66.4382996 +1    24    23    22
  H     1.11242020 +1  108.0735011 +1   71.0132627 +1    25    20     8
  H     1.11216645 +1  108.5697283 +1  -44.8985959 +1    25    20     8
  H     1.02717316 +1  133.3194677 +1  -17.5532557 +1    20     8     2
  H     2.48463038 +1   92.7169622 +1  105.0643113 +1     8     2     1
  H     1.53780807 +1   63.2252748 +1  168.7367852 +1    38     8     2
  O     0.95819550 +1   81.7033702 +1  133.7904928 +1    38     8     2

 TIME=     7.83
  REACTANTS AND PRODUCTS SWAPPED AROUND
 *+*+*+*+*+*+*+*+*+*+*+*+*+*+*+*+*+*+*+*+*+*+*+*+*+*+*+*+*+*+*+*+*+*+*+*+*+*+*+*+
            BAR SHORTENED BY       1.000 PERCENT
 GRADIENT CRITERION IN FLEPO =     7.699


          FOR POINT    3 SECOND STRUCTURE
 DISTANCE A - B     10.807983
 HEAT             -116.637318
 GRADIENT NORM      19.436315
 DIRECTION COSINE   -0.070218
* ===============================
* Input file for Mopac
* ===============================
 PM7 BONDS AUX DUMP=30M ITRY=15000 T=14D CHARGE=0 SINGLET eps=78.4 RELSCF=1


  C     0.00000000 +0    0.0000000 +0    0.0000000 +0     0     0     0
  C     1.39057040 +1    0.0000000 +0    0.0000000 +0     1     0     0
  C     1.39997358 +1  121.5735323 +1    0.0000000 +0     2     1     0
  C     1.40402923 +1  118.2160592 +1   -0.6546640 +1     3     2     1
  C     1.38346675 +1  118.5456676 +1    1.3833646 +1     4     3     2
  C     1.38258140 +1  124.2674220 +1   -1.1373339 +1     5     4     3
  H     1.08779390 +1  120.4695653 +1 -179.1007678 +1     1     2     3
  H     1.08690804 +1  119.3079394 +1  179.0837900 +1     2     1     3
  H     1.08822575 +1  119.2385281 +1 -179.3802754 +1     4     3     2
 Cl     1.72983370 +1  117.5130319 +1  178.6145448 +1     5     4     3
  H     1.08708399 +1  122.8899823 +1 -179.7594470 +1     6     5     4
  C     1.44432471 +1  120.8398354 +1  179.4654151 +1     3     2     1
  C     1.48963867 +1  119.5021830 +1   44.5236543 +1    12     3     2
  H     1.10111427 +1  112.3495697 +1 -159.8972104 +1    13    12     3
  H     1.09866220 +1  111.1826301 +1   79.9773103 +1    13    12     3
  H     1.09891883 +1  112.0969365 +1  -39.8121470 +1    13    12     3
  N     1.33827559 +1  120.9381950 +1 -139.5274937 +1    12     3     2
  O     1.26118103 +1  121.8102288 +1 -177.6236504 +1    17    12     3
  O     1.25481230 +1  121.6255297 +1    5.2976051 +1    17    12     3
  N     3.76838203 +1  109.5233875 +1   61.1770614 +1    19    17    12
  C     1.51583808 +1   80.2767273 +1  130.1125105 +1    20    19    17
  C     1.53276615 +1  109.8746651 +1  115.5001079 +1    21    20    19
  C     1.52949384 +1  110.4323063 +1  -58.5381715 +1    22    21    20
  C     1.53232215 +1  109.9818731 +1   56.8973366 +1    23    22    21
  C     1.51031608 +1   62.6425456 +1 -111.2491840 +1    20    19    17
  H     2.31226302 +1   98.7696549 +1  -56.6847638 +1    12     3     2
  H     1.11143162 +1  108.5102769 +1 -122.9130322 +1    21    20    19
  H     1.11539210 +1  109.1208243 +1   -6.3018232 +1    21    20    19
  H     1.11027666 +1  109.5709196 +1  179.5629783 +1    22    21    20
  H     1.10407546 +1  110.7210127 +1   64.3247880 +1    22    21    20
  H     1.10645282 +1  110.3146169 +1  178.6457784 +1    23    22    21
  H     1.10860405 +1  110.3522243 +1  -65.1870619 +1    23    22    21
  H     1.11008250 +1  110.5812166 +1 -177.8733675 +1    24    23    22
  H     1.10874072 +1  110.4579383 +1   66.3507521 +1    24    23    22
  H     1.11348806 +1  108.5864563 +1  111.5876338 +1    25    20    19
  H     1.12292910 +1  108.6885186 +1   -5.0738898 +1    25    20    19
  H     1.04103134 +1  169.3389484 +1  -62.8025912 +1    20    19    17
  H     1.53919759 +1  125.3811143 +1   51.8300456 +1    26    12     3
  H     1.05759120 +1   70.2399348 +1   14.6532885 +1    20    19    17
  O     0.96484484 +1  156.2524503 +1   15.3253512 +1    26    12     3

 *+*+*+*+*+*+*+*+*+*+*+*+*+*+*+*+*+*+*+*+*+*+*+*+*+*+*+*+*+*+*+*+*+*+*+*+*+*+*+*+
            BAR SHORTENED BY       1.000 PERCENT
 GRADIENT CRITERION IN FLEPO =    10.000


          FOR POINT    4 SECOND STRUCTURE
 DISTANCE A - B     10.699903
 HEAT             -116.149484
 GRADIENT NORM      19.423896
 DIRECTION COSINE    0.053771
* ===============================
* Input file for Mopac
* ===============================
 PM7 BONDS AUX DUMP=30M ITRY=15000 T=14D CHARGE=0 SINGLET eps=78.4 RELSCF=1


  C     0.00000000 +0    0.0000000 +0    0.0000000 +0     0     0     0
  C     1.39164895 +1    0.0000000 +0    0.0000000 +0     1     0     0
  C     1.40471021 +1  121.1447087 +1    0.0000000 +0     2     1     0
  C     1.39913917 +1  118.2157955 +1   -0.6296878 +1     3     2     1
  C     1.38651460 +1  118.8884804 +1    1.5710699 +1     4     3     2
  C     1.38601258 +1  123.9634925 +1   -1.7207101 +1     5     4     3
  H     1.09198815 +1  120.3632566 +1 -178.8892303 +1     1     2     3
  H     1.09318397 +1  119.6877759 +1  178.4046420 +1     2     1     3
  H     1.08910474 +1  118.7674623 +1 -178.8097871 +1     4     3     2
 Cl     1.72170237 +1  118.6604908 +1  179.8876277 +1     5     4     3
  H     1.09212649 +1  123.0909718 +1 -178.7488199 +1     6     5     4
  C     1.45022107 +1  120.2425061 +1  179.8358083 +1     3     2     1
  C     1.49770276 +1  119.8857071 +1   44.7419451 +1    12     3     2
  H     1.10788230 +1  112.1316650 +1 -160.6072375 +1    13    12     3
  H     1.10232631 +1  110.5189091 +1   79.7422317 +1    13    12     3
  H     1.10146803 +1  112.0922011 +1  -39.8584521 +1    13    12     3
  N     1.34131794 +1  119.9401039 +1 -140.0332858 +1    12     3     2
  O     1.26067762 +1  121.7590964 +1 -178.1281995 +1    17    12     3
  O     1.26037712 +1  121.2970692 +1    5.2852987 +1    17    12     3
  N     3.78892039 +1  109.0254603 +1   61.8560037 +1    19    17    12
  C     1.51414105 +1   80.6022448 +1  128.6224770 +1    20    19    17
  C     1.52905652 +1  110.1650310 +1  115.4224412 +1    21    20    19
  C     1.53119618 +1  110.5869340 +1  -58.5543752 +1    22    21    20
  C     1.53030070 +1  109.8234543 +1   56.8873930 +1    23    22    21
  C     1.51056579 +1   62.4980316 +1 -113.1787303 +1    20    19    17
  H     2.29674171 +1   98.4596136 +1  -57.0079797 +1    12     3     2
  H     1.11320391 +1  108.2870676 +1 -122.7375799 +1    21    20    19
  H     1.11922319 +1  108.7524590 +1   -6.6915706 +1    21    20    19
  H     1.10866625 +1  108.9102240 +1  178.9334816 +1    22    21    20
  H     1.10964048 +1  110.7107668 +1   64.4798824 +1    22    21    20
  H     1.10705010 +1  109.8766597 +1  178.6251579 +1    23    22    21
  H     1.11073304 +1  110.0389286 +1  -65.1297015 +1    23    22    21
  H     1.10897897 +1  110.5695023 +1 -177.6023302 +1    24    23    22
  H     1.10992626 +1  110.4024984 +1   66.0935312 +1    24    23    22
  H     1.11148000 +1  108.4503155 +1  111.6348023 +1    25    20    19
  H     1.12169332 +1  108.5985896 +1   -5.1410072 +1    25    20    19
  H     1.04354610 +1  169.0718357 +1  -65.3762721 +1    20    19    17
  H     1.53996447 +1  124.8116341 +1   52.8741714 +1    26    12     3
  H     1.05747082 +1   70.2350395 +1   12.9959578 +1    20    19    17
  O     0.96643240 +1  156.5511454 +1   18.9453693 +1    26    12     3

 *+*+*+*+*+*+*+*+*+*+*+*+*+*+*+*+*+*+*+*+*+*+*+*+*+*+*+*+*+*+*+*+*+*+*+*+*+*+*+*+
            BAR SHORTENED BY       1.000 PERCENT
 GRADIENT CRITERION IN FLEPO =    10.000


          FOR POINT    5 SECOND STRUCTURE
 DISTANCE A - B     10.592904
 HEAT             -116.381418
 GRADIENT NORM      18.420768
 DIRECTION COSINE    0.095578
* ===============================
* Input file for Mopac
* ===============================
 PM7 BONDS AUX DUMP=30M ITRY=15000 T=14D CHARGE=0 SINGLET eps=78.4 RELSCF=1


  C     0.00000000 +0    0.0000000 +0    0.0000000 +0     0     0     0
  C     1.39281334 +1    0.0000000 +0    0.0000000 +0     1     0     0
  C     1.40230694 +1  121.1728872 +1    0.0000000 +0     2     1     0
  C     1.40562868 +1  118.2930042 +1   -0.1167810 +1     3     2     1
  C     1.38633429 +1  118.9615572 +1    0.7065458 +1     4     3     2
  C     1.38777587 +1  123.6701185 +1   -0.6872096 +1     5     4     3
  H     1.09494593 +1  119.7825606 +1 -179.3770004 +1     1     2     3
  H     1.08944300 +1  119.3931860 +1  178.6480996 +1     2     1     3
  H     1.09250766 +1  119.1391316 +1 -178.6629204 +1     4     3     2
 Cl     1.71668414 +1  117.9658250 +1 -179.6150927 +1     5     4     3
  H     1.08821794 +1  122.8061740 +1 -178.8193402 +1     6     5     4
  C     1.45140586 +1  120.5683531 +1 -179.8584346 +1     3     2     1
  C     1.48853617 +1  119.9729502 +1   44.8643833 +1    12     3     2
  H     1.09802995 +1  112.2932933 +1 -160.4141682 +1    13    12     3
  H     1.09987806 +1  111.0334895 +1   79.6732773 +1    13    12     3
  H     1.10447671 +1  111.9728306 +1  -40.0339601 +1    13    12     3
  N     1.33956182 +1  120.0049732 +1 -139.6872121 +1    12     3     2
  O     1.26166586 +1  121.9193349 +1 -177.9895884 +1    17    12     3
  O     1.26040837 +1  121.0490689 +1    4.8721781 +1    17    12     3
  N     3.81029224 +1  108.5734605 +1   62.3128807 +1    19    17    12
  C     1.51509692 +1   80.6811626 +1  127.3931857 +1    20    19    17
  C     1.52866105 +1  110.6293308 +1  115.6708929 +1    21    20    19
  C     1.53705201 +1  110.1312576 +1  -58.0103903 +1    22    21    20
  C     1.53209226 +1  110.1971563 +1   56.2899137 +1    23    22    21
  C     1.51163555 +1   62.5476377 +1 -114.4681184 +1    20    19    17
  H     2.28815444 +1   98.0245816 +1  -56.5327850 +1    12     3     2
  H     1.11386888 +1  108.3851170 +1 -122.6564392 +1    21    20    19
  H     1.11525684 +1  108.8911094 +1   -6.2741691 +1    21    20    19
  H     1.09858517 +1  110.0653741 +1  179.5555076 +1    22    21    20
  H     1.11362831 +1  110.4856570 +1   63.9071573 +1    22    21    20
  H     1.10781175 +1  109.9667273 +1  178.0842720 +1    23    22    21
  H     1.10491953 +1  110.2626332 +1  -65.9998681 +1    23    22    21
  H     1.10803106 +1  110.4326254 +1 -177.7071841 +1    24    23    22
  H     1.10681808 +1  110.4342123 +1   66.4035103 +1    24    23    22
  H     1.11552881 +1  108.4830862 +1  111.2392938 +1    25    20    19
  H     1.12144846 +1  108.6445253 +1   -5.1717986 +1    25    20    19
  H     1.04305829 +1  169.0853161 +1  -65.2392155 +1    20    19    17
  H     1.53540456 +1  124.1529919 +1   52.9819366 +1    26    12     3
  H     1.05629554 +1   70.1950879 +1   11.9586444 +1    20    19    17
  O     0.96652371 +1  156.9525929 +1   21.2446397 +1    26    12     3

 TIME=    15.72
  REACTANTS AND PRODUCTS SWAPPED AROUND
 *+*+*+*+*+*+*+*+*+*+*+*+*+*+*+*+*+*+*+*+*+*+*+*+*+*+*+*+*+*+*+*+*+*+*+*+*+*+*+*+
            BAR SHORTENED BY       0.000 PERCENT
 GRADIENT CRITERION IN FLEPO =    10.000


          FOR POINT    6 FIRST  STRUCTURE
 DISTANCE A - B     10.592904
 HEAT             -102.356589
 GRADIENT NORM      11.926598
 DIRECTION COSINE    0.025532
* ===============================
* Input file for Mopac
* ===============================
 PM7 BONDS AUX DUMP=30M ITRY=15000 T=14D CHARGE=0 SINGLET eps=78.4 RELSCF=1


  C     0.00000000 +0    0.0000000 +0    0.0000000 +0     0     0     0
  C     1.39361324 +1    0.0000000 +0    0.0000000 +0     1     0     0
  C     1.39612588 +1  120.5094884 +1    0.0000000 +0     2     1     0
  C     1.40248438 +1  119.9620532 +1    1.6259859 +1     3     2     1
  C     1.38517400 +1  117.8378397 +1   -1.4963267 +1     4     3     2
  C     1.38911244 +1  123.4350877 +1    0.5873769 +1     5     4     3
  H     1.09414174 +1  120.0795785 +1  179.6605745 +1     1     2     3
  H     1.09187945 +1  119.6252590 +1 -179.7873690 +1     2     1     3
  H     1.09084958 +1  120.1711103 +1  178.7468256 +1     4     3     2
 Cl     1.71514290 +1  118.2219300 +1 -179.8302216 +1     5     4     3
  H     1.09304566 +1  121.8394322 +1 -179.9921377 +1     6     5     4
  C     1.50514809 +1  119.3718206 +1 -178.4117572 +1     3     2     1
  C     1.52258197 +1  112.4780195 +1  127.6090198 +1    12     3     2
  H     1.10090835 +1  112.2069046 +1 -179.4043876 +1    13    12     3
  H     1.09950649 +1  113.0582657 +1   58.7405322 +1    13    12     3
  H     1.10483013 +1  109.9168707 +1  -60.9264928 +1    13    12     3
  N     1.50281565 +1  108.0501707 +1 -112.0598985 +1    12     3     2
  O     1.22026911 +1  118.2080314 +1  112.4333054 +1    17    12     3
  O     1.21969950 +1  119.2198363 +1  -67.3100813 +1    17    12     3
  N     2.88234540 +1  165.5002437 +1   64.0295212 +1     8     2     1
  C     1.48394267 +1  114.6452121 +1  142.9457067 +1    20     8     2
  C     1.53879172 +1  112.5812314 +1  131.1030012 +1    21    20     8
  C     1.53384703 +1  110.0825053 +1  -56.1588393 +1    22    21    20
  C     1.53357590 +1  110.4491825 +1   54.9700573 +1    23    22    21
  C     1.48325866 +1   68.0144225 +1 -113.9107135 +1    20     8     2
  H     1.13620400 +1  110.6370860 +1    5.4996983 +1    12     3     2
  H     1.10745072 +1  108.2868691 +1 -106.5576129 +1    21    20     8
  H     1.11285166 +1  108.2585240 +1    8.9772887 +1    21    20     8
  H     1.10480409 +1  110.1177696 +1 -178.1589373 +1    22    21    20
  H     1.10633571 +1  110.0536660 +1   65.5429210 +1    22    21    20
  H     1.10530215 +1  110.1122162 +1  176.9727841 +1    23    22    21
  H     1.10775913 +1  109.9975568 +1  -66.5875419 +1    23    22    21
  H     1.10496256 +1  110.4913201 +1 -177.0119409 +1    24    23    22
  H     1.10524854 +1  110.2572355 +1   66.4254277 +1    24    23    22
  H     1.11076712 +1  108.1752681 +1   71.0611816 +1    25    20     8
  H     1.11352927 +1  108.5532058 +1  -44.9035584 +1    25    20     8
  H     1.02600698 +1  133.2273533 +1  -17.1414850 +1    20     8     2
  H     2.48341085 +1   92.8886709 +1  104.7968573 +1     8     2     1
  H     1.53737048 +1   63.2003740 +1  168.6521455 +1    38     8     2
  O     0.95750008 +1   81.7961082 +1  133.7304781 +1    38     8     2

 TIME=     1.62
  REACTANTS AND PRODUCTS SWAPPED AROUND
 *+*+*+*+*+*+*+*+*+*+*+*+*+*+*+*+*+*+*+*+*+*+*+*+*+*+*+*+*+*+*+*+*+*+*+*+*+*+*+*+
            BAR SHORTENED BY       1.000 PERCENT
 GRADIENT CRITERION IN FLEPO =     8.927


          FOR POINT    7 SECOND STRUCTURE
 DISTANCE A - B     10.486975
 HEAT             -116.068268
 GRADIENT NORM      21.469731
 DIRECTION COSINE    0.046059
* ===============================
* Input file for Mopac
* ===============================
 PM7 BONDS AUX DUMP=30M ITRY=15000 T=14D CHARGE=0 SINGLET eps=78.4 RELSCF=1


  C     0.00000000 +0    0.0000000 +0    0.0000000 +0     0     0     0
  C     1.39068239 +1    0.0000000 +0    0.0000000 +0     1     0     0
  C     1.40038849 +1  121.1837957 +1    0.0000000 +0     2     1     0
  C     1.40242769 +1  118.3264596 +1    0.4308907 +1     3     2     1
  C     1.38559282 +1  119.1185246 +1    0.1613441 +1     4     3     2
  C     1.39236975 +1  123.3825050 +1   -0.2882156 +1     5     4     3
  H     1.08853083 +1  120.1612528 +1 -179.6598518 +1     1     2     3
  H     1.08527218 +1  119.4673662 +1  179.5934269 +1     2     1     3
  H     1.09862883 +1  120.2751729 +1 -179.2227285 +1     4     3     2
 Cl     1.71140736 +1  118.2038477 +1 -179.2648105 +1     5     4     3
  H     1.08810815 +1  122.9559970 +1 -179.0218024 +1     6     5     4
  C     1.45151085 +1  120.7049996 +1 -179.3786901 +1     3     2     1
  C     1.48722660 +1  120.0185150 +1   45.4919150 +1    12     3     2
  H     1.10200550 +1  112.3112542 +1 -160.5460017 +1    13    12     3
  H     1.09941346 +1  111.2472270 +1   79.3760387 +1    13    12     3
  H     1.10090890 +1  112.1117349 +1  -40.3866862 +1    13    12     3
  N     1.33874567 +1  119.9937466 +1 -139.4763524 +1    12     3     2
  O     1.26442108 +1  122.2452567 +1 -178.2766915 +1    17    12     3
  O     1.25603925 +1  120.9500198 +1    4.7656040 +1    17    12     3
  N     3.83713997 +1  108.0420177 +1   62.5018420 +1    19    17    12
  C     1.51504128 +1   80.7834261 +1  126.4358023 +1    20    19    17
  C     1.52831794 +1  110.1308870 +1  115.7109508 +1    21    20    19
  C     1.53157525 +1  110.5572291 +1  -58.4232295 +1    22    21    20
  C     1.53178716 +1  109.8645323 +1   56.7869265 +1    23    22    21
  C     1.51232166 +1   62.6464984 +1 -115.4248685 +1    20    19    17
  H     2.27920560 +1   97.9739415 +1  -55.9632795 +1    12     3     2
  H     1.11464623 +1  108.3637959 +1 -122.5897883 +1    21    20    19
  H     1.11586816 +1  108.9339608 +1   -5.9747294 +1    21    20    19
  H     1.10887864 +1  109.7737841 +1  179.3720413 +1    22    21    20
  H     1.10789028 +1  110.7906157 +1   64.2878910 +1    22    21    20
  H     1.11099951 +1  109.7656006 +1  178.3648944 +1    23    22    21
  H     1.10852028 +1  110.6094400 +1  -65.4535998 +1    23    22    21
  H     1.10844358 +1  110.4612887 +1 -177.9615075 +1    24    23    22
  H     1.10976862 +1  110.3716545 +1   66.1988369 +1    24    23    22
  H     1.11987084 +1  108.6323061 +1  111.3153446 +1    25    20    19
  H     1.12101384 +1  108.7253702 +1   -5.3660333 +1    25    20    19
  H     1.04343725 +1  168.9273262 +1  -65.8408844 +1    20    19    17
  H     1.54153222 +1  123.5948114 +1   52.9356490 +1    26    12     3
  H     1.04971943 +1   70.0920506 +1   11.1065268 +1    20    19    17
  O     0.96700430 +1  156.3837096 +1   22.9752127 +1    26    12     3

 *+*+*+*+*+*+*+*+*+*+*+*+*+*+*+*+*+*+*+*+*+*+*+*+*+*+*+*+*+*+*+*+*+*+*+*+*+*+*+*+
            BAR SHORTENED BY       1.000 PERCENT
 GRADIENT CRITERION IN FLEPO =    10.000


          FOR POINT    8 SECOND STRUCTURE
 DISTANCE A - B     10.382105
 HEAT             -115.918653
 GRADIENT NORM      20.095023
 DIRECTION COSINE    0.135253
* ===============================
* Input file for Mopac
* ===============================
 PM7 BONDS AUX DUMP=30M ITRY=15000 T=14D CHARGE=0 SINGLET eps=78.4 RELSCF=1


  C     0.00000000 +0    0.0000000 +0    0.0000000 +0     0     0     0
  C     1.39387634 +1    0.0000000 +0    0.0000000 +0     1     0     0
  C     1.40340228 +1  121.4584902 +1    0.0000000 +0     2     1     0
  C     1.40054758 +1  117.8790455 +1    0.2359902 +1     3     2     1
  C     1.38695390 +1  118.8248514 +1    0.1064857 +1     4     3     2
  C     1.38241306 +1  124.4590118 +1   -0.0692231 +1     5     4     3
  H     1.09226611 +1  120.1254925 +1 -179.5375133 +1     1     2     3
  H     1.09154467 +1  119.4340881 +1  178.9045837 +1     2     1     3
  H     1.08911002 +1  119.3355845 +1 -178.9572939 +1     4     3     2
 Cl     1.72369530 +1  117.6420159 +1 -178.7079047 +1     5     4     3
  H     1.08043287 +1  123.3859244 +1 -178.9094563 +1     6     5     4
  C     1.45131703 +1  120.6663821 +1 -179.1302933 +1     3     2     1
  C     1.48670675 +1  120.3108148 +1   45.4376133 +1    12     3     2
  H     1.10284256 +1  112.3245736 +1 -160.8514218 +1    13    12     3
  H     1.10299284 +1  110.9808223 +1   79.2533286 +1    13    12     3
  H     1.10315439 +1  112.1701519 +1  -40.3016664 +1    13    12     3
  N     1.34169291 +1  119.5206980 +1 -139.8732519 +1    12     3     2
  O     1.25969281 +1  122.4169714 +1 -178.4697503 +1    17    12     3
  O     1.25683493 +1  120.8305403 +1    4.6280487 +1    17    12     3
  N     3.86051732 +1  107.5595108 +1   62.8155886 +1    19    17    12
  C     1.51457906 +1   80.8778818 +1  125.4337297 +1    20    19    17
  C     1.52618876 +1  110.2984272 +1  116.1565446 +1    21    20    19
  C     1.53159059 +1  110.3422598 +1  -58.5408246 +1    22    21    20
  C     1.53399539 +1  110.0171709 +1   56.6059229 +1    23    22    21
  C     1.51248050 +1   62.7568425 +1 -116.6391857 +1    20    19    17
  H     2.27104773 +1   97.8274635 +1  -56.2715973 +1    12     3     2
  H     1.11438407 +1  108.1441715 +1 -122.1890898 +1    21    20    19
  H     1.11665269 +1  109.1613278 +1   -5.9587774 +1    21    20    19
  H     1.11043862 +1  109.7482372 +1  179.4243729 +1    22    21    20
  H     1.10913693 +1  110.8639970 +1   64.2551350 +1    22    21    20
  H     1.10997457 +1  110.1896934 +1  178.5540529 +1    23    22    21
  H     1.10742433 +1  110.3545610 +1  -65.4992213 +1    23    22    21
  H     1.10939396 +1  110.3764047 +1 -178.1787801 +1    24    23    22
  H     1.11097382 +1  109.9180567 +1   66.2336626 +1    24    23    22
  H     1.11588491 +1  108.5715410 +1  110.6626162 +1    25    20    19
  H     1.12137885 +1  108.5341346 +1   -5.3652613 +1    25    20    19
  H     1.04457444 +1  169.0223389 +1  -66.1974883 +1    20    19    17
  H     1.53352344 +1  122.7185039 +1   53.3720345 +1    26    12     3
  H     1.05659451 +1   69.8643681 +1    9.8991652 +1    20    19    17
  O     0.96727293 +1   37.6281337 +1 -161.6795541 +1    38    26    12

 *+*+*+*+*+*+*+*+*+*+*+*+*+*+*+*+*+*+*+*+*+*+*+*+*+*+*+*+*+*+*+*+*+*+*+*+*+*+*+*+
            BAR SHORTENED BY       1.000 PERCENT
 GRADIENT CRITERION IN FLEPO =    10.000


          FOR POINT    9 SECOND STRUCTURE
 DISTANCE A - B     10.278284
 HEAT             -115.778563
 GRADIENT NORM      18.343284
 DIRECTION COSINE    0.380581
* ===============================
* Input file for Mopac
* ===============================
 PM7 BONDS AUX DUMP=30M ITRY=15000 T=14D CHARGE=0 SINGLET eps=78.4 RELSCF=1


  C     0.00000000 +0    0.0000000 +0    0.0000000 +0     0     0     0
  C     1.39108426 +1    0.0000000 +0    0.0000000 +0     1     0     0
  C     1.40515131 +1  121.4449960 +1    0.0000000 +0     2     1     0
  C     1.40293409 +1  117.8497908 +1    0.8658380 +1     3     2     1
  C     1.38419818 +1  119.0916425 +1   -0.4859707 +1     4     3     2
  C     1.38563648 +1  124.1612612 +1   -0.0404581 +1     5     4     3
  H     1.08489733 +1  120.3183946 +1 -179.6154051 +1     1     2     3
  H     1.08860950 +1  119.4346983 +1  179.3519330 +1     2     1     3
  H     1.09254498 +1  119.0205142 +1 -178.9854142 +1     4     3     2
 Cl     1.72545933 +1  117.9904699 +1 -178.0618460 +1     5     4     3
  H     1.09041816 +1  123.4168545 +1 -179.0349717 +1     6     5     4
  C     1.45083683 +1  120.7805301 +1 -178.5969298 +1     3     2     1
  C     1.48744312 +1  120.3676266 +1   45.9918180 +1    12     3     2
  H     1.10030598 +1  112.2625677 +1 -160.7863791 +1    13    12     3
  H     1.10087578 +1  111.0743412 +1   79.0790460 +1    13    12     3
  H     1.10134927 +1  111.9218252 +1  -40.9082051 +1    13    12     3
  N     1.34083178 +1  119.4006686 +1 -139.5937503 +1    12     3     2
  O     1.26094795 +1  122.5645253 +1 -178.8416182 +1    17    12     3
  O     1.25924621 +1  120.6501235 +1    4.3590693 +1    17    12     3
  N     3.88151474 +1  107.0414839 +1   63.1289528 +1    19    17    12
  C     1.51542529 +1   81.1178915 +1  124.3322449 +1    20    19    17
  C     1.52739779 +1  110.3135911 +1  116.2449335 +1    21    20    19
  C     1.53156007 +1  110.1971235 +1  -58.4919546 +1    22    21    20
  C     1.53140501 +1  110.1169468 +1   56.6047177 +1    23    22    21
  C     1.51140875 +1   62.6469132 +1 -117.5803262 +1    20    19    17
  H     2.26280588 +1   97.5914725 +1  -55.9080068 +1    12     3     2
  H     1.11644976 +1  108.5629448 +1 -121.7431449 +1    21    20    19
  H     1.11628169 +1  108.9890115 +1   -5.5593097 +1    21    20    19
  H     1.11092700 +1  109.5529257 +1  179.6919076 +1    22    21    20
  H     1.10890802 +1  111.0000700 +1   64.5203409 +1    22    21    20
  H     1.10705344 +1  110.1530290 +1  178.3757532 +1    23    22    21
  H     1.10667988 +1  110.4156380 +1  -65.6694336 +1    23    22    21
  H     1.10501182 +1  110.7140288 +1 -178.4396906 +1    24    23    22
  H     1.11494262 +1  110.0003554 +1   65.9402714 +1    24    23    22
  H     1.11651828 +1  108.6180189 +1  111.0312975 +1    25    20    19
  H     1.11949018 +1  109.0285824 +1   -5.6397092 +1    25    20    19
  H     1.04250777 +1  168.9322387 +1  -66.7257181 +1    20    19    17
  H     1.53266844 +1  121.8218278 +1   53.7905357 +1    26    12     3
  H     1.05796436 +1   69.7831993 +1    8.9821328 +1    20    19    17
  O     0.96766303 +1  156.1213971 +1   27.7449556 +1    26    12     3

 TIME=    20.75
  REACTANTS AND PRODUCTS SWAPPED AROUND
 *+*+*+*+*+*+*+*+*+*+*+*+*+*+*+*+*+*+*+*+*+*+*+*+*+*+*+*+*+*+*+*+*+*+*+*+*+*+*+*+
            BAR SHORTENED BY       0.000 PERCENT
 GRADIENT CRITERION IN FLEPO =    10.000
 

                    SINCE COS WAS JUST RESET,THE SEARCH IS BEING ENDED


          FOR POINT   10 FIRST  STRUCTURE
 DISTANCE A - B     10.278284
 HEAT             -102.182316
 GRADIENT NORM      11.927849
 DIRECTION COSINE   -0.000534
* ===============================
* Input file for Mopac
* ===============================
 PM7 BONDS AUX DUMP=30M ITRY=15000 T=14D CHARGE=0 SINGLET eps=78.4 RELSCF=1


  C     0.00000000 +0    0.0000000 +0    0.0000000 +0     0     0     0
  C     1.39361324 +1    0.0000000 +0    0.0000000 +0     1     0     0
  C     1.39612588 +1  120.5094886 +1    0.0000000 +0     2     1     0
  C     1.40248438 +1  119.9620531 +1    1.6259857 +1     3     2     1
  C     1.38517400 +1  117.8378397 +1   -1.4963266 +1     4     3     2
  C     1.38911245 +1  123.4350876 +1    0.5873769 +1     5     4     3
  H     1.09414173 +1  120.0795786 +1  179.6605745 +1     1     2     3
  H     1.09187945 +1  119.6252591 +1 -179.7873689 +1     2     1     3
  H     1.09084958 +1  120.1711104 +1  178.7468258 +1     4     3     2
 Cl     1.71514291 +1  118.2219299 +1 -179.8302214 +1     5     4     3
  H     1.09304566 +1  121.8394321 +1 -179.9921376 +1     6     5     4
  C     1.50514808 +1  119.3718207 +1 -178.4117572 +1     3     2     1
  C     1.52258197 +1  112.4780195 +1  127.6090197 +1    12     3     2
  H     1.10090835 +1  112.2069046 +1 -179.4043876 +1    13    12     3
  H     1.09950649 +1  113.0582657 +1   58.7405323 +1    13    12     3
  H     1.10483013 +1  109.9168707 +1  -60.9264928 +1    13    12     3
  N     1.50281564 +1  108.0501708 +1 -112.0598986 +1    12     3     2
  O     1.22026910 +1  118.2080315 +1  112.4333054 +1    17    12     3
  O     1.21969950 +1  119.2198361 +1  -67.3100814 +1    17    12     3
  N     2.88234540 +1  165.5002440 +1   64.0295196 +1     8     2     1
  C     1.48394267 +1  114.6452121 +1  142.9457081 +1    20     8     2
  C     1.53879172 +1  112.5812314 +1  131.1030014 +1    21    20     8
  C     1.53384703 +1  110.0825053 +1  -56.1588393 +1    22    21    20
  C     1.53357590 +1  110.4491825 +1   54.9700573 +1    23    22    21
  C     1.48325866 +1   68.0144226 +1 -113.9107121 +1    20     8     2
  H     1.13620400 +1  110.6370860 +1    5.4996982 +1    12     3     2
  H     1.10745072 +1  108.2868691 +1 -106.5576127 +1    21    20     8
  H     1.11285166 +1  108.2585240 +1    8.9772889 +1    21    20     8
  H     1.10480409 +1  110.1177696 +1 -178.1589373 +1    22    21    20
  H     1.10633571 +1  110.0536660 +1   65.5429209 +1    22    21    20
  H     1.10530215 +1  110.1122162 +1  176.9727841 +1    23    22    21
  H     1.10775913 +1  109.9975568 +1  -66.5875419 +1    23    22    21
  H     1.10496256 +1  110.4913201 +1 -177.0119409 +1    24    23    22
  H     1.10524854 +1  110.2572355 +1   66.4254277 +1    24    23    22
  H     1.11076712 +1  108.1752681 +1   71.0611815 +1    25    20     8
  H     1.11352927 +1  108.5532059 +1  -44.9035585 +1    25    20     8
  H     1.02600698 +1  133.2273532 +1  -17.1414834 +1    20     8     2
  H     2.48341084 +1   92.8886713 +1  104.7968571 +1     8     2     1
  H     1.53737048 +1   63.2003741 +1  168.6521456 +1    38     8     2
  O     0.95750008 +1   81.7961082 +1  133.7304782 +1    38     8     2

 TIME=     9.76
  REACTANTS AND PRODUCTS SWAPPED AROUND
 *+*+*+*+*+*+*+*+*+*+*+*+*+*+*+*+*+*+*+*+*+*+*+*+*+*+*+*+*+*+*+*+*+*+*+*+*+*+*+*+
            BAR SHORTENED BY       1.000 PERCENT
 GRADIENT CRITERION IN FLEPO =     8.928


          FOR POINT   11 SECOND STRUCTURE
 DISTANCE A - B     10.175502
 HEAT             -115.669372
 GRADIENT NORM      16.484068
 DIRECTION COSINE    0.195362
* ===============================
* Input file for Mopac
* ===============================
 PM7 BONDS AUX DUMP=30M ITRY=15000 T=14D CHARGE=0 SINGLET eps=78.4 RELSCF=1


  C     0.00000000 +0    0.0000000 +0    0.0000000 +0     0     0     0
  C     1.39272688 +1    0.0000000 +0    0.0000000 +0     1     0     0
  C     1.40199267 +1  120.9055988 +1    0.0000000 +0     2     1     0
  C     1.40326872 +1  118.5162457 +1    1.5708921 +1     3     2     1
  C     1.38491685 +1  118.6570506 +1   -1.1370829 +1     4     3     2
  C     1.38671086 +1  124.0487355 +1   -0.0727781 +1     5     4     3
  H     1.09538995 +1  119.9336461 +1  179.9569660 +1     1     2     3
  H     1.09136679 +1  119.6504326 +1 -179.8231658 +1     2     1     3
  H     1.08543804 +1  119.6208610 +1 -178.8087629 +1     4     3     2
 Cl     1.72157094 +1  118.1949289 +1 -177.7060577 +1     5     4     3
  H     1.08926909 +1  123.0726892 +1 -179.0886464 +1     6     5     4
  C     1.45410727 +1  120.7253296 +1 -178.2988960 +1     3     2     1
  C     1.48872415 +1  120.2481254 +1   46.4708253 +1    12     3     2
  H     1.10074736 +1  112.3169449 +1 -160.9592964 +1    13    12     3
  H     1.10193219 +1  110.8909393 +1   79.1994848 +1    13    12     3
  H     1.10112504 +1  112.2241621 +1  -40.4836234 +1    13    12     3
  N     1.34171650 +1  119.5311975 +1 -139.1239330 +1    12     3     2
  O     1.26182201 +1  122.6792620 +1 -179.1669147 +1    17    12     3
  O     1.26002805 +1  120.4821362 +1    4.0938945 +1    17    12     3
  N     3.90425609 +1  106.4867084 +1   63.3999997 +1    19    17    12
  C     1.51403947 +1   81.1862424 +1  123.4149209 +1    20    19    17
  C     1.52812003 +1  110.3868923 +1  116.4530411 +1    21    20    19
  C     1.52821327 +1  110.2085863 +1  -58.3647479 +1    22    21    20
  C     1.53094965 +1  110.4219058 +1   56.4206754 +1    23    22    21
  C     1.51229693 +1   62.8451267 +1 -118.7976633 +1    20    19    17
  H     2.25516459 +1   97.3653542 +1  -55.2627789 +1    12     3     2
  H     1.11512748 +1  108.3076511 +1 -121.5536690 +1    21    20    19
  H     1.11612804 +1  109.0280697 +1   -5.4502623 +1    21    20    19
  H     1.11088688 +1  109.5897066 +1  179.5082285 +1    22    21    20
  H     1.10897250 +1  111.0306330 +1   64.2850488 +1    22    21    20
  H     1.10781506 +1  110.2316871 +1  178.6416823 +1    23    22    21
  H     1.11415152 +1  110.1872995 +1  -65.7729526 +1    23    22    21
  H     1.10870491 +1  110.7633944 +1 -178.1165575 +1    24    23    22
  H     1.10972142 +1  109.9888638 +1   66.2087731 +1    24    23    22
  H     1.11406227 +1  108.4762216 +1  110.7216408 +1    25    20    19
  H     1.12102074 +1  108.7480809 +1   -5.5220824 +1    25    20    19
  H     1.04302800 +1  168.7553800 +1  -67.2069704 +1    20    19    17
  H     1.53752814 +1  121.2916135 +1   53.9360071 +1    26    12     3
  H     1.05756365 +1   69.6821174 +1    8.0695839 +1    20    19    17
  O     0.96656529 +1  155.7606556 +1   29.9088305 +1    26    12     3

 *+*+*+*+*+*+*+*+*+*+*+*+*+*+*+*+*+*+*+*+*+*+*+*+*+*+*+*+*+*+*+*+*+*+*+*+*+*+*+*+
            BAR SHORTENED BY       1.000 PERCENT
 GRADIENT CRITERION IN FLEPO =    10.000


          FOR POINT   12 SECOND STRUCTURE
 DISTANCE A - B     10.073747
 HEAT             -115.337269
 GRADIENT NORM      25.864297
 DIRECTION COSINE    0.215958
* ===============================
* Input file for Mopac
* ===============================
 PM7 BONDS AUX DUMP=30M ITRY=15000 T=14D CHARGE=0 SINGLET eps=78.4 RELSCF=1


  C     0.00000000 +0    0.0000000 +0    0.0000000 +0     0     0     0
  C     1.39123156 +1    0.0000000 +0    0.0000000 +0     1     0     0
  C     1.39926279 +1  121.5636418 +1    0.0000000 +0     2     1     0
  C     1.40983655 +1  117.9910400 +1    0.8287669 +1     3     2     1
  C     1.38518191 +1  118.9834800 +1   -0.3673588 +1     4     3     2
  C     1.39012675 +1  123.7572266 +1   -0.2993641 +1     5     4     3
  H     1.09177510 +1  120.1003425 +1 -179.4731334 +1     1     2     3
  H     1.09700167 +1  119.3139141 +1  179.1407623 +1     2     1     3
  H     1.09574716 +1  119.1921655 +1 -179.0917303 +1     4     3     2
 Cl     1.71093769 +1  118.3502662 +1 -177.9882442 +1     5     4     3
  H     1.09112062 +1  122.9625295 +1 -178.2416396 +1     6     5     4
  C     1.45177481 +1  121.2631327 +1 -178.0814396 +1     3     2     1
  C     1.48440894 +1  120.3448898 +1   46.5279812 +1    12     3     2
  H     1.10177086 +1  112.2849489 +1 -160.8939961 +1    13    12     3
  H     1.10192332 +1  111.1975831 +1   78.8660187 +1    13    12     3
  H     1.10401551 +1  112.0320001 +1  -41.1009105 +1    13    12     3
  N     1.34293838 +1  119.2191177 +1 -139.4172816 +1    12     3     2
  O     1.26230073 +1  122.5326452 +1 -179.4743311 +1    17    12     3
  O     1.26230123 +1  120.5493925 +1    3.8800465 +1    17    12     3
  N     3.92619839 +1  105.9443285 +1   63.5461798 +1    19    17    12
  C     1.51700238 +1   81.3475761 +1  122.4491600 +1    20    19    17
  C     1.52762007 +1  110.2475783 +1  116.4385262 +1    21    20    19
  C     1.53503691 +1  110.6702212 +1  -58.5709778 +1    22    21    20
  C     1.53389828 +1  109.4744558 +1   56.5556060 +1    23    22    21
  C     1.51174874 +1   62.8565298 +1 -119.7383279 +1    20    19    17
  H     2.24694611 +1   96.9876080 +1  -55.4488065 +1    12     3     2
  H     1.11175943 +1  108.5826642 +1 -121.4179891 +1    21    20    19
  H     1.11548867 +1  108.8585581 +1   -5.2485076 +1    21    20    19
  H     1.11223092 +1  109.3575947 +1  179.5087608 +1    22    21    20
  H     1.10741287 +1  110.9658577 +1   64.5909058 +1    22    21    20
  H     1.10480083 +1  110.3230042 +1  178.2592947 +1    23    22    21
  H     1.10810911 +1  110.3549419 +1  -64.7316378 +1    23    22    21
  H     1.10894238 +1  110.4667364 +1 -177.8167978 +1    24    23    22
  H     1.11017826 +1  110.3136086 +1   66.2664235 +1    24    23    22
  H     1.10958195 +1  108.9109678 +1  110.8272390 +1    25    20    19
  H     1.12195547 +1  108.7458281 +1   -5.6323060 +1    25    20    19
  H     1.04142198 +1  168.6669725 +1  -67.3155585 +1    20    19    17
  H     1.52723848 +1  120.5822104 +1   54.2187414 +1    26    12     3
  H     1.05792538 +1   69.5412294 +1    7.2509160 +1    20    19    17
  O     0.96540084 +1   37.7264751 +1 -165.2378819 +1    38    26    12

 *+*+*+*+*+*+*+*+*+*+*+*+*+*+*+*+*+*+*+*+*+*+*+*+*+*+*+*+*+*+*+*+*+*+*+*+*+*+*+*+
            BAR SHORTENED BY       1.000 PERCENT
 GRADIENT CRITERION IN FLEPO =    10.000
           THERE HAVE BEEN 3 ATTEMPTS TO REDUCE THE GRADIENT.
           DURING THESE ATTEMPTS THE ENERGY DROPPED BY LESS THAN 0.3 KCAL/MOLE
           FURTHER CALCULATION IS NOT JUSTIFIED AT THIS TIME.
           TO CONTINUE, START AGAIN WITH THE WORD "PRECISE"


          FOR POINT   13 SECOND STRUCTURE
 DISTANCE A - B      9.973009
 HEAT             -115.042411
 GRADIENT NORM      40.624790
 DIRECTION COSINE   -0.040249
* ===============================
* Input file for Mopac
* ===============================
 PM7 BONDS AUX DUMP=30M ITRY=15000 T=14D CHARGE=0 SINGLET eps=78.4 RELSCF=1


  C     0.00000000 +0    0.0000000 +0    0.0000000 +0     0     0     0
  C     1.40680795 +1    0.0000000 +0    0.0000000 +0     1     0     0
  C     1.40306786 +1  121.7772523 +1    0.0000000 +0     2     1     0
  C     1.40153383 +1  118.2616720 +1    0.7174187 +1     3     2     1
  C     1.38487462 +1  118.7230772 +1    0.0195137 +1     4     3     2
  C     1.38905262 +1  123.9088158 +1   -1.1731346 +1     5     4     3
  H     1.06291686 +1  119.6355344 +1 -179.4697166 +1     1     2     3
  H     1.08952697 +1  118.3767407 +1  179.2233615 +1     2     1     3
  H     1.09831707 +1  119.6020066 +1 -179.5741077 +1     4     3     2
 Cl     1.72739938 +1  118.2363012 +1 -178.2536311 +1     5     4     3
  H     1.09125558 +1  122.3466669 +1 -178.3654265 +1     6     5     4
  C     1.45564304 +1  121.1482384 +1 -178.2692143 +1     3     2     1
  C     1.48675650 +1  120.0819986 +1   46.9669839 +1    12     3     2
  H     1.10238474 +1  112.3581841 +1 -161.5689130 +1    13    12     3
  H     1.10276649 +1  111.0031000 +1   78.6277749 +1    13    12     3
  H     1.10028126 +1  112.2419461 +1  -41.0786546 +1    13    12     3
  N     1.34167764 +1  119.2648838 +1 -139.1113880 +1    12     3     2
  O     1.26149441 +1  122.3017905 +1 -179.2271651 +1    17    12     3
  O     1.26091129 +1  120.6247841 +1    4.0504071 +1    17    12     3
  N     3.94834526 +1  105.4986636 +1   63.6474018 +1    19    17    12
  C     1.51519191 +1   81.3321459 +1  121.7982242 +1    20    19    17
  C     1.52707423 +1  110.4894243 +1  116.6098091 +1    21    20    19
  C     1.53109968 +1  110.2750291 +1  -58.3029917 +1    22    21    20
  C     1.52891327 +1  109.8590395 +1   56.5347691 +1    23    22    21
  C     1.51218361 +1   62.9439791 +1 -120.5711875 +1    20    19    17
  H     2.24131763 +1   97.0400240 +1  -54.8745683 +1    12     3     2
  H     1.11267968 +1  108.4220784 +1 -121.4840110 +1    21    20    19
  H     1.11721624 +1  108.7542940 +1   -5.3242201 +1    21    20    19
  H     1.10911952 +1  109.6918525 +1  179.4650094 +1    22    21    20
  H     1.10848220 +1  110.8741689 +1   64.1176637 +1    22    21    20
  H     1.10776655 +1  109.8934641 +1  178.3043396 +1    23    22    21
  H     1.11616320 +1  110.0204999 +1  -66.1760453 +1    23    22    21
  H     1.11557500 +1  110.2784469 +1 -178.4866824 +1    24    23    22
  H     1.10037501 +1  110.1936902 +1   66.3099802 +1    24    23    22
  H     1.11444943 +1  108.6068871 +1  110.7559010 +1    25    20    19
  H     1.11988372 +1  108.8078392 +1   -5.7125877 +1    25    20    19
  H     1.04259685 +1  168.5886984 +1  -66.9683316 +1    20    19    17
  H     1.53753642 +1  120.1216360 +1   54.4989887 +1    26    12     3
  H     1.05679685 +1   69.4059298 +1    6.5164139 +1    20    19    17
  O     0.96687332 +1  155.3287093 +1   33.7807403 +1    26    12     3

 TIME=     5.09
  REACTANTS AND PRODUCTS SWAPPED AROUND
 *+*+*+*+*+*+*+*+*+*+*+*+*+*+*+*+*+*+*+*+*+*+*+*+*+*+*+*+*+*+*+*+*+*+*+*+*+*+*+*+
            BAR SHORTENED BY       0.000 PERCENT
 GRADIENT CRITERION IN FLEPO =    10.000
 

                    SINCE COS WAS JUST RESET,THE SEARCH IS BEING ENDED


          FOR POINT   14 FIRST  STRUCTURE
 DISTANCE A - B      9.973009
 HEAT             -102.182315
 GRADIENT NORM      11.932249
 DIRECTION COSINE    0.176215
* ===============================
* Input file for Mopac
* ===============================
 PM7 BONDS AUX DUMP=30M ITRY=15000 T=14D CHARGE=0 SINGLET eps=78.4 RELSCF=1


  C     0.00000000 +0    0.0000000 +0    0.0000000 +0     0     0     0
  C     1.39361324 +1    0.0000000 +0    0.0000000 +0     1     0     0
  C     1.39612588 +1  120.5094887 +1    0.0000000 +0     2     1     0
  C     1.40248438 +1  119.9620531 +1    1.6259856 +1     3     2     1
  C     1.38517400 +1  117.8378398 +1   -1.4963265 +1     4     3     2
  C     1.38911245 +1  123.4350875 +1    0.5873770 +1     5     4     3
  H     1.09414173 +1  120.0795788 +1  179.6605745 +1     1     2     3
  H     1.09187944 +1  119.6252591 +1 -179.7873688 +1     2     1     3
  H     1.09084958 +1  120.1711105 +1  178.7468261 +1     4     3     2
 Cl     1.71514292 +1  118.2219297 +1 -179.8302211 +1     5     4     3
  H     1.09304567 +1  121.8394319 +1 -179.9921376 +1     6     5     4
  C     1.50514808 +1  119.3718208 +1 -178.4117573 +1     3     2     1
  C     1.52258197 +1  112.4780195 +1  127.6090195 +1    12     3     2
  H     1.10090835 +1  112.2069046 +1 -179.4043876 +1    13    12     3
  H     1.09950649 +1  113.0582657 +1   58.7405323 +1    13    12     3
  H     1.10483013 +1  109.9168707 +1  -60.9264927 +1    13    12     3
  N     1.50281564 +1  108.0501708 +1 -112.0598987 +1    12     3     2
  O     1.22026910 +1  118.2080315 +1  112.4333054 +1    17    12     3
  O     1.21969950 +1  119.2198360 +1  -67.3100816 +1    17    12     3
  N     2.88234541 +1  165.5002443 +1   64.0295180 +1     8     2     1
  C     1.48394267 +1  114.6452122 +1  142.9457096 +1    20     8     2
  C     1.53879172 +1  112.5812314 +1  131.1030016 +1    21    20     8
  C     1.53384703 +1  110.0825053 +1  -56.1588393 +1    22    21    20
  C     1.53357590 +1  110.4491825 +1   54.9700572 +1    23    22    21
  C     1.48325866 +1   68.0144228 +1 -113.9107106 +1    20     8     2
  H     1.13620400 +1  110.6370860 +1    5.4996982 +1    12     3     2
  H     1.10745072 +1  108.2868691 +1 -106.5576125 +1    21    20     8
  H     1.11285166 +1  108.2585239 +1    8.9772891 +1    21    20     8
  H     1.10480409 +1  110.1177696 +1 -178.1589373 +1    22    21    20
  H     1.10633571 +1  110.0536660 +1   65.5429209 +1    22    21    20
  H     1.10530215 +1  110.1122162 +1  176.9727840 +1    23    22    21
  H     1.10775913 +1  109.9975568 +1  -66.5875419 +1    23    22    21
  H     1.10496256 +1  110.4913202 +1 -177.0119409 +1    24    23    22
  H     1.10524855 +1  110.2572355 +1   66.4254277 +1    24    23    22
  H     1.11076712 +1  108.1752681 +1   71.0611814 +1    25    20     8
  H     1.11352927 +1  108.5532059 +1  -44.9035586 +1    25    20     8
  H     1.02600698 +1  133.2273531 +1  -17.1414817 +1    20     8     2
  H     2.48341083 +1   92.8886718 +1  104.7968570 +1     8     2     1
  H     1.53737048 +1   63.2003743 +1  168.6521457 +1    38     8     2
  O     0.95750008 +1   81.7961083 +1  133.7304783 +1    38     8     2

 TIME=     3.92
  REACTANTS AND PRODUCTS SWAPPED AROUND
 *+*+*+*+*+*+*+*+*+*+*+*+*+*+*+*+*+*+*+*+*+*+*+*+*+*+*+*+*+*+*+*+*+*+*+*+*+*+*+*+
            BAR SHORTENED BY       1.000 PERCENT
 GRADIENT CRITERION IN FLEPO =     8.932


          FOR POINT   15 SECOND STRUCTURE
 DISTANCE A - B      9.873279
 HEAT             -115.040253
 GRADIENT NORM      21.295380
 DIRECTION COSINE   -0.110047
* ===============================
* Input file for Mopac
* ===============================
 PM7 BONDS AUX DUMP=30M ITRY=15000 T=14D CHARGE=0 SINGLET eps=78.4 RELSCF=1


  C     0.00000000 +0    0.0000000 +0    0.0000000 +0     0     0     0
  C     1.39118213 +1    0.0000000 +0    0.0000000 +0     1     0     0
  C     1.40677620 +1  121.3920570 +1    0.0000000 +0     2     1     0
  C     1.40647871 +1  118.3222684 +1    1.7419323 +1     3     2     1
  C     1.38396155 +1  118.4590688 +1   -0.9264885 +1     4     3     2
  C     1.38804159 +1  124.3144348 +1   -0.3529443 +1     5     4     3
  H     1.09024398 +1  120.1205242 +1  179.8191692 +1     1     2     3
  H     1.09096481 +1  119.3008677 +1 -179.7335055 +1     2     1     3
  H     1.08945754 +1  120.2050172 +1 -178.9921716 +1     4     3     2
 Cl     1.72471475 +1  118.0636087 +1 -178.0512870 +1     5     4     3
  H     1.08787581 +1  122.6374800 +1 -178.2096782 +1     6     5     4
  C     1.45249742 +1  121.4873812 +1 -177.7981715 +1     3     2     1
  C     1.49333816 +1  119.9414248 +1   47.7235260 +1    12     3     2
  H     1.10428676 +1  112.2871321 +1 -161.6800335 +1    13    12     3
  H     1.10272618 +1  110.9909896 +1   78.5039197 +1    13    12     3
  H     1.09646648 +1  112.0254119 +1  -41.3320965 +1    13    12     3
  N     1.34016000 +1  119.5835038 +1 -138.5569942 +1    12     3     2
  O     1.26220892 +1  122.5132258 +1 -179.3612051 +1    17    12     3
  O     1.26141216 +1  120.4676900 +1    3.9253177 +1    17    12     3
  N     3.97057147 +1  104.9726247 +1   63.7072609 +1    19    17    12
  C     1.51551801 +1   81.3782515 +1  121.0214135 +1    20    19    17
  C     1.52882203 +1  110.4559982 +1  116.7835754 +1    21    20    19
  C     1.53368661 +1  110.2419539 +1  -58.4202557 +1    22    21    20
  C     1.52855519 +1  109.9318261 +1   56.5996547 +1    23    22    21
  C     1.51237712 +1   63.2360868 +1 -121.5046197 +1    20    19    17
  H     2.23348576 +1   96.9197712 +1  -53.9937679 +1    12     3     2
  H     1.11424485 +1  108.3856422 +1 -121.3659529 +1    21    20    19
  H     1.11614808 +1  108.9690570 +1   -5.0886666 +1    21    20    19
  H     1.10659383 +1  109.5278512 +1  179.3255187 +1    22    21    20
  H     1.10879654 +1  110.7457455 +1   64.1913781 +1    22    21    20
  H     1.10264349 +1  109.9410075 +1  178.1059444 +1    23    22    21
  H     1.10596850 +1  110.4739031 +1  -65.9028913 +1    23    22    21
  H     1.10736992 +1  110.6288852 +1 -178.6133925 +1    24    23    22
  H     1.11245081 +1  110.4404119 +1   65.9108440 +1    24    23    22
  H     1.11468536 +1  108.5895670 +1  110.5808204 +1    25    20    19
  H     1.12811854 +1  109.1307534 +1   -5.8027122 +1    25    20    19
  H     1.04266110 +1  168.5692153 +1  -66.8275060 +1    20    19    17
  H     1.53725991 +1  119.5023586 +1   54.4407295 +1    26    12     3
  H     1.05727103 +1   69.2647368 +1    5.8296839 +1    20    19    17
  O     0.96688541 +1  155.1539653 +1   34.5739117 +1    26    12     3

 TIME=     4.22
  REACTANTS AND PRODUCTS SWAPPED AROUND
 *+*+*+*+*+*+*+*+*+*+*+*+*+*+*+*+*+*+*+*+*+*+*+*+*+*+*+*+*+*+*+*+*+*+*+*+*+*+*+*+
            BAR SHORTENED BY       1.000 PERCENT
 GRADIENT CRITERION IN FLEPO =    10.000


          FOR POINT   16 FIRST  STRUCTURE
 DISTANCE A - B      9.774546
 HEAT             -101.967613
 GRADIENT NORM      19.364244
 DIRECTION COSINE   -0.230673
* ===============================
* Input file for Mopac
* ===============================
 PM7 BONDS AUX DUMP=30M ITRY=15000 T=14D CHARGE=0 SINGLET eps=78.4 RELSCF=1


  C     0.00000000 +0    0.0000000 +0    0.0000000 +0     0     0     0
  C     1.39566293 +1    0.0000000 +0    0.0000000 +0     1     0     0
  C     1.39781397 +1  120.3680219 +1    0.0000000 +0     2     1     0
  C     1.39613489 +1  119.8391932 +1    0.4926544 +1     3     2     1
  C     1.38813417 +1  118.4280118 +1   -0.0534783 +1     4     3     2
  C     1.39142902 +1  122.9512988 +1   -1.2703777 +1     5     4     3
  H     1.09434970 +1  120.0451466 +1 -179.7398256 +1     1     2     3
  H     1.09601674 +1  119.8649042 +1  178.2150704 +1     2     1     3
  H     1.09307297 +1  119.9615431 +1  178.2022490 +1     4     3     2
 Cl     1.71676034 +1  118.9875867 +1 -179.9985786 +1     5     4     3
  H     1.09134121 +1  121.9746444 +1 -179.4638812 +1     6     5     4
  C     1.50453072 +1  119.2133444 +1 -178.5487978 +1     3     2     1
  C     1.52136439 +1  112.5749307 +1  127.0964997 +1    12     3     2
  H     1.10089187 +1  112.2670303 +1 -179.9108558 +1    13    12     3
  H     1.10445592 +1  113.0246211 +1   58.6070384 +1    13    12     3
  H     1.10085030 +1  109.7759388 +1  -61.3244379 +1    13    12     3
  N     1.50325239 +1  107.5951471 +1 -113.1037530 +1    12     3     2
  O     1.22145809 +1  118.2769183 +1  113.2268328 +1    17    12     3
  O     1.22326898 +1  119.1171625 +1  -66.8787511 +1    17    12     3
  N     2.86118410 +1  165.2915936 +1   64.5833071 +1     8     2     1
  C     1.48462525 +1  114.9163270 +1  143.4759674 +1    20     8     2
  C     1.53665390 +1  112.5907697 +1  130.8195871 +1    21    20     8
  C     1.53483668 +1  110.1567599 +1  -56.2123328 +1    22    21    20
  C     1.53679873 +1  110.3585698 +1   54.9409754 +1    23    22    21
  C     1.48068849 +1   67.6223866 +1 -113.6435739 +1    20     8     2
  H     1.13226041 +1  110.8199362 +1    4.5647907 +1    12     3     2
  H     1.11038505 +1  108.1488629 +1 -106.6456301 +1    21    20     8
  H     1.11588996 +1  108.0664308 +1    8.3022426 +1    21    20     8
  H     1.10548998 +1  110.1782184 +1 -178.1121498 +1    22    21    20
  H     1.10531393 +1  110.1477664 +1   65.3446280 +1    22    21    20
  H     1.10529684 +1  110.3985873 +1  177.1397164 +1    23    22    21
  H     1.10656334 +1  110.0304229 +1  -66.2740048 +1    23    22    21
  H     1.10694318 +1  110.3704285 +1 -177.1960020 +1    24    23    22
  H     1.10694700 +1  110.1444005 +1   66.4938971 +1    24    23    22
  H     1.10270866 +1  108.8175291 +1   70.8186599 +1    25    20     8
  H     1.11667246 +1  108.2909494 +1  -45.1315196 +1    25    20     8
  H     1.02791906 +1  133.2180733 +1  -17.2239460 +1    20     8     2
  H     2.48368614 +1   92.6040915 +1  105.9102766 +1     8     2     1
  H     1.53712017 +1   62.9969893 +1  169.1239063 +1    38     8     2
  O     0.95419470 +1   81.5885333 +1  134.2596390 +1    38     8     2

 TIME=     7.50
  REACTANTS AND PRODUCTS SWAPPED AROUND
 *+*+*+*+*+*+*+*+*+*+*+*+*+*+*+*+*+*+*+*+*+*+*+*+*+*+*+*+*+*+*+*+*+*+*+*+*+*+*+*+
            BAR SHORTENED BY       1.000 PERCENT
 GRADIENT CRITERION IN FLEPO =    10.000


          FOR POINT   17 SECOND STRUCTURE
 DISTANCE A - B      9.676801
 HEAT             -114.853089
 GRADIENT NORM      21.445599
 DIRECTION COSINE   -0.310578
* ===============================
* Input file for Mopac
* ===============================
 PM7 BONDS AUX DUMP=30M ITRY=15000 T=14D CHARGE=0 SINGLET eps=78.4 RELSCF=1


  C     0.00000000 +0    0.0000000 +0    0.0000000 +0     0     0     0
  C     1.39398620 +1    0.0000000 +0    0.0000000 +0     1     0     0
  C     1.39993648 +1  121.5349281 +1    0.0000000 +0     2     1     0
  C     1.39968487 +1  118.1602676 +1    1.2388383 +1     3     2     1
  C     1.38308429 +1  118.8577814 +1   -0.8789820 +1     4     3     2
  C     1.38925554 +1  120.6877554 +1   -0.7594160 +1     1     2     3
  H     1.09024790 +1  120.4882308 +1  179.6611152 +1     1     2     3
  H     1.09167817 +1  118.9672707 +1  179.7738082 +1     2     1     3
  H     1.09006729 +1  119.6228440 +1 -179.4604492 +1     4     3     2
 Cl     1.71995146 +1  118.5028908 +1 -178.7953565 +1     5     4     3
  H     1.09277614 +1  120.5575459 +1  179.2956022 +1     6     1     2
  C     1.45279385 +1  121.3375278 +1 -177.6951695 +1     3     2     1
  C     1.48624647 +1  120.3057376 +1   47.6217816 +1    12     3     2
  H     1.10208982 +1  112.4421427 +1 -161.4573086 +1    13    12     3
  H     1.10253309 +1  110.8488511 +1   78.2807458 +1    13    12     3
  H     1.09034920 +1  112.3316882 +1  -40.4524789 +1    13    12     3
  N     1.34203466 +1  119.2361172 +1 -138.7806962 +1    12     3     2
  O     1.25954771 +1  122.6237847 +1 -179.3529868 +1    17    12     3
  O     1.25678234 +1  120.5685816 +1    4.0301439 +1    17    12     3
  N     3.99195152 +1  104.5101820 +1   63.7314336 +1    19    17    12
  C     1.51422495 +1   81.4622266 +1  120.4089161 +1    20    19    17
  C     1.52889857 +1  110.3557016 +1  116.9710722 +1    21    20    19
  C     1.53043820 +1  110.2459272 +1  -58.5985483 +1    22    21    20
  C     1.53136734 +1  109.9107207 +1   56.7774064 +1    23    22    21
  C     1.51476002 +1   63.1430063 +1 -122.1789009 +1    20    19    17
  H     2.22401265 +1   96.8682033 +1  -53.9058729 +1    12     3     2
  H     1.11412507 +1  108.2953623 +1 -121.2576047 +1    21    20    19
  H     1.11599585 +1  108.9113951 +1   -5.0399062 +1    21    20    19
  H     1.10891072 +1  109.5300350 +1  179.3587719 +1    22    21    20
  H     1.11069790 +1  110.8043256 +1   64.4579350 +1    22    21    20
  H     1.11591906 +1  109.7206787 +1  178.3653488 +1    23    22    21
  H     1.10443822 +1  110.8822812 +1  -66.6930965 +1    23    22    21
  H     1.10792289 +1  110.3649267 +1 -178.6008480 +1    24    23    22
  H     1.11110238 +1  110.0994094 +1   65.9095235 +1    24    23    22
  H     1.11382733 +1  108.4196929 +1  110.8207864 +1    25    20    19
  H     1.11801130 +1  109.1675911 +1   -6.0250136 +1    25    20    19
  H     1.04392593 +1  168.4560221 +1  -67.2048773 +1    20    19    17
  H     1.53975636 +1  119.2742295 +1   54.9280912 +1    26    12     3
  H     1.05782120 +1   68.9574513 +1    5.0643744 +1    20    19    17
  O     0.96711081 +1  154.8732643 +1   36.4772900 +1    26    12     3

 TIME=     2.91
  REACTANTS AND PRODUCTS SWAPPED AROUND
 *+*+*+*+*+*+*+*+*+*+*+*+*+*+*+*+*+*+*+*+*+*+*+*+*+*+*+*+*+*+*+*+*+*+*+*+*+*+*+*+
            BAR SHORTENED BY       1.000 PERCENT
 GRADIENT CRITERION IN FLEPO =    10.000


          FOR POINT   18 FIRST  STRUCTURE
 DISTANCE A - B      9.580033
 HEAT             -101.661313
 GRADIENT NORM      27.155899
 DIRECTION COSINE    0.086465
* ===============================
* Input file for Mopac
* ===============================
 PM7 BONDS AUX DUMP=30M ITRY=15000 T=14D CHARGE=0 SINGLET eps=78.4 RELSCF=1


  C     0.00000000 +0    0.0000000 +0    0.0000000 +0     0     0     0
  C     1.39120367 +1    0.0000000 +0    0.0000000 +0     1     0     0
  C     1.39404772 +1  120.8488560 +1    0.0000000 +0     2     1     0
  C     1.39266471 +1  119.3095302 +1    0.5068184 +1     3     2     1
  C     1.38328032 +1  118.2885880 +1   -0.1183755 +1     4     3     2
  C     1.38439105 +1  123.7484584 +1   -1.1620518 +1     5     4     3
  H     1.09241546 +1  120.5267846 +1 -179.7605778 +1     1     2     3
  H     1.09446966 +1  119.8838193 +1  179.2224338 +1     2     1     3
  H     1.09559789 +1  119.6707318 +1  177.1892231 +1     4     3     2
 Cl     1.70842045 +1  118.7793970 +1  179.7891656 +1     5     4     3
  H     1.09143823 +1  122.7326307 +1 -179.6277052 +1     6     5     4
  C     1.50298374 +1  119.6871271 +1 -178.5694041 +1     3     2     1
  C     1.52247023 +1  112.5671734 +1  126.8455527 +1    12     3     2
  H     1.09726319 +1  112.2476316 +1 -179.7221879 +1    13    12     3
  H     1.09869522 +1  113.2305907 +1   58.6174885 +1    13    12     3
  H     1.10272139 +1  109.5661813 +1  -61.1176017 +1    13    12     3
  N     1.49649818 +1  107.7205509 +1 -113.3176232 +1    12     3     2
  O     1.21555219 +1  118.6980541 +1  113.6847193 +1    17    12     3
  O     1.21432914 +1  119.0077350 +1  -66.4953323 +1    17    12     3
  N     2.85517189 +1  166.9908705 +1   59.2789474 +1     8     2     1
  C     1.48425310 +1  115.1795332 +1  148.1287001 +1    20     8     2
  C     1.53930349 +1  112.5430702 +1  131.2920523 +1    21    20     8
  C     1.53267053 +1  110.0535971 +1  -56.4212213 +1    22    21    20
  C     1.53213818 +1  110.3677597 +1   55.0227571 +1    23    22    21
  C     1.48310626 +1   68.0080012 +1 -109.3490247 +1    20     8     2
  H     1.13594228 +1  110.6012436 +1    4.6905180 +1    12     3     2
  H     1.11213319 +1  108.2092112 +1 -106.5218614 +1    21    20     8
  H     1.11113289 +1  108.3495903 +1    8.8145656 +1    21    20     8
  H     1.10413236 +1  110.1763934 +1 -178.2865744 +1    22    21    20
  H     1.10540095 +1  110.1122538 +1   65.1312304 +1    22    21    20
  H     1.10457620 +1  110.2831217 +1  177.1507628 +1    23    22    21
  H     1.10785413 +1  110.1246398 +1  -66.3057537 +1    23    22    21
  H     1.10706827 +1  110.5161726 +1 -177.3040465 +1    24    23    22
  H     1.09384192 +1  110.6438804 +1   66.8243723 +1    24    23    22
  H     1.10763502 +1  108.3096989 +1   70.2214932 +1    25    20     8
  H     1.11427869 +1  108.1894703 +1  -45.5382398 +1    25    20     8
  H     1.02332259 +1  132.8017185 +1  -12.2515718 +1    20     8     2
  H     2.45647435 +1   94.1631350 +1  105.4946964 +1     8     2     1
  H     1.54340922 +1   63.0271613 +1  168.8883092 +1    38     8     2
  O     0.95878187 +1   81.6909005 +1  134.1805364 +1    38     8     2

 TIME=     2.27
  REACTANTS AND PRODUCTS SWAPPED AROUND
 *+*+*+*+*+*+*+*+*+*+*+*+*+*+*+*+*+*+*+*+*+*+*+*+*+*+*+*+*+*+*+*+*+*+*+*+*+*+*+*+
            BAR SHORTENED BY       1.000 PERCENT
 GRADIENT CRITERION IN FLEPO =    10.000


          FOR POINT   19 SECOND STRUCTURE
 DISTANCE A - B      9.484232
 HEAT             -114.716191
 GRADIENT NORM      22.676767
 DIRECTION COSINE    0.142454
* ===============================
* Input file for Mopac
* ===============================
 PM7 BONDS AUX DUMP=30M ITRY=15000 T=14D CHARGE=0 SINGLET eps=78.4 RELSCF=1


  C     0.00000000 +0    0.0000000 +0    0.0000000 +0     0     0     0
  C     1.39303187 +1    0.0000000 +0    0.0000000 +0     1     0     0
  C     1.40118285 +1  121.4562204 +1    0.0000000 +0     2     1     0
  C     1.40041247 +1  117.9402444 +1    0.9300795 +1     3     2     1
  C     1.38590610 +1  118.9085814 +1   -1.1032133 +1     4     3     2
  C     1.38442820 +1  124.1714157 +1    0.7970477 +1     5     4     3
  H     1.09440140 +1  120.3994261 +1 -179.6906860 +1     1     2     3
  H     1.08858031 +1  119.1918908 +1  178.6382585 +1     2     1     3
  H     1.08901864 +1  118.9571158 +1 -179.0931596 +1     4     3     2
 Cl     1.73043838 +1  118.2887474 +1 -178.2998389 +1     5     4     3
  H     1.08766273 +1  123.0147489 +1 -178.9303411 +1     6     5     4
  C     1.45268040 +1  121.2483873 +1 -177.7186647 +1     3     2     1
  C     1.48677646 +1  120.5914598 +1   48.1122110 +1    12     3     2
  H     1.10129736 +1  111.5588571 +1 -160.5914250 +1    13    12     3
  H     1.09657344 +1  110.9603013 +1   77.8475922 +1    13    12     3
  H     1.09793188 +1  111.7390559 +1  -40.9582314 +1    13    12     3
  N     1.34216843 +1  118.8560431 +1 -139.0945807 +1    12     3     2
  O     1.25900022 +1  122.7147089 +1 -179.4106010 +1    17    12     3
  O     1.25623052 +1  120.6461435 +1    3.9542097 +1    17    12     3
  N     4.01257626 +1  103.9627084 +1   63.9030015 +1    19    17    12
  C     1.51492918 +1   81.8215465 +1  119.4970523 +1    20    19    17
  C     1.52671735 +1  110.5055398 +1  117.0234791 +1    21    20    19
  C     1.53141481 +1  110.2016883 +1  -58.1978908 +1    22    21    20
  C     1.52942145 +1  110.1651208 +1   56.6914605 +1    23    22    21
  C     1.51426113 +1   63.3578504 +1 -123.0459523 +1    20    19    17
  H     2.21532541 +1   96.7050446 +1  -53.9885857 +1    12     3     2
  H     1.11295137 +1  108.3719138 +1 -120.6906830 +1    21    20    19
  H     1.11923915 +1  108.6352747 +1   -4.5371377 +1    21    20    19
  H     1.11261202 +1  109.6880948 +1  179.8822864 +1    22    21    20
  H     1.10956564 +1  110.9550786 +1   64.2565428 +1    22    21    20
  H     1.10754628 +1  110.3993647 +1  178.3182361 +1    23    22    21
  H     1.11088164 +1  110.7889703 +1  -66.2694416 +1    23    22    21
  H     1.11004162 +1  110.7945436 +1 -178.1789383 +1    24    23    22
  H     1.10761563 +1  110.1043666 +1   65.8276559 +1    24    23    22
  H     1.11473881 +1  108.4951002 +1  110.6221663 +1    25    20    19
  H     1.11532921 +1  109.1529871 +1   -6.0278703 +1    25    20    19
  H     1.04133114 +1  168.6285754 +1  -67.0638099 +1    20    19    17
  H     1.54004360 +1  118.8919907 +1   55.2046296 +1    26    12     3
  H     1.05870844 +1   68.6481367 +1    4.2422973 +1    20    19    17
  O     0.96886260 +1   37.3716903 +1 -167.7095668 +1    38    26    12

[...]
     57         19  O    CARTESIAN Z    -1.286688      2.250154  KCAL/ANGSTROM
     58         20  N    CARTESIAN X     4.251059     -0.049141  KCAL/ANGSTROM
     59         20  N    CARTESIAN Y    -0.301071     -1.188410  KCAL/ANGSTROM
     60         20  N    CARTESIAN Z    -4.208970     -0.837801  KCAL/ANGSTROM
     61         21  C    CARTESIAN X     4.262018      0.166156  KCAL/ANGSTROM
     62         21  C    CARTESIAN Y    -1.697348      0.811904  KCAL/ANGSTROM
     63         21  C    CARTESIAN Z    -4.748187      0.279520  KCAL/ANGSTROM
     64         22  C    CARTESIAN X     4.276616     -0.645747  KCAL/ANGSTROM
     65         22  C    CARTESIAN Y    -1.738739     -0.618493  KCAL/ANGSTROM
     66         22  C    CARTESIAN Z    -6.278530     -0.152878  KCAL/ANGSTROM
     67         23  C    CARTESIAN X     3.085190     -0.687172  KCAL/ANGSTROM
     68         23  C    CARTESIAN Y    -0.955451     -0.212414  KCAL/ANGSTROM
     69         23  C    CARTESIAN Z    -6.838715     -0.387677  KCAL/ANGSTROM
     70         24  C    CARTESIAN X     3.118695     -0.491090  KCAL/ANGSTROM
     71         24  C    CARTESIAN Y     0.485231     -0.293734  KCAL/ANGSTROM
     72         24  C    CARTESIAN Z    -6.320028     -0.598688  KCAL/ANGSTROM
     73         25  C    CARTESIAN X     3.126748      0.077715  KCAL/ANGSTROM
     74         25  C    CARTESIAN Y     0.500996      0.516981  KCAL/ANGSTROM
     75         25  C    CARTESIAN Z    -4.786370     -1.431647  KCAL/ANGSTROM
     76         26  H    CARTESIAN X     2.757995      1.005976  KCAL/ANGSTROM
     77         26  H    CARTESIAN Y    -1.017013     -1.225393  KCAL/ANGSTROM
     78         26  H    CARTESIAN Z    -1.266947     -0.811872  KCAL/ANGSTROM
     79         27  H    CARTESIAN X     5.153901      0.253106  KCAL/ANGSTROM
     80         27  H    CARTESIAN Y    -2.219139      0.745560  KCAL/ANGSTROM
     81         27  H    CARTESIAN Z    -4.332520      0.263854  KCAL/ANGSTROM
     82         28  H    CARTESIAN X     3.363487      0.251878  KCAL/ANGSTROM
     83         28  H    CARTESIAN Y    -2.226207      1.032307  KCAL/ANGSTROM
     84         28  H    CARTESIAN Z    -4.353661      0.548402  KCAL/ANGSTROM
     85         29  H    CARTESIAN X     4.248315     -0.199553  KCAL/ANGSTROM
     86         29  H    CARTESIAN Y    -2.789902      0.129969  KCAL/ANGSTROM
     87         29  H    CARTESIAN Z    -6.624950      0.414967  KCAL/ANGSTROM
     88         30  H    CARTESIAN X     5.225279     -0.293997  KCAL/ANGSTROM
     89         30  H    CARTESIAN Y    -1.324713     -0.042205  KCAL/ANGSTROM
     90         30  H    CARTESIAN Z    -6.670205     -0.025709  KCAL/ANGSTROM
     91         31  H    CARTESIAN X     3.105296     -0.074907  KCAL/ANGSTROM
     92         31  H    CARTESIAN Y    -0.967056     -0.292126  KCAL/ANGSTROM
     93         31  H    CARTESIAN Z    -7.944667     -0.026090  KCAL/ANGSTROM
     94         32  H    CARTESIAN X     2.133233     -0.227744  KCAL/ANGSTROM
     95         32  H    CARTESIAN Y    -1.445166     -0.067301  KCAL/ANGSTROM
     96         32  H    CARTESIAN Z    -6.551876      0.237803  KCAL/ANGSTROM
     97         33  H    CARTESIAN X     2.241004     -0.332339  KCAL/ANGSTROM
     98         33  H    CARTESIAN Y     1.049933     -0.299668  KCAL/ANGSTROM
     99         33  H    CARTESIAN Z    -6.692318     -0.112399  KCAL/ANGSTROM
    100         34  H    CARTESIAN X     4.001480     -0.620438  KCAL/ANGSTROM
    101         34  H    CARTESIAN Y     1.016972     -0.101798  KCAL/ANGSTROM
    102         34  H    CARTESIAN Z    -6.721470     -0.506357  KCAL/ANGSTROM
    103         35  H    CARTESIAN X     3.216051     -0.067961  KCAL/ANGSTROM
    104         35  H    CARTESIAN Y     1.548164      0.518087  KCAL/ANGSTROM
    105         35  H    CARTESIAN Z    -4.415555     -0.353881  KCAL/ANGSTROM
    106         36  H    CARTESIAN X     2.165438      0.576303  KCAL/ANGSTROM
    107         36  H    CARTESIAN Y     0.092318      0.363894  KCAL/ANGSTROM
    108         36  H    CARTESIAN Z    -4.398947      0.144917  KCAL/ANGSTROM
    109         37  H    CARTESIAN X     5.151476      1.195375  KCAL/ANGSTROM
    110         37  H    CARTESIAN Y     0.166128      1.262726  KCAL/ANGSTROM
    111         37  H    CARTESIAN Z    -4.401612     -1.274057  KCAL/ANGSTROM
    112         38  H    CARTESIAN X     4.339314      0.636085  KCAL/ANGSTROM
    113         38  H    CARTESIAN Y    -0.136895      2.566115  KCAL/ANGSTROM
    114         38  H    CARTESIAN Z    -1.200168      1.311002  KCAL/ANGSTROM
    115         39  H    CARTESIAN X     4.098425      1.330580  KCAL/ANGSTROM
    116         39  H    CARTESIAN Y    -0.450917      0.710111  KCAL/ANGSTROM
    117         39  H    CARTESIAN Z    -2.905027      0.812309  KCAL/ANGSTROM
    118         40  O    CARTESIAN X     3.973664      0.905798  KCAL/ANGSTROM
    119         40  O    CARTESIAN Y    -0.823289     -0.389300  KCAL/ANGSTROM
    120         40  O    CARTESIAN Z    -1.754586     -0.770987  KCAL/ANGSTROM




   ATOM   CHEMICAL          X               Y               Z
  NUMBER   SYMBOL      (ANGSTROMS)     (ANGSTROMS)     (ANGSTROMS)

     1       C          1.52805269  *   2.67463475  *  -1.65655357  *
     2       C          1.85152455  *   1.32653320  *  -1.53175709  *
     3       C          1.26617180  *   0.52967897  *  -0.54335934  *
     4       C          0.31544562  *   1.08983707  *   0.31447448  *
     5       C          0.00473059  *   2.43222618  *   0.15572923  *
     6       C          0.59037401  *   3.24893827  *  -0.80102523  *
     7       H          2.01301226  *   3.28022349  *  -2.42704819  *
     8       H          2.57992870  *   0.89517600  *  -2.21867041  *
     9       H         -0.16391340  *   0.47873255  *   1.08157017  *
    10      Cl         -1.17378972  *   3.11845938  *   1.20237592  *
    11       H          0.33213222  *   4.30471821  *  -0.89426542  *
    12       C          1.69315082  *  -0.89196407  *  -0.42658520  *
    13       C          2.31367179  *  -1.25968996  *   0.90449786  *
    14       H          2.63168564  *  -2.31319155  *   0.93211936  *
    15       H          1.63158179  *  -1.09970661  *   1.75093889  *
    16       H          3.21400577  *  -0.65575847  *   1.09161646  *
    17       N          0.68148597  *  -1.82412431  *  -0.84058851  *
    18       O          0.90689663  *  -3.03322298  *  -0.79224509  *
    19       O         -0.39217800  *  -1.42058003  *  -1.28668788  *
    20       N          4.25105890  *  -0.30107123  *  -4.20896950  *
    21       C          4.26201848  *  -1.69734846  *  -4.74818742  *
    22       C          4.27661646  *  -1.73873851  *  -6.27852975  *
    23       C          3.08518985  *  -0.95545123  *  -6.83871522  *
    24       C          3.11869495  *   0.48523099  *  -6.32002794  *
    25       C          3.12674837  *   0.50099551  *  -4.78637006  *
    26       H          2.75799464  *  -1.01701271  *  -1.26694673  *
    27       H          5.15390126  *  -2.21913856  *  -4.33252036  *
    28       H          3.36348737  *  -2.22620706  *  -4.35366072  *
    29       H          4.24831544  *  -2.78990193  *  -6.62494996  *
    30       H          5.22527896  *  -1.32471277  *  -6.67020525  *
    31       H          3.10529627  *  -0.96705601  *  -7.94466659  *
    32       H          2.13323298  *  -1.44516619  *  -6.55187551  *
    33       H          2.24100394  *   1.04993271  *  -6.69231817  *
    34       H          4.00147960  *   1.01697179  *  -6.72146984  *
    35       H          3.21605068  *   1.54816447  *  -4.41555464  *
    36       H          2.16543849  *   0.09231841  *  -4.39894651  *
    37       H          5.15147622  *   0.16612757  *  -4.40161200  *
    38       H          4.33931432  *  -0.13689534  *  -1.20016799  *
    39       H          4.09842502  *  -0.45091696  *  -2.90502728  *
    40       O          3.97366415  *  -0.82328930  *  -1.75458563  *

                             CARTESIAN COORDINATES

   1    C        1.528052688     2.674634753    -1.656553572
   2    C        1.851524552     1.326533200    -1.531757085
   3    C        1.266171797     0.529678970    -0.543359338
   4    C        0.315445618     1.089837069     0.314474477
   5    C        0.004730586     2.432226181     0.155729227
   6    C        0.590374014     3.248938271    -0.801025225
   7    H        2.013012261     3.280223490    -2.427048187
   8    H        2.579928705     0.895175996    -2.218670408
   9    H       -0.163913399     0.478732547     1.081570170
  10   Cl       -1.173789720     3.118459379     1.202375916
  11    H        0.332132218     4.304718208    -0.894265419
  12    C        1.693150823    -0.891964067    -0.426585203
  13    C        2.313671788    -1.259689961     0.904497864
  14    H        2.631685636    -2.313191548     0.932119362
  15    H        1.631581790    -1.099706610     1.750938893
  16    H        3.214005773    -0.655758475     1.091616456
  17    N        0.681485971    -1.824124313    -0.840588507
  18    O        0.906896633    -3.033222981    -0.792245086
  19    O       -0.392178004    -1.420580034    -1.286687883
  20    N        4.251058899    -0.301071233    -4.208969503
  21    C        4.262018479    -1.697348464    -4.748187423
  22    C        4.276616461    -1.738738514    -6.278529750
  23    C        3.085189849    -0.955451229    -6.838715224
  24    C        3.118694951     0.485230993    -6.320027945
  25    C        3.126748369     0.500995510    -4.786370063
  26    H        2.757994635    -1.017012713    -1.266946734
  27    H        5.153901257    -2.219138558    -4.332520363
  28    H        3.363487366    -2.226207064    -4.353660719
  29    H        4.248315441    -2.789901927    -6.624949955
  30    H        5.225278960    -1.324712769    -6.670205249
  31    H        3.105296269    -0.967056010    -7.944666586
  32    H        2.133232975    -1.445166188    -6.551875514
  33    H        2.241003942     1.049932707    -6.692318175
  34    H        4.001479604     1.016971793    -6.721469843
  35    H        3.216050680     1.548164474    -4.415554642
  36    H        2.165438493     0.092318408    -4.398946511
  37    H        5.151476217     0.166127568    -4.401611995
  38    H        4.339314318    -0.136895338    -1.200167987
  39    H        4.098425018    -0.450916962    -2.905027281
  40    O        3.973664155    -0.823289303    -1.754585635


           Empirical Formula: C13 H21 N2 O3 Cl  =    40 atoms



      MOLECULAR POINT GROUP   :   C1  


                  EIGENVALUES  
 -36.89559 -36.64082 -31.39447 -30.06217 -28.94319 -28.67018 -27.42651 -27.25305
 -26.51291 -25.93946 -24.78847 -24.72913 -22.74422 -22.12777 -21.62067 -21.02929
 -20.13302 -20.02100 -18.37779 -18.11783 -17.87426 -17.44726 -17.03938 -16.76397
 -16.06651 -15.91587 -15.75175 -15.55691 -15.26588 -15.03636 -14.78228 -14.56899
 -14.45330 -14.23883 -13.84636 -13.55360 -13.51350 -13.37807 -12.88809 -12.57295
 -12.49380 -12.40309 -12.19500 -12.08146 -11.69552 -11.66453 -11.55571 -11.55088
 -11.51946 -11.37082 -10.76926 -10.24259  -9.98852  -9.86088  -0.43622  -0.32817
  -0.10600   0.70636   1.12373   2.01443   2.04327   3.19494   3.48515   3.59210
   3.77364   3.88715   3.97359   4.06274   4.10311   4.29344   4.45245   4.52615
   4.53246   4.69515   4.80264   4.94707   4.98532   5.20332   5.28628   5.43746
   5.51743   5.58496   5.63347   5.68023   5.69637   5.76484   5.80793   5.84219
   5.87079   5.93698   5.96748   6.15516   6.35508   6.45530   6.51775   6.70565
   6.79945  69.53604  69.55172  69.58158  69.80365  69.81929


              NET ATOMIC CHARGES AND DIPOLE CONTRIBUTIONS

  ATOM NO.   TYPE          CHARGE      No. of ELECS.   s-Pop       p-Pop       d-Pop       
    1          C          -0.118570        4.1186     1.08838     3.03019
    2          C          -0.175718        4.1757     1.09013     3.08559
    3          C           0.038108        3.9619     1.06722     2.89467
    4          C          -0.185377        4.1854     1.08666     3.09872
    5          C           0.025257        3.9747     1.09584     2.87890
    6          C          -0.183830        4.1838     1.08552     3.09831
    7          H           0.172965        0.8270     0.82703
    8          H           0.167869        0.8321     0.83213
    9          H           0.190166        0.8098     0.80983
   10         Cl          -0.124160        7.1242     1.98038     5.13740     0.00639
   11          H           0.183286        0.8167     0.81671
   12          C          -0.287741        4.2877     1.10944     3.17830
   13          C          -0.428247        4.4282     1.05131     3.37694
   14          H           0.168891        0.8311     0.83111
   15          H           0.159272        0.8407     0.84073
   16          H           0.168224        0.8318     0.83178
   17          N           0.691628        4.3084     1.45693     2.85144
   18          O          -0.521264        6.5213     1.94089     4.58037
   19          O          -0.520886        6.5209     1.94080     4.58009
   20          N          -0.408144        5.4081     1.59706     3.81108
   21          C          -0.134706        4.1347     1.07690     3.05781
   22          C          -0.309675        4.3097     1.06272     3.24695
   23          C          -0.267557        4.2676     1.05793     3.20963
   24          C          -0.304035        4.3040     1.06271     3.24133
   25          C          -0.135380        4.1354     1.07732     3.05806
   26          H           0.397182        0.6028     0.60282
   27          H           0.158582        0.8414     0.84142
   28          H           0.168004        0.8320     0.83200
   29          H           0.156910        0.8431     0.84309
   30          H           0.149437        0.8506     0.85056
   31          H           0.142782        0.8572     0.85722
   32          H           0.152542        0.8475     0.84746
   33          H           0.157849        0.8422     0.84215
   34          H           0.148446        0.8516     0.85155
   35          H           0.159142        0.8409     0.84086
   36          H           0.164579        0.8354     0.83542
   37          H           0.296464        0.7035     0.70354
   38          H           0.367525        0.6325     0.63247
   39          H           0.422258        0.5777     0.57774
   40          O          -0.902080        6.9021     1.84143     5.06065
 DIPOLE           X         Y         Z       TOTAL
 POINT-CHG.    10.802     5.080    -8.484    14.645
 HYBRID        -0.218     0.250    -0.097     0.346
 SUM           10.584     5.330    -8.582    14.631


          ATOMIC ORBITAL ELECTRON POPULATIONS

     Atom    s        px        py        pz      x^2-y^2     xz        z^2       yz        xy
    1  C   1.08838   0.98846   1.01336   1.02837
    2  C   1.09013   1.04648   1.00570   1.03340
    3  C   1.06722   0.96341   0.96631   0.96495
    4  C   1.08666   1.03248   1.00323   1.06301
    5  C   1.09584   0.94864   0.97370   0.95656
    6  C   1.08552   1.01310   1.09027   0.99494
    7  H   0.82703
    8  H   0.83213
    9  H   0.80983
   10 Cl   1.98038   1.59466   1.86237   1.68037   0.00085   0.00237   0.00079   0.00093   0.00146
   11  H   0.81671
   12  C   1.10944   1.07684   0.90922   1.19225
   13  C   1.05131   1.16120   1.18653   1.02922
   14  H   0.83111
   15  H   0.84073
   16  H   0.83178
   17  N   1.45693   0.96645   0.97593   0.90906
   18  O   1.94089   1.85166   1.07150   1.65721
   19  O   1.94080   1.20795   1.82496   1.54718
   20  N   1.59706   1.20444   1.14782   1.45882
   21  C   1.07690   1.18101   0.87107   1.00573
   22  C   1.06272   1.09548   1.14120   1.01027
   23  C   1.05793   1.07706   1.00631   1.12626
   24  C   1.06271   1.18294   1.05162   1.00676
   25  C   1.07732   0.98364   1.06800   1.00641
   26  H   0.60282
   27  H   0.84142
   28  H   0.83200
   29  H   0.84309
   30  H   0.85056
   31  H   0.85722
   32  H   0.84746
   33  H   0.84215
   34  H   0.85155
   35  H   0.84086
   36  H   0.83542
   37  H   0.70354
   38  H   0.63247
   39  H   0.57774
   40  O   1.84143   1.77957   1.67504   1.60604

          BONDING CONTRIBUTION OF EACH M.O.

  1.3438  1.3720  1.8779  0.9827  1.6245  1.8855  1.3196  1.0060  1.9483  1.6204
  1.2716  1.2602  1.9065  1.7502  1.9734  1.7424  1.8241  1.5335  1.6331  1.5392
  1.4336  1.6277  1.8105  1.7667  1.8379  1.9606  1.4842  1.7537  1.7936  1.8150
  1.8691  1.9918  1.8540  1.7172  1.7322  1.8856  1.9075  1.8132  1.1598  1.8738
  1.7297  1.9284  1.4357  0.8149  0.7833  1.9956  0.4370  1.8091  0.3519  0.6812
  1.3188  1.9453  1.5921  1.1067 -2.0301 -2.0261 -2.3516 -1.9751 -2.0893 -1.9223
 -2.0035 -1.9585 -1.9140 -1.9430 -1.9739 -1.9573 -1.9558 -1.9601 -1.9556 -1.9603
 -1.9749 -1.9669 -1.9773 -2.0060 -1.9783 -1.9743 -1.9203 -1.9481 -1.9758 -1.9630
 -1.9523 -1.9435 -1.9556 -1.9676 -1.9782 -1.9283 -1.9365 -1.9381 -1.9588 -1.9558
 -1.9443 -1.8342 -1.9477 -1.9342 -1.9362 -1.7793 -1.8600 -0.0060 -0.0096 -0.0035
 -0.0001 -0.0014





            (VALENCIES)   BOND ORDERS

     1  C     (3.968)     2  C 1.443     6  C 1.436     7  H 0.957     4  C 0.109    10 Cl 0.011

     2  C     (3.971)     1  C 1.443     3  C 1.422     8  H 0.951     5  C 0.110

     3  C     (3.991)     2  C 1.422     4  C 1.418    12  C 0.999     6  C 0.111    10 Cl 0.011

     4  C     (3.964)     5  C 1.429     3  C 1.418     9  H 0.948     1  C 0.109    10 Cl 0.024

     5  C     (3.959)     4  C 1.429     6  C 1.424    10 Cl 0.978     2  C 0.110

     6  C     (3.966)     1  C 1.436     5  C 1.424    11  H 0.952     3  C 0.111    10 Cl 0.024

     7  H     (0.970)     1  C 0.957

     8  H     (0.972)     2  C 0.951

     9  H     (0.964)     4  C 0.948

    10 Cl     (1.060)     5  C 0.978     4  C 0.024     6  C 0.024     1  C 0.011     3  C 0.011

    11  H     (0.966)     6  C 0.952

    12  C     (3.713)     3  C 0.999    13  C 0.980    17  N 0.926    26  H 0.543    19  O 0.080    18  O 0.077
                         40  O 0.063

    13  C     (3.911)    12  C 0.980    15  H 0.966    14  H 0.961    16  H 0.959    19  O 0.012

    14  H     (0.971)    13  C 0.961

    15  H     (0.975)    13  C 0.966

    16  H     (0.972)    13  C 0.959

    17  N     (3.763)    19  O 1.397    18  O 1.393    12  C 0.926

    18  O     (1.762)    17  N 1.393    19  O 0.260    12  C 0.077

    19  O     (1.768)    17  N 1.397    18  O 0.260    12  C 0.080    13  C 0.012

    20  N     (3.288)    21  C 0.943    25  C 0.940    37  H 0.885    39  H 0.405    40  O 0.074

    21  C     (3.907)    22  C 1.003    27  H 0.961    28  H 0.960    20  N 0.943

    22  C     (3.953)    21  C 1.003    23  C 1.002    30  H 0.967    29  H 0.961

    23  C     (3.956)    24  C 1.002    22  C 1.002    31  H 0.968    32  H 0.967

    24  C     (3.953)    23  C 1.002    25  C 1.002    34  H 0.967    33  H 0.961

    25  C     (3.908)    24  C 1.002    36  H 0.961    35  H 0.960    20  N 0.940

    26  H     (0.842)    12  C 0.543    40  O 0.261

    27  H     (0.975)    21  C 0.961

    28  H     (0.972)    21  C 0.960

    29  H     (0.975)    22  C 0.961

    30  H     (0.978)    22  C 0.967

    31  H     (0.980)    23  C 0.968

    32  H     (0.977)    23  C 0.967

    33  H     (0.975)    24  C 0.961

    34  H     (0.978)    24  C 0.967

    35  H     (0.975)    25  C 0.960

    36  H     (0.973)    25  C 0.961

    37  H     (0.912)    20  N 0.885

    38  H     (0.865)    40  O 0.852

    39  H     (0.822)    20  N 0.405    40  O 0.396

    40  O     (1.683)    38  H 0.852    39  H 0.396    26  H 0.261    20  N 0.074    12  C 0.063


 **********************
 *                    *
 * JOB ENDED NORMALLY *
 *                    *
 **********************



 TOTAL JOB TIME:          1171.58 SECONDS

 == MOPAC DONE ==
