 *******************************************************************************
 **                                                                           **
 **                              MOPAC v22.1.0                                **
 **                                                                           **
 *******************************************************************************
 **          Digital Object Identifier (DOI): 10.5281/zenodo.6511958          **
 **    Visit the DOI location for information on how to cite this program.    **
 *******************************************************************************

                              PM7 CALCULATION RESULTS

 *******************************************************************************
 *  CALCULATION DONE:                                Sat Mar 23 14:32:42 2024  *
 *  PM7        - The PM7 Hamiltonian to be used
 *  SINGLET    - SPIN STATE DEFINED AS A SINGLET
 *
 *
 *
 *                 CHARGE ON SYSTEM = -1
 *
 *
 *
 *  EPS=78.4   - USE ANDREAS KLAMT'S COSMO IMPLICIT SOLVATION MODEL
 *  THREADS    - USE A MAXIMUM OF 40 THREADS
 *  T=         - A TIME OF 14.0 DAYS REQUESTED
 *  DUMP=N     - RESTART FILE WRITTEN EVERY 30.0 MINUTES REQUESTED
 *  ITRY=      - DO A MAXIMUM OF 15000 ITERATIONS FOR SCF
 *  AUX        - OUTPUT AUXILIARY INFORMATION
 *  PL         - MONITOR CONVERGENCE IN DENSITY MATRIX
 *******************************************************************************
PM7 CHARGE=-1 SINGLET AUX DUMP=30M ITRY=15000 eps=78.4 T=14D PL THREADS=40

 Mopac file generated by Gabedit
   ATOM   CHEMICAL          X               Y               Z
  NUMBER   SYMBOL      (ANGSTROMS)     (ANGSTROMS)     (ANGSTROMS)

     1       C          0.80703000  *  -0.73290000  *   0.06074000  *
     2       H          1.92525000  *  -0.88223000  *   0.09157000  *
     3       N          0.23156000  *  -1.37425000  *   1.29395000  *
     4       O          0.99103000  *  -1.95436000  *   2.05564000  *
     5       O         -0.96926000  *  -1.30896000  *   1.50405000  *
     6       C          6.34554400  *  -2.42899500  *   0.96848700  *
     7       O          5.69331400  *  -2.13049500  *   1.98626700  *
     8       O          5.84477400  *  -2.67236500  *  -0.14605300  *
     9       C          7.85569400  *  -2.54111500  *   1.10399700  *
    10       H          8.32657400  *  -2.81497500  *   0.15618700  *
    11       H          8.11626400  *  -3.30576500  *   1.84612700  *
    12       H          8.29991400  *  -1.59876500  *   1.44236700  *
    13       C          0.47414000  *   0.75295000  *   0.09358000  *
    14       H          0.87737000  *   1.25440000  *   0.98437000  *
    15       H         -0.60654000  *   0.94385000  *   0.06645000  *
    16       H          0.91509000  *   1.25548000  *  -0.78293000  *
    17       C          0.21218000  *  -1.43086000  *  -1.15404000  *
    18       H         -0.87486000  *  -1.28754000  *  -1.23293000  *
    19       H          0.40340000  *  -2.51257000  *  -1.15735000  *
    20       H          0.66518000  *  -1.02238000  *  -2.07658000  *
    21       H          3.77574000  *  -1.44264700  *   0.60766500  *
    22       O          4.27386000  *  -1.07070200  *   0.14656900  *
    23       H          4.86406400  *  -0.48863200  *   0.66572500  *



          CARTESIAN COORDINATES 

    NO.       ATOM           X           Y           Z

     1         C          0.8070     -0.7329      0.0607
     2         H          1.9253     -0.8822      0.0916
     3         N          0.2316     -1.3742      1.2940
     4         O          0.9910     -1.9544      2.0556
     5         O         -0.9693     -1.3090      1.5040
     6         C          6.3455     -2.4290      0.9685
     7         O          5.6933     -2.1305      1.9863
     8         O          5.8448     -2.6724     -0.1461
     9         C          7.8557     -2.5411      1.1040
    10         H          8.3266     -2.8150      0.1562
    11         H          8.1163     -3.3058      1.8461
    12         H          8.2999     -1.5988      1.4424
    13         C          0.4741      0.7530      0.0936
    14         H          0.8774      1.2544      0.9844
    15         H         -0.6065      0.9439      0.0664
    16         H          0.9151      1.2555     -0.7829
    17         C          0.2122     -1.4309     -1.1540
    18         H         -0.8749     -1.2875     -1.2329
    19         H          0.4034     -2.5126     -1.1574
    20         H          0.6652     -1.0224     -2.0766
    21         H          3.7757     -1.4426      0.6077
    22         O          4.2739     -1.0707      0.1466
    23         H          4.8641     -0.4886      0.6657

 General Reference for PM7:
 "Optimization of Parameters for Semiempirical Methods VI: More Modifications to the 
 NDDO Approximations and Re-optimization of Parameters", J. J. P. Stewart, J. Mol. Mod., 1:32, 19 (2013)
 https://link.springer.com/article/10.1007/s00894-012-1667-x

           Empirical Formula: C5 H12 N O5  =    23 atoms



      MOLECULAR POINT GROUP   :   C1  


 SINGLET STATE CALCULATION


      RHF CALCULATION, NO. OF DOUBLY OCCUPIED LEVELS = 34


          Geometry optimization using EF
 ITERATION   1 PLS= 0.100E+01 0.000E+00 ENERGY     9666.535050 DELTAE 9566.5350498
 ITERATION   2 PLS= 0.116E+01 0.000E+00 ENERGY      -19.326666 DELTAE-9685.8617157
 ITERATION   3 PLS= 0.985E-01 0.000E+00 ENERGY     -116.515193 DELTAE  -97.1885271
 ITERATION   4 PLS= 0.710E-01 0.000E+00 ENERGY     -309.249168 DELTAE -192.7339748
 ITERATION   5 PLS= 0.222E-01 0.000E+00 ENERGY     -194.400021 DELTAE  114.8491464
 ITERATION   6 PLS= 0.142E-01 0.000E+00 ENERGY     -196.499188 DELTAE   -2.0991662
 ITERATION   7 PLS= 0.264E-01 0.000E+00 ENERGY     -209.291076 DELTAE  -12.7918887
 ITERATION   8 PLS= 0.143E-01 0.000E+00 ENERGY     -199.804940 DELTAE    9.4861367
 ITERATION   9 PLS= 0.596E-02 0.000E+00 ENERGY     -199.951105 DELTAE   -0.1461653
 ITERATION  10 PLS= 0.290E-02 0.000E+00 ENERGY     -200.028613 DELTAE   -0.0775076
 ITERATION  11 PLS= 0.690E-03 0.000E+00 ENERGY     -199.990011 DELTAE    0.0386020
 ITERATION  12 PLS= 0.241E-03 0.000E+00 ENERGY     -199.990194 DELTAE   -0.0001832
 ITERATION   1 PLS= 0.124E-03 0.000E+00 ENERGY     -279.952766 DELTAE -379.9527663
 ITERATION   2 PLS= 0.382E-01 0.000E+00 ENERGY     -283.002464 DELTAE   -3.0496978
 ITERATION   3 PLS= 0.155E-01 0.000E+00 ENERGY     -283.613076 DELTAE   -0.6106122
 ITERATION   4 PLS= 0.765E-02 0.000E+00 ENERGY     -284.116238 DELTAE   -0.5031621
 ITERATION   5 PLS= 0.617E-03 0.000E+00 ENERGY     -283.865913 DELTAE    0.2503256
 ITERATION   6 PLS= 0.376E-03 0.000E+00 ENERGY     -283.867008 DELTAE   -0.0010956
 ITERATION   7 PLS= 0.231E-03 0.000E+00 ENERGY     -283.868357 DELTAE   -0.0013483
 ITERATION   8 PLS= 0.537E-04 0.000E+00 ENERGY     -283.867570 DELTAE    0.0007867

          DIAGONAL MATRIX USED AS START HESSIAN

 CYCLE:     1 TIME:   0.082 TIME LEFT:  2.00W  GRAD.:   191.106 HEAT: -283.8676
 ITERATION   1 PLS= 0.260E-04 0.000E+00 ENERGY     -278.535937 DELTAE -378.5359367
 ITERATION   2 PLS= 0.789E-01 0.000E+00 ENERGY     -292.593888 DELTAE  -14.0579513
 ITERATION   3 PLS= 0.417E-01 0.000E+00 ENERGY     -294.559755 DELTAE   -1.9658670
 ITERATION   4 PLS= 0.259E-01 0.000E+00 ENERGY     -296.221237 DELTAE   -1.6614824
 ITERATION   5 PLS= 0.498E-02 0.000E+00 ENERGY     -295.275622 DELTAE    0.9456158
 ITERATION   6 PLS= 0.142E-02 0.000E+00 ENERGY     -295.278998 DELTAE   -0.0033770
 CYCLE:     2 TIME:   0.027 TIME LEFT:  2.00W  GRAD.:    86.631 HEAT: -295.2805
 ITERATION   1 PLS= 0.700E-03 0.000E+00 ENERGY     -229.455694 DELTAE -329.4556941
 ITERATION   2 PLS= 0.834E-01 0.000E+00 ENERGY     -261.966878 DELTAE  -32.5111842
 ITERATION   3 PLS= 0.280E-01 0.000E+00 ENERGY     -265.050326 DELTAE   -3.0834479
 ITERATION   4 PLS= 0.122E-01 0.000E+00 ENERGY     -266.042687 DELTAE   -0.9923610
 ITERATION   5 PLS= 0.331E-02 0.000E+00 ENERGY     -265.656784 DELTAE    0.3859030
 ITERATION   6 PLS= 0.172E-02 0.000E+00 ENERGY     -265.661535 DELTAE   -0.0047505
 ITERATION   1 PLS= 0.951E-03 0.000E+00 ENERGY     -282.146965 DELTAE -382.1469649
 ITERATION   2 PLS= 0.446E-01 0.000E+00 ENERGY     -291.589027 DELTAE   -9.4420624
 ITERATION   3 PLS= 0.156E-01 0.000E+00 ENERGY     -292.508504 DELTAE   -0.9194772
 ITERATION   4 PLS= 0.908E-02 0.000E+00 ENERGY     -292.847884 DELTAE   -0.3393801
 ITERATION   5 PLS= 0.163E-02 0.000E+00 ENERGY     -292.699423 DELTAE    0.1484613
 ITERATION   6 PLS= 0.739E-03 0.000E+00 ENERGY     -292.700495 DELTAE   -0.0010718
 ITERATION   1 PLS= 0.385E-03 0.000E+00 ENERGY     -294.425521 DELTAE -394.4255210
 ITERATION   2 PLS= 0.227E-01 0.000E+00 ENERGY     -296.678960 DELTAE   -2.2534389
 ITERATION   3 PLS= 0.774E-02 0.000E+00 ENERGY     -296.892208 DELTAE   -0.2132483
 ITERATION   4 PLS= 0.380E-02 0.000E+00 ENERGY     -296.967000 DELTAE   -0.0747915
 ITERATION   5 PLS= 0.808E-03 0.000E+00 ENERGY     -296.935492 DELTAE    0.0315081
 CYCLE:     3 TIME:   0.059 TIME LEFT:  2.00W  GRAD.:    76.857 HEAT: -296.9357
 ITERATION   1 PLS= 0.387E-03 0.000E+00 ENERGY     -297.631803 DELTAE -397.6318035
 ITERATION   2 PLS= 0.129E-01 0.000E+00 ENERGY     -299.081419 DELTAE   -1.4496155
 ITERATION   3 PLS= 0.720E-02 0.000E+00 ENERGY     -299.260274 DELTAE   -0.1788555
 ITERATION   4 PLS= 0.438E-02 0.000E+00 ENERGY     -299.361597 DELTAE   -0.1013222
 ITERATION   5 PLS= 0.828E-03 0.000E+00 ENERGY     -299.311342 DELTAE    0.0502546
 CYCLE:     4 TIME:   0.020 TIME LEFT:  2.00W  GRAD.:    41.024 HEAT: -299.3116
 ITERATION   1 PLS= 0.436E-03 0.000E+00 ENERGY     -297.811058 DELTAE -397.8110576
 ITERATION   2 PLS= 0.173E-01 0.000E+00 ENERGY     -299.779208 DELTAE   -1.9681501
 ITERATION   3 PLS= 0.104E-01 0.000E+00 ENERGY     -300.209136 DELTAE   -0.4299285
 ITERATION   4 PLS= 0.587E-02 0.000E+00 ENERGY     -300.516826 DELTAE   -0.3076899
 ITERATION   5 PLS= 0.401E-03 0.000E+00 ENERGY     -300.354363 DELTAE    0.1624633
 ITERATION   6 PLS= 0.207E-03 0.000E+00 ENERGY     -300.354523 DELTAE   -0.0001597
 CYCLE:     5 TIME:   0.020 TIME LEFT:  2.00W  GRAD.:    65.037 HEAT: -300.3546
 ITERATION   1 PLS= 0.117E-03 0.000E+00 ENERGY     -297.879735 DELTAE -397.8797355
 ITERATION   2 PLS= 0.171E-01 0.000E+00 ENERGY     -301.797902 DELTAE   -3.9181670
 ITERATION   3 PLS= 0.883E-02 0.000E+00 ENERGY     -302.639635 DELTAE   -0.8417322
 ITERATION   4 PLS= 0.507E-02 0.000E+00 ENERGY     -303.244810 DELTAE   -0.6051749
 ITERATION   5 PLS= 0.979E-03 0.000E+00 ENERGY     -302.923757 DELTAE    0.3210524
 ITERATION   6 PLS= 0.330E-03 0.000E+00 ENERGY     -302.924128 DELTAE   -0.0003712
 CYCLE:     6 TIME:   0.020 TIME LEFT:  2.00W  GRAD.:    50.016 HEAT: -302.9244
 ITERATION   1 PLS= 0.198E-03 0.000E+00 ENERGY     -288.076999 DELTAE -388.0769985
 ITERATION   2 PLS= 0.246E-01 0.000E+00 ENERGY     -297.114075 DELTAE   -9.0370764
 ITERATION   3 PLS= 0.145E-01 0.000E+00 ENERGY     -298.802622 DELTAE   -1.6885468
 ITERATION   4 PLS= 0.931E-02 0.000E+00 ENERGY     -300.130149 DELTAE   -1.3275272
 ITERATION   5 PLS= 0.169E-02 0.000E+00 ENERGY     -299.374177 DELTAE    0.7559716
 ITERATION   6 PLS= 0.509E-03 0.000E+00 ENERGY     -299.376205 DELTAE   -0.0020276
 ITERATION   1 PLS= 0.275E-03 0.000E+00 ENERGY     -300.136029 DELTAE -400.1360290
 ITERATION   2 PLS= 0.175E-01 0.000E+00 ENERGY     -302.230466 DELTAE   -2.0944372
 ITERATION   3 PLS= 0.824E-02 0.000E+00 ENERGY     -302.659394 DELTAE   -0.4289276
 ITERATION   4 PLS= 0.446E-02 0.000E+00 ENERGY     -302.962226 DELTAE   -0.3028323
 ITERATION   5 PLS= 0.667E-03 0.000E+00 ENERGY     -302.806016 DELTAE    0.1562100
 ITERATION   6 PLS= 0.312E-03 0.000E+00 ENERGY     -302.806313 DELTAE   -0.0002966
 ITERATION   1 PLS= 0.146E-03 0.000E+00 ENERGY     -302.833509 DELTAE -402.8335094
 ITERATION   2 PLS= 0.667E-02 0.000E+00 ENERGY     -303.472840 DELTAE   -0.6393307
 ITERATION   3 PLS= 0.340E-02 0.000E+00 ENERGY     -303.593159 DELTAE   -0.1203192
 ITERATION   4 PLS= 0.201E-02 0.000E+00 ENERGY     -303.675901 DELTAE   -0.0827419
 ITERATION   5 PLS= 0.390E-03 0.000E+00 ENERGY     -303.633220 DELTAE    0.0426813
 CYCLE:     7 TIME:   0.051 TIME LEFT:  2.00W  GRAD.:    40.243 HEAT: -303.6333
 ITERATION   1 PLS= 0.178E-03 0.000E+00 ENERGY     -302.165799 DELTAE -402.1657985
 ITERATION   2 PLS= 0.159E-01 0.000E+00 ENERGY     -303.551340 DELTAE   -1.3855413
 ITERATION   3 PLS= 0.827E-02 0.000E+00 ENERGY     -303.793534 DELTAE   -0.2421944
 ITERATION   4 PLS= 0.430E-02 0.000E+00 ENERGY     -303.952759 DELTAE   -0.1592245
 ITERATION   5 PLS= 0.296E-03 0.000E+00 ENERGY     -303.871490 DELTAE    0.0812688
 CYCLE:     8 TIME:   0.020 TIME LEFT:  2.00W  GRAD.:    57.142 HEAT: -303.8717
 ITERATION   1 PLS= 0.185E-03 0.000E+00 ENERGY     -303.383791 DELTAE -403.3837909
 ITERATION   2 PLS= 0.225E-01 0.000E+00 ENERGY     -304.651771 DELTAE   -1.2679802
 ITERATION   3 PLS= 0.119E-01 0.000E+00 ENERGY     -304.868207 DELTAE   -0.2164363
 ITERATION   4 PLS= 0.624E-02 0.000E+00 ENERGY     -305.002323 DELTAE   -0.1341155
 ITERATION   5 PLS= 0.343E-03 0.000E+00 ENERGY     -304.936917 DELTAE    0.0654063
 CYCLE:     9 TIME:   0.020 TIME LEFT:  2.00W  GRAD.:    39.980 HEAT: -304.9370
 ITERATION   1 PLS= 0.202E-03 0.000E+00 ENERGY     -302.598515 DELTAE -402.5985153
 ITERATION   2 PLS= 0.346E-01 0.000E+00 ENERGY     -304.744501 DELTAE   -2.1459856
 ITERATION   3 PLS= 0.176E-01 0.000E+00 ENERGY     -305.180854 DELTAE   -0.4363527
 ITERATION   4 PLS= 0.898E-02 0.000E+00 ENERGY     -305.467186 DELTAE   -0.2863326
 ITERATION   5 PLS= 0.265E-03 0.000E+00 ENERGY     -305.322914 DELTAE    0.1442722
 ITERATION   6 PLS= 0.142E-03 0.000E+00 ENERGY     -305.323068 DELTAE   -0.0001543
 CYCLE:    10 TIME:   0.020 TIME LEFT:  2.00W  GRAD.:    39.329 HEAT: -305.3232
 ITERATION   1 PLS= 0.892E-04 0.000E+00 ENERGY     -303.346678 DELTAE -403.3466781
 ITERATION   2 PLS= 0.257E-01 0.000E+00 ENERGY     -305.344873 DELTAE   -1.9981948
 ITERATION   3 PLS= 0.125E-01 0.000E+00 ENERGY     -305.761604 DELTAE   -0.4167306
 ITERATION   4 PLS= 0.619E-02 0.000E+00 ENERGY     -306.063483 DELTAE   -0.3018792
 ITERATION   5 PLS= 0.680E-03 0.000E+00 ENERGY     -305.899589 DELTAE    0.1638941
 ITERATION   6 PLS= 0.260E-03 0.000E+00 ENERGY     -305.899897 DELTAE   -0.0003084
 CYCLE:    11 TIME:   0.016 TIME LEFT:  2.00W  GRAD.:    40.012 HEAT: -305.9001
 ITERATION   1 PLS= 0.125E-03 0.000E+00 ENERGY     -303.925159 DELTAE -403.9251587
 ITERATION   2 PLS= 0.207E-01 0.000E+00 ENERGY     -305.585552 DELTAE   -1.6603932
 ITERATION   3 PLS= 0.104E-01 0.000E+00 ENERGY     -305.870714 DELTAE   -0.2851620
 ITERATION   4 PLS= 0.527E-02 0.000E+00 ENERGY     -306.045937 DELTAE   -0.1752233
 ITERATION   5 PLS= 0.332E-03 0.000E+00 ENERGY     -305.957950 DELTAE    0.0879869
 CYCLE:    12 TIME:   0.020 TIME LEFT:  2.00W  GRAD.:    49.131 HEAT: -305.9582
 ITERATION   1 PLS= 0.244E-03 0.000E+00 ENERGY     -304.777602 DELTAE -404.7776017
 ITERATION   2 PLS= 0.139E-01 0.000E+00 ENERGY     -305.875784 DELTAE   -1.0981826
 ITERATION   3 PLS= 0.539E-02 0.000E+00 ENERGY     -306.038789 DELTAE   -0.1630045
 ITERATION   4 PLS= 0.244E-02 0.000E+00 ENERGY     -306.139697 DELTAE   -0.1009081
 ITERATION   5 PLS= 0.836E-03 0.000E+00 ENERGY     -306.084786 DELTAE    0.0549109
 CYCLE:    13 TIME:   0.020 TIME LEFT:  2.00W  GRAD.:    43.874 HEAT: -306.0851
 ITERATION   1 PLS= 0.358E-03 0.000E+00 ENERGY     -303.999581 DELTAE -403.9995807
 ITERATION   2 PLS= 0.147E-01 0.000E+00 ENERGY     -305.823861 DELTAE   -1.8242803
 ITERATION   3 PLS= 0.697E-02 0.000E+00 ENERGY     -306.123218 DELTAE   -0.2993573
 ITERATION   4 PLS= 0.381E-02 0.000E+00 ENERGY     -306.315738 DELTAE   -0.1925199
 ITERATION   5 PLS= 0.714E-03 0.000E+00 ENERGY     -306.215750 DELTAE    0.0999885
 CYCLE:    14 TIME:   0.020 TIME LEFT:  2.00W  GRAD.:    50.192 HEAT: -306.2161
 ITERATION   1 PLS= 0.268E-03 0.000E+00 ENERGY     -305.013342 DELTAE -405.0133422
 ITERATION   2 PLS= 0.105E-01 0.000E+00 ENERGY     -306.194496 DELTAE   -1.1811541
 ITERATION   3 PLS= 0.438E-02 0.000E+00 ENERGY     -306.376254 DELTAE   -0.1817577
 ITERATION   4 PLS= 0.256E-02 0.000E+00 ENERGY     -306.490162 DELTAE   -0.1139076
 ITERATION   5 PLS= 0.491E-03 0.000E+00 ENERGY     -306.431082 DELTAE    0.0590799
 CYCLE:    15 TIME:   0.020 TIME LEFT:  2.00W  GRAD.:    35.079 HEAT: -306.4313
 ITERATION   1 PLS= 0.206E-03 0.000E+00 ENERGY     -304.483309 DELTAE -404.4833093
 ITERATION   2 PLS= 0.172E-01 0.000E+00 ENERGY     -305.943327 DELTAE   -1.4600175
 ITERATION   3 PLS= 0.693E-02 0.000E+00 ENERGY     -306.204749 DELTAE   -0.2614218
 ITERATION   4 PLS= 0.447E-02 0.000E+00 ENERGY     -306.400237 DELTAE   -0.1954879
 ITERATION   5 PLS= 0.114E-02 0.000E+00 ENERGY     -306.290561 DELTAE    0.1096753
 ITERATION   6 PLS= 0.453E-03 0.000E+00 ENERGY     -306.290965 DELTAE   -0.0004041
 ITERATION   1 PLS= 0.198E-03 0.000E+00 ENERGY     -306.161782 DELTAE -406.1617823
 ITERATION   2 PLS= 0.966E-02 0.000E+00 ENERGY     -306.637696 DELTAE   -0.4759133
 ITERATION   3 PLS= 0.478E-02 0.000E+00 ENERGY     -306.740816 DELTAE   -0.1031204
 ITERATION   4 PLS= 0.292E-02 0.000E+00 ENERGY     -306.823215 DELTAE   -0.0823994
 ITERATION   5 PLS= 0.533E-03 0.000E+00 ENERGY     -306.776216 DELTAE    0.0469990
 CYCLE:    16 TIME:   0.035 TIME LEFT:  2.00W  GRAD.:    17.203 HEAT: -306.7763
 ITERATION   1 PLS= 0.197E-03 0.000E+00 ENERGY     -306.664686 DELTAE -406.6646862
 ITERATION   2 PLS= 0.276E-02 0.000E+00 ENERGY     -306.828123 DELTAE   -0.1634372
 ITERATION   3 PLS= 0.138E-02 0.000E+00 ENERGY     -306.852652 DELTAE   -0.0245286
 ITERATION   4 PLS= 0.695E-03 0.000E+00 ENERGY     -306.865232 DELTAE   -0.0125796
 CYCLE:    17 TIME:   0.020 TIME LEFT:  2.00W  GRAD.:    15.505 HEAT: -306.8590
 ITERATION   1 PLS= 0.131E-03 0.000E+00 ENERGY     -306.746024 DELTAE -406.7460241
 ITERATION   2 PLS= 0.236E-02 0.000E+00 ENERGY     -306.852603 DELTAE   -0.1065790
 ITERATION   3 PLS= 0.118E-02 0.000E+00 ENERGY     -306.867602 DELTAE   -0.0149990
 ITERATION   4 PLS= 0.724E-03 0.000E+00 ENERGY     -306.876389 DELTAE   -0.0087870
 CYCLE:    18 TIME:   0.020 TIME LEFT:  2.00W  GRAD.:    12.908 HEAT: -306.8717
 ITERATION   1 PLS= 0.165E-03 0.000E+00 ENERGY     -306.666247 DELTAE -406.6662467
 ITERATION   2 PLS= 0.248E-02 0.000E+00 ENERGY     -306.793326 DELTAE   -0.1270797
 ITERATION   3 PLS= 0.965E-03 0.000E+00 ENERGY     -306.811007 DELTAE   -0.0176809
 ITERATION   4 PLS= 0.574E-03 0.000E+00 ENERGY     -306.820046 DELTAE   -0.0090387
 ITERATION   1 PLS= 0.159E-03 0.000E+00 ENERGY     -306.870744 DELTAE -406.8707441
 ITERATION   2 PLS= 0.120E-02 0.000E+00 ENERGY     -306.903383 DELTAE   -0.0326388
 ITERATION   3 PLS= 0.540E-03 0.000E+00 ENERGY     -306.907989 DELTAE   -0.0046057
 ITERATION   4 PLS= 0.348E-03 0.000E+00 ENERGY     -306.910379 DELTAE   -0.0023903
 CYCLE:    19 TIME:   0.035 TIME LEFT:  2.00W  GRAD.:     6.554 HEAT: -306.9091
 ITERATION   1 PLS= 0.917E-04 0.000E+00 ENERGY     -306.909650 DELTAE -406.9096500
 ITERATION   2 PLS= 0.105E-02 0.000E+00 ENERGY     -306.939860 DELTAE   -0.0302098
 ITERATION   3 PLS= 0.404E-03 0.000E+00 ENERGY     -306.944232 DELTAE   -0.0043726
 ITERATION   4 PLS= 0.204E-03 0.000E+00 ENERGY     -306.946403 DELTAE   -0.0021710
 CYCLE:    20 TIME:   0.016 TIME LEFT:  2.00W  GRAD.:     7.447 HEAT: -306.9454
 ITERATION   1 PLS= 0.642E-04 0.000E+00 ENERGY     -307.067106 DELTAE -407.0671057
 ITERATION   2 PLS= 0.152E-02 0.000E+00 ENERGY     -307.111715 DELTAE   -0.0446091
 ITERATION   3 PLS= 0.843E-03 0.000E+00 ENERGY     -307.119658 DELTAE   -0.0079431
 ITERATION   4 PLS= 0.459E-03 0.000E+00 ENERGY     -307.124291 DELTAE   -0.0046332
 CYCLE:    21 TIME:   0.020 TIME LEFT:  2.00W  GRAD.:     7.903 HEAT: -307.1219
 ITERATION   1 PLS= 0.495E-04 0.000E+00 ENERGY     -307.117169 DELTAE -407.1171691
 ITERATION   2 PLS= 0.100E-02 0.000E+00 ENERGY     -307.134549 DELTAE   -0.0173794
 ITERATION   3 PLS= 0.433E-03 0.000E+00 ENERGY     -307.137259 DELTAE   -0.0027105
 ITERATION   4 PLS= 0.265E-03 0.000E+00 ENERGY     -307.138706 DELTAE   -0.0014471
 CYCLE:    22 TIME:   0.016 TIME LEFT:  2.00W  GRAD.:     5.068 HEAT: -307.1380
 ITERATION   1 PLS= 0.689E-04 0.000E+00 ENERGY     -307.155877 DELTAE -407.1558766
 ITERATION   2 PLS= 0.797E-03 0.000E+00 ENERGY     -307.172243 DELTAE   -0.0163664
 ITERATION   3 PLS= 0.354E-03 0.000E+00 ENERGY     -307.175202 DELTAE   -0.0029594
 ITERATION   4 PLS= 0.159E-03 0.000E+00 ENERGY     -307.176720 DELTAE   -0.0015176
 CYCLE:    23 TIME:   0.016 TIME LEFT:  2.00W  GRAD.:     4.033 HEAT: -307.1760
 ITERATION   1 PLS= 0.203E-04 0.000E+00 ENERGY     -307.205333 DELTAE -407.2053329
 ITERATION   2 PLS= 0.134E-02 0.000E+00 ENERGY     -307.236818 DELTAE   -0.0314856
 ITERATION   3 PLS= 0.629E-03 0.000E+00 ENERGY     -307.242794 DELTAE   -0.0059760
 ITERATION   4 PLS= 0.305E-03 0.000E+00 ENERGY     -307.246096 DELTAE   -0.0033017
 CYCLE:    24 TIME:   0.020 TIME LEFT:  2.00W  GRAD.:     3.879 HEAT: -307.2444
 ITERATION   1 PLS= 0.230E-04 0.000E+00 ENERGY     -307.188672 DELTAE -407.1886718
 ITERATION   2 PLS= 0.214E-02 0.000E+00 ENERGY     -307.249161 DELTAE   -0.0604890
 ITERATION   3 PLS= 0.958E-03 0.000E+00 ENERGY     -307.260849 DELTAE   -0.0116883
 ITERATION   4 PLS= 0.441E-03 0.000E+00 ENERGY     -307.267181 DELTAE   -0.0063316
 CYCLE:    25 TIME:   0.016 TIME LEFT:  2.00W  GRAD.:     3.814 HEAT: -307.2641
 ITERATION   1 PLS= 0.425E-04 0.000E+00 ENERGY     -307.221008 DELTAE -407.2210079
 ITERATION   2 PLS= 0.212E-02 0.000E+00 ENERGY     -307.278940 DELTAE   -0.0579319
 ITERATION   3 PLS= 0.969E-03 0.000E+00 ENERGY     -307.290240 DELTAE   -0.0113007
 ITERATION   4 PLS= 0.454E-03 0.000E+00 ENERGY     -307.296420 DELTAE   -0.0061799
 CYCLE:    26 TIME:   0.016 TIME LEFT:  2.00W  GRAD.:     3.420 HEAT: -307.2934
 ITERATION   1 PLS= 0.359E-04 0.000E+00 ENERGY     -307.322176 DELTAE -407.3221764
 ITERATION   2 PLS= 0.210E-02 0.000E+00 ENERGY     -307.377831 DELTAE   -0.0556549
 ITERATION   3 PLS= 0.100E-02 0.000E+00 ENERGY     -307.388748 DELTAE   -0.0109172
 ITERATION   4 PLS= 0.488E-03 0.000E+00 ENERGY     -307.394852 DELTAE   -0.0061031
 CYCLE:    27 TIME:   0.020 TIME LEFT:  2.00W  GRAD.:     3.487 HEAT: -307.3917
 ITERATION   1 PLS= 0.370E-04 0.000E+00 ENERGY     -307.369600 DELTAE -407.3696003
 ITERATION   2 PLS= 0.321E-02 0.000E+00 ENERGY     -307.475136 DELTAE   -0.1055356
 ITERATION   3 PLS= 0.151E-02 0.000E+00 ENERGY     -307.495859 DELTAE   -0.0207231
 ITERATION   4 PLS= 0.729E-03 0.000E+00 ENERGY     -307.507220 DELTAE   -0.0113606
 ITERATION   5 PLS= 0.429E-04 0.000E+00 ENERGY     -307.501526 DELTAE    0.0056932
 CYCLE:    28 TIME:   0.016 TIME LEFT:  2.00W  GRAD.:     3.941 HEAT: -307.5015
 ITERATION   1 PLS= 0.274E-04 0.000E+00 ENERGY     -307.117204 DELTAE -407.1172036
 ITERATION   2 PLS= 0.661E-02 0.000E+00 ENERGY     -307.583726 DELTAE   -0.4665221
 ITERATION   3 PLS= 0.308E-02 0.000E+00 ENERGY     -307.675532 DELTAE   -0.0918064
 ITERATION   4 PLS= 0.148E-02 0.000E+00 ENERGY     -307.725652 DELTAE   -0.0501195
 ITERATION   5 PLS= 0.743E-04 0.000E+00 ENERGY     -307.700514 DELTAE    0.0251379
 CYCLE:    29 TIME:   0.020 TIME LEFT:  2.00W  GRAD.:     4.520 HEAT: -307.7006
 ITERATION   1 PLS= 0.484E-04 0.000E+00 ENERGY     -305.602254 DELTAE -405.6022543
 ITERATION   2 PLS= 0.139E-01 0.000E+00 ENERGY     -307.595872 DELTAE   -1.9936173
 ITERATION   3 PLS= 0.609E-02 0.000E+00 ENERGY     -307.985712 DELTAE   -0.3898407
 ITERATION   4 PLS= 0.285E-02 0.000E+00 ENERGY     -308.191081 DELTAE   -0.2053690
 ITERATION   5 PLS= 0.155E-03 0.000E+00 ENERGY     -308.091086 DELTAE    0.0999954
 ITERATION   6 PLS= 0.104E-03 0.000E+00 ENERGY     -308.091233 DELTAE   -0.0001470
 CYCLE:    30 TIME:   0.020 TIME LEFT:  2.00W  GRAD.:     7.815 HEAT: -308.0914
 ITERATION   1 PLS= 0.686E-04 0.000E+00 ENERGY     -307.310257 DELTAE -407.3102568
 ITERATION   2 PLS= 0.103E-01 0.000E+00 ENERGY     -308.064638 DELTAE   -0.7543812
 ITERATION   3 PLS= 0.491E-02 0.000E+00 ENERGY     -308.213854 DELTAE   -0.1492155
 ITERATION   4 PLS= 0.242E-02 0.000E+00 ENERGY     -308.296841 DELTAE   -0.0829878
 ITERATION   5 PLS= 0.909E-04 0.000E+00 ENERGY     -308.254566 DELTAE    0.0422754
 CYCLE:    31 TIME:   0.020 TIME LEFT:  2.00W  GRAD.:     8.376 HEAT: -308.2546
 ITERATION   1 PLS= 0.522E-04 0.000E+00 ENERGY     -306.639508 DELTAE -406.6395077
 ITERATION   2 PLS= 0.133E-01 0.000E+00 ENERGY     -308.059289 DELTAE   -1.4197809
 ITERATION   3 PLS= 0.615E-02 0.000E+00 ENERGY     -308.338702 DELTAE   -0.2794135
 ITERATION   4 PLS= 0.299E-02 0.000E+00 ENERGY     -308.490675 DELTAE   -0.1519731
 ITERATION   5 PLS= 0.155E-03 0.000E+00 ENERGY     -308.414731 DELTAE    0.0759447
 CYCLE:    32 TIME:   0.020 TIME LEFT:  2.00W  GRAD.:     8.613 HEAT: -308.4149
 ITERATION   1 PLS= 0.954E-04 0.000E+00 ENERGY     -308.520201 DELTAE -408.5202009
 ITERATION   2 PLS= 0.850E-02 0.000E+00 ENERGY     -308.887214 DELTAE   -0.3670132
 ITERATION   3 PLS= 0.430E-02 0.000E+00 ENERGY     -308.961258 DELTAE   -0.0740436
 ITERATION   4 PLS= 0.218E-02 0.000E+00 ENERGY     -309.004508 DELTAE   -0.0432504
 ITERATION   5 PLS= 0.905E-04 0.000E+00 ENERGY     -308.982253 DELTAE    0.0222555
 CYCLE:    33 TIME:   0.020 TIME LEFT:  2.00W  GRAD.:     7.587 HEAT: -308.9823
 ITERATION   1 PLS= 0.568E-04 0.000E+00 ENERGY     -308.561779 DELTAE -408.5617791
 ITERATION   2 PLS= 0.830E-02 0.000E+00 ENERGY     -308.802300 DELTAE   -0.2405207
 ITERATION   3 PLS= 0.440E-02 0.000E+00 ENERGY     -308.853768 DELTAE   -0.0514683
 ITERATION   4 PLS= 0.231E-02 0.000E+00 ENERGY     -308.886480 DELTAE   -0.0327120
 ITERATION   5 PLS= 0.180E-03 0.000E+00 ENERGY     -308.869632 DELTAE    0.0168485
 ITERATION   1 PLS= 0.680E-04 0.000E+00 ENERGY     -308.707366 DELTAE -408.7073659
 ITERATION   2 PLS= 0.398E-02 0.000E+00 ENERGY     -308.777714 DELTAE   -0.0703479
 ITERATION   3 PLS= 0.192E-02 0.000E+00 ENERGY     -308.792297 DELTAE   -0.0145837
 ITERATION   4 PLS= 0.970E-03 0.000E+00 ENERGY     -308.801000 DELTAE   -0.0087021
 ITERATION   1 PLS= 0.512E-04 0.000E+00 ENERGY     -308.795065 DELTAE -408.7950654
 ITERATION   2 PLS= 0.268E-02 0.000E+00 ENERGY     -308.815485 DELTAE   -0.0204192
 ITERATION   3 PLS= 0.138E-02 0.000E+00 ENERGY     -308.819939 DELTAE   -0.0044543
 ITERATION   4 PLS= 0.708E-03 0.000E+00 ENERGY     -308.822767 DELTAE   -0.0028281
 ITERATION   1 PLS= 0.403E-04 0.000E+00 ENERGY     -308.985338 DELTAE -408.9853383
 ITERATION   2 PLS= 0.139E-02 0.000E+00 ENERGY     -308.989984 DELTAE   -0.0046457
 ITERATION   3 PLS= 0.716E-03 0.000E+00 ENERGY     -308.991014 DELTAE   -0.0010302
 ITERATION   4 PLS= 0.370E-03 0.000E+00 ENERGY     -308.991716 DELTAE   -0.0007020
 CYCLE:    34 TIME:   0.066 TIME LEFT:  2.00W  GRAD.:     6.042 HEAT: -308.9914
 ITERATION   1 PLS= 0.286E-04 0.000E+00 ENERGY     -308.924508 DELTAE -408.9245075
 ITERATION   2 PLS= 0.666E-03 0.000E+00 ENERGY     -308.931402 DELTAE   -0.0068948
 ITERATION   3 PLS= 0.343E-03 0.000E+00 ENERGY     -308.932679 DELTAE   -0.0012766
 ITERATION   4 PLS= 0.179E-03 0.000E+00 ENERGY     -308.933445 DELTAE   -0.0007657
 ITERATION   1 PLS= 0.267E-04 0.000E+00 ENERGY     -309.025969 DELTAE -409.0259689
 ITERATION   2 PLS= 0.427E-03 0.000E+00 ENERGY     -309.027768 DELTAE   -0.0017995
 ITERATION   3 PLS= 0.214E-03 0.000E+00 ENERGY     -309.028110 DELTAE   -0.0003415
 ITERATION   4 PLS= 0.112E-03 0.000E+00 ENERGY     -309.028312 DELTAE   -0.0002019
 CYCLE:    35 TIME:   0.035 TIME LEFT:  2.00W  GRAD.:     5.389 HEAT: -309.0282
 ITERATION   1 PLS= 0.135E-04 0.000E+00 ENERGY     -308.826123 DELTAE -408.8261229
 ITERATION   2 PLS= 0.739E-03 0.000E+00 ENERGY     -308.832730 DELTAE   -0.0066070
 ITERATION   3 PLS= 0.388E-03 0.000E+00 ENERGY     -308.834008 DELTAE   -0.0012785
 ITERATION   4 PLS= 0.204E-03 0.000E+00 ENERGY     -308.834766 DELTAE   -0.0007576
 ITERATION   1 PLS= 0.191E-04 0.000E+00 ENERGY     -308.932988 DELTAE -408.9329877
 ITERATION   2 PLS= 0.397E-03 0.000E+00 ENERGY     -308.934736 DELTAE   -0.0017481
 ITERATION   3 PLS= 0.194E-03 0.000E+00 ENERGY     -308.935065 DELTAE   -0.0003288
 ITERATION   4 PLS= 0.984E-04 0.000E+00 ENERGY     -308.935255 DELTAE   -0.0001904
 ITERATION   1 PLS= 0.774E-05 0.000E+00 ENERGY     -308.963455 DELTAE -408.9634551
 ITERATION   2 PLS= 0.325E-03 0.000E+00 ENERGY     -308.963952 DELTAE   -0.0004967
 ITERATION   3 PLS= 0.150E-03 0.000E+00 ENERGY     -308.964049 DELTAE   -0.0000968
 ITERATION   4 PLS= 0.738E-04 0.000E+00 ENERGY     -308.964105 DELTAE   -0.0000562
 ITERATION   1 PLS= 0.741E-05 0.000E+00 ENERGY     -308.957964 DELTAE -408.9579635
 ITERATION   2 PLS= 0.833E-04 0.000E+00 ENERGY     -308.958063 DELTAE   -0.0000992
 ITERATION   3 PLS= 0.440E-04 0.000E+00 ENERGY     -308.958082 DELTAE   -0.0000193
 ITERATION   4 PLS= 0.231E-04 0.000E+00 ENERGY     -308.958094 DELTAE   -0.0000119
 ITERATION   1 PLS= 0.234E-05 0.000E+00 ENERGY     -308.959306 DELTAE -408.9593062
 ITERATION   2 PLS= 0.458E-04 0.000E+00 ENERGY     -308.959331 DELTAE   -0.0000252
 ITERATION   3 PLS= 0.244E-04 0.000E+00 ENERGY     -308.959336 DELTAE   -0.0000049
 ITERATION   4 PLS= 0.129E-04 0.000E+00 ENERGY     -308.959339 DELTAE   -0.0000031
 ITERATION   1 PLS= 0.141E-05 0.000E+00 ENERGY     -309.029639 DELTAE -409.0296385
 ITERATION   2 PLS= 0.160E-03 0.000E+00 ENERGY     -309.029686 DELTAE   -0.0000470
 ITERATION   3 PLS= 0.750E-04 0.000E+00 ENERGY     -309.029696 DELTAE   -0.0000101
 ITERATION   4 PLS= 0.378E-04 0.000E+00 ENERGY     -309.029703 DELTAE   -0.0000076
 CYCLE:    36 TIME:   0.082 TIME LEFT:  2.00W  GRAD.:     5.363 HEAT: -309.0297
 ITERATION   1 PLS= 0.542E-05 0.000E+00 ENERGY     -308.960954 DELTAE -408.9609536
 ITERATION   2 PLS= 0.159E-03 0.000E+00 ENERGY     -308.961025 DELTAE   -0.0000716
 ITERATION   3 PLS= 0.768E-04 0.000E+00 ENERGY     -308.961040 DELTAE   -0.0000150
 ITERATION   4 PLS= 0.386E-04 0.000E+00 ENERGY     -308.961051 DELTAE   -0.0000105

     TRUST RADIUS NOW LESS THAN  0.00010 OPTIMIZATION TERMINATING
      THE GEOMETRY MAY NOT BE COMPLETELY OPTIMIZED
      (TO CONTINUE, ADD 'LET DDMIN=0.0' TO THE KEYWORD LINE)
 ITERATION   1 PLS= 0.546E-05 0.000E+00 ENERGY     -309.029607 DELTAE -409.0296074
 ITERATION   2 PLS= 0.159E-03 0.000E+00 ENERGY     -309.029679 DELTAE   -0.0000718
 ITERATION   3 PLS= 0.768E-04 0.000E+00 ENERGY     -309.029694 DELTAE   -0.0000151
 ITERATION   4 PLS= 0.386E-04 0.000E+00 ENERGY     -309.029705 DELTAE   -0.0000105

 -------------------------------------------------------------------------------
 PM7 CHARGE=-1 SINGLET AUX DUMP=30M ITRY=15000 eps=78.4 T=14D PL THREADS=40

 Mopac file generated by Gabedit


     GEOMETRY OPTIMISED USING EIGENVECTOR FOLLOWING (EF).     
     SCF FIELD WAS ACHIEVED                                   


                              PM7 CALCULATION
                                                       MOPAC v22.1.0 Linux
                                                       Sat Mar 23 14:32:43 2024




          FINAL HEAT OF FORMATION =       -309.02970 KCAL/MOL =   -1292.98026 KJ/MOL
          VAN DER WAALS AREA      =        219.92 SQUARE ANGSTROMS



          DIELECTRIC ENERGY       =         -3.52339 EV
          COSMO AREA              =        219.92 SQUARE ANGSTROMS
          COSMO VOLUME            =        211.40 CUBIC ANGSTROMS

          GRADIENT NORM           =          5.36301          =       1.11826 PER ATOM
          IONIZATION POTENTIAL    =         10.275988 EV
          HOMO LUMO ENERGIES (EV) =        -10.276 -0.380
          NO. OF FILLED LEVELS    =         34
          MOLECULAR WEIGHT        =        166.1535         POINT GROUP:  C1  

          MOLECULAR DIMENSIONS (Angstroms)

            Atom       Atom       Distance
            H    15    H    11     9.95699
            H    19    H    12     4.47470
            H    20    O     4     3.96231


          SCF CALCULATIONS        =         54

          WALL-CLOCK TIME         =      1.023 SECONDS
          COMPUTATION TIME        =     24.578 SECONDS



       FINAL  POINT  AND  DERIVATIVES

   PARAMETER     ATOM    TYPE            VALUE        GRADIENT
      1          1  C    CARTESIAN X     0.786146      0.194000  KCAL/ANGSTROM
      2          1  C    CARTESIAN Y    -0.728000     -0.048239  KCAL/ANGSTROM
      3          1  C    CARTESIAN Z     0.064211      0.044518  KCAL/ANGSTROM
      4          2  H    CARTESIAN X     1.908450      0.367769  KCAL/ANGSTROM
      5          2  H    CARTESIAN Y    -0.874242     -0.055293  KCAL/ANGSTROM
      6          2  H    CARTESIAN Z     0.112426      0.079585  KCAL/ANGSTROM
      7          3  N    CARTESIAN X     0.199763      0.243713  KCAL/ANGSTROM
      8          3  N    CARTESIAN Y    -1.386254     -0.109789  KCAL/ANGSTROM
      9          3  N    CARTESIAN Z     1.282119      0.068184  KCAL/ANGSTROM
     10          4  O    CARTESIAN X     0.945726      0.246696  KCAL/ANGSTROM
     11          4  O    CARTESIAN Y    -2.005717     -0.015162  KCAL/ANGSTROM
     12          4  O    CARTESIAN Z     2.026473     -0.054960  KCAL/ANGSTROM
     13          5  O    CARTESIAN X    -0.998578     -0.055808  KCAL/ANGSTROM
     14          5  O    CARTESIAN Y    -1.298897     -0.124852  KCAL/ANGSTROM
     15          5  O    CARTESIAN Z     1.498358     -0.240319  KCAL/ANGSTROM
     16          6  C    CARTESIAN X     6.418736     -0.840911  KCAL/ANGSTROM
     17          6  C    CARTESIAN Y    -2.516117      0.990814  KCAL/ANGSTROM
     18          6  C    CARTESIAN Z     0.964510     -0.223540  KCAL/ANGSTROM
     19          7  O    CARTESIAN X     5.737622     -1.996990  KCAL/ANGSTROM
     20          7  O    CARTESIAN Y    -1.994011     -0.127953  KCAL/ANGSTROM
     21          7  O    CARTESIAN Z     1.873236     -0.463748  KCAL/ANGSTROM
     22          8  O    CARTESIAN X     5.896073     -0.460379  KCAL/ANGSTROM
     23          8  O    CARTESIAN Y    -3.023585     -0.066694  KCAL/ANGSTROM
     24          8  O    CARTESIAN Z    -0.051377      0.016666  KCAL/ANGSTROM
     25          9  C    CARTESIAN X     7.917633     -0.628166  KCAL/ANGSTROM
     26          9  C    CARTESIAN Y    -2.564009      1.181517  KCAL/ANGSTROM
     27          9  C    CARTESIAN Z     1.112322     -0.122832  KCAL/ANGSTROM
     28         10  H    CARTESIAN X     8.413929     -0.149499  KCAL/ANGSTROM
     29         10  H    CARTESIAN Y    -2.816522      0.595811  KCAL/ANGSTROM
     30         10  H    CARTESIAN Z     0.168662      0.003666  KCAL/ANGSTROM
     31         11  H    CARTESIAN X     8.184050     -2.021938  KCAL/ANGSTROM
     32         11  H    CARTESIAN Y    -3.328025      0.624741  KCAL/ANGSTROM
     33         11  H    CARTESIAN Z     1.854944     -0.123551  KCAL/ANGSTROM
     34         12  H    CARTESIAN X     8.341461      2.222038  KCAL/ANGSTROM
     35         12  H    CARTESIAN Y    -1.615346     -0.435431  KCAL/ANGSTROM
     36         12  H    CARTESIAN Z     1.462963     -0.154219  KCAL/ANGSTROM
     37         13  C    CARTESIAN X     0.446122      0.059766  KCAL/ANGSTROM
     38         13  C    CARTESIAN Y     0.755368     -0.107030  KCAL/ANGSTROM
     39         13  C    CARTESIAN Z     0.104842     -0.003046  KCAL/ANGSTROM
     40         14  H    CARTESIAN X     0.850437     -0.260338  KCAL/ANGSTROM
     41         14  H    CARTESIAN Y     1.259591      0.115344  KCAL/ANGSTROM
     42         14  H    CARTESIAN Z     0.993962      0.208124  KCAL/ANGSTROM
     43         15  H    CARTESIAN X    -0.636302      0.311510  KCAL/ANGSTROM
     44         15  H    CARTESIAN Y     0.941475      0.081539  KCAL/ANGSTROM
     45         15  H    CARTESIAN Z     0.090152     -0.098926  KCAL/ANGSTROM
     46         16  H    CARTESIAN X     0.860712     -0.254396  KCAL/ANGSTROM
     47         16  H    CARTESIAN Y     1.272692      0.058207  KCAL/ANGSTROM
     48         16  H    CARTESIAN Z    -0.774714     -0.335702  KCAL/ANGSTROM
     49         17  C    CARTESIAN X     0.204191      0.044299  KCAL/ANGSTROM
     50         17  C    CARTESIAN Y    -1.417830      0.230756  KCAL/ANGSTROM
     51         17  C    CARTESIAN Z    -1.162805     -0.048085  KCAL/ANGSTROM
     52         18  H    CARTESIAN X    -0.886035      0.197282  KCAL/ANGSTROM
     53         18  H    CARTESIAN Y    -1.297840      0.137622  KCAL/ANGSTROM
     54         18  H    CARTESIAN Z    -1.232930      0.074360  KCAL/ANGSTROM
     55         19  H    CARTESIAN X     0.415693     -0.344895  KCAL/ANGSTROM
     56         19  H    CARTESIAN Y    -2.496386     -0.238905  KCAL/ANGSTROM
     57         19  H    CARTESIAN Z    -1.186983     -0.046557  KCAL/ANGSTROM
     58         20  H    CARTESIAN X     0.620564     -0.476141  KCAL/ANGSTROM
     59         20  H    CARTESIAN Y    -0.989082     -0.118191  KCAL/ANGSTROM
     60         20  H    CARTESIAN Z    -2.087457     -0.205803  KCAL/ANGSTROM
     61         21  H    CARTESIAN X     4.303985      0.767231  KCAL/ANGSTROM
     62         21  H    CARTESIAN Y    -1.657292     -0.593096  KCAL/ANGSTROM
     63         21  H    CARTESIAN Z     0.453226      0.644113  KCAL/ANGSTROM
     64         22  O    CARTESIAN X     4.085527      1.040350  KCAL/ANGSTROM
     65         22  O    CARTESIAN Y    -0.732823     -0.590175  KCAL/ANGSTROM
     66         22  O    CARTESIAN Z     0.229174      1.173179  KCAL/ANGSTROM
     67         23  H    CARTESIAN X     4.825694      1.794832  KCAL/ANGSTROM
     68         23  H    CARTESIAN Y    -0.272606     -1.385645  KCAL/ANGSTROM
     69         23  H    CARTESIAN Z     0.647808     -0.191090  KCAL/ANGSTROM




   ATOM   CHEMICAL          X               Y               Z
  NUMBER   SYMBOL      (ANGSTROMS)     (ANGSTROMS)     (ANGSTROMS)

     1       C          0.78614571  *  -0.72800019  *   0.06421136  *
     2       H          1.90845004  *  -0.87424163  *   0.11242628  *
     3       N          0.19976338  *  -1.38625443  *   1.28211911  *
     4       O          0.94572626  *  -2.00571726  *   2.02647291  *
     5       O         -0.99857753  *  -1.29889743  *   1.49835820  *
     6       C          6.41873634  *  -2.51611734  *   0.96451023  *
     7       O          5.73762176  *  -1.99401070  *   1.87323554  *
     8       O          5.89607334  *  -3.02358482  *  -0.05137650  *
     9       C          7.91763276  *  -2.56400885  *   1.11232187  *
    10       H          8.41392935  *  -2.81652156  *   0.16866186  *
    11       H          8.18405046  *  -3.32802457  *   1.85494356  *
    12       H          8.34146116  *  -1.61534613  *   1.46296291  *
    13       C          0.44612160  *   0.75536772  *   0.10484188  *
    14       H          0.85043710  *   1.25959149  *   0.99396162  *
    15       H         -0.63630224  *   0.94147459  *   0.09015242  *
    16       H          0.86071232  *   1.27269169  *  -0.77471384  *
    17       C          0.20419098  *  -1.41783018  *  -1.16280472  *
    18       H         -0.88603492  *  -1.29784033  *  -1.23292967  *
    19       H          0.41569319  *  -2.49638564  *  -1.18698330  *
    20       H          0.62056425  *  -0.98908175  *  -2.08745688  *
    21       H          4.30398524  *  -1.65729155  *   0.45322643  *
    22       O          4.08552659  *  -0.73282334  *   0.22917418  *
    23       H          4.82569398  *  -0.27260591  *   0.64780827  *

                             CARTESIAN COORDINATES

   1    C        0.786145713    -0.728000189     0.064211356
   2    H        1.908450041    -0.874241631     0.112426275
   3    N        0.199763377    -1.386254431     1.282119106
   4    O        0.945726260    -2.005717256     2.026472907
   5    O       -0.998577534    -1.298897428     1.498358202
   6    C        6.418736336    -2.516117338     0.964510226
   7    O        5.737621762    -1.994010700     1.873235536
   8    O        5.896073339    -3.023584819    -0.051376501
   9    C        7.917632759    -2.564008849     1.112321868
  10    H        8.413929347    -2.816521557     0.168661859
  11    H        8.184050455    -3.328024568     1.854943560
  12    H        8.341461158    -1.615346129     1.462962914
  13    C        0.446121596     0.755367718     0.104841878
  14    H        0.850437101     1.259591491     0.993961617
  15    H       -0.636302238     0.941474592     0.090152423
  16    H        0.860712315     1.272691685    -0.774713840
  17    C        0.204190982    -1.417830185    -1.162804720
  18    H       -0.886034917    -1.297840330    -1.232929670
  19    H        0.415693193    -2.496385639    -1.186983301
  20    H        0.620564254    -0.989081752    -2.087456883
  21    H        4.303985237    -1.657291551     0.453226429
  22    O        4.085526591    -0.732823339     0.229174185
  23    H        4.825693978    -0.272605910     0.647808266


           Empirical Formula: C5 H12 N O5  =    23 atoms



      MOLECULAR POINT GROUP   :   C1  


                  EIGENVALUES  
 -37.24081 -30.71119 -29.83504 -29.29769 -28.63425 -27.80068 -25.25869 -25.04322
 -24.47012 -20.83404 -18.67871 -18.58873 -17.69055 -17.44482 -17.02625 -15.71752
 -15.47035 -15.14591 -15.02117 -14.40074 -14.07711 -14.00126 -13.54889 -13.08998
 -12.93958 -12.76556 -12.50402 -11.94278 -11.87822 -11.77107 -11.32389 -10.95152
 -10.74137 -10.27599  -0.38040   0.54101   2.09181   3.31251   3.40348   3.78712
   3.91278   4.41751   4.67547   5.18054   5.43824   5.44131   5.45917   5.50500
   5.51878   5.60843   5.66828   6.26867   6.63585   6.72508   6.87612   6.99419


              NET ATOMIC CHARGES AND DIPOLE CONTRIBUTIONS

  ATOM NO.   TYPE          CHARGE      No. of ELECS.   s-Pop       p-Pop       
    1          C           0.006622        3.9934     1.09678     2.89660
    2          H           0.211419        0.7886     0.78858
    3          N           0.617372        4.3826     1.48596     2.89666
    4          O          -0.461515        6.4615     1.93974     4.52178
    5          O          -0.463004        6.4630     1.93946     4.52354
    6          C           0.794636        3.2054     1.06928     2.13608
    7          O          -0.858430        6.8584     1.88426     4.97417
    8          O          -0.870678        6.8707     1.88409     4.98659
    9          C          -0.578379        4.5784     1.06796     3.51042
   10          H           0.171662        0.8283     0.82834
   11          H           0.180929        0.8191     0.81907
   12          H           0.176841        0.8232     0.82316
   13          C          -0.481454        4.4815     1.05831     3.42315
   14          H           0.174559        0.8254     0.82544
   15          H           0.167656        0.8323     0.83234
   16          H           0.180960        0.8190     0.81904
   17          C          -0.482758        4.4828     1.05871     3.42405
   18          H           0.169109        0.8309     0.83089
   19          H           0.176491        0.8235     0.82351
   20          H           0.182993        0.8170     0.81701
   21          H           0.381641        0.6184     0.61836
   22          O          -0.758515        6.7585     1.82485     4.93366
   23          H           0.361844        0.6382     0.63816
 DIPOLE           X         Y         Z       TOTAL
 POINT-CHG.    -7.096     6.350    -4.376    10.480
 HYBRID        -0.276    -0.279     0.558     0.683
 SUM           -7.372     6.071    -3.817    10.285


          ATOMIC ORBITAL ELECTRON POPULATIONS

     Atom    s        px        py        pz   
    1  C   1.09678   1.09382   0.95926   0.84353
    2  H   0.78858
    3  N   1.48596   0.96234   0.93466   0.99967
    4  O   1.93974   1.55475   1.45176   1.51527
    5  O   1.93946   1.04862   1.66860   1.80633
    6  C   1.06928   0.80681   0.62903   0.70025
    7  O   1.88426   1.75633   1.65513   1.56271
    8  O   1.88409   1.83086   1.66301   1.49272
    9  C   1.06796   1.10386   1.20536   1.20120
   10  H   0.82834
   11  H   0.81907
   12  H   0.82316
   13  C   1.05831   1.20240   1.01141   1.20933
   14  H   0.82544
   15  H   0.83234
   16  H   0.81904
   17  C   1.05871   1.18549   1.16395   1.07461
   18  H   0.83089
   19  H   0.82351
   20  H   0.81701
   21  H   0.61836
   22  O   1.82485   1.62814   1.44831   1.85722
   23  H   0.63816

 **********************
 *                    *
 * JOB ENDED NORMALLY *
 *                    *
 **********************



 TOTAL JOB TIME:             1.03 SECONDS

 == MOPAC DONE ==
