
                                 *****************
                                 * O   R   C   A *
                                 *****************

                                            #,                                       
                                            ###                                      
                                            ####                                     
                                            #####                                    
                                            ######                                   
                                           ########,                                 
                                     ,,################,,,,,                         
                               ,,#################################,,                 
                          ,,##########################################,,             
                       ,#########################################, ''#####,          
                    ,#############################################,,   '####,        
                  ,##################################################,,,,####,       
                ,###########''''           ''''###############################       
              ,#####''   ,,,,##########,,,,          '''####'''          '####       
            ,##' ,,,,###########################,,,                        '##       
           ' ,,###''''                  '''############,,,                           
         ,,##''                                '''############,,,,        ,,,,,,###''
      ,#''                                            '''#######################'''  
     '                                                          ''''####''''         
             ,#######,   #######,   ,#######,      ##                                
            ,#'     '#,  ##    ##  ,#'     '#,    #''#        ######   ,####,        
            ##       ##  ##   ,#'  ##            #'  '#       #        #'  '#        
            ##       ##  #######   ##           ,######,      #####,   #    #        
            '#,     ,#'  ##    ##  '#,     ,#' ,#      #,         ##   #,  ,#        
             '#######'   ##     ##  '#######'  #'      '#     #####' # '####'        



                  #######################################################
                  #                        -***-                        #
                  #          Department of theory and spectroscopy      #
                  #    Directorship and core code : Frank Neese         #
                  #        Max Planck Institute fuer Kohlenforschung    #
                  #                Kaiser Wilhelm Platz 1               #
                  #                 D-45470 Muelheim/Ruhr               #
                  #                      Germany                        #
                  #                                                     #
                  #                  All rights reserved                #
                  #                        -***-                        #
                  #######################################################


                         Program Version 5.0.4 -  RELEASE  -


 With contributions from (in alphabetic order):
   Daniel Aravena         : Magnetic Suceptibility
   Michael Atanasov       : Ab Initio Ligand Field Theory (pilot matlab implementation)
   Alexander A. Auer      : GIAO ZORA, VPT2 properties, NMR spectrum
   Ute Becker             : Parallelization
   Giovanni Bistoni       : ED, misc. LED, open-shell LED, HFLD
   Martin Brehm           : Molecular dynamics
   Dmytro Bykov           : SCF Hessian
   Vijay G. Chilkuri      : MRCI spin determinant printing, contributions to CSF-ICE
   Dipayan Datta          : RHF DLPNO-CCSD density
   Achintya Kumar Dutta   : EOM-CC, STEOM-CC
   Dmitry Ganyushin       : Spin-Orbit,Spin-Spin,Magnetic field MRCI
   Miquel Garcia          : C-PCM and meta-GGA Hessian, CC/C-PCM, Gaussian charge scheme
   Yang Guo               : DLPNO-NEVPT2, F12-NEVPT2, CIM, IAO-localization
   Andreas Hansen         : Spin unrestricted coupled pair/coupled cluster methods
   Benjamin Helmich-Paris : MC-RPA, TRAH-SCF, COSX integrals
   Lee Huntington         : MR-EOM, pCC
   Robert Izsak           : Overlap fitted RIJCOSX, COSX-SCS-MP3, EOM
   Marcus Kettner         : VPT2
   Christian Kollmar      : KDIIS, OOCD, Brueckner-CCSD(T), CCSD density, CASPT2, CASPT2-K
   Simone Kossmann        : Meta GGA functionals, TD-DFT gradient, OOMP2, MP2 Hessian
   Martin Krupicka        : Initial AUTO-CI
   Lucas Lang             : DCDCAS
   Marvin Lechner         : AUTO-CI (C++ implementation), FIC-MRCC
   Dagmar Lenk            : GEPOL surface, SMD
   Dimitrios Liakos       : Extrapolation schemes; Compound Job, initial MDCI parallelization
   Dimitrios Manganas     : Further ROCIS development; embedding schemes
   Dimitrios Pantazis     : SARC Basis sets
   Anastasios Papadopoulos: AUTO-CI, single reference methods and gradients
   Taras Petrenko         : DFT Hessian,TD-DFT gradient, ASA, ECA, R-Raman, ABS, FL, XAS/XES, NRVS
   Peter Pinski           : DLPNO-MP2, DLPNO-MP2 Gradient
   Christoph Reimann      : Effective Core Potentials
   Marius Retegan         : Local ZFS, SOC
   Christoph Riplinger    : Optimizer, TS searches, QM/MM, DLPNO-CCSD(T), (RO)-DLPNO pert. Triples
   Tobias Risthaus        : Range-separated hybrids, TD-DFT gradient, RPA, STAB
   Michael Roemelt        : Original ROCIS implementation
   Masaaki Saitow         : Open-shell DLPNO-CCSD energy and density
   Barbara Sandhoefer     : DKH picture change effects
   Avijit Sen             : IP-ROCIS
   Kantharuban Sivalingam : CASSCF convergence, NEVPT2, FIC-MRCI
   Bernardo de Souza      : ESD, SOC TD-DFT
   Georgi Stoychev        : AutoAux, RI-MP2 NMR, DLPNO-MP2 response
   Willem Van den Heuvel  : Paramagnetic NMR
   Boris Wezisla          : Elementary symmetry handling
   Frank Wennmohs         : Technical directorship


 We gratefully acknowledge several colleagues who have allowed us to
 interface, adapt or use parts of their codes:
   Stefan Grimme, W. Hujo, H. Kruse, P. Pracht,  : VdW corrections, initial TS optimization,
                  C. Bannwarth, S. Ehlert          DFT functionals, gCP, sTDA/sTD-DF
   Ed Valeev, F. Pavosevic, A. Kumar             : LibInt (2-el integral package), F12 methods
   Garnet Chan, S. Sharma, J. Yang, R. Olivares  : DMRG
   Ulf Ekstrom                                   : XCFun DFT Library
   Mihaly Kallay                                 : mrcc  (arbitrary order and MRCC methods)
   Jiri Pittner, Ondrej Demel                    : Mk-CCSD
   Frank Weinhold                                : gennbo (NPA and NBO analysis)
   Christopher J. Cramer and Donald G. Truhlar   : smd solvation model
   Lars Goerigk                                  : TD-DFT with DH, B97 family of functionals
   V. Asgeirsson, H. Jonsson                     : NEB implementation
   FAccTs GmbH                                   : IRC, NEB, NEB-TS, DLPNO-Multilevel, CI-OPT
                                                   MM, QMMM, 2- and 3-layer-ONIOM, Crystal-QMMM,
                                                   LR-CPCM, SF, NACMEs, symmetry and pop. for TD-DFT,
                                                   nearIR, NL-DFT gradient (VV10), updates on ESD,
                                                   ML-optimized integration grids
   S Lehtola, MJT Oliveira, MAL Marques          : LibXC Library
   Liviu Ungur et al                             : ANISO software


 Your calculation uses the libint2 library for the computation of 2-el integrals
 For citations please refer to: http://libint.valeyev.net

 Your ORCA version has been built with support for libXC version: 5.1.0
 For citations please refer to: https://tddft.org/programs/libxc/

 This ORCA versions uses:
   CBLAS   interface :  Fast vector & matrix operations
   LAPACKE interface :  Fast linear algebra routines
   SCALAPACK package :  Parallel linear algebra routines
   Shared memory     :  Shared parallel matrices
   BLAS/LAPACK       :  OpenBLAS 0.3.15  USE64BITINT DYNAMIC_ARCH NO_AFFINITY Prescott SINGLE_THREADED
        Core in use  :  Prescott
   Copyright (c) 2011-2014, The OpenBLAS Project


Your calculation utilizes the atom-pairwise dispersion correction
with the Becke-Johnson damping scheme (D3BJ)
Cite in your paper:
S.Grimme, S.Ehrlich, L.Goerigk, J Comput Chem, (2011), 32, 1456–1465 
S.Grimme, J.Antony, S.Ehrlich and H.Krieg, J.Chem.Phys., 132, (2010), 154104 
   

================================================================================

----- Orbital basis set information -----
Your calculation utilizes the basis: def2-TZVP
   F. Weigend and R. Ahlrichs, Phys. Chem. Chem. Phys. 7, 3297 (2005).

----- AuxJ basis set information -----
Your calculation utilizes the auxiliary basis: def2/J
   F. Weigend, Phys. Chem. Chem. Phys. 8, 1057 (2006).

================================================================================
                                        WARNINGS
                       Please study these warnings very carefully!
================================================================================


WARNING: Geometry Optimization
  ===> : Switching off AutoStart
         For restart on a previous wavefunction, please use MOREAD

INFO   : the flag for use of the SHARK integral package has been found!

================================================================================
                                       INPUT FILE
================================================================================
NAME = /home/rudenko/mop_saddle_orca_4_serv/for_orca/mcl-morpholine/orca/orca_end/end.inp
|  1> !  opt B3LYP def2-TZVP CPCM D3 
|  2> %pal nprocs 102 end
|  3> %cpcm epsilon 78.4 end 
|  4> *xyz 0 1 
|  5> C   3.51104682 2.2897106 -0.85816257
|  6> C   3.27960424 1.02890665 -0.31744191
|  7> C   2.4893087 0.0871802 -0.99767657
|  8> C   1.92761433 0.43819069 -2.23387714
|  9> C   2.18600565 1.69760324 -2.74465363
| 10> C   2.96539027 2.64189849 -2.09404758
| 11> H   4.13001473 3.00833335 -0.31689904
| 12> H   3.72618224 0.76666707 0.64363254
| 13> H   1.30168171 -0.27899725 -2.77258081
| 14> Cl   1.51824579 2.09815678 -4.27762289
| 15> H   3.15787582 3.62596108 -2.5217076
| 16> C   2.25128135 -1.22085825 -0.40981809
| 17> C   1.98877621 -1.30617245 1.05522069
| 18> H   1.68067017 -2.3140336 1.37371212
| 19> H   1.18881653 -0.61346283 1.35883937
| 20> H   2.88050573 -1.0492756 1.64714078
| 21> N   2.21139114 -2.32474502 -1.15827727
| 22> O   1.95897318 -3.45687564 -0.68474808
| 23> O   2.47697936 -2.28241134 -2.40907231
| 24> N   4.91564802 -1.2625583 -2.96315416
| 25> C   5.4901409 -2.23809194 -3.95906706
| 26> C   6.95384509 -1.88056529 -4.23087501
| 27> O   7.04780956 -0.55019117 -4.70968185
| 28> C   6.5563683 0.40174407 -3.78517101
| 29> C   5.07461631 0.13736002 -3.49729383
| 30> H   4.68341778 0.8687008 -2.75309653
| 31> H   4.46539777 0.25281062 -4.42507087
| 32> H   6.70780355 1.36891908 -4.30548287
| 33> H   7.17529355 0.39231165 -2.86821627
| 34> H   7.3770693 -2.48095184 -5.06144012
| 35> H   7.59728001 -2.00589506 -3.34020124
| 36> H   4.89053344 -2.19965324 -4.90048426
| 37> H   4.60628933 -1.56122543 0.03876674
| 38> H   3.87964739 -1.49356175 -2.76886829
| 39> H   5.39548857 -3.2765473 -3.56374228
| 40> H   6.06880074 -2.00205237 0.13134651
| 41> H   5.40783222 -1.34794097 -2.03117942
| 42> O   5.49518297 -1.32417723 -0.26111909
| 43> *
| 44> 
| 45>                          ****END OF INPUT****
================================================================================

                       *****************************
                       * Geometry Optimization Run *
                       *****************************

Geometry optimization settings:
Update method            Update   .... BFGS
Choice of coordinates    CoordSys .... Z-matrix Internals
Initial Hessian          InHess   .... Almoef's Model

Convergence Tolerances:
Energy Change            TolE     ....  5.0000e-06 Eh
Max. Gradient            TolMAXG  ....  3.0000e-04 Eh/bohr
RMS Gradient             TolRMSG  ....  1.0000e-04 Eh/bohr
Max. Displacement        TolMAXD  ....  4.0000e-03 bohr
RMS Displacement         TolRMSD  ....  2.0000e-03 bohr
Strict Convergence                ....  False
------------------------------------------------------------------------------
                        ORCA OPTIMIZATION COORDINATE SETUP
------------------------------------------------------------------------------

The optimization will be done in new redundant internal coordinates
Making redundant internal coordinates   ...  (new redundants) done
Evaluating the initial hessian          ...  (Almloef) done
Evaluating the coordinates              ...  done
Calculating the B-matrix                .... done
Calculating the G-matrix                .... done
Diagonalizing the G-matrix              .... done
Small eigenvalue found = 1.845e-03
Small eigenvalue found = 4.578e-03
Small eigenvalue found = 8.440e-03
Small eigenvalue found = 2.561e-02
Small eigenvalue found = 2.848e-02
The first mode is                       ....  100
The number of degrees of freedom        ....  108

    -----------------------------------------------------------------
                    Redundant Internal Coordinates


    -----------------------------------------------------------------
         Definition                    Initial Value    Approx d2E/dq
    -----------------------------------------------------------------
      1. B(C   1,C   0)                  1.3912         0.621938   
      2. B(C   2,C   1)                  1.4050         0.591214   
      3. B(C   3,C   2)                  1.4025         0.596837   
      4. B(C   4,C   3)                  1.3834         0.640145   
      5. B(C   5,C   0)                  1.3961         0.610876   
      6. B(C   5,C   4)                  1.3865         0.632848   
      7. B(H   6,C   0)                  1.0920         0.357439   
      8. B(H   7,C   1)                  1.0917         0.357824   
      9. B(H   8,C   3)                  1.0938         0.355136   
     10. B(Cl  9,C   4)                  1.7194         0.418019   
     11. B(H  10,C   5)                  1.0901         0.359965   
     12. B(C  11,C   2)                  1.4537         0.494463   
     13. B(C  12,C  11)                  1.4908         0.431416   
     14. B(H  13,C  12)                  1.1010         0.345868   
     15. B(H  14,C  12)                  1.1009         0.345974   
     16. B(H  15,C  12)                  1.1007         0.346216   
     17. B(N  16,C  11)                  1.3343         0.686667   
     18. B(O  17,N  16)                  1.2529         0.829481   
     19. B(O  18,N  16)                  1.2794         0.752483   
     20. B(C  20,N  19)                  1.5078         0.362982   
     21. B(C  21,C  20)                  1.5311         0.372127   
     22. B(O  22,C  21)                  1.4170         0.506696   
     23. B(C  23,O  22)                  1.4151         0.510367   
     24. B(C  24,C  23)                  1.5324         0.370246   
     25. B(C  24,N  19)                  1.5068         0.364402   
     26. B(H  25,C  24)                  1.1143         0.329314   
     27. B(H  25,H  10)                  3.1596         0.000034   
     28. B(H  26,C  24)                  1.1159         0.327410   
     29. B(H  27,C  23)                  1.1086         0.336266   
     30. B(H  28,C  23)                  1.1063         0.339134   
     31. B(H  29,C  21)                  1.1088         0.336078   
     32. B(H  30,C  21)                  1.1059         0.339668   
     33. B(H  31,C  20)                  1.1168         0.326320   
     34. B(H  33,O  18)                  1.6490         0.041372   
     35. B(H  33,N  19)                  1.0791         0.335728   
     36. B(H  34,C  20)                  1.1152         0.328282   
     37. B(H  36,H  32)                  2.2299         0.001047   
     38. B(H  36,N  19)                  1.0574         0.363545   
     39. B(O  37,H  36)                  1.7724         0.026295   
     40. B(O  37,H  35)                  0.9709         0.499609   
     41. B(O  37,H  32)                  0.9676         0.505635   
     42. A(C   1,C   0,H   6)          119.8690         0.352652   
     43. A(C   5,C   0,H   6)          119.6228         0.351584   
     44. A(C   1,C   0,C   5)          120.5066         0.433153   
     45. A(C   0,C   1,C   2)          120.8513         0.430614   
     46. A(C   2,C   1,H   7)          119.6886         0.349710   
     47. A(C   0,C   1,H   7)          119.4578         0.352717   
     48. A(C   3,C   2,C  11)          121.0695         0.414027   
     49. A(C   1,C   2,C  11)          119.9612         0.413332   
     50. A(C   1,C   2,C   3)          118.9645         0.427444   
     51. A(C   2,C   3,H   8)          119.9481         0.349824   
     52. A(C   2,C   3,C   4)          118.5870         0.433590   
     53. A(C   4,C   3,H   8)          121.4648         0.353992   
     54. A(C   3,C   4,C   5)          123.4879         0.438190   
     55. A(C   5,C   4,Cl  9)          118.5554         0.424372   
     56. A(C   3,C   4,Cl  9)          117.9518         0.425243   
     57. A(C   4,C   5,H  10)          122.0038         0.354114   
     58. A(C   0,C   5,H  10)          120.3972         0.352002   
     59. A(C   0,C   5,C   4)          117.5984         0.434510   
     60. A(C  12,C  11,N  16)          119.9095         0.411631   
     61. A(C   2,C  11,C  12)          118.5369         0.391006   
     62. A(C   2,C  11,N  16)          121.4990         0.421746   
     63. A(C  11,C  12,H  14)          111.2824         0.329920   
     64. A(H  13,C  12,H  15)          106.5473         0.287234   
     65. A(C  11,C  12,H  15)          111.8674         0.329958   
     66. A(H  13,C  12,H  14)          107.0302         0.287202   
     67. A(H  14,C  12,H  15)          107.0688         0.287247   
     68. A(C  11,C  12,H  13)          112.7022         0.329904   
     69. A(C  11,N  16,O  17)          122.7930         0.456889   
     70. A(O  17,N  16,O  18)          116.1828         0.461437   
     71. A(C  11,N  16,O  18)          120.9857         0.448866   
     72. A(N  16,O  18,H  33)          113.9365         0.253232   
     73. A(C  24,N  19,H  36)          109.7767         0.318863   
     74. A(C  20,N  19,H  33)          110.2560         0.314560   
     75. A(C  24,N  19,H  33)          111.3468         0.314759   
     76. A(C  20,N  19,H  36)          110.6439         0.318660   
     77. A(C  20,N  19,C  24)          109.0723         0.355600   
     78. A(H  33,N  19,H  36)          105.7182         0.283479   
     79. A(N  19,C  20,C  21)          109.2944         0.359091   
     80. A(H  31,C  20,H  34)          106.5768         0.282299   
     81. A(C  21,C  20,H  34)          111.1939         0.319241   
     82. A(N  19,C  20,H  34)          109.6325         0.316064   
     83. A(C  21,C  20,H  31)          110.8294         0.318928   
     84. A(N  19,C  20,H  31)          109.2649         0.315756   
     85. A(H  29,C  21,H  30)          108.6536         0.285100   
     86. A(O  22,C  21,H  30)          109.8739         0.335767   
     87. A(C  20,C  21,H  30)          112.7544         0.321024   
     88. A(O  22,C  21,H  29)          103.2939         0.335174   
     89. A(C  20,C  21,H  29)          111.8048         0.320467   
     90. A(C  20,C  21,O  22)          110.0363         0.380271   
     91. A(C  21,O  22,C  23)          112.8169         0.399285   
     92. A(H  27,C  23,H  28)          108.6635         0.285055   
     93. A(C  24,C  23,H  28)          112.5672         0.320676   
     94. A(O  22,C  23,H  28)          109.9668         0.336082   
     95. A(C  24,C  23,H  27)          111.7621         0.320231   
     96. A(O  22,C  23,H  27)          103.4626         0.335608   
     97. A(O  22,C  23,C  24)          110.0279         0.380413   
     98. A(H  25,C  24,H  26)          107.1991         0.282583   
     99. A(C  23,C  24,H  26)          110.7229         0.318838   
    100. A(N  19,C  24,H  26)          109.4664         0.316127   
    101. A(C  23,C  24,H  25)          110.5901         0.319140   
    102. A(N  19,C  24,H  25)          109.6322         0.316426   
    103. A(N  19,C  24,C  23)          109.2019         0.359020   
    104. A(H  36,H  32,O  37)           50.1091         0.134922   
    105. A(O  18,H  33,N  19)          163.4061         0.207917   
    106. A(H  32,H  36,O  37)           24.7638         0.112519   
    107. A(N  19,H  36,O  37)          154.4333         0.198274   
    108. A(N  19,H  36,H  32)          131.1896         0.131618   
    109. A(H  32,O  37,H  35)          104.2665         0.318286   
    110. A(H  35,O  37,H  36)          115.0540         0.206427   
    111. A(H  32,O  37,H  36)          105.1271         0.206746   
    112. D(C   2,C   1,C   0,H   6)   -179.8390         0.026776   
    113. D(H   7,C   1,C   0,C   5)    179.1472         0.026776   
    114. D(C   2,C   1,C   0,C   5)     -0.2923         0.026776   
    115. D(H   7,C   1,C   0,H   6)     -0.3995         0.026776   
    116. D(C   3,C   2,C   1,C   0)     -0.2974         0.024059   
    117. D(C  11,C   2,C   1,C   0)   -179.5100         0.024059   
    118. D(C  11,C   2,C   1,H   7)      1.0517         0.024059   
    119. D(C   3,C   2,C   1,H   7)   -179.7357         0.024059   
    120. D(H   8,C   3,C   2,C  11)     -0.1965         0.024543   
    121. D(C   4,C   3,C   2,C  11)    179.8924         0.024543   
    122. D(H   8,C   3,C   2,C   1)   -179.4000         0.024543   
    123. D(C   4,C   3,C   2,C   1)      0.6889         0.024543   
    124. D(C   5,C   4,C   3,C   2)     -0.5270         0.028472   
    125. D(Cl  9,C   4,C   3,C   2)    178.6558         0.028472   
    126. D(Cl  9,C   4,C   3,H   8)     -1.2538         0.028472   
    127. D(C   5,C   4,C   3,H   8)    179.5633         0.028472   
    128. D(H  10,C   5,C   4,C   3)    179.6587         0.027785   
    129. D(H  10,C   5,C   4,Cl  9)      0.4804         0.027785   
    130. D(C   0,C   5,C   4,Cl  9)   -179.2320         0.027785   
    131. D(C   4,C   5,C   0,C   1)      0.4648         0.025777   
    132. D(C   4,C   5,C   0,H   6)   -179.9874         0.025777   
    133. D(H  10,C   5,C   0,H   6)      0.2953         0.025777   
    134. D(H  10,C   5,C   0,C   1)   -179.2525         0.025777   
    135. D(C   0,C   5,C   4,C   3)     -0.0538         0.027785   
    136. D(N  16,C  11,C   2,C   3)     38.8226         0.016650   
    137. D(N  16,C  11,C   2,C   1)   -141.9817         0.016650   
    138. D(C  12,C  11,C   2,C   3)   -138.4878         0.016650   
    139. D(C  12,C  11,C   2,C   1)     40.7079         0.016650   
    140. D(H  14,C  12,C  11,C   2)     51.5464         0.013744   
    141. D(H  13,C  12,C  11,N  16)     -5.5649         0.013744   
    142. D(H  13,C  12,C  11,C   2)    171.7895         0.013744   
    143. D(H  15,C  12,C  11,N  16)    114.4723         0.013744   
    144. D(H  15,C  12,C  11,C   2)    -68.1733         0.013744   
    145. D(H  14,C  12,C  11,N  16)   -125.8080         0.013744   
    146. D(O  18,N  16,C  11,C   2)      5.0743         0.038871   
    147. D(O  18,N  16,C  11,C  12)   -177.6516         0.038871   
    148. D(O  17,N  16,C  11,C  12)      0.0042         0.038871   
    149. D(O  17,N  16,C  11,C   2)   -177.2699         0.038871   
    150. D(H  33,O  18,N  16,O  17)   -128.1891         0.050879   
    151. D(H  33,O  18,N  16,C  11)     49.6151         0.050879   
    152. D(H  34,C  20,N  19,H  36)     58.0371         0.012104   
    153. D(H  34,C  20,N  19,H  33)    -58.5536         0.012104   
    154. D(H  34,C  20,N  19,C  24)    178.8896         0.012104   
    155. D(H  31,C  20,N  19,H  36)    174.4960         0.012104   
    156. D(H  31,C  20,N  19,H  33)     57.9053         0.012104   
    157. D(H  31,C  20,N  19,C  24)    -64.6515         0.012104   
    158. D(C  21,C  20,N  19,H  36)    -64.0742         0.012104   
    159. D(C  21,C  20,N  19,H  33)    179.3351         0.012104   
    160. D(C  21,C  20,N  19,C  24)     56.7783         0.012104   
    161. D(H  30,C  21,C  20,H  34)    -55.9445         0.011062   
    162. D(H  30,C  21,C  20,H  31)   -174.2984         0.011062   
    163. D(H  30,C  21,C  20,N  19)     65.2237         0.011062   
    164. D(H  29,C  21,C  20,H  34)     66.8321         0.011062   
    165. D(H  29,C  21,C  20,H  31)    -51.5218         0.011062   
    166. D(H  29,C  21,C  20,N  19)   -171.9997         0.011062   
    167. D(O  22,C  21,C  20,H  34)   -178.9931         0.011062   
    168. D(O  22,C  21,C  20,H  31)     62.6530         0.011062   
    169. D(O  22,C  21,C  20,N  19)    -57.8250         0.011062   
    170. D(C  23,O  22,C  21,H  30)    -64.0213         0.020315   
    171. D(C  23,O  22,C  21,H  29)   -179.7986         0.020315   
    172. D(C  23,O  22,C  21,C  20)     60.7010         0.020315   
    173. D(H  27,C  23,O  22,C  21)    179.6515         0.020621   
    174. D(C  24,C  23,O  22,C  21)    -60.8086         0.020621   
    175. D(H  28,C  23,O  22,C  21)     63.7346         0.020621   
    176. D(H  26,C  24,C  23,H  28)    174.4269         0.010958   
    177. D(H  26,C  24,C  23,H  27)     51.8084         0.010958   
    178. D(H  26,C  24,C  23,O  22)    -62.5428         0.010958   
    179. D(H  25,C  24,C  23,H  27)    -66.8672         0.010958   
    180. D(H  25,C  24,C  23,O  22)    178.7816         0.010958   
    181. D(N  19,C  24,C  23,H  28)    -64.9720         0.010958   
    182. D(N  19,C  24,C  23,H  27)    172.4096         0.010958   
    183. D(N  19,C  24,C  23,O  22)     58.0584         0.010958   
    184. D(H  26,C  24,N  19,H  36)   -174.0812         0.012195   
    185. D(H  26,C  24,N  19,H  33)    -57.3620         0.012195   
    186. D(H  26,C  24,N  19,C  20)     64.5375         0.012195   
    187. D(H  25,C  24,N  19,H  36)    -56.7545         0.012195   
    188. D(H  25,C  24,N  19,H  33)     59.9646         0.012195   
    189. D(H  25,C  24,C  23,H  28)     55.7513         0.010958   
    190. D(H  25,C  24,N  19,C  20)   -178.1359         0.012195   
    191. D(C  23,C  24,N  19,H  36)     64.5522         0.012195   
    192. D(C  23,C  24,N  19,H  33)   -178.7287         0.012195   
    193. D(C  23,C  24,N  19,C  20)    -56.8292         0.012195   
    194. D(O  18,H  33,N  19,H  36)    -69.8658         0.127517   
    195. D(O  18,H  33,N  19,C  24)    170.9656         0.127517   
    196. D(O  18,H  33,N  19,C  20)     49.7549         0.127517   
    197. D(N  19,H  33,O  18,N  16)     88.5920         0.002352   
    198. D(N  19,H  36,H  32,O  37)   -164.7283         0.001510   
    199. D(O  37,H  36,N  19,H  33)    -25.8027         0.169191   
    200. D(O  37,H  36,N  19,C  24)     94.3990         0.169191   
    201. D(O  37,H  36,N  19,C  20)   -145.1678         0.169191   
    202. D(H  32,H  36,N  19,H  33)    -10.9903         0.169191   
    203. D(H  32,H  36,N  19,C  24)    109.2114         0.169191   
    204. D(H  32,H  36,N  19,C  20)   -130.3553         0.169191   
    205. D(H  35,O  37,H  36,H  32)    114.0892         0.001914   
    206. D(H  35,O  37,H  36,N  19)    141.4309         0.001914   
    207. D(H  32,O  37,H  36,N  19)     27.3417         0.001914   
    208. D(H  35,O  37,H  32,H  36)   -121.4241         0.321724   
    -----------------------------------------------------------------

Number of atoms                         .... 38
Number of degrees of freedom            .... 208

         *************************************************************
         *                GEOMETRY OPTIMIZATION CYCLE   1            *
         *************************************************************
---------------------------------
CARTESIAN COORDINATES (ANGSTROEM)
---------------------------------
  C      3.511047    2.289711   -0.858163
  C      3.279604    1.028907   -0.317442
  C      2.489309    0.087180   -0.997677
  C      1.927614    0.438191   -2.233877
  C      2.186006    1.697603   -2.744654
  C      2.965390    2.641898   -2.094048
  H      4.130015    3.008333   -0.316899
  H      3.726182    0.766667    0.643633
  H      1.301682   -0.278997   -2.772581
  Cl     1.518246    2.098157   -4.277623
  H      3.157876    3.625961   -2.521708
  C      2.251281   -1.220858   -0.409818
  C      1.988776   -1.306172    1.055221
  H      1.680670   -2.314034    1.373712
  H      1.188817   -0.613463    1.358839
  H      2.880506   -1.049276    1.647141
  N      2.211391   -2.324745   -1.158277
  O      1.958973   -3.456876   -0.684748
  O      2.476979   -2.282411   -2.409072
  N      4.915648   -1.262558   -2.963154
  C      5.490141   -2.238092   -3.959067
  C      6.953845   -1.880565   -4.230875
  O      7.047810   -0.550191   -4.709682
  C      6.556368    0.401744   -3.785171
  C      5.074616    0.137360   -3.497294
  H      4.683418    0.868701   -2.753097
  H      4.465398    0.252811   -4.425071
  H      6.707804    1.368919   -4.305483
  H      7.175294    0.392312   -2.868216
  H      7.377069   -2.480952   -5.061440
  H      7.597280   -2.005895   -3.340201
  H      4.890533   -2.199653   -4.900484
  H      4.606289   -1.561225    0.038767
  H      3.879647   -1.493562   -2.768868
  H      5.395489   -3.276547   -3.563742
  H      6.068801   -2.002052    0.131347
  H      5.407832   -1.347941   -2.031179
  O      5.495183   -1.324177   -0.261119

----------------------------
CARTESIAN COORDINATES (A.U.)
----------------------------
  NO LB      ZA    FRAG     MASS         X           Y           Z
   0 C     6.0000    0    12.011    6.634917    4.326926   -1.621692
   1 C     6.0000    0    12.011    6.197554    1.944352   -0.599878
   2 C     6.0000    0    12.011    4.704112    0.164747   -1.885335
   3 C     6.0000    0    12.011    3.642663    0.828060   -4.221416
   4 C     6.0000    0    12.011    4.130952    3.208005   -5.186644
   5 C     6.0000    0    12.011    5.603775    4.992465   -3.957176
   6 H     1.0000    0     1.008    7.804597    5.684926   -0.598852
   7 H     1.0000    0     1.008    7.041464    1.448791    1.216289
   8 H     1.0000    0     1.008    2.459822   -0.527228   -5.239418
   9 Cl   17.0000    0    35.453    2.869069    3.964942   -8.083536
  10 H     1.0000    0     1.008    5.967520    6.852073   -4.765337
  11 C     6.0000    0    12.011    4.254305   -2.307088   -0.774444
  12 C     6.0000    0    12.011    3.758242   -2.468308    1.994078
  13 H     1.0000    0     1.008    3.176006   -4.372890    2.595940
  14 H     1.0000    0     1.008    2.246538   -1.159277    2.567834
  15 H     1.0000    0     1.008    5.443367   -1.982844    3.112645
  16 N     7.0000    0    14.007    4.178924   -4.393131   -2.188827
  17 O     8.0000    0    15.999    3.701923   -6.532548   -1.293986
  18 O     8.0000    0    15.999    4.680813   -4.313132   -4.552487
  19 N     7.0000    0    14.007    9.289229   -2.385889   -5.599550
  20 C     6.0000    0    12.011   10.374863   -4.229381   -7.481552
  21 C     6.0000    0    12.011   13.140863   -3.553753   -7.995195
  22 O     8.0000    0    15.999   13.318430   -1.039711   -8.900009
  23 C     6.0000    0    12.011   12.389741    0.759186   -7.152937
  24 C     6.0000    0    12.011    9.589635    0.259573   -6.608928
  25 H     1.0000    0     1.008    8.850377    1.641607   -5.202598
  26 H     1.0000    0     1.008    8.438379    0.477743   -8.362172
  27 H     1.0000    0     1.008   12.675912    2.586882   -8.136183
  28 H     1.0000    0     1.008   13.559340    0.741362   -5.420143
  29 H     1.0000    0     1.008   13.940641   -4.688320   -9.564736
  30 H     1.0000    0     1.008   14.356779   -3.790592   -6.312066
  31 H     1.0000    0     1.008    9.241769   -4.156742   -9.260573
  32 H     1.0000    0     1.008    8.704625   -2.950288    0.073259
  33 H     1.0000    0     1.008    7.331471   -2.822423   -5.232403
  34 H     1.0000    0     1.008   10.195996   -6.191777   -6.734497
  35 H     1.0000    0     1.008   11.468371   -3.783331    0.248209
  36 H     1.0000    0     1.008   10.219322   -2.547239   -3.838373
  37 O     8.0000    0    15.999   10.384391   -2.502332   -0.493444

--------------------------------
INTERNAL COORDINATES (ANGSTROEM)
--------------------------------
 C      0   0   0     0.000000000000     0.00000000     0.00000000
 C      1   0   0     1.391248036952     0.00000000     0.00000000
 C      2   1   0     1.405039123953   120.85132510     0.00000000
 C      3   2   1     1.402462398301   118.96445949   359.70257105
 C      4   3   2     1.383393894770   118.58703277     0.68885537
 C      5   4   3     1.386514384116   123.48787050   359.47298657
 H      1   2   3     1.092019294397   119.86904103   180.16100775
 H      2   1   3     1.091725975621   119.45775474   179.43952374
 H      4   3   2     1.093778693399   119.94810230   180.59995502
 Cl     5   4   3     1.719401384534   117.95183202   178.65584882
 H      6   5   4     1.090102270754   122.00380963   179.65866429
 C      3   2   1     1.453684697083   119.96122532   180.48997695
 C     12   3   2     1.490813901247   118.53693041    40.70788487
 H     13  12   3     1.100976939153   112.70223380   171.78950568
 H     13  12   3     1.100893459928   111.28242299    51.54639387
 H     13  12   3     1.100702921467   111.86739869   291.82669920
 N     12   3   2     1.334296958687   121.49897503   218.01831705
 O     17  12   3     1.252862506844   122.79295471   182.73012998
 O     17  12   3     1.279381676887   120.98568574     5.07429209
 N     19  17  12     2.700779841631   113.61015749    56.76642775
 C     20  19  17     1.507829717285   103.60493736   133.16172610
 C     21  20  19     1.531056766736   109.29444726   187.20574802
 O     22  21  20     1.417032325255   110.03630661   302.17504967
 C     23  22  21     1.415067315170   112.81689741    60.70101465
 C     20  19  17     1.506767203972   121.25360715   255.85529166
 H     25  20  19     1.114327262384   109.63224367    61.80003574
 H     25  20  19     1.115906047332   109.46642419   304.47339886
 H     24  23  22     1.108640864558   103.46255826   179.65150056
 H     24  23  22     1.106328807743   109.96679852    63.73456295
 H     22  21  20     1.108792651175   111.80479555   188.00028561
 H     22  21  20     1.105900453065   112.75439767    65.22366599
 H     21  20  19     1.116813764332   109.26490548    65.77592286
 H     16  13  12     2.413977778483    99.86841308   335.55204208
 H     20  19  17     1.079076873329    10.04196643   265.70602060
 H     21  20  19     1.115181725088   109.63251259   309.31702137
 H     33  16  13     1.530306841527   134.75080777   207.80298357
 H     20  19  17     1.057408342630   102.06248925    18.16007886
 O     33  16  13     0.967602843831   144.22306592   149.38796162

---------------------------
INTERNAL COORDINATES (A.U.)
---------------------------
 C      0   0   0     0.000000000000     0.00000000     0.00000000
 C      1   0   0     2.629077774195     0.00000000     0.00000000
 C      2   1   0     2.655139151716   120.85132510     0.00000000
 C      3   2   1     2.650269845911   118.96445949   359.70257105
 C      4   3   2     2.614235596453   118.58703277     0.68885537
 C      5   4   3     2.620132466723   123.48787050   359.47298657
 H      1   2   3     2.063617399368   119.86904103   180.16100775
 H      2   1   3     2.063063107211   119.45775474   179.43952374
 H      4   3   2     2.066942181642   119.94810230   180.59995502
 Cl     5   4   3     3.249197731055   117.95183202   178.65584882
 H      6   5   4     2.059994749690   122.00380963   179.65866429
 C      3   2   1     2.747065962560   119.96122532   180.48997695
 C     12   3   2     2.817229990000   118.53693041    40.70788487
 H     13  12   3     2.080544894763   112.70223380   171.78950568
 H     13  12   3     2.080387141888   111.28242299    51.54639387
 H     13  12   3     2.080027076379   111.86739869   291.82669920
 N     12   3   2     2.521455833242   121.49897503   218.01831705
 O     17  12   3     2.367567021392   122.79295471   182.73012998
 O     17  12   3     2.417680990073   120.98568574     5.07429209
 N     19  17  12     5.103734248699   113.61015749    56.76642775
 C     20  19  17     2.849385222257   103.60493736   133.16172610
 C     21  20  19     2.893277984617   109.29444726   187.20574802
 O     22  21  20     2.677803017646   110.03630661   302.17504967
 C     23  22  21     2.674089686734   112.81689741    60.70101465
 C     20  19  17     2.847377363081   121.25360715   255.85529166
 H     25  20  19     2.105773349468   109.63224367    61.80003574
 H     25  20  19     2.108756820643   109.46642419   304.47339886
 H     24  23  22     2.095027614888   103.46255826   179.65150056
 H     24  23  22     2.090658460703   109.96679852    63.73456295
 H     22  21  20     2.095314450026   111.80479555   188.00028561
 H     22  21  20     2.089848987673   112.75439767    65.22366599
 H     21  20  19     2.110472157181   109.26490548    65.77592286
 H     16  13  12     4.561756894705    99.86841308   335.55204208
 H     20  19  17     2.039159768040    10.04196643   265.70602060
 H     21  20  19     2.107388049969   109.63251259   309.31702137
 H     33  16  13     2.891860831351   134.75080777   207.80298357
 H     20  19  17     1.998212179295   102.06248925    18.16007886
 O     33  16  13     1.828504381245   144.22306592   149.38796162

---------------------
BASIS SET INFORMATION
---------------------
There are 5 groups of distinct atoms

 Group   1 Type C   : 11s6p2d1f contracted to 5s3p2d1f pattern {62111/411/11/1}
 Group   2 Type H   : 5s1p contracted to 3s1p pattern {311/1}
 Group   3 Type Cl  : 14s9p3d1f contracted to 5s5p2d1f pattern {73211/51111/21/1}
 Group   4 Type N   : 11s6p2d1f contracted to 5s3p2d1f pattern {62111/411/11/1}
 Group   5 Type O   : 11s6p2d1f contracted to 5s3p2d1f pattern {62111/411/11/1}

Atom   0C    basis set group =>   1
Atom   1C    basis set group =>   1
Atom   2C    basis set group =>   1
Atom   3C    basis set group =>   1
Atom   4C    basis set group =>   1
Atom   5C    basis set group =>   1
Atom   6H    basis set group =>   2
Atom   7H    basis set group =>   2
Atom   8H    basis set group =>   2
Atom   9Cl   basis set group =>   3
Atom  10H    basis set group =>   2
Atom  11C    basis set group =>   1
Atom  12C    basis set group =>   1
Atom  13H    basis set group =>   2
Atom  14H    basis set group =>   2
Atom  15H    basis set group =>   2
Atom  16N    basis set group =>   4
Atom  17O    basis set group =>   5
Atom  18O    basis set group =>   5
Atom  19N    basis set group =>   4
Atom  20C    basis set group =>   1
Atom  21C    basis set group =>   1
Atom  22O    basis set group =>   5
Atom  23C    basis set group =>   1
Atom  24C    basis set group =>   1
Atom  25H    basis set group =>   2
Atom  26H    basis set group =>   2
Atom  27H    basis set group =>   2
Atom  28H    basis set group =>   2
Atom  29H    basis set group =>   2
Atom  30H    basis set group =>   2
Atom  31H    basis set group =>   2
Atom  32H    basis set group =>   2
Atom  33H    basis set group =>   2
Atom  34H    basis set group =>   2
Atom  35H    basis set group =>   2
Atom  36H    basis set group =>   2
Atom  37O    basis set group =>   5
---------------------------------
AUXILIARY/J BASIS SET INFORMATION
---------------------------------
There are 5 groups of distinct atoms

 Group   1 Type C   : 12s5p4d2f1g contracted to 6s4p3d1f1g pattern {711111/2111/211/2/1}
 Group   2 Type H   : 5s2p1d contracted to 3s1p1d pattern {311/2/1}
 Group   3 Type Cl  : 14s5p5d2f1g contracted to 8s4p3d1f1g pattern {71111111/2111/311/2/1}
 Group   4 Type N   : 12s5p4d2f1g contracted to 6s4p3d1f1g pattern {711111/2111/211/2/1}
 Group   5 Type O   : 12s5p4d2f1g contracted to 6s4p3d1f1g pattern {711111/2111/211/2/1}

Atom   0C    basis set group =>   1
Atom   1C    basis set group =>   1
Atom   2C    basis set group =>   1
Atom   3C    basis set group =>   1
Atom   4C    basis set group =>   1
Atom   5C    basis set group =>   1
Atom   6H    basis set group =>   2
Atom   7H    basis set group =>   2
Atom   8H    basis set group =>   2
Atom   9Cl   basis set group =>   3
Atom  10H    basis set group =>   2
Atom  11C    basis set group =>   1
Atom  12C    basis set group =>   1
Atom  13H    basis set group =>   2
Atom  14H    basis set group =>   2
Atom  15H    basis set group =>   2
Atom  16N    basis set group =>   4
Atom  17O    basis set group =>   5
Atom  18O    basis set group =>   5
Atom  19N    basis set group =>   4
Atom  20C    basis set group =>   1
Atom  21C    basis set group =>   1
Atom  22O    basis set group =>   5
Atom  23C    basis set group =>   1
Atom  24C    basis set group =>   1
Atom  25H    basis set group =>   2
Atom  26H    basis set group =>   2
Atom  27H    basis set group =>   2
Atom  28H    basis set group =>   2
Atom  29H    basis set group =>   2
Atom  30H    basis set group =>   2
Atom  31H    basis set group =>   2
Atom  32H    basis set group =>   2
Atom  33H    basis set group =>   2
Atom  34H    basis set group =>   2
Atom  35H    basis set group =>   2
Atom  36H    basis set group =>   2
Atom  37O    basis set group =>   5


           ************************************************************
           *        Program running with 102 parallel MPI-processes   *
           *              working on a common directory               *
           ************************************************************
------------------------------------------------------------------------------
                           ORCA GTO INTEGRAL CALCULATION
                           -- RI-GTO INTEGRALS CHOSEN --
------------------------------------------------------------------------------
------------------------------------------------------------------------------
                   ___                                                        
                  /   \      - P O W E R E D   B Y -                         
                 /     \                                                     
                 |  |  |   _    _      __       _____    __    __             
                 |  |  |  | |  | |    /  \     |  _  \  |  |  /  |          
                  \  \/   | |  | |   /    \    | | | |  |  | /  /          
                 / \  \   | |__| |  /  /\  \   | |_| |  |  |/  /          
                |  |  |   |  __  | /  /__\  \  |    /   |      \           
                |  |  |   | |  | | |   __   |  |    \   |  |\   \          
                \     /   | |  | | |  |  |  |  | |\  \  |  | \   \       
                 \___/    |_|  |_| |__|  |__|  |_| \__\ |__|  \__/        
                                                                              
                      - O R C A' S   B I G   F R I E N D -                    
                                      &                                       
                       - I N T E G R A L  F E E D E R -                       
                                                                              
 v1 FN, 2020, v2 2021                                                         
------------------------------------------------------------------------------


Reading SHARK input file /home/rudenko/mop_saddle_orca_4_serv/for_orca/mcl-morpholine/orca/orca_end/end.SHARKINP.tmp ... ok
----------------------
SHARK INTEGRAL PACKAGE
----------------------

Number of atoms                             ...     38
Number of basis functions                   ...    709
Number of shells                            ...    287
Maximum angular momentum                    ...      3
Integral batch strategy                     ... SHARK/LIBINT Hybrid
RI-J (if used) integral strategy            ... SPLIT-RIJ (Revised 2003 algorithm where possible)
Printlevel                                  ...      1
Contraction scheme used                     ... SEGMENTED contraction
Coulomb Range Separation                    ... NOT USED
Exchange Range Separation                   ... NOT USED
Finite Nucleus Model                        ... NOT USED
Auxiliary Coulomb fitting basis             ... AVAILABLE
   # of basis functions in Aux-J            ...   1142
   # of shells in Aux-J                     ...    382
   Maximum angular momentum in Aux-J        ...      4
Auxiliary J/K fitting basis                 ... NOT available
Auxiliary Correlation fitting basis         ... NOT available
Auxiliary 'external' fitting basis          ... NOT available
Integral threshold                          ...     2.500000e-11
Primitive cut-off                           ...     2.500000e-12
Primitive pair pre-selection threshold      ...     2.500000e-12

Calculating pre-screening integrals         ... done (  0.1 sec) Dimension = 287
Organizing shell pair data                  ... done (  0.9 sec)
Shell pair information
Total number of shell pairs                 ...     41328
Shell pairs after pre-screening             ...     31442
Total number of primitive shell pairs       ...    126240
Primitive shell pairs kept                  ...     63799
          la=0 lb=0:   8660 shell pairs
          la=1 lb=0:   9249 shell pairs
          la=1 lb=1:   2527 shell pairs
          la=2 lb=0:   4297 shell pairs
          la=2 lb=1:   2343 shell pairs
          la=2 lb=2:    567 shell pairs
          la=3 lb=0:   2021 shell pairs
          la=3 lb=1:   1128 shell pairs
          la=3 lb=2:    521 shell pairs
          la=3 lb=3:    129 shell pairs

Calculating one electron integrals          ... done (  0.2 sec)
Calculating RI/J V-Matrix + Cholesky decomp.... done (  0.2 sec)
Calculating Nuclear repulsion               ... done (  0.0 sec) ENN=   1713.475110684739 Eh

SHARK setup successfully completed in   2.0 seconds

Maximum memory used throughout the entire GTOINT-calculation: 47.5 MB


           ************************************************************
           *        Program running with 102 parallel MPI-processes   *
           *              working on a common directory               *
           ************************************************************
-------------------------------------------------------------------------------
                                 ORCA SCF
-------------------------------------------------------------------------------

------------
SCF SETTINGS
------------
Hamiltonian:
 Density Functional     Method          .... DFT(GTOs)
 Exchange Functional    Exchange        .... B88
   X-Alpha parameter    XAlpha          ....  0.666667
   Becke's b parameter  XBeta           ....  0.004200
 Correlation Functional Correlation     .... LYP
 LDA part of GGA corr.  LDAOpt          .... VWN-5
 Gradients option       PostSCFGGA      .... off
 Hybrid DFT is turned on
   Fraction HF Exchange ScalHFX         ....  0.200000
   Scaling of DF-GGA-X  ScalDFX         ....  0.720000
   Scaling of DF-GGA-C  ScalDFC         ....  0.810000
   Scaling of DF-LDA-C  ScalLDAC        ....  1.000000
   Perturbative correction              ....  0.000000
   Density functional embedding theory  .... OFF
   NL short-range parameter             ....  4.800000
 RI-approximation to the Coulomb term is turned on
   Number of AuxJ basis functions       .... 1142
   RIJ-COSX (HFX calculated with COS-X)).... on


General Settings:
 Integral files         IntName         .... /home/rudenko/mop_saddle_orca_4_serv/for_orca/mcl-morpholine/orca/orca_end/end
 Hartree-Fock type      HFTyp           .... RHF
 Total Charge           Charge          ....    0
 Multiplicity           Mult            ....    1
 Number of Electrons    NEL             ....  154
 Basis Dimension        Dim             ....  709
 Nuclear Repulsion      ENuc            ....   1713.4751106847 Eh

Convergence Acceleration:
 DIIS                   CNVDIIS         .... on
   Start iteration      DIISMaxIt       ....    12
   Startup error        DIISStart       ....  0.200000
   # of expansion vecs  DIISMaxEq       ....     5
   Bias factor          DIISBfac        ....   1.050
   Max. coefficient     DIISMaxC        ....  10.000
 Trust-Rad. Augm. Hess. CNVTRAH         .... auto
   Auto Start mean grad. ratio tolernc. ....  1.125000
   Auto Start start iteration           ....    20
   Auto Start num. interpolation iter.  ....    10
   Max. Number of Micro iterations      ....    16
   Max. Number of Macro iterations      .... Maxiter - #DIIS iter
   Number of Davidson start vectors     ....     2
   Converg. threshold I  (grad. norm)   ....   1.000e-05
   Converg. threshold II (energy diff.) ....   1.000e-08
   Grad. Scal. Fac. for Micro threshold ....   0.100
   Minimum threshold for Micro iter.    ....   0.010
   NR start threshold (gradient norm)   ....   0.001
   Initial trust radius                 ....   0.400
   Minimum AH scaling param. (alpha)    ....   1.000
   Maximum AH scaling param. (alpha)    .... 1000.000
   Orbital update algorithm             .... Taylor
   White noise on init. David. guess    .... on
   Maximum white noise                  ....   0.010
   Quad. conv. algorithm                .... NR
 SOSCF                  CNVSOSCF        .... on
   Start iteration      SOSCFMaxIt      ....   150
   Startup grad/error   SOSCFStart      ....  0.003300
 Level Shifting         CNVShift        .... on
   Level shift para.    LevelShift      ....    0.2500
   Turn off err/grad.   ShiftErr        ....    0.0010
 Zerner damping         CNVZerner       .... off
 Static damping         CNVDamp         .... on
   Fraction old density DampFac         ....    0.7000
   Max. Damping (<1)    DampMax         ....    0.9800
   Min. Damping (>=0)   DampMin         ....    0.0000
   Turn off err/grad.   DampErr         ....    0.1000
 Fernandez-Rico         CNVRico         .... off

SCF Procedure:
 Maximum # iterations   MaxIter         ....   125
 SCF integral mode      SCFMode         .... Direct
   Integral package                     .... SHARK and LIBINT hybrid scheme
 Reset frequency        DirectResetFreq ....    20
 Integral Threshold     Thresh          ....  2.500e-11 Eh
 Primitive CutOff       TCut            ....  2.500e-12 Eh

Convergence Tolerance:
 Convergence Check Mode ConvCheckMode   .... Total+1el-Energy
 Convergence forced     ConvForced      .... 0
 Energy Change          TolE            ....  1.000e-08 Eh
 1-El. energy change                    ....  1.000e-05 Eh
 Orbital Gradient       TolG            ....  1.000e-05
 Orbital Rotation angle TolX            ....  1.000e-05
 DIIS Error             TolErr          ....  5.000e-07


Diagonalization of the overlap matrix:
Smallest eigenvalue                        ... 7.184e-06
Time for diagonalization                   ...    0.337 sec
Threshold for overlap eigenvalues          ... 1.000e-08
Number of eigenvalues below threshold      ... 0
Time for construction of square roots      ...    0.456 sec
Total time needed                          ...    0.798 sec

Time for model grid setup =    0.273 sec

------------------------------
INITIAL GUESS: MODEL POTENTIAL
------------------------------
Loading Hartree-Fock densities                     ... done
Calculating cut-offs                               ... done
Initializing the effective Hamiltonian             ... done
Setting up the integral package (SHARK)            ... done
Starting the Coulomb interaction                   ... done (   0.1 sec)
Reading the grid                                   ... done
Mapping shells                                     ... done
Starting the XC term evaluation                    ... done (   0.1 sec)
  promolecular density results
     # of electrons  =    153.982163332
     EX              =   -140.842492123
     EC              =     -5.390453639
     EX+EC           =   -146.232945762
Transforming the Hamiltonian                       ... done (   0.5 sec)
Diagonalizing the Hamiltonian                      ... done (   0.4 sec)
Back transforming the eigenvectors                 ... done (   0.2 sec)
Now organizing SCF variables                       ... done
                      ------------------
                      INITIAL GUESS DONE (   1.6 sec)
                      ------------------
-------------------
DFT GRID GENERATION
-------------------

General Integration Accuracy     IntAcc      ... 4.388
Radial Grid Type                 RadialGrid  ... OptM3 with GC (2021)
Angular Grid (max. ang.)         AngularGrid ... 4 (Lebedev-302)
Angular grid pruning method      GridPruning ... 4 (adaptive)
Weight generation scheme         WeightScheme... Becke
Basis function cutoff            BFCut       ... 1.0000e-11
Integration weight cutoff        WCut        ... 1.0000e-14
Angular grids for H and He will be reduced by one unit
Partially contracted basis set               ... off
Rotationally invariant grid construction     ... off

Total number of grid points                  ...   174929
Total number of batches                      ...     2753
Average number of points per batch           ...       63
Average number of grid points per atom       ...     4603
Time for grid setup =    1.449 sec

--------------------
COSX GRID GENERATION
--------------------

GRIDX 1
-------
General Integration Accuracy     IntAcc      ... 3.816
Radial Grid Type                 RadialGrid  ... OptM3 with GC (2021)
Angular Grid (max. ang.)         AngularGrid ... 1 (Lebedev-50)
Angular grid pruning method      GridPruning ... 4 (adaptive)
Weight generation scheme         WeightScheme... Becke
Basis function cutoff            BFCut       ... 1.0000e-11
Integration weight cutoff        WCut        ... 1.0000e-14
Angular grids for H and He will be reduced by one unit
Partially contracted basis set               ... on
Rotationally invariant grid construction     ... off

Total number of grid points                  ...    22167
Total number of batches                      ...      367
Average number of points per batch           ...       60
Average number of grid points per atom       ...      583
UseSFitting                                  ... on

GRIDX 2
-------
General Integration Accuracy     IntAcc      ... 4.020
Radial Grid Type                 RadialGrid  ... OptM3 with GC (2021)
Angular Grid (max. ang.)         AngularGrid ... 2 (Lebedev-110)
Angular grid pruning method      GridPruning ... 4 (adaptive)
Weight generation scheme         WeightScheme... Becke
Basis function cutoff            BFCut       ... 1.0000e-11
Integration weight cutoff        WCut        ... 1.0000e-14
Angular grids for H and He will be reduced by one unit
Partially contracted basis set               ... on
Rotationally invariant grid construction     ... off

Total number of grid points                  ...    47366
Total number of batches                      ...      757
Average number of points per batch           ...       62
Average number of grid points per atom       ...     1246
UseSFitting                                  ... on

GRIDX 3
-------
General Integration Accuracy     IntAcc      ... 4.338
Radial Grid Type                 RadialGrid  ... OptM3 with GC (2021)
Angular Grid (max. ang.)         AngularGrid ... 3 (Lebedev-194)
Angular grid pruning method      GridPruning ... 4 (adaptive)
Weight generation scheme         WeightScheme... Becke
Basis function cutoff            BFCut       ... 1.0000e-11
Integration weight cutoff        WCut        ... 1.0000e-14
Angular grids for H and He will be reduced by one unit
Partially contracted basis set               ... on
Rotationally invariant grid construction     ... off

Total number of grid points                  ...   103739
Total number of batches                      ...     1641
Average number of points per batch           ...       63
Average number of grid points per atom       ...     2730
UseSFitting                                  ... on

Time for X-Grid setup             =    2.741 sec


--------------------
CPCM SOLVATION MODEL
--------------------
CPCM parameters:
  Epsilon                                         ...      78.4000
  Refrac                                          ...       1.3300
  Rsolv                                           ...       1.3000
  Surface type                                    ... GAUSSIAN VDW
  Epsilon function type                           ...         CPCM
Radii:
 Radius for C  used is    3.8550 Bohr (=   2.0400 Ang.)
 Radius for H  used is    2.4944 Bohr (=   1.3200 Ang.)
 Radius for Cl used is    3.9684 Bohr (=   2.1000 Ang.)
 Radius for N  used is    3.5149 Bohr (=   1.8600 Ang.)
 Radius for O  used is    3.4469 Bohr (=   1.8240 Ang.)
Calculating surface                               ...        done! (  0.0s)
GEPOL surface points                              ...         2007
GEPOL Volume                                      ...    2266.4262
GEPOL Surface-area                                ...    1150.6777
Calculating surface distance matrix               ...        done! (  0.2s)
Performing Cholesky decomposition & store         ...        done! (  0.7s)
Overall time for CPCM initialization              ...                 0.9s
--------------
SCF ITERATIONS
--------------
ITER       Energy         Delta-E        Max-DP      RMS-DP      [F,P]     Damp
               ***  Starting incremental Fock matrix formation  ***
  0  -1338.4873856241   0.000000000000 0.13836418  0.00106965  0.3132711 0.7000
  1  -1338.7406939547  -0.253308330597 0.13791747  0.00096008  0.1241976 0.7000
                               ***Turning on DIIS***
  2  -1338.8377890086  -0.097095053979 0.17344150  0.00160522  0.0412768 0.0000
  3  -1338.9960971542  -0.158308145594 0.12731207  0.00075461  0.0701206 0.0000
  4  -1339.0278531692  -0.031756014978 0.03029416  0.00024835  0.0166487 0.0000
  5  -1339.0296179420  -0.001764772745 0.01341303  0.00010061  0.0062139 0.0000
                      *** Initiating the SOSCF procedure ***
                           *** Shutting down DIIS ***
                      *** Re-Reading the Fockian *** 
                      *** Removing any level shift *** 
ITER      Energy       Delta-E        Grad      Rot      Max-DP    RMS-DP
  6  -1339.02979683  -0.0001788910  0.000220  0.000220  0.005121  0.000037
               *** Restarting incremental Fock matrix formation ***
  7  -1339.02982977  -0.0000329343  0.000178  0.001168  0.003981  0.000028
  8  -1339.02982824   0.0000015284  0.000228  0.000486  0.000675  0.000008
  9  -1339.02983216  -0.0000039246  0.000077  0.000278  0.000563  0.000005
 10  -1339.02983184   0.0000003210  0.000111  0.000168  0.000192  0.000002
 11  -1339.02983234  -0.0000004983  0.000007  0.000013  0.000185  0.000001
 12  -1339.02983234   0.0000000024  0.000007  0.000009  0.000173  0.000001
                  ***Gradient check signals convergence***
              ***Rediagonalizing the Fockian in SOSCF/NRSCF***

               *****************************************************
               *                     SUCCESS                       *
               *           SCF CONVERGED AFTER  13 CYCLES          *
               *****************************************************

Old exchange energy                            =    -28.522081583 Eh
New exchange energy                            =    -28.522077046 Eh
Exchange energy change after final integration =      0.000004537 Eh
Total energy after final integration           =  -1339.029827800 Eh
Final COS-X integration done in                =     3.810 sec

----------------
TOTAL SCF ENERGY
----------------

Total Energy       :        -1339.02982780 Eh          -36436.85403 eV

Components:
Nuclear Repulsion  :         1713.47511068 Eh           46626.02818 eV
Electronic Energy  :        -3052.50493848 Eh          -83062.88221 eV
One Electron Energy:        -5240.28907351 Eh         -142595.51511 eV
Two Electron Energy:         2187.78413502 Eh           59532.63289 eV
Max COSX asymmetry :            0.00000174 Eh               0.00005 eV
CPCM Dielectric    :           -0.05058378 Eh              -1.37645 eV

Virial components:
Potential Energy   :        -2673.58189365 Eh          -72751.86196 eV
Kinetic Energy     :         1334.55206585 Eh           36315.00793 eV
Virial Ratio       :            2.00335525


DFT components:
N(Alpha)           :       76.999826924266 electrons
N(Beta)            :       76.999826924266 electrons
N(Total)           :      153.999653848532 electrons
E(X)               :     -113.397753854175 Eh       
E(C)               :       -6.340483538950 Eh       
E(XC)              :     -119.738237393125 Eh       
DFET-embed. en.    :        0.000000000000 Eh       
CPCM Solvation Model Properties:
Surface-charge          :           -0.03142121
Charge-correction       :           -0.00003002 Eh              -0.00082 eV
Free-energy (cav+disp)  :  This term is not implemented in the current solvation scheme

---------------
SCF CONVERGENCE
---------------

  Last Energy change         ...    1.4556e-09  Tolerance :   1.0000e-08
  Last MAX-Density change    ...    3.1086e-15  Tolerance :   1.0000e-07
  Last RMS-Density change    ...    1.5897e-17  Tolerance :   5.0000e-09
  Last Orbital Gradient      ...    1.4245e-06  Tolerance :   1.0000e-05
  Last Orbital Rotation      ...    5.2319e-06  Tolerance :   1.0000e-05

             **** THE GBW FILE WAS UPDATED (/home/rudenko/mop_saddle_orca_4_serv/for_orca/mcl-morpholine/orca/orca_end/end.gbw) ****
             **** DENSITY /home/rudenko/mop_saddle_orca_4_serv/for_orca/mcl-morpholine/orca/orca_end/end.scfp WAS UPDATED ****
             **** ENERGY FILE WAS UPDATED (/home/rudenko/mop_saddle_orca_4_serv/for_orca/mcl-morpholine/orca/orca_end/end.en.tmp) ****
             **** THE GBW FILE WAS UPDATED (/home/rudenko/mop_saddle_orca_4_serv/for_orca/mcl-morpholine/orca/orca_end/end.gbw) ****
             **** DENSITY /home/rudenko/mop_saddle_orca_4_serv/for_orca/mcl-morpholine/orca/orca_end/end.scfp WAS UPDATED ****
----------------
ORBITAL ENERGIES
----------------

  NO   OCC          E(Eh)            E(eV) 
   0   2.0000    -101.525267     -2762.6430 
   1   2.0000     -19.142997      -520.9074 
   2   2.0000     -19.136967      -520.7433 
   3   2.0000     -19.094276      -519.5817 
   4   2.0000     -19.087896      -519.4081 
   5   2.0000     -14.483106      -394.1054 
   6   2.0000     -14.395736      -391.7279 
   7   2.0000     -10.230632      -278.3897 
   8   2.0000     -10.227513      -278.3048 
   9   2.0000     -10.226257      -278.2706 
  10   2.0000     -10.223947      -278.2077 
  11   2.0000     -10.220327      -278.1092 
  12   2.0000     -10.191918      -277.3362 
  13   2.0000     -10.189274      -277.2643 
  14   2.0000     -10.181261      -277.0462 
  15   2.0000     -10.179544      -276.9995 
  16   2.0000     -10.178387      -276.9680 
  17   2.0000     -10.175244      -276.8825 
  18   2.0000     -10.161311      -276.5033 
  19   2.0000      -9.458124      -257.3686 
  20   2.0000      -7.219216      -196.4448 
  21   2.0000      -7.211395      -196.2320 
  22   2.0000      -7.210991      -196.2210 
  23   2.0000      -1.159296       -31.5460 
  24   2.0000      -1.053283       -28.6613 
  25   2.0000      -1.026696       -27.9378 
  26   2.0000      -0.978009       -26.6130 
  27   2.0000      -0.963350       -26.2141 
  28   2.0000      -0.898618       -24.4526 
  29   2.0000      -0.852625       -23.2011 
  30   2.0000      -0.816515       -22.2185 
  31   2.0000      -0.784371       -21.3438 
  32   2.0000      -0.750646       -20.4261 
  33   2.0000      -0.732718       -19.9383 
  34   2.0000      -0.711812       -19.3694 
  35   2.0000      -0.697294       -18.9743 
  36   2.0000      -0.668206       -18.1828 
  37   2.0000      -0.626865       -17.0579 
  38   2.0000      -0.607024       -16.5179 
  39   2.0000      -0.601751       -16.3745 
  40   2.0000      -0.565233       -15.3808 
  41   2.0000      -0.543297       -14.7839 
  42   2.0000      -0.537590       -14.6286 
  43   2.0000      -0.520292       -14.1579 
  44   2.0000      -0.512558       -13.9474 
  45   2.0000      -0.495881       -13.4936 
  46   2.0000      -0.487718       -13.2715 
  47   2.0000      -0.486772       -13.2457 
  48   2.0000      -0.480039       -13.0625 
  49   2.0000      -0.475416       -12.9367 
  50   2.0000      -0.473042       -12.8721 
  51   2.0000      -0.463087       -12.6013 
  52   2.0000      -0.446131       -12.1398 
  53   2.0000      -0.443518       -12.0687 
  54   2.0000      -0.427665       -11.6374 
  55   2.0000      -0.420090       -11.4312 
  56   2.0000      -0.418090       -11.3768 
  57   2.0000      -0.407701       -11.0941 
  58   2.0000      -0.399738       -10.8774 
  59   2.0000      -0.393798       -10.7158 
  60   2.0000      -0.386636       -10.5209 
  61   2.0000      -0.380285       -10.3481 
  62   2.0000      -0.375535       -10.2188 
  63   2.0000      -0.367020        -9.9871 
  64   2.0000      -0.360351        -9.8057 
  65   2.0000      -0.357098        -9.7171 
  66   2.0000      -0.336847        -9.1661 
  67   2.0000      -0.331797        -9.0287 
  68   2.0000      -0.321264        -8.7420 
  69   2.0000      -0.315585        -8.5875 
  70   2.0000      -0.289397        -7.8749 
  71   2.0000      -0.276859        -7.5337 
  72   2.0000      -0.275618        -7.4999 
  73   2.0000      -0.268136        -7.2964 
  74   2.0000      -0.250316        -6.8114 
  75   2.0000      -0.239588        -6.5195 
  76   2.0000      -0.190016        -5.1706 
  77   0.0000      -0.037058        -1.0084 
  78   0.0000      -0.019130        -0.5206 
  79   0.0000       0.015403         0.4191 
  80   0.0000       0.028812         0.7840 
  81   0.0000       0.034252         0.9320 
  82   0.0000       0.049610         1.3500 
  83   0.0000       0.057929         1.5763 
  84   0.0000       0.066965         1.8222 
  85   0.0000       0.069728         1.8974 
  86   0.0000       0.074632         2.0308 
  87   0.0000       0.084778         2.3069 
  88   0.0000       0.094403         2.5688 
  89   0.0000       0.098686         2.6854 
  90   0.0000       0.103543         2.8175 
  91   0.0000       0.105113         2.8603 
  92   0.0000       0.109781         2.9873 
  93   0.0000       0.111840         3.0433 
  94   0.0000       0.116195         3.1618 
  95   0.0000       0.121414         3.3038 
  96   0.0000       0.124868         3.3978 
  97   0.0000       0.126424         3.4402 
  98   0.0000       0.132990         3.6188 
  99   0.0000       0.136212         3.7065 
 100   0.0000       0.140176         3.8144 
 101   0.0000       0.157926         4.2974 
 102   0.0000       0.163425         4.4470 
 103   0.0000       0.166102         4.5199 
 104   0.0000       0.171995         4.6802 
 105   0.0000       0.180949         4.9239 
 106   0.0000       0.185796         5.0558 
 107   0.0000       0.192841         5.2475 
 108   0.0000       0.196399         5.3443 
 109   0.0000       0.202618         5.5135 
 110   0.0000       0.209043         5.6884 
 111   0.0000       0.213890         5.8203 
 112   0.0000       0.220273         5.9939 
 113   0.0000       0.222482         6.0540 
 114   0.0000       0.226023         6.1504 
 115   0.0000       0.237063         6.4508 
 116   0.0000       0.243323         6.6212 
 117   0.0000       0.247449         6.7334 
 118   0.0000       0.251336         6.8392 
 119   0.0000       0.256744         6.9864 
 120   0.0000       0.258735         7.0405 
 121   0.0000       0.267191         7.2706 
 122   0.0000       0.272592         7.4176 
 123   0.0000       0.279167         7.5965 
 124   0.0000       0.285104         7.7581 
 125   0.0000       0.289439         7.8760 
 126   0.0000       0.297647         8.0994 
 127   0.0000       0.304372         8.2824 
 128   0.0000       0.314103         8.5472 
 129   0.0000       0.315795         8.5932 
 130   0.0000       0.318018         8.6537 
 131   0.0000       0.326691         8.8897 
 132   0.0000       0.331310         9.0154 
 133   0.0000       0.339500         9.2383 
 134   0.0000       0.345726         9.4077 
 135   0.0000       0.350573         9.5396 
 136   0.0000       0.355475         9.6730 
 137   0.0000       0.356982         9.7140 
 138   0.0000       0.363313         9.8863 
 139   0.0000       0.365338         9.9414 
 140   0.0000       0.370931        10.0936 
 141   0.0000       0.376797        10.2532 
 142   0.0000       0.379249        10.3199 
 143   0.0000       0.384735        10.4692 
 144   0.0000       0.390113        10.6155 
 145   0.0000       0.396245        10.7824 
 146   0.0000       0.402471        10.9518 
 147   0.0000       0.408031        11.1031 
 148   0.0000       0.410508        11.1705 
 149   0.0000       0.413793        11.2599 
 150   0.0000       0.417717        11.3667 
 151   0.0000       0.417963        11.3733 
 152   0.0000       0.421239        11.4625 
 153   0.0000       0.426334        11.6011 
 154   0.0000       0.432636        11.7726 
 155   0.0000       0.436757        11.8848 
 156   0.0000       0.445238        12.1156 
 157   0.0000       0.446826        12.1587 
 158   0.0000       0.448999        12.2179 
 159   0.0000       0.453279        12.3343 
 160   0.0000       0.457756        12.4562 
 161   0.0000       0.460661        12.5352 
 162   0.0000       0.469231        12.7684 
 163   0.0000       0.469530        12.7766 
 164   0.0000       0.479304        13.0425 
 165   0.0000       0.481948        13.1145 
 166   0.0000       0.484525        13.1846 
 167   0.0000       0.494070        13.4443 
 168   0.0000       0.498599        13.5676 
 169   0.0000       0.502472        13.6730 
 170   0.0000       0.508184        13.8284 
 171   0.0000       0.511146        13.9090 
 172   0.0000       0.516911        14.0659 
 173   0.0000       0.525244        14.2926 
 174   0.0000       0.529959        14.4209 
 175   0.0000       0.537779        14.6337 
 176   0.0000       0.542324        14.7574 
 177   0.0000       0.555053        15.1038 
 178   0.0000       0.562602        15.3092 
 179   0.0000       0.567731        15.4488 
 180   0.0000       0.572967        15.5912 
 181   0.0000       0.579256        15.7624 
 182   0.0000       0.580987        15.8094 
 183   0.0000       0.588494        16.0137 
 184   0.0000       0.599038        16.3007 
 185   0.0000       0.601984        16.3808 
 186   0.0000       0.614690        16.7266 
 187   0.0000       0.621020        16.8988 
 188   0.0000       0.628597        17.1050 
 189   0.0000       0.630261        17.1503 
 190   0.0000       0.640766        17.4361 
 191   0.0000       0.643140        17.5007 
 192   0.0000       0.655305        17.8317 
 193   0.0000       0.661241        17.9933 
 194   0.0000       0.665596        18.1118 
 195   0.0000       0.677397        18.4329 
 196   0.0000       0.684968        18.6389 
 197   0.0000       0.692168        18.8348 
 198   0.0000       0.696603        18.9555 
 199   0.0000       0.703632        19.1468 
 200   0.0000       0.705515        19.1980 
 201   0.0000       0.723282        19.6815 
 202   0.0000       0.732662        19.9367 
 203   0.0000       0.742318        20.1995 
 204   0.0000       0.746735        20.3197 
 205   0.0000       0.749458        20.3938 
 206   0.0000       0.754615        20.5341 
 207   0.0000       0.763459        20.7748 
 208   0.0000       0.771155        20.9842 
 209   0.0000       0.774438        21.0735 
 210   0.0000       0.781522        21.2663 
 211   0.0000       0.792330        21.5604 
 212   0.0000       0.805023        21.9058 
 213   0.0000       0.812337        22.1048 
 214   0.0000       0.813326        22.1317 
 215   0.0000       0.830592        22.6016 
 216   0.0000       0.840348        22.8670 
 217   0.0000       0.843078        22.9413 
 218   0.0000       0.849751        23.1229 
 219   0.0000       0.863449        23.4956 
 220   0.0000       0.870307        23.6823 
 221   0.0000       0.878518        23.9057 
 222   0.0000       0.883845        24.0507 
 223   0.0000       0.884622        24.0718 
 224   0.0000       0.899568        24.4785 
 225   0.0000       0.904257        24.6061 
 226   0.0000       0.915606        24.9149 
 227   0.0000       0.926438        25.2097 
 228   0.0000       0.935341        25.4519 
 229   0.0000       0.941119        25.6092 
 230   0.0000       0.943816        25.6825 
 231   0.0000       0.985177        26.8080 
 232   0.0000       0.987646        26.8752 
 233   0.0000       0.995720        27.0949 
 234   0.0000       1.008440        27.4410 
 235   0.0000       1.023519        27.8514 
 236   0.0000       1.029124        28.0039 
 237   0.0000       1.033670        28.1276 
 238   0.0000       1.040596        28.3161 
 239   0.0000       1.048396        28.5283 
 240   0.0000       1.058730        28.8095 
 241   0.0000       1.062563        28.9138 
 242   0.0000       1.076795        29.3011 
 243   0.0000       1.086334        29.5607 
 244   0.0000       1.092717        29.7343 
 245   0.0000       1.099659        29.9232 
 246   0.0000       1.113115        30.2894 
 247   0.0000       1.117349        30.4046 
 248   0.0000       1.129758        30.7423 
 249   0.0000       1.145428        31.1687 
 250   0.0000       1.146658        31.2022 
 251   0.0000       1.158843        31.5337 
 252   0.0000       1.166451        31.7407 
 253   0.0000       1.172436        31.9036 
 254   0.0000       1.182443        32.1759 
 255   0.0000       1.190030        32.3824 
 256   0.0000       1.202942        32.7337 
 257   0.0000       1.208302        32.8796 
 258   0.0000       1.212480        32.9933 
 259   0.0000       1.222405        33.2633 
 260   0.0000       1.225037        33.3349 
 261   0.0000       1.245332        33.8872 
 262   0.0000       1.250744        34.0345 
 263   0.0000       1.257485        34.2179 
 264   0.0000       1.264791        34.4167 
 265   0.0000       1.271655        34.6035 
 266   0.0000       1.286212        34.9996 
 267   0.0000       1.305050        35.5122 
 268   0.0000       1.305990        35.5378 
 269   0.0000       1.317453        35.8497 
 270   0.0000       1.320049        35.9204 
 271   0.0000       1.334102        36.3028 
 272   0.0000       1.345414        36.6106 
 273   0.0000       1.368889        37.2494 
 274   0.0000       1.377152        37.4742 
 275   0.0000       1.393075        37.9075 
 276   0.0000       1.394464        37.9453 
 277   0.0000       1.409485        38.3540 
 278   0.0000       1.422527        38.7089 
 279   0.0000       1.437635        39.1200 
 280   0.0000       1.451490        39.4971 
 281   0.0000       1.456611        39.6364 
 282   0.0000       1.466920        39.9169 
 283   0.0000       1.486245        40.4428 
 284   0.0000       1.494598        40.6701 
 285   0.0000       1.507660        41.0255 
 286   0.0000       1.509754        41.0825 
 287   0.0000       1.524049        41.4715 
 288   0.0000       1.526229        41.5308 
 289   0.0000       1.529201        41.6117 
 290   0.0000       1.539545        41.8932 
 291   0.0000       1.543676        42.0056 
 292   0.0000       1.548734        42.1432 
 293   0.0000       1.559275        42.4300 
 294   0.0000       1.566758        42.6337 
 295   0.0000       1.575204        42.8635 
 296   0.0000       1.577076        42.9144 
 297   0.0000       1.587136        43.1882 
 298   0.0000       1.592382        43.3309 
 299   0.0000       1.598422        43.4953 
 300   0.0000       1.614058        43.9208 
 301   0.0000       1.616874        43.9974 
 302   0.0000       1.622803        44.1587 
 303   0.0000       1.630725        44.3743 
 304   0.0000       1.637168        44.5496 
 305   0.0000       1.641767        44.6748 
 306   0.0000       1.646062        44.7916 
 307   0.0000       1.655315        45.0434 
 308   0.0000       1.660214        45.1767 
 309   0.0000       1.669780        45.4370 
 310   0.0000       1.694880        46.1200 
 311   0.0000       1.696472        46.1634 
 312   0.0000       1.707354        46.4595 
 313   0.0000       1.712611        46.6025 
 314   0.0000       1.718968        46.7755 
 315   0.0000       1.721283        46.8385 
 316   0.0000       1.723496        46.8987 
 317   0.0000       1.736488        47.2522 
 318   0.0000       1.737748        47.2865 
 319   0.0000       1.743384        47.4399 
 320   0.0000       1.757788        47.8319 
 321   0.0000       1.763768        47.9946 
 322   0.0000       1.778045        48.3831 
 323   0.0000       1.793425        48.8016 
 324   0.0000       1.795539        48.8591 
 325   0.0000       1.803131        49.0657 
 326   0.0000       1.804686        49.1080 
 327   0.0000       1.811945        49.3055 
 328   0.0000       1.823521        49.6205 
 329   0.0000       1.835306        49.9412 
 330   0.0000       1.844857        50.2011 
 331   0.0000       1.856921        50.5294 
 332   0.0000       1.864514        50.7360 
 333   0.0000       1.873662        50.9849 
 334   0.0000       1.880872        51.1811 
 335   0.0000       1.889130        51.4058 
 336   0.0000       1.897457        51.6324 
 337   0.0000       1.908896        51.9437 
 338   0.0000       1.916017        52.1375 
 339   0.0000       1.932014        52.5728 
 340   0.0000       1.939082        52.7651 
 341   0.0000       1.946536        52.9680 
 342   0.0000       1.949357        53.0447 
 343   0.0000       1.956702        53.2446 
 344   0.0000       1.958118        53.2831 
 345   0.0000       1.966652        53.5153 
 346   0.0000       1.972012        53.6612 
 347   0.0000       1.983565        53.9755 
 348   0.0000       1.984485        54.0006 
 349   0.0000       1.994861        54.2829 
 350   0.0000       2.005787        54.5802 
 351   0.0000       2.009385        54.6781 
 352   0.0000       2.023133        55.0522 
 353   0.0000       2.038525        55.4711 
 354   0.0000       2.044783        55.6414 
 355   0.0000       2.053225        55.8711 
 356   0.0000       2.065179        56.1964 
 357   0.0000       2.084862        56.7320 
 358   0.0000       2.086264        56.7701 
 359   0.0000       2.089487        56.8578 
 360   0.0000       2.092997        56.9533 
 361   0.0000       2.103756        57.2461 
 362   0.0000       2.108580        57.3774 
 363   0.0000       2.124904        57.8216 
 364   0.0000       2.129566        57.9484 
 365   0.0000       2.142220        58.2928 
 366   0.0000       2.147869        58.4465 
 367   0.0000       2.165552        58.9277 
 368   0.0000       2.168885        59.0184 
 369   0.0000       2.184857        59.4530 
 370   0.0000       2.185489        59.4702 
 371   0.0000       2.197589        59.7994 
 372   0.0000       2.202069        59.9213 
 373   0.0000       2.215181        60.2782 
 374   0.0000       2.228594        60.6431 
 375   0.0000       2.232396        60.7466 
 376   0.0000       2.243255        61.0421 
 377   0.0000       2.254324        61.3433 
 378   0.0000       2.265302        61.6420 
 379   0.0000       2.273002        61.8515 
 380   0.0000       2.276431        61.9448 
 381   0.0000       2.278637        62.0049 
 382   0.0000       2.289933        62.3122 
 383   0.0000       2.298006        62.5319 
 384   0.0000       2.310558        62.8735 
 385   0.0000       2.316280        63.0292 
[...]
      pz      :     1.021616  p :     2.967835
      px      :     0.956868
      py      :     0.989350
      dz2     :     0.092671  d :     0.381430
      dxz     :     0.071634
      dyz     :     0.098444
      dx2y2   :     0.074651
      dxy     :     0.044029
      f0      :     0.006223  f :     0.043845
      f+1     :     0.006788
      f-1     :     0.008022
      f+2     :     0.007183
      f-2     :     0.006516
      f+3     :     0.004238
      f-3     :     0.004873
  6 H s       :     0.787655  s :     0.787655
      pz      :     0.018421  p :     0.059112
      px      :     0.020118
      py      :     0.020574
  7 H s       :     0.784520  s :     0.784520
      pz      :     0.029819  p :     0.060490
      px      :     0.017481
      py      :     0.013190
  8 H s       :     0.784939  s :     0.784939
      pz      :     0.019537  p :     0.063262
      px      :     0.020297
      py      :     0.023429
  9 Cls       :     5.559035  s :     5.559035
      pz      :     3.420634  p :    10.984951
      px      :     3.755243
      py      :     3.809074
      dz2     :     0.034208  d :     0.097275
      dxz     :     0.028133
      dyz     :     0.020460
      dx2y2   :     0.006443
      dxy     :     0.008030
      f0      :     0.002565  f :     0.010827
      f+1     :     0.002735
      f-1     :     0.002045
      f+2     :     0.001406
      f-2     :     0.001673
      f+3     :     0.000198
      f-3     :     0.000205
 10 H s       :     0.788109  s :     0.788109
      pz      :     0.014082  p :     0.060733
      px      :     0.013436
      py      :     0.033215
 11 C s       :     2.726135  s :     2.726135
      pz      :     0.981817  p :     2.894167
      px      :     0.968166
      py      :     0.944185
      dz2     :     0.129182  d :     0.547916
      dxz     :     0.079446
      dyz     :     0.182251
      dx2y2   :     0.076443
      dxy     :     0.080594
      f0      :     0.009219  f :     0.071632
      f+1     :     0.005412
      f-1     :     0.020425
      f+2     :     0.011271
      f-2     :     0.011287
      f+3     :     0.006861
      f-3     :     0.007158
 12 C s       :     2.819858  s :     2.819858
      pz      :     1.019156  p :     3.161075
      px      :     1.074247
      py      :     1.067673
      dz2     :     0.059923  d :     0.268193
      dxz     :     0.071175
      dyz     :     0.072147
      dx2y2   :     0.022641
      dxy     :     0.042306
      f0      :     0.005934  f :     0.026983
      f+1     :     0.007467
      f-1     :     0.004370
      f+2     :     0.003711
      f-2     :     0.002003
      f+3     :     0.000251
      f-3     :     0.003247
 13 H s       :     0.811185  s :     0.811185
      pz      :     0.012703  p :     0.061331
      px      :     0.027980
      py      :     0.020648
 14 H s       :     0.807665  s :     0.807665
      pz      :     0.017161  p :     0.061521
      px      :     0.013757
      py      :     0.030602
 15 H s       :     0.814287  s :     0.814287
      pz      :     0.014244  p :     0.060648
      px      :     0.027166
      py      :     0.019238
 16 N s       :     2.919235  s :     2.919235
      pz      :     1.084258  p :     3.349240
      px      :     1.131016
      py      :     1.133966
      dz2     :     0.176383  d :     0.693088
      dxz     :     0.105357
      dyz     :     0.212379
      dx2y2   :     0.079697
      dxy     :     0.119271
      f0      :     0.010472  f :     0.061572
      f+1     :     0.007044
      f-1     :     0.020206
      f+2     :     0.005994
      f-2     :     0.007302
      f+3     :     0.004660
      f-3     :     0.005895
 17 O s       :     3.533656  s :     3.533656
      pz      :     1.709679  p :     4.646017
      px      :     1.609394
      py      :     1.326945
      dz2     :     0.010808  d :     0.087573
      dxz     :     0.003396
      dyz     :     0.025694
      dx2y2   :     0.027151
      dxy     :     0.020523
      f0      :     0.001000  f :     0.009102
      f+1     :     0.000063
      f-1     :     0.001477
      f+2     :     0.002125
      f-2     :     0.000753
      f+3     :     0.001741
      f-3     :     0.001944
 18 O s       :     3.540517  s :     3.540517
      pz      :     1.243246  p :     4.646790
      px      :     1.624212
      py      :     1.779332
      dz2     :     0.043199  d :     0.083932
      dxz     :     0.020781
      dyz     :     0.014935
      dx2y2   :     0.002834
      dxy     :     0.002182
      f0      :     0.003897  f :     0.007966
      f+1     :     0.002084
      f-1     :     0.001655
      f+2     :     0.000114
      f-2     :     0.000098
      f+3     :     0.000032
      f-3     :     0.000085
 19 N s       :     2.947974  s :     2.947974
      pz      :     1.203885  p :     3.614776
      px      :     1.225410
      py      :     1.185480
      dz2     :     0.054350  d :     0.225622
      dxz     :     0.023688
      dyz     :     0.047047
      dx2y2   :     0.058582
      dxy     :     0.041955
      f0      :     0.001051  f :     0.014493
      f+1     :     0.001887
      f-1     :     0.002862
      f+2     :     0.002059
      f-2     :     0.002171
      f+3     :     0.002346
      f-3     :     0.002116
 20 C s       :     2.796686  s :     2.796686
      pz      :     1.004984  p :     2.972293
      px      :     1.023552
      py      :     0.943756
      dz2     :     0.061464  d :     0.421684
      dxz     :     0.103372
      dyz     :     0.075922
      dx2y2   :     0.104312
      dxy     :     0.076613
      f0      :     0.005025  f :     0.050244
      f+1     :     0.007111
      f-1     :     0.005600
      f+2     :     0.008685
      f-2     :     0.007184
      f+3     :     0.007500
      f-3     :     0.009139
 21 C s       :     2.802824  s :     2.802824
      pz      :     1.014581  p :     2.915174
      px      :     1.041670
      py      :     0.858923
      dz2     :     0.073265  d :     0.518092
      dxz     :     0.099735
      dyz     :     0.116578
      dx2y2   :     0.104091
      dxy     :     0.124421
      f0      :     0.006056  f :     0.069657
      f+1     :     0.004902
      f-1     :     0.011735
      f+2     :     0.012148
      f-2     :     0.009284
      f+3     :     0.014993
      f-3     :     0.010539
 22 O s       :     3.290874  s :     3.290874
      pz      :     1.564036  p :     4.464834
      px      :     1.639949
      py      :     1.260849
      dz2     :     0.015797  d :     0.103498
      dxz     :     0.009579
      dyz     :     0.034040
      dx2y2   :     0.023604
      dxy     :     0.020478
      f0      :     0.000490  f :     0.006365
      f+1     :     0.000212
      f-1     :     0.001635
      f+2     :     0.001160
      f-2     :     0.001160
      f+3     :     0.000842
      f-3     :     0.000866
 23 C s       :     2.802313  s :     2.802313
      pz      :     0.988034  p :     2.914102
      px      :     1.006840
      py      :     0.919228
      dz2     :     0.087698  d :     0.518176
      dxz     :     0.117880
      dyz     :     0.098950
      dx2y2   :     0.127729
      dxy     :     0.085919
      f0      :     0.006206  f :     0.069567
      f+1     :     0.008509
      f-1     :     0.010046
      f+2     :     0.012534
      f-2     :     0.010718
      f+3     :     0.009176
      f-3     :     0.012379
 24 C s       :     2.794466  s :     2.794466
      pz      :     1.026762  p :     2.972282
      px      :     1.059138
      py      :     0.886382
      dz2     :     0.054427  d :     0.423183
      dxz     :     0.091312
      dyz     :     0.086373
      dx2y2   :     0.101822
      dxy     :     0.089249
      f0      :     0.004663  f :     0.050383
      f+1     :     0.005243
      f-1     :     0.007192
      f+2     :     0.008473
      f-2     :     0.005686
      f+3     :     0.010002
      f-3     :     0.009123
 25 H s       :     0.783620  s :     0.783620
      pz      :     0.022530  p :     0.063005
      px      :     0.016990
      py      :     0.023484
 26 H s       :     0.791839  s :     0.791839
      pz      :     0.031138  p :     0.060966
      px      :     0.019515
      py      :     0.010313
 27 H s       :     0.800418  s :     0.800418
      pz      :     0.017498  p :     0.058549
      px      :     0.011862
      py      :     0.029189
 28 H s       :     0.810384  s :     0.810384
      pz      :     0.031321  p :     0.059151
      px      :     0.017140
      py      :     0.010690
 29 H s       :     0.800693  s :     0.800693
      pz      :     0.020794  p :     0.058557
      px      :     0.016828
      py      :     0.020935
 30 H s       :     0.809978  s :     0.809978
      pz      :     0.031537  p :     0.059147
      px      :     0.018480
      py      :     0.009129
 31 H s       :     0.792131  s :     0.792131
      pz      :     0.031324  p :     0.060813
      px      :     0.018013
      py      :     0.011477
 32 H s       :     0.662893  s :     0.662893
      pz      :     0.067101  p :     0.159937
      px      :     0.060431
      py      :     0.032405
 33 H s       :     0.655206  s :     0.655206
      pz      :     0.016731  p :     0.157851
      px      :     0.116162
      py      :     0.024959
 34 H s       :     0.789559  s :     0.789559
      pz      :     0.018409  p :     0.060992
      px      :     0.012340
      py      :     0.030243
 35 H s       :     0.658811  s :     0.658811
      pz      :     0.037299  p :     0.158835
      px      :     0.044834
      py      :     0.076701
 36 H s       :     0.679186  s :     0.679186
      pz      :     0.077208  p :     0.124233
      px      :     0.030018
      py      :     0.017007
 37 O s       :     3.446419  s :     3.446419
      pz      :     1.639224  p :     4.798877
      px      :     1.576885
      py      :     1.582768
      dz2     :     0.005263  d :     0.028703
      dxz     :     0.010449
      dyz     :     0.001332
      dx2y2   :     0.006506
      dxy     :     0.005153
      f0      :     0.000081  f :     0.002309
      f+1     :     0.000594
      f-1     :     0.000249
      f+2     :     0.000603
      f-2     :     0.000064
      f+3     :     0.000707
      f-3     :     0.000011


                      *****************************
                      * MAYER POPULATION ANALYSIS *
                      *****************************

  NA   - Mulliken gross atomic population
  ZA   - Total nuclear charge
  QA   - Mulliken gross atomic charge
  VA   - Mayer's total valence
  BVA  - Mayer's bonded valence
  FA   - Mayer's free valence

  ATOM       NA         ZA         QA         VA         BVA        FA
  0 C      6.1440     6.0000    -0.1440     3.8859     3.8859    -0.0000
  1 C      6.2070     6.0000    -0.2070     3.8731     3.8731     0.0000
  2 C      5.9193     6.0000     0.0807     3.7460     3.7460    -0.0000
  3 C      6.2330     6.0000    -0.2330     3.8338     3.8338     0.0000
  4 C      5.7834     6.0000     0.2166     3.6464     3.6464    -0.0000
  5 C      6.2201     6.0000    -0.2201     3.9213     3.9213    -0.0000
  6 H      0.8559     1.0000     0.1441     0.9660     0.9660     0.0000
  7 H      0.8422     1.0000     0.1578     0.9634     0.9634     0.0000
  8 H      0.8717     1.0000     0.1283     1.0303     1.0303     0.0000
  9 Cl    17.1530    17.0000    -0.1530     1.1634     1.1634    -0.0000
 10 H      0.8549     1.0000     0.1451     0.9778     0.9778    -0.0000
 11 C      6.0159     6.0000    -0.0159     3.7594     3.7594    -0.0000
 12 C      6.3871     6.0000    -0.3871     3.9039     3.9039     0.0000
 13 H      0.8766     1.0000     0.1234     0.9805     0.9805     0.0000
 14 H      0.8715     1.0000     0.1285     0.9678     0.9678    -0.0000
 15 H      0.8807     1.0000     0.1193     0.9734     0.9734    -0.0000
 16 N      6.5798     7.0000     0.4202     3.9657     3.9657    -0.0000
 17 O      8.5784     8.0000    -0.5784     1.6267     1.6267    -0.0000
 18 O      8.6123     8.0000    -0.6123     1.5483     1.5483     0.0000
 19 N      7.1458     7.0000    -0.1458     3.4300     3.4300    -0.0000
 20 C      6.1331     6.0000    -0.1331     3.8198     3.8198    -0.0000
 21 C      6.0634     6.0000    -0.0634     3.9628     3.9628    -0.0000
 22 O      8.3582     8.0000    -0.3582     1.9521     1.9521    -0.0000
 23 C      6.0522     6.0000    -0.0522     3.9646     3.9646    -0.0000
 24 C      6.1413     6.0000    -0.1413     3.8032     3.8032     0.0000
 25 H      0.8350     1.0000     0.1650     0.9559     0.9559    -0.0000
 26 H      0.8585     1.0000     0.1415     0.9790     0.9790     0.0000
 27 H      0.8590     1.0000     0.1410     0.9587     0.9587    -0.0000
 28 H      0.8788     1.0000     0.1212     0.9762     0.9762    -0.0000
 29 H      0.8579     1.0000     0.1421     0.9584     0.9584    -0.0000
 30 H      0.8783     1.0000     0.1217     0.9745     0.9745    -0.0000
 31 H      0.8558     1.0000     0.1442     0.9773     0.9773    -0.0000
 32 H      0.6314     1.0000     0.3686     0.8836     0.8836    -0.0000
 33 H      0.6975     1.0000     0.3025     0.9515     0.9515    -0.0000
 34 H      0.8465     1.0000     0.1535     0.9747     0.9747    -0.0000
 35 H      0.6282     1.0000     0.3718     0.8769     0.8769    -0.0000
 36 H      0.6984     1.0000     0.3016     0.9312     0.9312    -0.0000
 37 O      8.6938     8.0000    -0.6938     1.8317     1.8317    -0.0000

  Mayer bond orders larger than 0.100000
B(  0-C ,  1-C ) :   1.4331 B(  0-C ,  5-C ) :   1.3687 B(  0-C ,  6-H ) :   0.9768 
B(  1-C ,  2-C ) :   1.3179 B(  1-C ,  7-H ) :   0.9602 B(  2-C ,  3-C ) :   1.2956 
B(  2-C , 11-C ) :   1.0902 B(  3-C ,  4-C ) :   1.3734 B(  3-C ,  8-H ) :   0.9736 
B(  4-C ,  5-C ) :   1.3246 B(  4-C ,  9-Cl) :   0.8980 B(  5-C , 10-H ) :   0.9810 
B( 11-C , 12-C ) :   0.9817 B( 11-C , 16-N ) :   1.5012 B( 11-C , 17-O ) :   0.1201 
B( 11-C , 18-O ) :   0.1072 B( 12-C , 13-H ) :   0.9616 B( 12-C , 14-H ) :   0.9784 
B( 12-C , 15-H ) :   0.9605 B( 16-N , 17-O ) :   1.2996 B( 16-N , 18-O ) :   1.1377 
B( 18-O , 33-H ) :   0.2024 B( 19-N , 20-C ) :   0.9092 B( 19-N , 24-C ) :   0.9164 
B( 19-N , 33-H ) :   0.7603 B( 19-N , 36-H ) :   0.8426 B( 20-C , 21-C ) :   0.9893 
B( 20-C , 31-H ) :   0.9522 B( 20-C , 34-H ) :   0.9505 B( 21-C , 22-O ) :   0.9834 
B( 21-C , 29-H ) :   0.9581 B( 21-C , 30-H ) :   0.9708 B( 22-O , 23-C ) :   0.9808 
B( 23-C , 24-C ) :   0.9866 B( 23-C , 27-H ) :   0.9592 B( 23-C , 28-H ) :   0.9742 
B( 24-C , 25-H ) :   0.9474 B( 24-C , 26-H ) :   0.9511 B( 32-H , 37-O ) :   0.8686 
B( 35-H , 37-O ) :   0.8661 

-------
TIMINGS
-------

Total SCF time: 0 days 0 hours 0 min 44 sec 

Total time                  ....      44.129 sec
Sum of individual times     ....      38.995 sec  ( 88.4%)

Fock matrix formation       ....      26.841 sec  ( 60.8%)
  Split-RI-J                ....       4.187 sec  ( 15.6% of F)
  Chain of spheres X        ....      13.864 sec  ( 51.7% of F)
  XC integration            ....       2.856 sec  ( 10.6% of F)
    Basis function eval.    ....       0.363 sec  ( 12.7% of XC)
    Density eval.           ....       1.069 sec  ( 37.4% of XC)
    XC-Functional eval.     ....       0.014 sec  (  0.5% of XC)
    XC-Potential eval.      ....       0.343 sec  ( 12.0% of XC)
Diagonalization             ....       0.813 sec  (  1.8%)
Density matrix formation    ....       0.292 sec  (  0.7%)
Population analysis         ....       0.937 sec  (  2.1%)
Initial guess               ....       1.105 sec  (  2.5%)
Orbital Transformation      ....       0.000 sec  (  0.0%)
Orbital Orthonormalization  ....       0.967 sec  (  2.2%)
DIIS solution               ....       0.365 sec  (  0.8%)
SOSCF solution              ....       4.429 sec  ( 10.0%)
Grid generation             ....       4.214 sec  (  9.5%)

Maximum memory used throughout the entire SCF-calculation: 146.3 MB


-------------------------------------------------------------------------------
                          DFT DISPERSION CORRECTION                            
                                                                               
                              DFTD3 V3.1  Rev 1                                
                          USING Becke-Johnson damping                          
-------------------------------------------------------------------------------
The B3LYP functional is recognized
Active option DFTDOPT                   ...         4   

molecular C6(AA) [au] = 14485.185886 


            DFT-D V3
 parameters
 s6 scaling factor         :     1.0000 
 a1 scaling factor         :     0.3981 
 s8 scaling factor         :     1.9889 
 a2 scaling factor         :     4.4211 
 ad hoc parameters k1-k3   :    16.0000     1.3333    -4.0000 

 Edisp/kcal,au: -49.573991047218  -0.079001174975 
 E6   /kcal   : -24.214006571 
 E8   /kcal   : -25.359984476 
 % E8         :  51.155825748 

-------------------------   ----------------
Dispersion correction           -0.079001175
-------------------------   ----------------


-------------------------   --------------------
FINAL SINGLE POINT ENERGY     -1339.126170873382
-------------------------   --------------------

                                *** OPTIMIZATION RUN DONE ***

                            ***************************************
                            *     ORCA property calculations      *
                            ***************************************

                                    ---------------------
                                    Active property flags
                                    ---------------------
   (+) Dipole Moment


------------------------------------------------------------------------------
                       ORCA ELECTRIC PROPERTIES CALCULATION
------------------------------------------------------------------------------

Dipole Moment Calculation                       ... on
Quadrupole Moment Calculation                   ... off
Polarizability Calculation                      ... off
GBWName                                         ... /home/rudenko/mop_saddle_orca_4_serv/for_orca/mcl-morpholine/orca/orca_end/end.gbw
Electron density                                ... /home/rudenko/mop_saddle_orca_4_serv/for_orca/mcl-morpholine/orca/orca_end/end.scfp
The origin for moment calculation is the CENTER OF MASS  = ( 6.748481, -0.421480 -4.357899)

-------------
DIPOLE MOMENT
-------------
                                X             Y             Z
Electronic contribution:    -16.51414      11.66194      -9.09311
Nuclear contribution   :     21.00663     -10.25093       9.96386
                        -----------------------------------------
Total Dipole Moment    :      4.49248       1.41101       0.87075
                        -----------------------------------------
Magnitude (a.u.)       :      4.78869
Magnitude (Debye)      :     12.17188



--------------------
Rotational spectrum 
--------------------
 
Rotational constants in cm-1:     0.011142     0.009015     0.006675 
Rotational constants in MHz :   334.026086   270.264392   200.098897 

 Dipole components along the rotational axes: 
x,y,z [a.u.] :     2.511310     1.798302     3.659370 
x,y,z [Debye]:     6.383243     4.570920     9.301379 

 

Timings for individual modules:

Sum of individual times         ...     5250.058 sec (=  87.501 min)
GTO integral calculation        ...      350.463 sec (=   5.841 min)   6.7 %
SCF iterations                  ...     3833.036 sec (=  63.884 min)  73.0 %
SCF Gradient evaluation         ...     1061.539 sec (=  17.692 min)  20.2 %
Geometry relaxation             ...        5.020 sec (=   0.084 min)   0.1 %
                             ****ORCA TERMINATED NORMALLY****
TOTAL RUN TIME: 0 days 1 hours 31 minutes 12 seconds 950 msec
