 *******************************************************************************
 **                                                                           **
 **                              MOPAC v22.0.6                                **
 **                                                                           **
 *******************************************************************************
 **          Digital Object Identifier (DOI): 10.5281/zenodo.6511958          **
 **    Visit the DOI location for information on how to cite this program.    **
 *******************************************************************************

                              PM7 CALCULATION RESULTS

 *******************************************************************************
 *  CALCULATION DONE:                                Thu Mar 14 14:25:18 2024  *
 *  PM7        - The PM7 Hamiltonian to be used
 *  SINGLET    - SPIN STATE DEFINED AS A SINGLET
 *  UHF        - UNRESTRICTED HARTREE-FOCK CALCULATION
 *
 *
 *
 *                 CHARGE ON SYSTEM = 0
 *
 *
 *
 *  EPS=78.0   - USE ANDREAS KLAMT'S COSMO IMPLICIT SOLVATION MODEL
 *  T=         - A TIME OF 14.0 DAYS REQUESTED
 *  DUMP=N     - RESTART FILE WRITTEN EVERY 30.0 MINUTES REQUESTED
 *  RELSCF     - DEFAULT SCF CRITERION MULTIPLIED BY 1.0000
 *              (DEFAULT SCF CRITERION = 0.00010)
 *  ITRY=      - DO A MAXIMUM OF 15000 ITERATIONS FOR SCF
 *  AUX        - OUTPUT AUXILIARY INFORMATION
 *  BONDS      - FINAL BOND-ORDER MATRIX TO BE PRINTED
 *******************************************************************************
PM7 BONDS AUX UHF DUMP=30M ITRY=15000 T=14D CHARGE=0 SINGLET eps=78.0 RELSCF=1
 Title: ASE calculation

   ATOM   CHEMICAL          X               Y               Z
  NUMBER   SYMBOL      (ANGSTROMS)     (ANGSTROMS)     (ANGSTROMS)

     1       C          0.96422352  *  -0.65836948  *   1.30673179  *
     2       H          1.10791261  *  -1.10640453  *   2.30124425  *
     3       N          0.59512325  *  -2.89180460  *   0.37476763  *
     4       O          0.65890957  *  -3.40206286  *   1.49073217  *
     5       O          0.45226988  *  -3.58336066  *  -0.63408667  *
     6       H          0.95051919  *   1.21111043  *   0.20726156  *
     7       C          0.68383700     -1.48075400      0.22079100   
     8       H          0.53236680  *  -1.11014973  *  -0.79795726  *
     9       H          3.55587400     -1.09404889  *  -1.21144517  *
    10       C          1.07408762  *   0.70545034  *   1.15426292  *
    11       H          1.29356588  *   1.36467093  *   1.98200468  *
    12       C          5.60045761  *  -2.79686914  *   0.73340280  *
    13       C          6.96581937  *  -2.75816556  *   0.42758702  *
    14       C          7.54814771  *  -1.52621323  *   0.13498043  *
    15       C          6.75562386  *  -0.37978818  *   0.14707826  *
    16       C          5.39685084  *  -0.50547241  *   0.46055491  *
    17       N          4.82937400     -1.69153800      0.75618700   
    18       H          5.09339383  *  -3.74039595  *   0.97537480  *
    19       H          7.55575259  *  -3.67249133  *   0.42438208  *
    20       H          7.18196165  *   0.59590469  *  -0.08051006  *
    21       H          4.73013753  *   0.36520942  *   0.48409346  *
    22       H          8.61255538  *  -1.45912443  *  -0.10260052  *



          CARTESIAN COORDINATES 

    NO.       ATOM           X           Y           Z

     1         C          0.9642     -0.6584      1.3067
     2         H          1.1079     -1.1064      2.3012
     3         N          0.5951     -2.8918      0.3748
     4         O          0.6589     -3.4021      1.4907
     5         O          0.4523     -3.5834     -0.6341
     6         H          0.9505      1.2111      0.2073
     7         C          0.6838     -1.4808      0.2208
     8         H          0.5324     -1.1101     -0.7980
     9         H          3.5559     -1.0940     -1.2114
    10         C          1.0741      0.7055      1.1543
    11         H          1.2936      1.3647      1.9820
    12         C          5.6005     -2.7969      0.7334
    13         C          6.9658     -2.7582      0.4276
    14         C          7.5481     -1.5262      0.1350
    15         C          6.7556     -0.3798      0.1471
    16         C          5.3969     -0.5055      0.4606
    17         N          4.8294     -1.6915      0.7562
    18         H          5.0934     -3.7404      0.9754
    19         H          7.5558     -3.6725      0.4244
    20         H          7.1820      0.5959     -0.0805
    21         H          4.7301      0.3652      0.4841
    22         H          8.6126     -1.4591     -0.1026

 General Reference for PM7:
 "Optimization of Parameters for Semiempirical Methods VI: More Modifications to the 
 NDDO Approximations and Re-optimization of Parameters", J. J. P. Stewart, J. Mol. Mod., 1:32, 19 (2013)
 https://link.springer.com/article/10.1007/s00894-012-1667-x

           Empirical Formula: C8 H10 N2 O2  =    22 atoms



      MOLECULAR POINT GROUP   :   C1  


 SINGLET STATE CALCULATION


          UHF CALCULATION, NO. OF ALPHA ELECTRONS =   32
                           NO. OF BETA  ELECTRONS =   32

          Geometry optimization using EF
  SCF CRITERION =    0.1000E-03

          DIAGONAL MATRIX USED AS START HESSIAN

 CYCLE:     1 TIME:   0.160 TIME LEFT:  2.00W  GRAD.:     3.496 HEAT:  94.03520
 CYCLE:     2 TIME:   0.105 TIME LEFT:  2.00W  GRAD.:     1.831 HEAT:  94.03930
 CYCLE:     3 TIME:   0.141 TIME LEFT:  2.00W  GRAD.:     1.575 HEAT:  94.03894

     TRUST RADIUS NOW LESS THAN  0.00010 OPTIMIZATION TERMINATING
      THE GEOMETRY MAY NOT BE COMPLETELY OPTIMIZED
      (TO CONTINUE, ADD 'LET DDMIN=0.0' TO THE KEYWORD LINE)

 -------------------------------------------------------------------------------
 PM7 BONDS AUX UHF DUMP=30M ITRY=15000 T=14D CHARGE=0 SINGLET eps=78.0 RELSCF=1
 Title: ASE calculation



     GEOMETRY OPTIMISED USING EIGENVECTOR FOLLOWING (EF).     
     SCF FIELD WAS ACHIEVED                                   


                              PM7 CALCULATION
                                                       MOPAC v22.0.6 Linux
                                                       Thu Mar 14 14:25:18 2024




          FINAL HEAT OF FORMATION =         94.03515 KCAL/MOL =     393.44308 KJ/MOL
          VAN DER WAALS AREA      =        222.90 SQUARE ANGSTROMS



          DIELECTRIC ENERGY       =         -0.61281 EV
          COSMO AREA              =        222.90 SQUARE ANGSTROMS
          COSMO VOLUME            =        229.45 CUBIC ANGSTROMS

          GRADIENT NORM           =          3.49622          =       0.74540 PER ATOM
          IONIZATION POTENTIAL    =          9.869227 EV
          ALPHA SOMO LUMO (EV)    =         -9.869 -0.642
          BETA  SOMO LUMO (EV)    =        -10.146 -2.150
          NO. OF ALPHA ELECTRONS  =         32
          NO. OF BETA  ELECTRONS  =         32
          MOLECULAR WEIGHT        =        166.1792         POINT GROUP:  C1  

          MOLECULAR DIMENSIONS (Angstroms)

            Atom       Atom       Distance
            H    22    O     5     8.44897
            H    11    H    19     6.71388
            H     9    H     2     3.34536


          SCF CALCULATIONS        =         19

          WALL-CLOCK TIME         =      0.605 SECONDS
          COMPUTATION TIME        =     14.522 SECONDS



       FINAL  POINT  AND  DERIVATIVES

   PARAMETER     ATOM    TYPE            VALUE        GRADIENT
      1          1  C    CARTESIAN X     0.964224      0.137909  KCAL/ANGSTROM
      2          1  C    CARTESIAN Y    -0.658369     -0.157536  KCAL/ANGSTROM
      3          1  C    CARTESIAN Z     1.306732      1.092576  KCAL/ANGSTROM
      4          2  H    CARTESIAN X     1.107913     -0.088812  KCAL/ANGSTROM
      5          2  H    CARTESIAN Y    -1.106405     -0.023691  KCAL/ANGSTROM
      6          2  H    CARTESIAN Z     2.301244     -0.188705  KCAL/ANGSTROM
      7          3  N    CARTESIAN X     0.595123      0.106564  KCAL/ANGSTROM
      8          3  N    CARTESIAN Y    -2.891805      0.521606  KCAL/ANGSTROM
      9          3  N    CARTESIAN Z     0.374768      0.064920  KCAL/ANGSTROM
     10          4  O    CARTESIAN X     0.658910      0.147207  KCAL/ANGSTROM
     11          4  O    CARTESIAN Y    -3.402063     -0.489477  KCAL/ANGSTROM
     12          4  O    CARTESIAN Z     1.490732      1.915840  KCAL/ANGSTROM
     13          5  O    CARTESIAN X     0.452270     -0.061414  KCAL/ANGSTROM
     14          5  O    CARTESIAN Y    -3.583361     -0.699571  KCAL/ANGSTROM
     15          5  O    CARTESIAN Z    -0.634087     -1.790625  KCAL/ANGSTROM
     16          6  H    CARTESIAN X     0.950519     -0.079373  KCAL/ANGSTROM
     17          6  H    CARTESIAN Y     1.211110      0.063893  KCAL/ANGSTROM
     18          6  H    CARTESIAN Z     0.207262     -0.001844  KCAL/ANGSTROM
     19          8  H    CARTESIAN X     0.532367      0.007963  KCAL/ANGSTROM
     20          8  H    CARTESIAN Y    -1.110150     -0.066980  KCAL/ANGSTROM
     21          8  H    CARTESIAN Z    -0.797957      0.165768  KCAL/ANGSTROM
     22          9  H    CARTESIAN Y    -1.094049     -0.281117  KCAL/ANGSTROM
     23          9  H    CARTESIAN Z    -1.211445      0.610233  KCAL/ANGSTROM
     24         10  C    CARTESIAN X     1.074088      0.011210  KCAL/ANGSTROM
     25         10  C    CARTESIAN Y     0.705450      0.612333  KCAL/ANGSTROM
     26         10  C    CARTESIAN Z     1.154263     -0.378227  KCAL/ANGSTROM
     27         11  H    CARTESIAN X     1.293566     -0.096909  KCAL/ANGSTROM
     28         11  H    CARTESIAN Y     1.364671      0.107669  KCAL/ANGSTROM
     29         11  H    CARTESIAN Z     1.982005      0.083299  KCAL/ANGSTROM
     30         12  C    CARTESIAN X     5.600458      0.383280  KCAL/ANGSTROM
     31         12  C    CARTESIAN Y    -2.796869     -0.128038  KCAL/ANGSTROM
     32         12  C    CARTESIAN Z     0.733403     -0.377037  KCAL/ANGSTROM
     33         13  C    CARTESIAN X     6.965819      0.048366  KCAL/ANGSTROM
     34         13  C    CARTESIAN Y    -2.758166     -0.622323  KCAL/ANGSTROM
     35         13  C    CARTESIAN Z     0.427587     -0.037205  KCAL/ANGSTROM
     36         14  C    CARTESIAN X     7.548148      0.212264  KCAL/ANGSTROM
     37         14  C    CARTESIAN Y    -1.526213      0.073353  KCAL/ANGSTROM
     38         14  C    CARTESIAN Z     0.134980      0.374173  KCAL/ANGSTROM
     39         15  C    CARTESIAN X     6.755624     -0.518745  KCAL/ANGSTROM
     40         15  C    CARTESIAN Y    -0.379788     -0.176808  KCAL/ANGSTROM
     41         15  C    CARTESIAN Z     0.147078      0.353172  KCAL/ANGSTROM
     42         16  C    CARTESIAN X     5.396851     -0.150614  KCAL/ANGSTROM
     43         16  C    CARTESIAN Y    -0.505472     -0.125772  KCAL/ANGSTROM
     44         16  C    CARTESIAN Z     0.460555      0.042886  KCAL/ANGSTROM
     45         18  H    CARTESIAN X     5.093394      0.104672  KCAL/ANGSTROM
     46         18  H    CARTESIAN Y    -3.740396      0.068431  KCAL/ANGSTROM
     47         18  H    CARTESIAN Z     0.975375      0.070436  KCAL/ANGSTROM
     48         19  H    CARTESIAN X     7.555753     -0.322129  KCAL/ANGSTROM
     49         19  H    CARTESIAN Y    -3.672491      0.233372  KCAL/ANGSTROM
     50         19  H    CARTESIAN Z     0.424382      0.169859  KCAL/ANGSTROM
     51         20  H    CARTESIAN X     7.181962      0.368042  KCAL/ANGSTROM
     52         20  H    CARTESIAN Y     0.595905      0.125725  KCAL/ANGSTROM
     53         20  H    CARTESIAN Z    -0.080510     -0.037930  KCAL/ANGSTROM
     54         21  H    CARTESIAN X     4.730138      0.323854  KCAL/ANGSTROM
     55         21  H    CARTESIAN Y     0.365209     -0.325936  KCAL/ANGSTROM
     56         21  H    CARTESIAN Z     0.484093     -0.017066  KCAL/ANGSTROM
     57         22  H    CARTESIAN X     8.612555      0.229348  KCAL/ANGSTROM
     58         22  H    CARTESIAN Y    -1.459124      0.032509  KCAL/ANGSTROM
     59         22  H    CARTESIAN Z    -0.102601     -0.073798  KCAL/ANGSTROM




   ATOM   CHEMICAL          X               Y               Z
  NUMBER   SYMBOL      (ANGSTROMS)     (ANGSTROMS)     (ANGSTROMS)

     1       C          0.96422352  *  -0.65836948  *   1.30673179  *
     2       H          1.10791261  *  -1.10640453  *   2.30124425  *
     3       N          0.59512325  *  -2.89180460  *   0.37476763  *
     4       O          0.65890957  *  -3.40206286  *   1.49073217  *
     5       O          0.45226988  *  -3.58336066  *  -0.63408667  *
     6       H          0.95051919  *   1.21111043  *   0.20726156  *
     7       C          0.68383700     -1.48075400      0.22079100   
     8       H          0.53236680  *  -1.11014973  *  -0.79795726  *
     9       H          3.55587400     -1.09404889  *  -1.21144517  *
    10       C          1.07408762  *   0.70545034  *   1.15426292  *
    11       H          1.29356588  *   1.36467093  *   1.98200468  *
    12       C          5.60045761  *  -2.79686914  *   0.73340280  *
    13       C          6.96581937  *  -2.75816556  *   0.42758702  *
    14       C          7.54814771  *  -1.52621323  *   0.13498043  *
    15       C          6.75562386  *  -0.37978818  *   0.14707826  *
    16       C          5.39685084  *  -0.50547241  *   0.46055491  *
    17       N          4.82937400     -1.69153800      0.75618700   
    18       H          5.09339383  *  -3.74039595  *   0.97537480  *
    19       H          7.55575259  *  -3.67249133  *   0.42438208  *
    20       H          7.18196165  *   0.59590469  *  -0.08051006  *
    21       H          4.73013753  *   0.36520942  *   0.48409346  *
    22       H          8.61255538  *  -1.45912443  *  -0.10260052  *

                             CARTESIAN COORDINATES

   1    C        0.964223520    -0.658369480     1.306731790
   2    H        1.107912610    -1.106404530     2.301244250
   3    N        0.595123250    -2.891804600     0.374767630
   4    O        0.658909570    -3.402062860     1.490732170
   5    O        0.452269880    -3.583360660    -0.634086670
   6    H        0.950519190     1.211110430     0.207261560
   7    C        0.683837000    -1.480754000     0.220791000
   8    H        0.532366800    -1.110149730    -0.797957260
   9    H        3.555874000    -1.094048890    -1.211445170
  10    C        1.074087620     0.705450340     1.154262920
  11    H        1.293565880     1.364670930     1.982004680
  12    C        5.600457610    -2.796869140     0.733402800
  13    C        6.965819370    -2.758165560     0.427587020
  14    C        7.548147710    -1.526213230     0.134980430
  15    C        6.755623860    -0.379788180     0.147078260
  16    C        5.396850840    -0.505472410     0.460554910
  17    N        4.829374000    -1.691538000     0.756187000
  18    H        5.093393830    -3.740395950     0.975374800
  19    H        7.555752590    -3.672491330     0.424382080
  20    H        7.181961650     0.595904690    -0.080510060
  21    H        4.730137530     0.365209420     0.484093460
  22    H        8.612555380    -1.459124430    -0.102600520


           Empirical Formula: C8 H10 N2 O2  =    22 atoms



      MOLECULAR POINT GROUP   :   C1  


          ALPHA EIGENVALUES  
 -37.46374 -35.96303 -30.71768 -29.08322 -28.49327 -26.69828 -26.39687 -22.78506
 -22.22771 -21.99353 -20.33469 -18.84820 -18.16536 -18.11146 -17.60124 -16.48094
 -16.00037 -15.42712 -14.90697 -14.59315 -14.57157 -13.85378 -13.03540 -12.71891
 -12.59499 -12.15309 -11.89287 -11.78750 -10.97397 -10.53614 -10.23365  -9.86923
  -0.64201  -0.24771  -0.19687   0.53249   0.67655   2.23546   3.23007   3.56932
   3.58035   3.93264   4.13598   4.24225   4.35237   4.52689   4.77961   5.01419
   5.10323   5.23533   5.41962   5.57937   5.78087   5.79352   5.85230   5.86666
   5.97325   6.20353


           BETA EIGENVALUES 
 -37.44908 -35.96940 -30.51940 -28.94431 -28.49478 -26.47816 -26.39957 -22.57407
 -22.22907 -21.99867 -20.23142 -18.74591 -18.11871 -18.09594 -17.38906 -16.48321
 -16.00537 -15.30639 -14.78593 -14.63627 -14.58693 -13.86279 -12.96118 -12.59901
 -11.86112 -11.81303 -11.75741 -11.69774 -11.20465 -10.61708 -10.47148 -10.14590
  -2.14976  -0.23822  -0.19601   0.07555   0.63739   1.40456   2.23312   3.48098
   3.64761   4.00898   4.13540   4.23945   4.46169   4.52468   4.82430   5.07169
   5.10203   5.23395   5.48149   5.57816   5.78003   5.85167   5.87252   5.97174
   5.99314   6.20236


              NET ATOMIC CHARGES AND DIPOLE CONTRIBUTIONS

  ATOM NO.   TYPE          CHARGE      No. of ELECS.   s-Pop       p-Pop       
    1          C          -0.116785        4.1168     1.08581     3.03097
    2          H           0.192541        0.8075     0.80746
    3          N           0.661610        4.3384     1.44579     2.89260
    4          O          -0.470003        6.4700     1.94185     4.52816
    5          O          -0.483417        6.4834     1.94254     4.54088
    6          H           0.165006        0.8350     0.83499
    7          C          -0.137755        4.1378     1.12112     3.01663
    8          H           0.216088        0.7839     0.78391
    9          H          -0.004122        1.0041     1.00412
   10          C          -0.191896        4.1919     1.12437     3.06753
   11          H           0.164624        0.8354     0.83538
   12          C           0.045661        3.9543     1.10077     2.85357
   13          C          -0.242065        4.2421     1.09127     3.15079
   14          C          -0.075817        4.0758     1.09362     2.98219
   15          C          -0.248796        4.2488     1.09168     3.15712
   16          C           0.050313        3.9497     1.10003     2.84966
   17          N          -0.419997        5.4200     1.74314     3.67686
   18          H           0.183949        0.8161     0.81605
   19          H           0.181078        0.8189     0.81892
   20          H           0.178463        0.8215     0.82154
   21          H           0.178620        0.8214     0.82138
   22          H           0.172702        0.8273     0.82730
 DIPOLE           X         Y         Z       TOTAL
 POINT-CHG.     2.953     7.403    -0.073     7.971
 HYBRID         0.623    -0.471    -0.161     0.797
 SUM            3.576     6.932    -0.234     7.803


          ATOMIC ORBITAL ELECTRON POPULATIONS

     Atom    s        px        py        pz   
    1  C   1.08581   0.95961   1.00353   1.06784
    2  H   0.80746
    3  N   1.44579   0.92225   1.02041   0.94994
    4  O   1.94185   1.58009   1.79218   1.15589
    5  O   1.94254   1.58031   1.66987   1.29070
    6  H   0.83499
    7  C   1.12112   1.07478   0.83750   1.10434
    8  H   0.78391
    9  H   1.00412
   10  C   1.12437   0.89121   1.02082   1.15549
   11  H   0.83538
   12  C   1.10077   0.94863   0.98892   0.91603
   13  C   1.09127   1.03282   1.07251   1.04546
   14  C   1.09362   1.08241   0.97683   0.92295
   15  C   1.09168   1.01857   1.08581   1.05274
   16  C   1.10003   0.97944   0.96677   0.90345
   17  N   1.74314   1.41644   1.07321   1.18721
   18  H   0.81605
   19  H   0.81892
   20  H   0.82154
   21  H   0.82138
   22  H   0.82730


                    (SZ)    =    0.000000
                    (S**2)  =    1.092678


          ATOMIC ORBITAL SPIN POPULATIONS

    Atom   Total    s     px     py     pz   
         Atomic
    1  C -0.3223 -0.013 -0.257 -0.026 -0.026
    2  H  0.0094  0.009
    3  N -0.0453 -0.006 -0.025 -0.011 -0.004
    4  O  0.0631  0.001  0.062 -0.002  0.002
    5  O  0.0589  0.001  0.058 -0.003  0.003
    6  H -0.0190 -0.019
    7  C  0.6329  0.018  0.550  0.025  0.040
    8  H -0.0175 -0.018
    9  H -0.9931 -0.993
   10  C  0.6585  0.017  0.573  0.029  0.040
   11  H -0.0192 -0.019
   12  C -0.0010 -0.000  0.000 -0.001 -0.001
   13  C -0.0021 -0.000 -0.000 -0.000 -0.002
   14  C  0.0001  0.000  0.000  0.000  0.000
   15  C -0.0025 -0.000 -0.000 -0.000 -0.002
   16  C  0.0003 -0.000 -0.000 -0.000  0.001
   17  N -0.0015 -0.001  0.001 -0.000 -0.001
   18  H  0.0000  0.000
   19  H  0.0000  0.000
   20  H  0.0001  0.000
   21  H  0.0001  0.000
   22  H -0.0000 -0.000

          BONDING CONTRIBUTION OF EACH ALPHA M.O.

  0.6757  0.6842  0.4846  0.8443  0.9011  0.6441  0.9463  0.6286  0.9106  0.9801
  0.8040  0.7724  0.6924  0.9197  0.6957  1.0228  0.9525  0.9642  0.9298  1.0016
  0.9829  0.8800  0.9908  0.6982  1.0103  0.3568  0.1320  0.2970  0.9747  0.6060
  1.0201  0.4634 -1.1300 -0.9709 -0.9968 -1.0615 -1.0773 -0.9945 -0.2940 -0.8895
 -0.7934 -0.9803 -0.9734 -1.0114 -0.9873 -1.0085 -0.9765 -0.9635 -0.9922 -0.9532
 -0.9664 -0.9842 -0.9812 -0.9702 -0.9766 -0.9787 -0.9752 -0.9805

          BONDING CONTRIBUTION OF EACH BETA  M.O.

  0.6737  0.6823  0.4994  0.8564  0.9009  0.6381  0.9419  0.6330  0.9102  0.9791
  0.8033  0.7720  0.9179  0.6762  0.7983  1.0223  0.9510  0.9734  0.9333  0.9636
  0.9981  0.8767  0.9955  1.0126  0.7062  0.4386  0.4922  0.3001  0.6692  0.5676
  0.5681  0.8339 -0.7732 -0.9751 -0.9994 -0.8037 -1.0479 -0.7433 -0.9964 -0.9725
 -0.9797 -0.9744 -0.9734 -1.0131 -0.9953 -1.0100 -0.9732 -0.9699 -0.9930 -0.9538
 -0.9707 -0.9847 -0.9820 -0.9768 -0.9851 -0.9756 -0.9822 -0.9806





            (VALENCIES)   BOND ORDERS

     1  C     (3.959)    10  C 1.525     7  C 1.389     2  H 0.964     5  O 0.020     4  O 0.012

     2  H     (0.963)     1  C 0.964

     3  N     (3.786)     4  O 1.424     5  O 1.412     7  C 0.980

     4  O     (1.806)     3  N 1.424     5  O 0.284     7  C 0.067     1  C 0.012

     5  O     (1.789)     3  N 1.412     4  O 0.284     7  C 0.064     1  C 0.020

     6  H     (0.973)    10  C 0.981

     7  C     (3.905)     1  C 1.389     3  N 0.980     8  H 0.953     4  O 0.067     5  O 0.064

     8  H     (0.953)     7  C 0.953

    10  C     (3.931)     1  C 1.525    11  H 0.982     6  H 0.981

    11  H     (0.973)    10  C 0.982

    12  C     (3.933)    13  C 1.445    17  N 1.437    18  H 0.962    15  C 0.124    21  H 0.012    16  C 0.011

    13  C     (3.965)    14  C 1.470    12  C 1.445    19  H 0.971    16  C 0.124    17  N 0.015

    14  C     (3.961)    15  C 1.470    13  C 1.470    22  H 0.974    17  N 0.097

    15  C     (3.966)    14  C 1.470    16  C 1.443    20  H 0.972    12  C 0.124    17  N 0.015

    16  C     (3.936)    15  C 1.443    17  N 1.437    21  H 0.964    13  C 0.124    18  H 0.012    12  C 0.011

    17  N     (2.969)    12  C 1.437    16  C 1.437    14  C 0.097    15  C 0.015    13  C 0.015

    18  H     (0.966)    12  C 0.962    16  C 0.012

    19  H     (0.967)    13  C 0.971

    20  H     (0.968)    15  C 0.972

    21  H     (0.968)    16  C 0.964    12  C 0.012

    22  H     (0.970)    14  C 0.974


 **********************
 *                    *
 * JOB ENDED NORMALLY *
 *                    *
 **********************



 TOTAL JOB TIME:             0.61 SECONDS

 == MOPAC DONE ==
