 *******************************************************************************
 **                                                                           **
 **                              MOPAC v22.0.6                                **
 **                                                                           **
 *******************************************************************************
 **          Digital Object Identifier (DOI): 10.5281/zenodo.6511958          **
 **    Visit the DOI location for information on how to cite this program.    **
 *******************************************************************************

                              PM7 CALCULATION RESULTS

 *******************************************************************************
 *  CALCULATION DONE:                                Thu Mar 14 14:25:21 2024  *
 *  PM7        - The PM7 Hamiltonian to be used
 *  SINGLET    - SPIN STATE DEFINED AS A SINGLET
 *
 *
 *
 *                 CHARGE ON SYSTEM = 0
 *
 *
 *
 *  EPS=78.0   - USE ANDREAS KLAMT'S COSMO IMPLICIT SOLVATION MODEL
 *  LET        - OVERRIDE SOME SAFETY CHECKS
 *  T=         - A TIME OF 14.0 DAYS REQUESTED
 *  DUMP=N     - RESTART FILE WRITTEN EVERY 30.0 MINUTES REQUESTED
 *  RELSCF     - DEFAULT SCF CRITERION MULTIPLIED BY 1.0000
 *              (DEFAULT SCF CRITERION = 0.00010)
 *  ITRY=      - DO A MAXIMUM OF 15000 ITERATIONS FOR SCF
 *  AUX        - OUTPUT AUXILIARY INFORMATION
 *  ISOTOPE    - SAVE THE FORCE MATRIX FOR USE LATER
 *  BONDS      - FINAL BOND-ORDER MATRIX TO BE PRINTED
 *  LARGE      - EXPANDED OUTPUT TO BE PRINTED
 *  THERMO     - THERMODYNAMIC QUANTITIES TO BE CALCULATED
 *******************************************************************************
PM7 AUX LARGE THERMO(298,298) LET ISOTOPE BONDS DUMP=30M ITRY=15000 T=14D CHARGE=0 SINGLET eps=78.0 RELSCF=1
 Title: ASE calculation

   ATOM   CHEMICAL          X               Y               Z
  NUMBER   SYMBOL      (ANGSTROMS)     (ANGSTROMS)     (ANGSTROMS)

     1       C          0.96422352  *  -0.65836948  *   1.30673179  *
     2       H          1.10791261  *  -1.10640453  *   2.30124425  *
     3       N          0.59512325  *  -2.89180460  *   0.37476763  *
     4       O          0.65890957  *  -3.40206286  *   1.49073217  *
     5       O          0.45226988  *  -3.58336066  *  -0.63408667  *
     6       H          0.95051919  *   1.21111043  *   0.20726156  *
     7       C          0.68383700  *  -1.48075400  *   0.22079100  *
     8       H          0.53236680  *  -1.11014973  *  -0.79795726  *
     9       D          3.55587400  *  -1.09404889  *  -1.21144517  *
    10       C          1.07408762  *   0.70545034  *   1.15426292  *
    11       H          1.29356588  *   1.36467093  *   1.98200468  *
    12       C          5.60045761  *  -2.79686914  *   0.73340280  *
    13       C          6.96581937  *  -2.75816556  *   0.42758702  *
    14       C          7.54814771  *  -1.52621323  *   0.13498043  *
    15       C          6.75562386  *  -0.37978818  *   0.14707826  *
    16       C          5.39685084  *  -0.50547241  *   0.46055491  *
    17       N          4.82937400  *  -1.69153800  *   0.75618700  *
    18       H          5.09339383  *  -3.74039595  *   0.97537480  *
    19       H          7.55575259  *  -3.67249133  *   0.42438208  *
    20       H          7.18196165  *   0.59590469  *  -0.08051006  *
    21       H          4.73013753  *   0.36520942  *   0.48409346  *
    22       H          8.61255538  *  -1.45912443  *  -0.10260052  *


                                Isotopes Used

              Atom:    9  H  Default mass  1.0079,  mass used:  2.0140 amu


          CARTESIAN COORDINATES 

    NO.       ATOM           X           Y           Z

     1         C          0.9642     -0.6584      1.3067
     2         H          1.1079     -1.1064      2.3012
     3         N          0.5951     -2.8918      0.3748
     4         O          0.6589     -3.4021      1.4907
     5         O          0.4523     -3.5834     -0.6341
     6         H          0.9505      1.2111      0.2073
     7         C          0.6838     -1.4808      0.2208
     8         H          0.5324     -1.1101     -0.7980
     9         H          3.5559     -1.0940     -1.2114
    10         C          1.0741      0.7055      1.1543
    11         H          1.2936      1.3647      1.9820
    12         C          5.6005     -2.7969      0.7334
    13         C          6.9658     -2.7582      0.4276
    14         C          7.5481     -1.5262      0.1350
    15         C          6.7556     -0.3798      0.1471
    16         C          5.3969     -0.5055      0.4606
    17         N          4.8294     -1.6915      0.7562
    18         H          5.0934     -3.7404      0.9754
    19         H          7.5558     -3.6725      0.4244
    20         H          7.1820      0.5959     -0.0805
    21         H          4.7301      0.3652      0.4841
    22         H          8.6126     -1.4591     -0.1026

 General Reference for PM7:
 "Optimization of Parameters for Semiempirical Methods VI: More Modifications to the 
 NDDO Approximations and Re-optimization of Parameters", J. J. P. Stewart, J. Mol. Mod., 1:32, 19 (2013)
 https://link.springer.com/article/10.1007/s00894-012-1667-x

           Empirical Formula: C8 H10 N2 O2  =    22 atoms



      MOLECULAR POINT GROUP   :   C1  


 SINGLET STATE CALCULATION


      RHF CALCULATION, NO. OF DOUBLY OCCUPIED LEVELS = 32

  SCF CRITERION =    0.1000E-03


          HEAT OF FORMATION =     116.512798 KCALS/MOLE


          CARTESIAN COORDINATE DERIVATIVES

   NUMBER  ATOM         X            Y            Z

     1       C     11.890629    67.604673    -1.480259
     2       H      4.129316    -1.008574    -0.243163
     3       N     52.968480    97.355734    -2.726511
     4       O    -25.819780    -8.053879     2.299528
     5       O      8.853548   -28.028684     0.439519
     6       H     -7.891665    -0.849951    -0.782842
     7       C    -13.987228   -93.756657    -0.458306
     8       H    -11.038258     1.673374    -1.987227
     9       H    -14.289300     3.418357    -1.682449
    10       C    -22.524784   -28.773689     2.518607
    11       H      4.256010    -6.370491    -0.682376
    12       C     -2.304731    -1.272477    -0.401409
    13       C     -0.786508     1.489219     1.553410
    14       C     -0.186585    -0.434713    -0.640066
    15       C     -0.487769     1.215106     2.474889
    16       C      3.855372     1.860864    -3.214991
    17       N     12.687383    -6.212422     5.012585
    18       H     -0.304670    -1.293638     0.413379
    19       H     -0.049518    -0.578394    -0.793525
    20       H      0.456357     0.186189    -0.019781
    21       H      0.402753     1.926247     0.401784
    22       H      0.170947    -0.096196    -0.000792

 DIPOLE           X         Y         Z       TOTAL
 POINT-CHG.    -8.725    -6.639    17.424    20.587
 HYBRID         0.189     0.320     0.890     0.964
 SUM           -8.536    -6.320    18.314    21.171


          GRADIENT NORM = 172.34727



 ** GRADIENT IS VERY LARGE, BUT SINCE "LET" IS USED, CALCULATION WILL CONTINUE


                              **** WARNING ****

           GRADIENT IS VERY LARGE FOR A THERMO CALCULATION
           RESULTS ARE LIKELY TO BE INACCURATE IF THERE ARE
           ANY LOW-LYING VIBRATIONS (LESS THAN ABOUT 400CM-1)
           GRADIENT NORM SHOULD BE LESS THAN ABOUT 1.0 FOR THERMO
           TO GIVE ACCURATE RESULTS


          TIME FOR SCF CALCULATION =    0.11

          TIME FOR DERIVATIVES     =    0.01

          MOLECULAR WEIGHT =  167.19



          ROTATIONAL CONSTANTS IN CM(-1)

          A =    0.04621132   B =    0.01215947   C =    0.01036708



           PRINCIPAL MOMENTS OF INERTIA IN UNITS OF 10**(-40)*GRAM-CM**2

          A =      605.7553   B =     2302.1355   C =     2700.1566


          ORIENTATION OF MOLECULE IN FORCE CALCULATION

    NO.       ATOM         X         Y         Z

     1          C      -0.0623   -0.9684   -2.5674
     2          H       1.0379   -0.9684   -2.5674
     3          N      -0.0434    1.4796   -2.5674
     4          O       1.1814    1.5012   -2.6622
     5          O      -0.6924    2.5211   -2.4653
     6          H      -1.8193   -2.2399   -2.5441
     7          C      -0.7457    0.2428   -2.5748
     8          H      -1.8373    0.3238   -2.5714
     9          H      -1.8227    0.0106    0.4642
    10          C      -0.7412   -2.1660   -2.5503
    11          H      -0.2328   -3.1196   -2.5418
    12          C       0.8958    0.4945    2.2636
    13          C       0.7819    0.3706    3.6532
    14          C       0.0918   -0.7244    4.1699
    15          C      -0.4677   -1.6512    3.2920
    16          C      -0.3106   -1.4522    1.9150
    17          N       0.3656   -0.4023    1.4083
    18          H       1.4325    1.3355    1.8048
    19          H       1.2284    1.1136    4.3109
    20          H      -1.0150   -2.5148    3.6663
    21          H      -0.7309   -2.1518    1.1822
    22          H      -0.0113   -0.8549    5.2498


    FIRST DERIVATIVES WILL BE USED IN THE CALCULATION OF SECOND DERIVATIVES

          ESTIMATED TIME TO COMPLETE CALCULATION =       15.47 SECONDS

    FOR POINT-GROUP C1   THERE ARE   1 UNIQUE SYMMETRY FUNCTIONS.

 STEP:   1 TIME =     0.03 SECS, INTEGRAL =      0.03 TIME LEFT:1209599.85
 STEP:   2 TIME =     0.04 SECS, INTEGRAL =      0.07 TIME LEFT:1209599.82
 STEP:   3 TIME =     0.04 SECS, INTEGRAL =      0.10 TIME LEFT:1209599.78
 STEP:   4 TIME =     0.04 SECS, INTEGRAL =      0.14 TIME LEFT:1209599.75
 STEP:   5 TIME =     0.04 SECS, INTEGRAL =      0.18 TIME LEFT:1209599.71
 STEP:   6 TIME =     0.04 SECS, INTEGRAL =      0.21 TIME LEFT:1209599.67
 STEP:   7 TIME =     0.04 SECS, INTEGRAL =      0.25 TIME LEFT:1209599.63
 STEP:   8 TIME =     0.04 SECS, INTEGRAL =      0.29 TIME LEFT:1209599.60
 STEP:   9 TIME =     0.03 SECS, INTEGRAL =      0.32 TIME LEFT:1209599.57
 STEP:  10 TIME =     0.04 SECS, INTEGRAL =      0.35 TIME LEFT:1209599.53
 STEP:  11 TIME =     0.04 SECS, INTEGRAL =      0.39 TIME LEFT:1209599.49
 STEP:  12 TIME =     0.03 SECS, INTEGRAL =      0.42 TIME LEFT:1209599.46
 STEP:  13 TIME =     0.04 SECS, INTEGRAL =      0.46 TIME LEFT:1209599.42
 STEP:  14 TIME =     0.04 SECS, INTEGRAL =      0.50 TIME LEFT:1209599.39
 STEP:  15 TIME =     0.04 SECS, INTEGRAL =      0.53 TIME LEFT:1209599.35
 STEP:  16 TIME =     0.04 SECS, INTEGRAL =      0.57 TIME LEFT:1209599.32
 STEP:  17 TIME =     0.04 SECS, INTEGRAL =      0.60 TIME LEFT:1209599.28
 STEP:  18 TIME =     0.04 SECS, INTEGRAL =      0.64 TIME LEFT:1209599.25
 STEP:  19 TIME =     0.04 SECS, INTEGRAL =      0.67 TIME LEFT:1209599.21
 STEP:  20 TIME =     0.04 SECS, INTEGRAL =      0.71 TIME LEFT:1209599.18
 STEP:  21 TIME =     0.04 SECS, INTEGRAL =      0.74 TIME LEFT:1209599.14
 STEP:  22 TIME =     0.04 SECS, INTEGRAL =      0.78 TIME LEFT:1209599.11
 STEP:  23 TIME =     0.04 SECS, INTEGRAL =      0.82 TIME LEFT:1209599.07
 STEP:  24 TIME =     0.04 SECS, INTEGRAL =      0.85 TIME LEFT:1209599.03
 STEP:  25 TIME =     0.04 SECS, INTEGRAL =      0.89 TIME LEFT:1209599.00
 STEP:  26 TIME =     0.04 SECS, INTEGRAL =      0.92 TIME LEFT:1209598.96
 STEP:  27 TIME =     0.04 SECS, INTEGRAL =      0.96 TIME LEFT:1209598.93
 STEP:  28 TIME =     0.04 SECS, INTEGRAL =      0.99 TIME LEFT:1209598.89
 STEP:  29 TIME =     0.04 SECS, INTEGRAL =      1.03 TIME LEFT:1209598.86
 STEP:  30 TIME =     0.04 SECS, INTEGRAL =      1.06 TIME LEFT:1209598.82
 STEP:  31 TIME =     0.04 SECS, INTEGRAL =      1.10 TIME LEFT:1209598.79
 STEP:  32 TIME =     0.04 SECS, INTEGRAL =      1.13 TIME LEFT:1209598.75
 STEP:  33 TIME =     0.04 SECS, INTEGRAL =      1.17 TIME LEFT:1209598.71
 STEP:  34 TIME =     0.04 SECS, INTEGRAL =      1.21 TIME LEFT:1209598.68
 STEP:  35 TIME =     0.04 SECS, INTEGRAL =      1.25 TIME LEFT:1209598.64
 STEP:  36 TIME =     0.04 SECS, INTEGRAL =      1.28 TIME LEFT:1209598.60
 STEP:  37 TIME =     0.04 SECS, INTEGRAL =      1.32 TIME LEFT:1209598.57
 STEP:  38 TIME =     0.04 SECS, INTEGRAL =      1.35 TIME LEFT:1209598.53
 STEP:  39 TIME =     0.04 SECS, INTEGRAL =      1.39 TIME LEFT:1209598.50
 STEP:  40 TIME =     0.04 SECS, INTEGRAL =      1.43 TIME LEFT:1209598.46
 STEP:  41 TIME =     0.04 SECS, INTEGRAL =      1.46 TIME LEFT:1209598.42
 STEP:  42 TIME =     0.04 SECS, INTEGRAL =      1.50 TIME LEFT:1209598.39
 STEP:  43 TIME =     0.04 SECS, INTEGRAL =      1.53 TIME LEFT:1209598.35
 STEP:  44 TIME =     0.04 SECS, INTEGRAL =      1.57 TIME LEFT:1209598.31
 STEP:  45 TIME =     0.03 SECS, INTEGRAL =      1.60 TIME LEFT:1209598.28
 STEP:  46 TIME =     0.04 SECS, INTEGRAL =      1.64 TIME LEFT:1209598.25
 STEP:  47 TIME =     0.04 SECS, INTEGRAL =      1.67 TIME LEFT:1209598.21
 STEP:  48 TIME =     0.04 SECS, INTEGRAL =      1.71 TIME LEFT:1209598.18
 STEP:  49 TIME =     0.04 SECS, INTEGRAL =      1.74 TIME LEFT:1209598.14
 STEP:  50 TIME =     0.04 SECS, INTEGRAL =      1.78 TIME LEFT:1209598.11
 STEP:  51 TIME =     0.04 SECS, INTEGRAL =      1.81 TIME LEFT:1209598.07
 STEP:  52 TIME =     0.04 SECS, INTEGRAL =      1.85 TIME LEFT:1209598.04
 STEP:  53 TIME =     0.04 SECS, INTEGRAL =      1.88 TIME LEFT:1209598.00
 STEP:  54 TIME =     0.04 SECS, INTEGRAL =      1.92 TIME LEFT:1209597.96
 STEP:  55 TIME =     0.04 SECS, INTEGRAL =      1.95 TIME LEFT:1209597.93
 STEP:  56 TIME =     0.04 SECS, INTEGRAL =      1.99 TIME LEFT:1209597.89
 STEP:  57 TIME =     0.04 SECS, INTEGRAL =      2.02 TIME LEFT:1209597.86
 STEP:  58 TIME =     0.04 SECS, INTEGRAL =      2.06 TIME LEFT:1209597.82
 STEP:  59 TIME =     0.04 SECS, INTEGRAL =      2.09 TIME LEFT:1209597.79
 STEP:  60 TIME =     0.04 SECS, INTEGRAL =      2.13 TIME LEFT:1209597.75
 STEP:  61 TIME =     0.04 SECS, INTEGRAL =      2.17 TIME LEFT:1209597.71
 STEP:  62 TIME =     0.04 SECS, INTEGRAL =      2.21 TIME LEFT:1209597.68
 STEP:  63 TIME =     0.04 SECS, INTEGRAL =      2.25 TIME LEFT:1209597.64
 STEP:  64 TIME =     0.04 SECS, INTEGRAL =      2.28 TIME LEFT:1209597.60
 STEP:  65 TIME =     0.04 SECS, INTEGRAL =      2.32 TIME LEFT:1209597.57
 STEP:  66 TIME =     0.04 SECS, INTEGRAL =      2.36 TIME LEFT:1209597.53

(To convert to Hartree/Bohr^2, multiply by (10^(-21) x N x a0^2)/(4.184 x 627.51) =  0.0642)


           FORCE MATRIX IN MILLIDYNES/ANGSTROM


                  C  1       H  2       N  3       O  4       O  5       H  6
 ------------------------------------------------------------------------------
     C    1  16.265223
     H    2   3.364563   4.271435
     N    3   1.926316   0.090849  18.959230
     O    4   0.359494   0.038227   9.086856  11.681190
     O    5   0.394427   0.029370   8.918988   2.290828  11.577332
     H    6   0.793751   0.117753   0.116443   0.048162   0.057893   4.215242
     C    7   6.381335   0.741137   3.075512   1.750509   1.907637   0.126757
     H    8   0.717810   0.047575   0.913479   0.152479   0.089810   0.020996
     H    9   0.025127   0.003806   0.068208   0.025531   0.029819   0.008176
     C   10   7.501253   0.758032   0.522219   0.181260   0.213431   3.471957
     H   11   0.832277   0.055387   0.090374   0.033271   0.039383   0.464168
     C   12   0.003508   0.000995   0.008929   0.004836   0.003243   0.001481
     C   13   0.001013   0.000714   0.006702   0.002982   0.003435   0.000810
     C   14   0.001290   0.000546   0.004676   0.002001   0.002827   0.000393
     C   15   0.003635   0.001225   0.006754   0.003044   0.003514   0.001523
     C   16   0.007187   0.001846   0.017863   0.007116   0.007139   0.003690
     N   17   0.013070   0.002362   0.027917   0.008691   0.011900   0.004611
     H   18   0.072670   0.003249   0.438540   0.164072   0.179774   0.009369
     H   19   0.001596   0.000335   0.003949   0.002000   0.002073   0.000441
     H   20   0.002402   0.000273   0.002718   0.001717   0.001148   0.000850
     H   21   0.003528   0.000690   0.004784   0.002472   0.002428   0.000927
     H   22   0.001014   0.000232   0.003088   0.001484   0.001795   0.000488


                  C  7       H  8       H  9       C 10       H 11       C 12
 ------------------------------------------------------------------------------
     C    7  13.752168
     H    8   3.250110   4.245284
     H    9   0.093715   0.044756   0.241156
     C   10   1.635311   0.044431   0.023107  13.493779
     H   11   0.142252   0.009700   0.003390   3.479529   4.229933
     C   12   0.008573   0.002291   0.066766   0.002753   0.000491  15.148851
     C   13   0.004898   0.001360   0.033788   0.001414   0.000761   5.723607
     C   14   0.003204   0.000494   0.011167   0.001041   0.000470   2.095500
     C   15   0.007262   0.002196   0.046607   0.003930   0.000937   1.321482
     C   16   0.018361   0.003721   0.186948   0.010479   0.001731   2.516154
     N   17   0.033161   0.008606   0.210129   0.012294   0.002529   6.725777
     H   18   0.140955   0.015886   0.016686   0.040870   0.007825   3.318664
     H   19   0.002636   0.000448   0.009590   0.001407   0.000371   0.730962
     H   20   0.002363   0.000687   0.011507   0.001834   0.000552   0.006834
     H   21   0.005350   0.001034   0.052302   0.003367   0.000806   0.150272
     H   22   0.001875   0.000490   0.008596   0.001221   0.000349   0.104611


                  C 13       C 14       C 15       C 16       N 17       H 18
 ------------------------------------------------------------------------------
     C   13  15.094755
     C   14   6.226436  15.321050
     C   15   1.929949   6.256092  15.075908
     C   16   1.333209   2.069233   5.702184  15.090987
     N   17   2.285247   1.309155   2.282683   6.821015  14.656183
     H   18   0.688956   0.089438   0.020081   0.149191   0.874814   4.234885
     H   19   3.439145   0.743034   0.093466   0.015439   0.098964   0.026274
     H   20   0.093516   0.750247   3.430182   0.731277   0.098684   0.015747
     H   21   0.020738   0.090437   0.687728   3.290497   0.891681   0.016404
     H   22   0.728150   3.446537   0.739487   0.104070   0.041610   0.011678


                  H 19       H 20       H 21       H 22
 ------------------------------------------------------
     H   19   4.326374
     H   20   0.009628   4.322101
     H   21   0.015465   0.026132   4.251073
     H   22   0.034365   0.032448   0.010961   4.293435


          HEAT OF FORMATION =     116.512798 KCALS/MOLE


          TRIVIAL VIBRATIONS, SHOULD BE ZERO

 -45.7043=TX -20.7900=TY  28.2589=TZ -17.9424=RX -19.4523=RY -24.3768=RZ


      MOLECULAR POINT GROUP   :   C1  


           EIGENVECTORS  


   Root No.       1         2         3         4         5         6         7         8

                 1 A       2 A       3 A       4 A       5 A       6 A       7 A       8 A   

                  -0.3      -0.2      -0.1      -0.0      -0.0      -0.0       0.0       0.0
  
           1    0.0066   -0.0229    0.0299    0.0430   -0.0146   -0.0583   -0.0650    0.0628
           2   -0.0019    0.0102    0.0282   -0.0574   -0.0169   -0.1056    0.0492    0.0127
           3   -0.0010    0.0631   -0.0604   -0.1886    0.1683   -0.1784   -0.1612   -0.0940
           4    0.0062   -0.0227    0.0288    0.0413   -0.0156   -0.0579   -0.0649    0.0610
           5   -0.0002    0.0088    0.0387   -0.0379    0.0306   -0.1392    0.0468    0.0839
           6   -0.0012    0.0857    0.0391   -0.3193    0.2019   -0.2603   -0.2625   -0.0658
           7   -0.0016   -0.0198   -0.0046   -0.0255   -0.1258    0.0250   -0.0524   -0.1055
           8    0.0016    0.0047    0.0318   -0.0628   -0.0096   -0.1063    0.0559    0.0195
           9    0.0039   -0.0005   -0.2115    0.2270    0.0176   -0.0359   -0.0946   -0.0909
          10   -0.0020    0.0364   -0.0085   -0.0084   -0.1374    0.0324   -0.0534   -0.1131
          11    0.0123   -0.0112    0.0599    0.0295    0.0426   -0.1484    0.0205    0.1124
          12    0.0135    0.7285   -0.2369    0.4284   -0.0537    0.0237   -0.0687   -0.1057
          13   -0.0128   -0.0795   -0.0345   -0.0713   -0.1982    0.0710   -0.0578   -0.2127
          14   -0.0047    0.0364    0.0039   -0.0887   -0.0499   -0.0779    0.0546   -0.0433
          15    0.0133   -0.6206   -0.1275    0.3557   -0.0833   -0.0174   -0.1906   -0.1649
          16    0.0051   -0.0310    0.0392    0.0480    0.0327   -0.0926   -0.0613    0.1329
          17   -0.0018    0.0192    0.0153   -0.0563   -0.0849   -0.0528    0.0487   -0.0827
          18   -0.0080    0.0042   -0.0600   -0.0292    0.0620   -0.0278    0.0155   -0.2106
          19    0.0047   -0.0163    0.0183    0.0179   -0.0749   -0.0144   -0.0621   -0.0252
          20   -0.0018    0.0165    0.0160   -0.0641   -0.0542   -0.0789    0.0482   -0.0388
          21   -0.0031   -0.0530   -0.3032    0.0864    0.1127   -0.0736   -0.0620   -0.0544
          22    0.0105   -0.0204    0.0193    0.0146   -0.0748   -0.0119   -0.0590   -0.0293
          23   -0.0087    0.0166    0.0027   -0.0954   -0.0966   -0.0452    0.0502   -0.1042
          24   -0.0009   -0.1916   -0.2733    0.0726    0.1030   -0.0509   -0.0151   -0.0408
          25    0.7745   -0.0187   -0.3303   -0.1815    0.1625    0.0873    0.3091    0.0781
          26   -0.2101    0.0027   -0.2014   -0.1894   -0.0983    0.3240   -0.1902    0.2998
          27    0.3733    0.0324    0.6624    0.2158   -0.1548    0.0874   -0.0190   -0.2273
          28    0.0051   -0.0297    0.0390    0.0489    0.0301   -0.0909   -0.0634    0.1295
          29   -0.0002    0.0156    0.0215   -0.0583   -0.0449   -0.0854    0.0475   -0.0278
          30    0.0002    0.0340    0.0114   -0.1801    0.1220   -0.1229   -0.1032   -0.1506
          31    0.0050   -0.0329    0.0436    0.0490    0.0646   -0.1172   -0.0620    0.1787
          32   -0.0009    0.0129    0.0272   -0.0596   -0.0258   -0.0999    0.0485   -0.0001
          33    0.0005    0.0294    0.1425   -0.3054    0.1306   -0.1651   -0.1650   -0.1618
          34   -0.1331    0.0095    0.0744    0.0989    0.2107   -0.0397    0.1290    0.0119
          35    0.0475   -0.0024   -0.0183    0.0020    0.0060    0.1768   -0.0977   -0.0680
          36   -0.0565   -0.0132    0.0686   -0.0442    0.0672    0.1979    0.0950    0.0822
          37   -0.0145    0.0315    0.0443    0.0569    0.0644   -0.0405   -0.0582    0.1254
          38   -0.0053   -0.0154   -0.0381    0.0418   -0.0560    0.0215    0.0325   -0.0844
          39   -0.0518   -0.0117    0.0633   -0.0433    0.0472    0.1797    0.0904    0.0904
          40   -0.0011    0.0439    0.0039   -0.0228   -0.0854    0.0187   -0.1502    0.0728
          41   -0.0048   -0.0222   -0.0291    0.0965   -0.0223   -0.0772    0.0946   -0.0301
          42   -0.0301   -0.0094    0.0316   -0.0330   -0.0747    0.0588    0.1008    0.1334
          43   -0.0460    0.0310   -0.0373   -0.0811   -0.0958    0.0808   -0.0076   -0.0851
          44    0.0094   -0.0173    0.0189    0.1211    0.0844   -0.0142   -0.0003    0.0358
          45   -0.0174   -0.0069    0.0072   -0.0229   -0.1780   -0.0421    0.1123    0.1661
          46   -0.2006    0.0155   -0.0264   -0.0556    0.0222    0.0932    0.1635   -0.1699
          47    0.0653   -0.0091    0.0542    0.0942    0.1639    0.1320   -0.1225    0.0343
          48   -0.0238   -0.0071    0.0106   -0.0253   -0.1559   -0.0225    0.1139    0.1569
          49   -0.2950    0.0044    0.0542    0.0558    0.1962    0.0292    0.2181   -0.1363
          50    0.1256   -0.0029    0.0162    0.0178    0.1078    0.2255   -0.1606   -0.0084
          51   -0.0540   -0.0090    0.0459   -0.0318   -0.0331    0.0962    0.1040    0.1107
          52   -0.0837   -0.0118    0.1092    0.1574    0.3393   -0.0963    0.2128    0.0458
          53    0.0188    0.0101   -0.0292   -0.0402   -0.0240    0.2587   -0.1505   -0.1063
          54   -0.0563   -0.0236    0.0877   -0.0588    0.1635    0.2843    0.0945    0.0531
          55    0.0396    0.0363    0.0522    0.0855    0.0652   -0.0874   -0.1286    0.2467
          56   -0.0313   -0.0194   -0.0596    0.0301   -0.1276   -0.0234    0.0844   -0.1371
          57   -0.0500   -0.0107    0.0825   -0.0491    0.1280    0.2623    0.0798    0.0664
          58    0.0103    0.0338   -0.0628   -0.1334   -0.1889    0.1123   -0.0341   -0.1424
          59   -0.0205   -0.0183    0.0249    0.1580    0.1018   -0.0763    0.0185    0.0845
          60    0.0046   -0.0052   -0.0167   -0.0148   -0.2725   -0.1390    0.1172    0.1960
          61   -0.1208    0.0070   -0.0573   -0.1014    0.0025    0.1422    0.2536   -0.2727
          62    0.0287   -0.0056    0.0712    0.1026    0.2489    0.1805   -0.1841    0.0857
          63   -0.0316   -0.0059    0.0084   -0.0084   -0.2279   -0.0992    0.1190    0.1709
          64    0.0433    0.0562    0.0055   -0.0361   -0.1792    0.0149   -0.3061    0.1468
          65   -0.0171   -0.0298   -0.0549    0.1164   -0.0749   -0.1883    0.2058   -0.0372
          66   -0.0236   -0.0090    0.0285   -0.0318   -0.0902    0.0447    0.0996    0.1406


   Root No.       9        10        11        12        13        14        15        16

                 9 A      10 A      11 A      12 A      13 A      14 A      15 A      16 A   

                   0.0       0.0       0.0       0.1       0.1       0.2       0.2       0.4
  
           1    0.0531    0.0619    0.0189    0.1016    0.1677   -0.0071    0.0017    0.1821
           2    0.0323    0.0036   -0.0065   -0.0507   -0.0829    0.0048   -0.0030    0.0721
           3   -0.0758   -0.0733    0.1130    0.0177    0.0218    0.0019   -0.1833   -0.0073
           4    0.0531    0.0591    0.0194    0.0973    0.1609   -0.0070    0.0013    0.1774
           5    0.0312    0.0271    0.0134   -0.1368   -0.2267    0.0112   -0.0049    0.3312
           6   -0.4220   -0.2466    0.1021    0.0399    0.0538   -0.0015   -0.3788   -0.0134
           7    0.0599   -0.0594    0.0074    0.0048    0.0185   -0.0102    0.0082   -0.1190
           8    0.0352    0.0142   -0.0043    0.0183    0.0373    0.0031    0.0094   -0.1484
           9   -0.0686   -0.0055    0.0258   -0.0051   -0.0083    0.0023   -0.0112    0.0090
          10    0.0528   -0.0552   -0.0063   -0.0054   -0.0006   -0.0106    0.0152   -0.1001
          11   -0.0068    0.1412   -0.0436    0.2347    0.3607    0.0002    0.0364   -0.4319
          12   -0.1408    0.0927   -0.1275   -0.0393   -0.0430   -0.0008    0.0917    0.0066
          13    0.0555   -0.1516   -0.0086   -0.1823   -0.2896   -0.0083   -0.0215    0.1161
          14    0.0500   -0.0518    0.0112   -0.0835   -0.1386    0.0037   -0.0002   -0.0183
          15   -0.3278    0.1658   -0.3138   -0.0292   -0.0504    0.0044   -0.0492    0.0027
          16    0.0587    0.0663    0.0520   -0.0555   -0.0881    0.0023   -0.0021    0.0820
          17    0.0448    0.0193   -0.0582    0.2013    0.3313   -0.0105   -0.0150    0.5524
          18    0.5640    0.4618   -0.0994   -0.0260   -0.0324    0.0104   -0.4415   -0.0399
          19    0.0505    0.0177    0.0037    0.1296    0.2141   -0.0112    0.0163   -0.1532
          20    0.0286   -0.0203   -0.0158   -0.0356   -0.0625    0.0027    0.0115   -0.1040
          21    0.1199   -0.1402    0.2903    0.0192    0.0207    0.0056   -0.0076    0.0273
          22    0.0516    0.0122    0.0120    0.1192    0.1999   -0.0100    0.0204   -0.1623
          23    0.0305   -0.0746   -0.0192   -0.0914   -0.1519    0.0012    0.0232   -0.3779
          24    0.2905   -0.2098    0.4897    0.0567    0.0537   -0.0044    0.3841   -0.0083
          25   -0.1382    0.0997   -0.0731   -0.0098   -0.0026    0.1234   -0.0029   -0.0051
          26   -0.2835    0.5513    0.3959   -0.0814   -0.0087    0.0508    0.0039    0.0027
          27   -0.0972    0.1289    0.4367    0.0029   -0.0298    0.0571   -0.0094    0.0090
          28    0.0547    0.0671    0.0475   -0.0362   -0.0575    0.0012    0.0025    0.1250
          29    0.0322    0.0038   -0.0269    0.0232    0.0353    0.0004    0.0025    0.1174
          30    0.1301    0.1967   -0.0845   -0.0103   -0.0201    0.0021    0.0118   -0.0141
          31    0.0515    0.0554    0.0788   -0.2008   -0.3289    0.0108    0.0029   -0.1517
          32    0.0298   -0.0007   -0.0120   -0.0577   -0.0970    0.0049    0.0086    0.0035
          33   -0.0657    0.2334   -0.2588   -0.0212   -0.0485   -0.0049    0.6809    0.0392
          34   -0.0574    0.0121    0.0005   -0.0834    0.0394    0.0269   -0.0002   -0.0078
          35    0.0198   -0.0808   -0.0360    0.0643   -0.0226   -0.0332   -0.0064    0.0045
          36    0.0197   -0.0631   -0.0604    0.0027    0.0071   -0.0099   -0.0056   -0.0005
          37   -0.0027   -0.0146   -0.0369    0.1052   -0.0810   -0.0863   -0.0070   -0.0052
          38   -0.0307   -0.0507    0.0005   -0.0590    0.0510    0.0463   -0.0059    0.0034
          39    0.0199   -0.0629   -0.0609    0.0089    0.0030   -0.0112   -0.0059   -0.0007
          40    0.0266   -0.0685   -0.0614   -0.0103    0.0174    0.1304   -0.0043   -0.0035
          41   -0.0553   -0.0120    0.0199    0.0105   -0.0104   -0.0838   -0.0090    0.0023
          42    0.0076   -0.0535   -0.0524   -0.0020    0.0084   -0.0022   -0.0082   -0.0013
          43   -0.0387   -0.0300   -0.0100   -0.0873    0.0758   -0.0971   -0.0031   -0.0043
          44   -0.0043   -0.0446   -0.0223    0.0617   -0.0477    0.0528   -0.0079    0.0034
          45   -0.0044   -0.0442   -0.0417   -0.0093    0.0123   -0.0028   -0.0100   -0.0020
          46   -0.0979    0.0127    0.0233    0.1097   -0.0435    0.0467   -0.0017   -0.0051
          47    0.0510   -0.0879   -0.0576   -0.0573    0.0288   -0.0460   -0.0055    0.0035
          48   -0.0045   -0.0433   -0.0419   -0.0021    0.0084   -0.0002   -0.0095   -0.0022
          49   -0.0842   -0.0028    0.0107    0.0135    0.0063    0.2140    0.0022   -0.0147
          50    0.0464   -0.0797   -0.0514    0.0091   -0.0056   -0.1515   -0.0067    0.0099
          51    0.0083   -0.0536   -0.0484    0.0022    0.0081    0.0008   -0.0068   -0.0019
          52   -0.0810    0.0452    0.0199   -0.3535    0.1787   -0.0126    0.0013    0.0139
          53    0.0392   -0.1062   -0.0543    0.2341   -0.1101   -0.0116   -0.0065   -0.0081
          54    0.0294   -0.0747   -0.0742   -0.0062    0.0047   -0.0167   -0.0068    0.0052
          55    0.0188    0.0007   -0.0497    0.3445   -0.2558   -0.4014   -0.0168    0.0024
          56   -0.0526   -0.0539    0.0158   -0.2152    0.1601    0.2510   -0.0022    0.0001
          57    0.0306   -0.0711   -0.0705    0.0233   -0.0019   -0.0305   -0.0034   -0.0021
          58   -0.0357   -0.0444    0.0001   -0.3146    0.2202   -0.4534   -0.0044    0.0011
          59   -0.0105   -0.0316   -0.0245    0.2011   -0.1377    0.2760   -0.0079    0.0004
          60   -0.0139   -0.0345   -0.0318   -0.0212    0.0174   -0.0063   -0.0116   -0.0018
          61   -0.1458    0.0503    0.0654    0.3615   -0.1996    0.0654   -0.0043    0.0218
          62    0.0828   -0.1035   -0.0873   -0.2139    0.1253   -0.0606   -0.0019   -0.0126
          63   -0.0069   -0.0486   -0.0386    0.0024    0.0057    0.0017   -0.0113   -0.0024
          64    0.0948   -0.1340   -0.1137   -0.0476    0.0484    0.4941   -0.0035    0.0101
          65   -0.1099    0.0379    0.0631    0.0243   -0.0273   -0.3117   -0.0123   -0.0055
          66    0.0078   -0.0542   -0.0529   -0.0039    0.0096    0.0052   -0.0085   -0.0011


   Root No.      17        18        19        20        21        22        23        24

                17 A      18 A      19 A      20 A      21 A      22 A      23 A      24 A   

                   0.5       0.8       0.8       0.9       1.0       1.0       1.0       1.1
  
           1   -0.0062    0.0005    0.0052    0.0001    0.0060    0.0005    0.0003   -0.0000
           2   -0.0042    0.0002    0.0098   -0.0005   -0.0693   -0.0018    0.0008   -0.0000
           3   -0.0003    0.0383    0.2745    0.0009    0.0543    0.0126   -0.0122    0.0034
           4   -0.0063    0.0007    0.0054    0.0002    0.0180    0.0009    0.0003   -0.0002
           5   -0.0219   -0.0081   -0.1146    0.0062    0.5865    0.0138   -0.0012   -0.0004
           6    0.0017   -0.0502   -0.3578    0.0017   -0.0541   -0.0159    0.0142   -0.0043
           7    0.0097   -0.0024   -0.0049   -0.0017    0.0660    0.0057    0.0017    0.0003
           8    0.0114   -0.0024    0.0525   -0.0066   -0.0545    0.0076    0.0057    0.0014
           9   -0.0007    0.0360    0.2716   -0.0006    0.0333    0.0125   -0.0097    0.0049
          10    0.0074   -0.0047   -0.0389   -0.0001    0.0533    0.0020    0.0011   -0.0010
          11    0.0119    0.0035   -0.0056    0.0033    0.0851   -0.0029   -0.0024   -0.0020
          12    0.0085   -0.0319   -0.1783   -0.0026   -0.0304   -0.0033    0.0108   -0.0005
          13   -0.0074    0.0091    0.0031    0.0038   -0.0594   -0.0062   -0.0042   -0.0057
          14   -0.0023    0.0133    0.0829    0.0003   -0.1241   -0.0029   -0.0029   -0.0031
          15   -0.0040   -0.0151   -0.1144    0.0014   -0.0180   -0.0051    0.0041   -0.0020
          16   -0.0067   -0.0026   -0.0133    0.0005    0.1309    0.0054    0.0006    0.0014
          17   -0.0143   -0.0020   -0.0115   -0.0005   -0.1334   -0.0043    0.0005    0.0015
          18    0.0020   -0.0283   -0.1936    0.0013   -0.0265   -0.0080    0.0060   -0.0016
          19    0.0103    0.0009    0.0228   -0.0018    0.0050    0.0037    0.0009    0.0000
          20    0.0018    0.0035    0.0176    0.0006   -0.0518   -0.0021   -0.0011   -0.0012
          21   -0.0085    0.0838    0.5659    0.0022    0.0734    0.0155   -0.0192    0.0043
          22    0.0111   -0.0029    0.0154   -0.0034    0.0370    0.0069    0.0031    0.0012
          23    0.0146   -0.0055   -0.0615    0.0012    0.3798    0.0168   -0.0015    0.0036
          24    0.0060   -0.0747   -0.4976   -0.0002   -0.0666   -0.0147    0.0156   -0.0036
          25   -0.1301   -0.0108   -0.0222    0.0123    0.0000   -0.0608    0.0356    0.0042
          26    0.0014   -0.0099   -0.0029    0.0047   -0.0043   -0.0160    0.0092    0.0146
          27   -0.0623    0.0088    0.0560   -0.0006    0.0061   -0.0110    0.0179   -0.0041
          28   -0.0087   -0.0021   -0.0184    0.0011    0.1366    0.0044    0.0003    0.0009
          29   -0.0053    0.0023    0.0128    0.0003   -0.1552   -0.0069   -0.0002   -0.0012
          30    0.0007    0.0155    0.1058    0.0008    0.0286    0.0057   -0.0049    0.0002
          31   -0.0036    0.0007    0.0200    0.0004   -0.3955   -0.0182    0.0005    0.0015
          32   -0.0026    0.0029    0.0355   -0.0008   -0.4589   -0.0188    0.0006   -0.0006
          33   -0.0027    0.0075    0.0562    0.0012   -0.0034   -0.0016    0.0006    0.0000
          34   -0.1598    0.0369   -0.0071    0.0305   -0.0019   -0.0124   -0.0495    0.0276
          35    0.1141    0.0514   -0.0067    0.0586    0.0034   -0.0646   -0.0502    0.0379
          36    0.0042    0.0102    0.0011   -0.0234    0.0013   -0.0288   -0.0308   -0.1387
          37   -0.1392    0.0247   -0.0134   -0.0221   -0.0099    0.1594   -0.2840    0.0048
          38    0.0937    0.0637   -0.0013   -0.0074    0.0098   -0.2220    0.0553   -0.0026
          39    0.0018    0.0117    0.0004   -0.0536    0.0021   -0.0539   -0.0682   -0.1494
          40   -0.1174    0.0014   -0.0128   -0.0203   -0.0105    0.2236   -0.3162    0.0263
          41    0.0758    0.0241    0.0052   -0.0180    0.0090   -0.2153    0.1189    0.0206
          42   -0.0019   -0.1046    0.0161    0.0017    0.0021   -0.0129   -0.0246   -0.1991
          43   -0.1397   -0.0363   -0.0081   -0.0180   -0.0054    0.1399   -0.2860    0.0319
          44    0.0933   -0.0368    0.0126   -0.0258    0.0084   -0.2311    0.0431    0.0320
          45   -0.0030   -0.0151    0.0046    0.0516    0.0002    0.0275    0.0124   -0.1394
          46   -0.1663   -0.0277   -0.0026    0.0342    0.0012   -0.0182   -0.0592    0.0103
          47    0.1110   -0.0460    0.0092    0.0465    0.0028   -0.0813   -0.0469   -0.0013
          48   -0.0056   -0.0122    0.0038    0.0471    0.0009    0.0063   -0.0022   -0.1389
          49   -0.3719    0.0147    0.0133    0.0157    0.0118   -0.2845    0.2626    0.0236
          50    0.2426   -0.0195   -0.0080    0.0060   -0.0049    0.1108   -0.2292    0.0194
          51   -0.0073    0.0945   -0.0076    0.0046    0.0010   -0.0128   -0.0046   -0.1785
          52    0.4436   -0.0641    0.0049   -0.0039   -0.0051    0.0919   -0.0435    0.1455
          53   -0.2555   -0.1138    0.0159   -0.0179    0.0021    0.0376    0.1056    0.2578
          54    0.0332   -0.4469    0.0629   -0.2333   -0.0079    0.3277    0.3087    0.3650
          55    0.0482   -0.1404    0.0411   -0.1830    0.0091   -0.2120    0.1708   -0.1785
          56   -0.0366   -0.2223    0.0255   -0.2886    0.0032    0.0467   -0.1682   -0.2678
          57    0.0243    0.4574   -0.0685    0.3660   -0.0023   -0.1437   -0.1630    0.2376
          58    0.0448    0.0688    0.0072   -0.1113    0.0138   -0.2303    0.1433    0.1126
          59   -0.0204    0.1099   -0.0290   -0.1989   -0.0063    0.0372   -0.1897    0.1998
          60    0.0036    0.4863   -0.0702   -0.4722   -0.0069    0.1686    0.1697    0.2974
          61    0.4588    0.1276   -0.0135   -0.0487   -0.0013    0.1533    0.0237   -0.2253
          62   -0.2712    0.1997   -0.0317   -0.0555   -0.0073    0.1235    0.1563   -0.3383
          63    0.0045   -0.3527    0.0507    0.2088    0.0130   -0.3185   -0.2726    0.2992
          64    0.2295    0.0080    0.0169    0.3154    0.0001    0.0449    0.3977    0.0185
          65   -0.1372   -0.0082   -0.0068    0.4926   -0.0200    0.4763    0.1976    0.0299
          66    0.0059   -0.1183    0.0186    0.0972   -0.0002    0.0540    0.0519   -0.2519


   Root No.      25        26        27        28        29        30        31        32

                25 A      26 A      27 A      28 A      29 A      30 A      31 A      32 A   

                   1.2       1.5       1.5       1.5       1.6       1.7       1.9       2.8
  
           1   -0.0004   -0.0144   -0.0702   -0.0006    0.0340    0.0000   -0.2504    0.0799
           2   -0.0527   -0.0142   -0.0605   -0.0002    0.0302    0.0002   -0.1437   -0.1961
           3    0.0141    0.0214    0.1377   -0.0035    0.4874   -0.0011    0.0352   -0.0091
           4    0.0021   -0.0187   -0.0937   -0.0002    0.0467   -0.0001   -0.3925    0.1869
           5   -0.1985    0.0856    0.4522   -0.0053   -0.1270   -0.0005    0.0835    0.1692
           6   -0.0103   -0.0124   -0.0843    0.0027   -0.2839    0.0004   -0.0151   -0.0017
           7   -0.0148    0.0353    0.2068   -0.0018   -0.0603    0.0016    0.0716   -0.2584
           8   -0.2184   -0.0521   -0.1967   -0.0012    0.0248    0.0015    0.1062    0.1482
           9    0.0228   -0.0065   -0.0324   -0.0035   -0.2236    0.0057   -0.0228    0.0713
          10   -0.0289    0.0403    0.2122   -0.0007   -0.0379    0.0006    0.0683   -0.2912
          11   -0.1426    0.0273    0.0827    0.0016   -0.0236   -0.0029    0.2694   -0.2934
          12   -0.0219   -0.0078   -0.0109   -0.0003    0.0904   -0.0011    0.0112    0.0018
          13   -0.2194   -0.0043   -0.0974    0.0062    0.0354   -0.0010    0.1732   -0.0735
          14   -0.3327   -0.0701   -0.3957    0.0049    0.0580   -0.0000    0.1587    0.3025
          15   -0.0055    0.0006    0.0056    0.0006    0.1075   -0.0021   -0.0049    0.0109
          16    0.0346   -0.0628   -0.3235    0.0006    0.0799   -0.0001   -0.0340   -0.3641
          17    0.4256   -0.0045   -0.0372    0.0029    0.0096   -0.0006    0.4353    0.0142
          18   -0.0074   -0.0088   -0.0626    0.0009   -0.2530    0.0011   -0.0126   -0.0048
          19   -0.0835    0.0146    0.0973   -0.0020   -0.0393    0.0014   -0.0059    0.1923
          20   -0.1199   -0.0112   -0.0664    0.0010    0.0054    0.0003    0.0087   -0.0687
          21    0.0428    0.0023   -0.0219   -0.0026   -0.3205    0.0030   -0.0089   -0.0867
          22   -0.0738    0.0135    0.1231   -0.0040   -0.0526    0.0027   -0.0151    0.4868
          23    0.6342   -0.0371   -0.1857    0.0033    0.0458    0.0000   -0.2016    0.1328
          24   -0.0300   -0.0008    0.0083    0.0009    0.1365   -0.0023    0.0055    0.0116
          25    0.0013    0.0052   -0.0033   -0.0113    0.0048   -0.0065    0.0009   -0.0001
          26   -0.0060   -0.0011   -0.0034    0.0211    0.0036   -0.0017    0.0000    0.0039
          27    0.0031   -0.0006   -0.0066   -0.0216   -0.0126    0.0077   -0.0001   -0.0057
          28    0.0598   -0.0469   -0.2472    0.0004    0.0611   -0.0007    0.0426   -0.1490
          29   -0.0588    0.0115    0.0617   -0.0003    0.0145    0.0001   -0.3394   -0.1378
          30   -0.0133    0.0187    0.1252    0.0005    0.5405   -0.0040    0.0123    0.0353
          31    0.3209    0.0403    0.1969   -0.0036   -0.0459   -0.0017    0.3433    0.1900
          32    0.0632    0.0645    0.3451   -0.0037   -0.0555    0.0003   -0.3710   -0.0810
          33    0.0086   -0.0098   -0.0695   -0.0003   -0.2843    0.0022   -0.0030   -0.0142
          34   -0.0027    0.1451   -0.0270    0.3435    0.0006   -0.0681   -0.0006   -0.0052
          35    0.0025    0.2026   -0.0382   -0.2267    0.0013   -0.0976   -0.0030   -0.0140
          36    0.0005   -0.1691    0.0329    0.0115   -0.0013   -0.1134    0.0012   -0.0028
          37   -0.0034   -0.0672    0.0126    0.3767   -0.0063   -0.1402   -0.0003    0.0059
          38    0.0026   -0.1439    0.0256   -0.2372    0.0008   -0.2052   -0.0003   -0.0005
          39    0.0006   -0.2147    0.0416    0.0158   -0.0017   -0.1055    0.0018   -0.0056
          40   -0.0005   -0.0617    0.0113    0.0116   -0.0071   -0.0311   -0.0006    0.0008
          41    0.0005   -0.0940    0.0169   -0.0066    0.0033   -0.0382    0.0002    0.0060
          42    0.0011   -0.0117    0.0043    0.0093    0.0033    0.3213    0.0016   -0.0136
          43    0.0024   -0.1228    0.0219   -0.3611   -0.0036    0.1546    0.0007   -0.0040
          44   -0.0012   -0.1706    0.0323    0.2373    0.0022    0.2242    0.0012    0.0021
          45    0.0006    0.1617   -0.0295   -0.0131    0.0032   -0.0269   -0.0012    0.0029
          46    0.0029    0.0864   -0.0182   -0.3725    0.0026    0.0843   -0.0018    0.0105
          47   -0.0007    0.1669   -0.0303    0.2300    0.0020    0.1214   -0.0026    0.0158
          48    0.0007    0.2364   -0.0438   -0.0182    0.0039   -0.0778   -0.0022    0.0126
          49    0.0010    0.0530   -0.0110    0.0198    0.0042    0.0303   -0.0009    0.0015
          50    0.0003    0.0983   -0.0174   -0.0142   -0.0013    0.0328   -0.0018    0.0020
          51    0.0007    0.0192   -0.0031   -0.0065   -0.0011   -0.2919   -0.0005   -0.0148
          52   -0.0067    0.1876   -0.0394   -0.2062   -0.0015   -0.0597    0.0042   -0.0249
          53    0.0030    0.3118   -0.0526    0.1109    0.0021   -0.1056   -0.0034   -0.0385
          54   -0.0032   -0.1883    0.0390   -0.0032   -0.0028   -0.0439    0.0028    0.0113
          55   -0.0031   -0.1277    0.0172   -0.2230   -0.0053   -0.1988    0.0031   -0.0005
          56    0.0045   -0.1976    0.0423    0.1325   -0.0029   -0.3343    0.0000   -0.0067
          57   -0.0016   -0.2640    0.0480    0.0074   -0.0005   -0.1261    0.0004    0.0016
          58    0.0054   -0.1562    0.0361    0.2289   -0.0036    0.2138   -0.0016   -0.0035
          59   -0.0045   -0.2538    0.0433   -0.1275    0.0019    0.3568    0.0043    0.0010
          60   -0.0020    0.1811   -0.0322   -0.0003    0.0031   -0.0074   -0.0005    0.0012
          61    0.0057    0.1633   -0.0241    0.2011   -0.0004    0.0655   -0.0043    0.0182
          62    0.0007    0.2470   -0.0496   -0.1390    0.0053    0.1066   -0.0028    0.0381
          63   -0.0020    0.2753   -0.0528    0.0082    0.0055   -0.0135   -0.0032    0.0330
          64    0.0011   -0.1019    0.0197   -0.0018   -0.0056   -0.0467    0.0002    0.0018
          65   -0.0012   -0.1653    0.0318    0.0165   -0.0003   -0.0577    0.0021    0.0009
          66    0.0015   -0.0224    0.0073    0.0153    0.0038    0.4754    0.0030   -0.0345


   Root No.      33        34        35        36        37        38        39        40

                33 A      34 A      35 A      36 A      37 A      38 A      39 A      40 A   

                   2.9       3.0       3.1       3.3       3.5       3.5       3.9       4.2
  
           1   -0.0025    0.0265    0.0033    0.1388    0.0672   -0.0075    0.0144   -0.0002
           2    0.0029   -0.0336   -0.0026   -0.1143   -0.0624    0.0058   -0.0010    0.0007
           3   -0.0058   -0.0041   -0.0002    0.2303   -0.5109    0.0306    0.3206    0.0150
           4   -0.0045    0.0676    0.0084    0.4386    0.2450   -0.0286    0.0910   -0.0004
           5   -0.0001    0.0182    0.0017    0.0325    0.0112   -0.0010   -0.0122   -0.0004
           6    0.0020    0.0018    0.0001   -0.0607    0.1396   -0.0077   -0.1018   -0.0045
           7    0.0016   -0.0382   -0.0028   -0.0441    0.0372   -0.0050    0.0793    0.0029
           8    0.0051   -0.0158   -0.0023   -0.0502   -0.0381    0.0018   -0.0097   -0.0006
           9   -0.0104   -0.0173   -0.0000   -0.3310    0.3138   -0.0271    0.6823    0.0306
          10    0.0012   -0.0348   -0.0027   -0.0193    0.0034   -0.0017    0.0078    0.0002
          11   -0.0023    0.0208    0.0063    0.3002    0.1908   -0.0209    0.0565    0.0002
          12    0.0033    0.0033    0.0006    0.0843   -0.0768    0.0057   -0.1519   -0.0071
          13   -0.0055    0.0377    0.0054    0.2640    0.1414   -0.0142    0.0302   -0.0006
          14   -0.0027    0.0430    0.0038    0.0944    0.0457   -0.0038    0.0072   -0.0007
          15    0.0035    0.0030    0.0001    0.0596   -0.1134    0.0088   -0.1586   -0.0063
          16    0.0029   -0.0650   -0.0057   -0.3070   -0.1672    0.0185   -0.0498   -0.0001
          17    0.0012   -0.0055   -0.0007   -0.0430   -0.0109    0.0020   -0.0125   -0.0002
          18   -0.0005    0.0003   -0.0007    0.0724   -0.1319    0.0079    0.0657    0.0031
          19   -0.0009    0.0015   -0.0018   -0.1200   -0.0895    0.0106   -0.0536   -0.0009
          20    0.0017   -0.0264   -0.0034   -0.1850   -0.1034    0.0114   -0.0341    0.0003
          21    0.0036    0.0073    0.0002    0.1221    0.0008    0.0020   -0.4909   -0.0248
          22    0.0002    0.0001   -0.0047   -0.3525   -0.2634    0.0311   -0.1390   -0.0027
          23   -0.0010    0.0252    0.0024    0.0902    0.0371   -0.0031   -0.0099   -0.0008
          24    0.0012   -0.0004   -0.0001   -0.0070   -0.0153   -0.0001    0.0726    0.0042
          25    0.0141   -0.0045    0.0145    0.0000   -0.0006   -0.0104    0.0094    0.0059
          26    0.0136    0.0050    0.0008   -0.0036    0.0016    0.0084    0.0032   -0.0041
          27   -0.0011   -0.0083   -0.0028    0.0103    0.0032   -0.0112   -0.0147   -0.0007
          28    0.0007   -0.0223   -0.0015   -0.0948   -0.0416    0.0042   -0.0082    0.0009
          29    0.0011   -0.0154   -0.0010   -0.0755   -0.0334    0.0045   -0.0157    0.0007
          30    0.0046    0.0029   -0.0001   -0.2883    0.5500   -0.0344   -0.2649   -0.0125
          31   -0.0015    0.0278    0.0030    0.1014    0.0637   -0.0074    0.0106    0.0001
          32    0.0002   -0.0062    0.0003   -0.0282   -0.0308    0.0040   -0.0206   -0.0006
          33   -0.0015   -0.0010   -0.0006    0.0780   -0.1356    0.0084    0.0539    0.0022
          34   -0.3151    0.0861    0.0849   -0.0098    0.0247    0.4429    0.0039    0.0661
          35    0.1798    0.2080    0.0861   -0.0342   -0.0359   -0.2753   -0.0012    0.0774
          36    0.0245   -0.0140    0.3403    0.0038   -0.0018    0.0037   -0.0109    0.1990
          37   -0.1976   -0.0216   -0.0996   -0.0086   -0.0292   -0.3669   -0.0071   -0.0631
          38    0.0981    0.0060   -0.1911    0.0041    0.0190    0.2390    0.0167   -0.0667
          39    0.0149    0.0156    0.2379    0.0027   -0.0037   -0.0162   -0.0043    0.0451
          40    0.5032    0.0313   -0.2336   -0.0002   -0.0034   -0.0480    0.0102    0.0103
          41   -0.3456   -0.0618   -0.2559    0.0055    0.0065    0.0336    0.0012   -0.0026
          42   -0.0100    0.1417   -0.0574   -0.0095   -0.0075    0.0030    0.0013   -0.0301
          43   -0.0918   -0.0152   -0.0403    0.0122    0.0368    0.4227   -0.0028    0.0383
          44    0.0386    0.0027   -0.1363   -0.0033   -0.0195   -0.2623    0.0022    0.0641
          45   -0.0273   -0.0032   -0.2900    0.0035    0.0003    0.0182   -0.0015    0.0722
          46   -0.3380   -0.1347    0.1476    0.0003   -0.0257   -0.3837   -0.0039   -0.0934
          47    0.2611   -0.1468    0.1749    0.0127    0.0207    0.2373    0.0114   -0.1244
          48   -0.0268   -0.1084   -0.2830    0.0133    0.0030   -0.0108   -0.0058    0.1571
          49    0.3513    0.0236    0.1351   -0.0073   -0.0059   -0.0325    0.0077   -0.0599
          50   -0.1791   -0.0381    0.3130   -0.0047   -0.0031    0.0094    0.0013   -0.0585
          51   -0.0016    0.1820    0.0473   -0.0172   -0.0121   -0.0079   -0.0235    0.5141
          52    0.0396    0.2933   -0.0828   -0.0239   -0.0184   -0.1229   -0.0002    0.0059
          53   -0.1082    0.4431   -0.1261   -0.0449   -0.0149    0.0854    0.0055    0.0176
          54    0.0018   -0.2122   -0.1945    0.0382    0.0142    0.0000   -0.0071   -0.0253
          55    0.0748    0.0287    0.0400   -0.0022    0.0072    0.1059    0.0125   -0.1760
          56   -0.0430    0.0287    0.0685   -0.0035   -0.0045   -0.0533    0.0196   -0.3058
          57   -0.0245   -0.0145   -0.2258    0.0052   -0.0012    0.0170    0.0120   -0.3398
          58    0.0371   -0.0077   -0.0082    0.0034   -0.0058   -0.1246   -0.0104    0.2381
          59   -0.0303   -0.0266    0.0198    0.0098    0.0106    0.0628   -0.0136    0.3721
          60    0.0310   -0.0070    0.2401   -0.0041   -0.0059   -0.0003    0.0126   -0.2216
          61    0.1104   -0.2307   -0.0996    0.0279    0.0203    0.1075    0.0006   -0.0029
          62   -0.0356   -0.3980   -0.1432    0.0380    0.0125   -0.0712   -0.0013   -0.0096
          63    0.0576   -0.3514    0.1625    0.0326    0.0127    0.0000   -0.0011   -0.0286
          64   -0.1799   -0.0497    0.1411    0.0031    0.0037    0.0099   -0.0027    0.0315
          65    0.1444   -0.0266    0.1848    0.0031    0.0012   -0.0145    0.0073    0.0419
          66   -0.0383    0.3838    0.0259   -0.0385   -0.0217    0.0103    0.0160   -0.3413


   Root No.      41        42        43        44        45        46        47        48

                41 A      42 A      43 A      44 A      45 A      46 A      47 A      48 A   

                   4.9       5.0       6.0       7.1       7.5       8.3       8.4       9.6
  
           1    0.0342    0.0005    0.0004    0.1048    0.0115    0.5533    0.0227   -0.1470
           2   -0.2184   -0.0038    0.0146    0.3884    0.0269   -0.0718   -0.0173    0.0996
           3    0.0029    0.0032    0.0011   -0.0007   -0.0006    0.0007    0.0007   -0.0038
           4   -0.2362   -0.0032   -0.0021   -0.1306   -0.0119   -0.5053   -0.0216    0.0888
           5    0.0389    0.0004   -0.0029   -0.0759   -0.0053    0.0069    0.0032   -0.0562
           6   -0.0004   -0.0003   -0.0003   -0.0002   -0.0001   -0.0004   -0.0003    0.0008
           7   -0.1821   -0.0009   -0.0071   -0.1290   -0.0035    0.0160   -0.0052    0.1163
           8   -0.2135   -0.0014   -0.0180   -0.3173   -0.0099    0.1044   -0.0048    0.1576
           9    0.0503    0.0062    0.0020    0.0230    0.0016   -0.0032    0.0003   -0.0106
          10   -0.2728   -0.0039   -0.0014   -0.1966   -0.0131    0.0453    0.0036    0.1434
          11    0.2778    0.0040   -0.0039    0.1714    0.0142   -0.0645   -0.0093   -0.0096
          12    0.0128   -0.0003   -0.0023    0.0075    0.0015   -0.0030   -0.0017   -0.0016
          13    0.3603    0.0058   -0.0018    0.2499    0.0188   -0.0682   -0.0092   -0.0819
          14    0.0672    0.0010   -0.0040   -0.1869   -0.0141    0.1078    0.0115    0.0159
          15   -0.0513   -0.0021   -0.0004   -0.0443   -0.0033    0.0135    0.0015    0.0145
          16    0.3134    0.0052   -0.0122   -0.2958   -0.0223   -0.3013   -0.0035   -0.3152
          17    0.0252    0.0008   -0.0025   -0.0660   -0.0048   -0.0650   -0.0013    0.0031
          18   -0.0017    0.0004    0.0003    0.0036    0.0001    0.0023    0.0001    0.0013
          19   -0.0671   -0.0016    0.0039   -0.2108   -0.0241    0.2602    0.0381   -0.4187
          20   -0.3951   -0.0080    0.0241    0.0894   -0.0103   -0.2188    0.0085   -0.1099
          21   -0.0220   -0.0067   -0.0012    0.0051   -0.0003   -0.0051   -0.0014    0.0073
          22    0.2460    0.0034    0.0074    0.3122    0.0223   -0.2782   -0.0283    0.2309
          23    0.0815    0.0016   -0.0024   -0.0103    0.0002    0.0650    0.0033   -0.0285
          24    0.0018    0.0005   -0.0000   -0.0023   -0.0001    0.0024    0.0003   -0.0034
          25    0.0012    0.0007   -0.0031    0.0001    0.0022    0.0008   -0.0015   -0.0021
          26   -0.0000    0.0065    0.0002   -0.0008    0.0002    0.0004   -0.0010   -0.0005
          27   -0.0007   -0.0033   -0.0001   -0.0015   -0.0004    0.0021    0.0002   -0.0004
          28   -0.0273   -0.0008    0.0055    0.1779    0.0150    0.3073    0.0048    0.5581
          29   -0.0589   -0.0014    0.0145    0.3509    0.0219    0.0878    0.0000   -0.3571
          30    0.0021   -0.0031   -0.0011   -0.0066   -0.0005   -0.0033   -0.0005    0.0052
          31   -0.1712   -0.0033    0.0072    0.1162    0.0058   -0.0283   -0.0017   -0.1733
          32    0.4021    0.0071   -0.0203   -0.3368   -0.0182    0.0460    0.0050    0.2825
          33   -0.0033    0.0007    0.0001    0.0040    0.0001   -0.0013   -0.0003   -0.0039
          34   -0.0055   -0.3473   -0.1057   -0.0137    0.1057    0.0074   -0.1707   -0.0013
          35   -0.0173    0.2121   -0.1716   -0.0173    0.1655    0.0118   -0.2712   -0.0039
          36    0.0024   -0.0100   -0.0757    0.0164   -0.0950   -0.0093    0.1858    0.0005
          37   -0.0093    0.3778   -0.1306   -0.0017    0.1317   -0.0061    0.0966   -0.0020
          38   -0.0002   -0.2314   -0.1980   -0.0017    0.2015   -0.0100    0.1709   -0.0029
          39    0.0062    0.0044    0.0803    0.0197   -0.2085   -0.0138    0.3139    0.0086
          40    0.0047   -0.3670   -0.1680    0.0061    0.0418   -0.0066    0.1221    0.0005
          41   -0.0080    0.2314   -0.2782    0.0114    0.0564   -0.0106    0.2011    0.0003
          42   -0.0001   -0.0052   -0.0524    0.0274   -0.4136    0.0017    0.0370    0.0109
          43   -0.0078    0.3788   -0.1086    0.0131   -0.0799   -0.0068    0.1531    0.0059
          44    0.0042   -0.2327   -0.1748    0.0198   -0.1407   -0.0098    0.2347    0.0088
          45   -0.0025    0.0156   -0.1501    0.0184   -0.2733    0.0121   -0.2363   -0.0060
          46    0.0043   -0.3216   -0.1148    0.0075   -0.0827    0.0062   -0.1265   -0.0045
          47   -0.0062    0.1909   -0.1846    0.0125   -0.1414    0.0105   -0.2177   -0.0091
          48    0.0018   -0.0020    0.0141    0.0045   -0.1475    0.0123   -0.2687   -0.0075
          49   -0.0072    0.2475   -0.1275    0.0047   -0.0326    0.0028   -0.0631   -0.0026
          50   -0.0046   -0.1666   -0.2160    0.0064   -0.0364    0.0043   -0.0992   -0.0037
          51   -0.0087    0.0183   -0.0404   -0.0251    0.3381   -0.0013   -0.0241   -0.0003
          52    0.0047    0.0508    0.1887    0.0051   -0.1158   -0.0062    0.1521    0.0050
          53   -0.0049   -0.0262    0.2974   -0.0026   -0.1797   -0.0074    0.2382    0.0164
          54    0.0086    0.0014   -0.1315    0.0039    0.1414    0.0025   -0.1213   -0.0127
          55    0.0045   -0.0656    0.1732   -0.0073   -0.0321    0.0067   -0.1316   -0.0007
          56    0.0063    0.0336    0.2851   -0.0094   -0.0521    0.0115   -0.2192   -0.0015
          57    0.0035   -0.0037    0.2093   -0.0090   -0.0334    0.0092   -0.1787   -0.0004
          58    0.0060   -0.0592    0.2031   -0.0102    0.0307    0.0069   -0.1569   -0.0037
          59    0.0068    0.0457    0.3212   -0.0183    0.0493    0.0113   -0.2480   -0.0068
          60   -0.0017   -0.0073   -0.1021    0.0064   -0.0127   -0.0044    0.0939    0.0026
          61    0.0064    0.0414    0.1557   -0.0049    0.0815   -0.0059    0.1187    0.0034
          62    0.0115   -0.0240    0.2591   -0.0110    0.1394   -0.0097    0.1998    0.0049
          63    0.0093   -0.0002    0.2356   -0.0142    0.1984   -0.0101    0.1989    0.0053
          64    0.0010    0.0626    0.0377    0.0031   -0.0489   -0.0003    0.0083    0.0010
          65    0.0055   -0.0397    0.0612    0.0040   -0.0624   -0.0001    0.0128    0.0008
          66   -0.0092   -0.0065    0.0149   -0.0360    0.5081   -0.0035    0.0008   -0.0064


   Root No.      49        50        51        52        53        54        55        56

                49 A      50 A      51 A      52 A      53 A      54 A      55 A      56 A   

                  10.4      10.8      13.2      14.6      16.2      16.5      17.0      17.9
  
           1   -0.1794   -0.0104    0.0011   -0.0028    0.0066    0.0006    0.4606   -0.3526
           2   -0.0574   -0.0017   -0.0013    0.0056   -0.0103   -0.0024   -0.2878   -0.3192
           3    0.0054    0.0002    0.0008   -0.0005    0.0003    0.0001    0.0059    0.0093
           4    0.0622    0.0033    0.0002    0.0007   -0.0015   -0.0002   -0.0859    0.0586
           5    0.0063    0.0009    0.0005    0.0000   -0.0002    0.0001    0.0009    0.0002
           6   -0.0002   -0.0001    0.0008    0.0001   -0.0002   -0.0002    0.0002   -0.0003
           7   -0.1758   -0.0113    0.0001    0.0022   -0.0048   -0.0012   -0.1389   -0.1532
           8   -0.3002   -0.0174   -0.0005    0.0060   -0.0114   -0.0010   -0.2787   -0.3715
           9    0.0145    0.0014    0.0007   -0.0004    0.0003    0.0005    0.0139    0.0055
          10   -0.2400   -0.0210    0.0044   -0.0102    0.0118    0.0017    0.2558    0.3413
          11    0.0373    0.0041    0.0001    0.0003    0.0008    0.0003    0.0507    0.0316
          12    0.0045    0.0009    0.0005    0.0011   -0.0018   -0.0005   -0.0316   -0.0387
          13    0.1511    0.0143   -0.0026    0.0061   -0.0062   -0.0008   -0.0942   -0.1963
          14   -0.1088   -0.0115    0.0036   -0.0082    0.0096    0.0007    0.1463    0.3903
          15   -0.0283   -0.0027    0.0009   -0.0010    0.0004   -0.0000    0.0039    0.0234
          16   -0.1363   -0.0052    0.0008   -0.0005    0.0005    0.0002    0.0444   -0.0460
          17    0.0155    0.0009    0.0004   -0.0000   -0.0001    0.0000   -0.0013   -0.0029
          18    0.0016   -0.0001    0.0002   -0.0001    0.0001   -0.0001    0.0013    0.0019
          19    0.4779    0.0338   -0.0036    0.0074   -0.0101   -0.0019   -0.3954    0.0553
          20    0.4909    0.0292   -0.0001   -0.0025    0.0096    0.0019    0.5205   -0.1271
          21   -0.0075   -0.0013    0.0003    0.0007   -0.0006   -0.0009   -0.0028   -0.0027
          22   -0.1788   -0.0128    0.0018   -0.0027    0.0030    0.0004    0.1026    0.0078
          23   -0.0038    0.0002    0.0002    0.0002   -0.0003   -0.0001   -0.0065    0.0014
          24    0.0031    0.0002    0.0002   -0.0002   -0.0000    0.0001   -0.0009    0.0004
          25    0.0039   -0.0000   -0.0008   -0.0041    0.0027    0.0067    0.0003    0.0011
          26    0.0011    0.0000   -0.0002    0.0009    0.0004    0.0003   -0.0014    0.0000
          27   -0.0008   -0.0005    0.0001   -0.0011   -0.0007    0.0011   -0.0018   -0.0011
          28    0.3262    0.0133    0.0002   -0.0000   -0.0008    0.0003   -0.1476    0.2680
          29   -0.2592   -0.0108    0.0011   -0.0013    0.0003    0.0007   -0.1888    0.4494
          30    0.0031   -0.0002    0.0003    0.0002   -0.0003   -0.0003    0.0026   -0.0071
          31   -0.1090   -0.0044    0.0006   -0.0002   -0.0002    0.0001   -0.0035    0.0158
          32    0.1843    0.0072    0.0005   -0.0003    0.0007    0.0002    0.0512   -0.0460
          33   -0.0038   -0.0003    0.0004    0.0001   -0.0002   -0.0002   -0.0018   -0.0004
          34   -0.0063    0.1307   -0.0045    0.2502   -0.1644   -0.1381    0.0082    0.0058
          35   -0.0084    0.2042    0.0142    0.3970   -0.2601   -0.2317    0.0158    0.0106
          36    0.0102   -0.1699    0.4457   -0.1370    0.1529   -0.2698   -0.0056   -0.0036
          37    0.0109   -0.1601    0.1429    0.1203   -0.1086    0.2341    0.0023    0.0016
          38    0.0169   -0.2707    0.2073    0.2061   -0.1857    0.3753    0.0054    0.0033
          39    0.0041   -0.3030   -0.3716    0.2732   -0.2986   -0.0469    0.0073    0.0026
          40    0.0021   -0.0428   -0.1564   -0.0282    0.2452   -0.0829   -0.0048   -0.0023
          41    0.0037   -0.0582   -0.2600   -0.0345    0.4008   -0.1211   -0.0075   -0.0031
          42   -0.0312    0.3731   -0.0570    0.3273    0.1439    0.4579   -0.0001    0.0012
          43   -0.0164    0.2138    0.0272   -0.1684   -0.2143   -0.1557    0.0045    0.0015
          44   -0.0242    0.3403    0.0696   -0.2635   -0.3399   -0.2558    0.0056    0.0023
          45    0.0139   -0.1591    0.4450    0.1653    0.1783   -0.2357   -0.0044   -0.0033
          46    0.0083   -0.0832    0.0855   -0.2098   -0.0685    0.2067   -0.0018   -0.0021
          47    0.0183   -0.1509    0.1089   -0.3465   -0.1213    0.3250   -0.0018   -0.0019
          48    0.0199   -0.2727   -0.4126   -0.2443   -0.2955   -0.0937    0.0069    0.0041
          49    0.0046   -0.0398   -0.1625    0.0368    0.2112   -0.0674   -0.0031   -0.0009
          50    0.0055   -0.0487   -0.2632    0.0350    0.3505   -0.0838   -0.0063   -0.0025
          51   -0.0144    0.3174   -0.0705   -0.3002    0.1122    0.2997   -0.0055   -0.0039
          52   -0.0008   -0.0672    0.0331   -0.0706    0.0289    0.0178   -0.0050   -0.0034
          53   -0.0163   -0.1059    0.0570   -0.1107    0.0430    0.0292   -0.0164   -0.0166
          54    0.0137    0.0687   -0.0124    0.0567   -0.0405    0.0138    0.0149    0.0145
          55   -0.0034    0.0900    0.0020   -0.0460    0.0243   -0.0360   -0.0015   -0.0004
          56   -0.0068    0.1506    0.0059   -0.0767    0.0411   -0.0582    0.0001    0.0002
          57   -0.0072    0.1403   -0.0028   -0.0758    0.0616   -0.0240   -0.0021   -0.0014
          58    0.0077   -0.1115    0.0130    0.0567    0.0452    0.0259    0.0008    0.0000
          59    0.0153   -0.1754    0.0226    0.0897    0.0709    0.0420   -0.0013   -0.0000
          60   -0.0063    0.0835   -0.0022   -0.0456   -0.0455    0.0108    0.0009    0.0005
          61   -0.0066    0.0533    0.0317    0.0525    0.0126   -0.0227    0.0011    0.0002
          62   -0.0087    0.0916    0.0529    0.0896    0.0232   -0.0381   -0.0000    0.0002
          63   -0.0103    0.1066    0.0320    0.0896    0.0543   -0.0122   -0.0007   -0.0002
          64   -0.0023    0.0170   -0.0142    0.0106   -0.0125    0.0124    0.0009    0.0004
          65   -0.0016    0.0220   -0.0194    0.0138   -0.0215    0.0163    0.0012    0.0012
          66    0.0160   -0.1823    0.0013   -0.1083   -0.0203   -0.0995   -0.0004   -0.0006


   Root No.      57        58        59        60

                57 A      58 A      59 A      60 A   

                  19.6      20.9      21.2      23.5
  
           1    0.0007    0.0000    0.0436    0.0340
           2    0.0075   -0.0034    0.6229    0.0275
           3   -0.0004    0.0000   -0.0060   -0.0001
           4   -0.0000   -0.0001   -0.0082   -0.0042
           5   -0.0000   -0.0002   -0.0037    0.0020
           6    0.0000   -0.0000    0.0002    0.0000
           7    0.0005    0.0011   -0.1944    0.7052
           8   -0.0011    0.0005   -0.3550   -0.3495
           9   -0.0007    0.0000    0.0101   -0.0644
          10    0.0001   -0.0008    0.2813   -0.4520
          11   -0.0003   -0.0003    0.0220   -0.0069
          12    0.0003    0.0001   -0.0279    0.0291
          13   -0.0006    0.0004   -0.1331   -0.2130
          14    0.0014   -0.0006    0.2826    0.3443
          15    0.0002   -0.0000    0.0169    0.0315
          16    0.0002   -0.0002    0.0285    0.0032
          17    0.0001   -0.0000    0.0061   -0.0010
          18   -0.0002   -0.0001   -0.0008    0.0000
          19    0.0026   -0.0010    0.1962   -0.0506
          20   -0.0033    0.0015   -0.2267    0.0246
          21    0.0009   -0.0003   -0.0045    0.0024
          22   -0.0003    0.0002   -0.0098   -0.0063
          23    0.0002   -0.0000    0.0093   -0.0163
          24   -0.0003   -0.0000    0.0035   -0.0015
          25   -0.0055   -0.0012    0.0025   -0.0006
          26   -0.0005   -0.0006    0.0005   -0.0006
          27   -0.0013   -0.0005   -0.0015   -0.0004
          28   -0.0022    0.0007   -0.1890   -0.0164
          29   -0.0043    0.0016   -0.3744   -0.0249
          30    0.0002   -0.0003    0.0057    0.0002
          31   -0.0001   -0.0001   -0.0170    0.0006
          32    0.0002   -0.0002    0.0194    0.0019
          33   -0.0001   -0.0001    0.0005    0.0000
          34    0.0449   -0.1481   -0.0002   -0.0002
          35    0.0898   -0.2457    0.0002    0.0006
          36    0.4797   -0.1565   -0.0065   -0.0009
          37    0.0980    0.1561    0.0003   -0.0004
          38    0.1423    0.2484    0.0010    0.0003
          39   -0.4117   -0.1155    0.0027    0.0005
          40   -0.0052   -0.2473   -0.0014    0.0000
          41   -0.0033   -0.4023   -0.0019    0.0001
          42    0.2596   -0.0611   -0.0018    0.0000
          43   -0.0354    0.1255    0.0007    0.0005
          44   -0.0721    0.2065    0.0016   -0.0003
          45   -0.4588    0.1580    0.0042    0.0004
          46   -0.1185   -0.1887   -0.0003    0.0009
          47   -0.1712   -0.2969    0.0005    0.0004
          48    0.4144    0.1086   -0.0033   -0.0006
          49    0.0174    0.3075    0.0015   -0.0006
          50    0.0091    0.4982    0.0016   -0.0003
          51   -0.2435    0.0715    0.0032    0.0012
          52    0.0038    0.0035   -0.0011   -0.0014
          53    0.0061    0.0042   -0.0073   -0.0015
          54   -0.0103   -0.0063    0.0063    0.0024
          55    0.0008   -0.0051   -0.0002   -0.0008
          56    0.0021   -0.0084    0.0002    0.0005
          57    0.0074   -0.0036   -0.0006    0.0000
          58   -0.0014   -0.0050    0.0000    0.0010
          59   -0.0019   -0.0079    0.0004   -0.0004
          60    0.0054    0.0004   -0.0001    0.0000
          61   -0.0023    0.0006   -0.0001    0.0008
          62   -0.0042    0.0026    0.0002   -0.0004
          63   -0.0121    0.0065    0.0001    0.0000
          64    0.0024    0.0021    0.0000    0.0002
          65    0.0034    0.0031    0.0005   -0.0001
          66   -0.0287   -0.0008   -0.0003   -0.0001


          FORCE CONSTANTS IN MILLIDYNES/ANGSTROM (= 10**5 DYNES/CM)

  -0.33597  -0.19180  -0.05192  -0.02787  -0.02107  -0.00964   0.00160   0.00908
   0.02281   0.03485   0.04412   0.13730   0.14495   0.20383   0.24501   0.42786
   0.47636   0.82855   0.84269   0.86306   0.95749   0.98680   0.99872   1.10245
   1.17165   1.45867   1.47591   1.51967   1.58394   1.74348   1.89664   2.77546
   2.89508   2.96781   3.09067   3.29457   3.47315   3.54858   3.89428   4.18178
   4.86263   5.03812   6.04036   7.08382   7.50425   8.31448   8.43068   9.61731
  10.40200  10.79739  13.19797  14.57013  16.23850  16.47233  16.97626  17.92742
  19.60725  20.92352  21.18317  23.54568


           ASSOCIATED EIGENVECTORS




    ROOT NO.    1           2           3           4           5           6

            -0.33597    -0.19180    -0.05192    -0.02787    -0.02107    -0.00964
  
         1   0.00663    -0.02286     0.02990     0.04299    -0.01460    -0.05827
         2  -0.00191     0.01016     0.02821    -0.05743    -0.01687    -0.10558
         3  -0.00099     0.06310    -0.06042    -0.18860     0.16826    -0.17841
         4   0.00623    -0.02273     0.02879     0.04128    -0.01555    -0.05786
         5  -0.00023     0.00882     0.03867    -0.03788     0.03059    -0.13919
         6  -0.00119     0.08568     0.03909    -0.31935     0.20188    -0.26027
         7  -0.00157    -0.01982    -0.00464    -0.02554    -0.12575     0.02502
         8   0.00165     0.00467     0.03183    -0.06283    -0.00955    -0.10626
         9   0.00395    -0.00049    -0.21154     0.22699     0.01762    -0.03587
        10  -0.00203     0.03639    -0.00848    -0.00841    -0.13744     0.03241
        11   0.01233    -0.01122     0.05990     0.02948     0.04256    -0.14843
        12   0.01350     0.72846    -0.23689     0.42841    -0.05366     0.02370
        13  -0.01283    -0.07950    -0.03450    -0.07127    -0.19815     0.07100
        14  -0.00468     0.03640     0.00388    -0.08869    -0.04989    -0.07789
        15   0.01331    -0.62059    -0.12748     0.35569    -0.08333    -0.01743
        16   0.00510    -0.03095     0.03918     0.04802     0.03269    -0.09259
        17  -0.00181     0.01921     0.01530    -0.05634    -0.08493    -0.05281
        18  -0.00803     0.00425    -0.06002    -0.02917     0.06200    -0.02777
        19   0.00472    -0.01633     0.01826     0.01787    -0.07489    -0.01442
        20  -0.00180     0.01647     0.01601    -0.06407    -0.05419    -0.07891
        21  -0.00312    -0.05300    -0.30324     0.08642     0.11275    -0.07362
        22   0.01053    -0.02039     0.01931     0.01458    -0.07476    -0.01191
        23  -0.00865     0.01655     0.00267    -0.09538    -0.09664    -0.04515
        24  -0.00091    -0.19156    -0.27329     0.07256     0.10298    -0.05088
        25   0.77447    -0.01872    -0.33032    -0.18149     0.16254     0.08726
        26  -0.21011     0.00272    -0.20136    -0.18936    -0.09833     0.32396
        27   0.37327     0.03240     0.66236     0.21580    -0.15478     0.08743
        28   0.00512    -0.02967     0.03897     0.04887     0.03011    -0.09085
        29  -0.00021     0.01562     0.02152    -0.05827    -0.04487    -0.08536
        30   0.00016     0.03405     0.01143    -0.18010     0.12199    -0.12290
        31   0.00504    -0.03286     0.04356     0.04904     0.06463    -0.11720
        32  -0.00089     0.01289     0.02716    -0.05964    -0.02580    -0.09992
        33   0.00055     0.02940     0.14246    -0.30536     0.13063    -0.16513
        34  -0.13307     0.00953     0.07444     0.09889     0.21071    -0.03966
        35   0.04754    -0.00244    -0.01834     0.00203     0.00600     0.17683
        36  -0.05652    -0.01325     0.06860    -0.04422     0.06723     0.19792
        37  -0.01448     0.03151     0.04427     0.05689     0.06437    -0.04051
        38  -0.00535    -0.01539    -0.03812     0.04182    -0.05601     0.02149
        39  -0.05183    -0.01165     0.06333    -0.04332     0.04724     0.17966
        40  -0.00113     0.04390     0.00389    -0.02275    -0.08538     0.01873
        41  -0.00484    -0.02224    -0.02908     0.09652    -0.02234    -0.07721
        42  -0.03008    -0.00940     0.03159    -0.03296    -0.07473     0.05879
        43  -0.04598     0.03103    -0.03731    -0.08107    -0.09580     0.08081
        44   0.00945    -0.01729     0.01894     0.12106     0.08442    -0.01418
        45  -0.01738    -0.00694     0.00724    -0.02286    -0.17797    -0.04206
        46  -0.20057     0.01553    -0.02644    -0.05564     0.02222     0.09320
        47   0.06527    -0.00913     0.05421     0.09422     0.16387     0.13199
        48  -0.02377    -0.00712     0.01059    -0.02529    -0.15593    -0.02251
        49  -0.29497     0.00436     0.05421     0.05575     0.19618     0.02915
        50   0.12560    -0.00289     0.01615     0.01783     0.10776     0.22549
        51  -0.05404    -0.00896     0.04586    -0.03178    -0.03307     0.09622
        52  -0.08370    -0.01175     0.10920     0.15736     0.33927    -0.09627
        53   0.01879     0.01014    -0.02922    -0.04020    -0.02404     0.25867
        54  -0.05628    -0.02364     0.08766    -0.05875     0.16351     0.28431
        55   0.03964     0.03628     0.05224     0.08555     0.06520    -0.08743
        56  -0.03130    -0.01940    -0.05956     0.03012    -0.12758    -0.02343
        57  -0.05005    -0.01066     0.08248    -0.04910     0.12805     0.26234
        58   0.01031     0.03380    -0.06276    -0.13341    -0.18891     0.11225
        59  -0.02045    -0.01828     0.02491     0.15799     0.10178    -0.07630
        60   0.00462    -0.00524    -0.01671    -0.01478    -0.27250    -0.13904
        61  -0.12076     0.00703    -0.05728    -0.10140     0.00252     0.14218
        62   0.02871    -0.00559     0.07120     0.10263     0.24890     0.18046
        63  -0.03159    -0.00585     0.00843    -0.00838    -0.22793    -0.09922
        64   0.04328     0.05621     0.00550    -0.03611    -0.17921     0.01495
        65  -0.01709    -0.02978    -0.05488     0.11639    -0.07487    -0.18828
        66  -0.02360    -0.00899     0.02850    -0.03185    -0.09023     0.04475




    ROOT NO.    7           8           9          10          11          12

             0.00160     0.00908     0.02281     0.03485     0.04412     0.13730
  
         1  -0.06497     0.06281     0.05314     0.06194     0.01888     0.10159
         2   0.04923     0.01272     0.03230     0.00363    -0.00646    -0.05074
         3  -0.16119    -0.09402    -0.07578    -0.07327     0.11299     0.01770
         4  -0.06494     0.06099     0.05313     0.05908     0.01943     0.09733
         5   0.04684     0.08388     0.03123     0.02710     0.01343    -0.13683
         6  -0.26251    -0.06577    -0.42204    -0.24662     0.10213     0.03989
         7  -0.05244    -0.10554     0.05991    -0.05937     0.00743     0.00482
         8   0.05590     0.01949     0.03518     0.01424    -0.00425     0.01825
         9  -0.09456    -0.09091    -0.06859    -0.00555     0.02576    -0.00510
        10  -0.05345    -0.11311     0.05278    -0.05519    -0.00628    -0.00543
        11   0.02050     0.11237    -0.00681     0.14118    -0.04360     0.23475
        12  -0.06867    -0.10568    -0.14079     0.09268    -0.12747    -0.03925
        13  -0.05781    -0.21269     0.05550    -0.15160    -0.00861    -0.18235
        14   0.05457    -0.04331     0.04999    -0.05183     0.01116    -0.08353
        15  -0.19059    -0.16486    -0.32784     0.16581    -0.31379    -0.02916
        16  -0.06134     0.13292     0.05873     0.06625     0.05196    -0.05553
        17   0.04867    -0.08273     0.04477     0.01926    -0.05823     0.20134
        18   0.01553    -0.21062     0.56402     0.46178    -0.09936    -0.02600
        19  -0.06207    -0.02525     0.05047     0.01771     0.00370     0.12963
        20   0.04821    -0.03878     0.02856    -0.02030    -0.01584    -0.03564
        21  -0.06199    -0.05437     0.11993    -0.14016     0.29032     0.01916
        22  -0.05903    -0.02932     0.05163     0.01224     0.01199     0.11921
        23   0.05018    -0.10425     0.03049    -0.07463    -0.01924    -0.09138
        24  -0.01508    -0.04084     0.29045    -0.20980     0.48968     0.05665
        25   0.30911     0.07807    -0.13820     0.09975    -0.07311    -0.00983
        26  -0.19017     0.29984    -0.28355     0.55131     0.39586    -0.08145
        27  -0.01902    -0.22726    -0.09724     0.12890     0.43674     0.00295
        28  -0.06338     0.12946     0.05470     0.06711     0.04754    -0.03625
        29   0.04749    -0.02775     0.03222     0.00382    -0.02693     0.02321
        30  -0.10323    -0.15063     0.13010     0.19666    -0.08449    -0.01027
        31  -0.06197     0.17872     0.05146     0.05538     0.07876    -0.20077
        32   0.04848    -0.00012     0.02979    -0.00066    -0.01200    -0.05773
        33  -0.16503    -0.16179    -0.06568     0.23340    -0.25876    -0.02117
        34   0.12902     0.01189    -0.05743     0.01209     0.00054    -0.08341
        35  -0.09770    -0.06801     0.01979    -0.08079    -0.03601     0.06434
        36   0.09497     0.08222     0.01968    -0.06315    -0.06045     0.00266
        37  -0.05819     0.12537    -0.00274    -0.01460    -0.03688     0.10523
        38   0.03247    -0.08443    -0.03073    -0.05071     0.00055    -0.05896
        39   0.09039     0.09045     0.01988    -0.06293    -0.06091     0.00890
        40  -0.15022     0.07276     0.02662    -0.06848    -0.06141    -0.01032
        41   0.09459    -0.03011    -0.05534    -0.01203     0.01994     0.01047
        42   0.10079     0.13341     0.00755    -0.05352    -0.05241    -0.00205
        43  -0.00760    -0.08508    -0.03872    -0.02998    -0.01000    -0.08735
        44  -0.00027     0.03581    -0.00434    -0.04457    -0.02229     0.06169
        45   0.11229     0.16609    -0.00444    -0.04425    -0.04169    -0.00931
        46   0.16354    -0.16988    -0.09790     0.01267     0.02326     0.10969
        47  -0.12247     0.03430     0.05098    -0.08790    -0.05762    -0.05730
        48   0.11391     0.15690    -0.00450    -0.04332    -0.04187    -0.00211
        49   0.21810    -0.13632    -0.08419    -0.00277     0.01074     0.01347
        50  -0.16063    -0.00845     0.04641    -0.07972    -0.05137     0.00910
        51   0.10396     0.11067     0.00831    -0.05363    -0.04843     0.00224
        52   0.21284     0.04577    -0.08104     0.04520     0.01993    -0.35348
        53  -0.15049    -0.10632     0.03919    -0.10621    -0.05426     0.23410
        54   0.09448     0.05307     0.02940    -0.07466    -0.07424    -0.00623
        55  -0.12857     0.24669     0.01878     0.00074    -0.04968     0.34446
        56   0.08439    -0.13712    -0.05261    -0.05393     0.01578    -0.21522
        57   0.07979     0.06642     0.03055    -0.07110    -0.07047     0.02331
        58  -0.03413    -0.14244    -0.03568    -0.04442     0.00007    -0.31460
        59   0.01851     0.08446    -0.01047    -0.03160    -0.02445     0.20113
        60   0.11716     0.19603    -0.01394    -0.03445    -0.03181    -0.02124
        61   0.25361    -0.27265    -0.14579     0.05025     0.06544     0.36152
        62  -0.18413     0.08573     0.08282    -0.10351    -0.08728    -0.21389
        63   0.11899     0.17094    -0.00686    -0.04862    -0.03859     0.00238
        64  -0.30610     0.14683     0.09484    -0.13401    -0.11369    -0.04763
        65   0.20582    -0.03719    -0.10987     0.03785     0.06310     0.02430
        66   0.09961     0.14056     0.00781    -0.05421    -0.05289    -0.00395




    ROOT NO.   13          14          15          16          17          18

             0.14495     0.20383     0.24501     0.42786     0.47636     0.82855
  
         1   0.16774    -0.00709     0.00168     0.18205    -0.00623     0.00046
         2  -0.08294     0.00482    -0.00302     0.07211    -0.00418     0.00023
         3   0.02180     0.00189    -0.18330    -0.00730    -0.00031     0.03830
         4   0.16090    -0.00696     0.00129     0.17736    -0.00627     0.00074
         5  -0.22666     0.01119    -0.00487     0.33121    -0.02189    -0.00811
         6   0.05375    -0.00152    -0.37876    -0.01338     0.00173    -0.05019
         7   0.01848    -0.01020     0.00822    -0.11901     0.00967    -0.00243
         8   0.03733     0.00310     0.00935    -0.14840     0.01140    -0.00243
         9  -0.00831     0.00226    -0.01123     0.00898    -0.00070     0.03600
[...]
 FREQUENCY           935.99         C 14 -- H 22         +24.7% ( 55.8%)      0.0%
 TRANSITION DIPOLE   0.8305         C 12 -- H 18         +24.4% ( 55.4%)      0.0%
 TRAVEL (Ang.)       0.3771         C 16 -- H 21         +17.1% ( 46.4%)      0.0%
 REDUCED MASS        0.5067         C 15 -- H 20          +6.8% ( 29.3%)      0.0%
 EFFECTIVE MASS      3.9373
 FORCE CONSTANT      0.2615

 VIBRATION         27   27A           ATOM PAIR      ENERGY CONTRIBUTION    RADIAL
 FREQUENCY           968.23         C 16 -- N 17         +11.6% ( 55.5%)      1.9%
 TRANSITION DIPOLE   1.3030         C 12 -- N 17         +11.4% ( 55.0%)      1.0%
 TRAVEL (Ang.)       0.2486         C 14 -- C 15         +10.5% ( 52.6%)      0.0%
 REDUCED MASS        1.1273         C 13 -- C 14         +10.4% ( 52.6%)      0.3%
 EFFECTIVE MASS     11.2070         C 15 -- C 16         +10.1% ( 51.8%)      0.0%
 FORCE CONSTANT      0.6227

 VIBRATION         28   28A           ATOM PAIR      ENERGY CONTRIBUTION    RADIAL
 FREQUENCY           970.36         C  1 -- H  2         +39.2% ( 75.3%)      0.0%
 TRANSITION DIPOLE   0.3483         H  6 -- C 10          +8.1% ( 34.3%)      1.0%
 TRAVEL (Ang.)       0.3650         C 16 -- N 17          +5.8% ( 29.0%)      1.8%
 REDUCED MASS        0.5215         C 12 -- N 17          +5.7% ( 28.6%)      1.1%
 EFFECTIVE MASS      4.6915
 FORCE CONSTANT      0.2893

 VIBRATION         29   29A           ATOM PAIR      ENERGY CONTRIBUTION    RADIAL
 FREQUENCY           985.03         C 10 -- H 11         +22.3% ( 66.8%)     18.7%
 TRANSITION DIPOLE   0.9514         H  6 -- C 10         +20.8% ( 64.5%)      6.9%
 TRAVEL (Ang.)       0.3851         N  3 -- C  7         +10.3% ( 45.5%)     74.6%
 REDUCED MASS        0.4615         C  1 -- H  2          +7.2% ( 37.9%)      0.0%
 EFFECTIVE MASS      6.1863
 FORCE CONSTANT      0.2638

 VIBRATION         30   30A           ATOM PAIR      ENERGY CONTRIBUTION    RADIAL
 FREQUENCY           996.15         C 12 -- H 18         +18.0% ( 47.5%)      0.0%
 TRANSITION DIPOLE   0.3650         C 15 -- H 20         +17.3% ( 46.4%)      0.0%
 TRAVEL (Ang.)       0.3657         C 13 -- H 19         +16.9% ( 45.9%)      0.0%
 REDUCED MASS        0.5062         C 16 -- H 21          +9.0% ( 33.4%)      0.0%
 EFFECTIVE MASS      4.3093
 FORCE CONSTANT      0.2960

 VIBRATION         31   31A           ATOM PAIR      ENERGY CONTRIBUTION    RADIAL
 FREQUENCY          1038.18         C 14 -- H 22         +31.8% ( 61.0%)      0.0%
 TRANSITION DIPOLE   0.3536         C 15 -- H 20         +16.5% ( 43.9%)      0.0%
 TRAVEL (Ang.)       0.2813         C 13 -- H 19         +14.7% ( 41.4%)      0.0%
 REDUCED MASS        0.8206         C 14 -- C 15         +11.3% ( 36.4%)      0.0%
 EFFECTIVE MASS      4.8250         C 13 -- C 14         +10.9% ( 35.7%)      0.0%
 FORCE CONSTANT      0.5211

 VIBRATION         32   32A           ATOM PAIR      ENERGY CONTRIBUTION    RADIAL
 FREQUENCY          1042.09         C 10 -- H 11         +39.7% ( 64.3%)      0.1%
 TRANSITION DIPOLE   1.1764         H  6 -- C 10         +33.6% ( 59.2%)      0.0%
 TRAVEL (Ang.)       0.2604         C  1 -- C 10         +11.4% ( 34.5%)      0.0%
 REDUCED MASS        0.9540         C  1 -- H  2          +8.1% ( 29.1%)      0.1%
 EFFECTIVE MASS      3.5535
 FORCE CONSTANT      0.6104

 VIBRATION         33   33A           ATOM PAIR      ENERGY CONTRIBUTION    RADIAL
 FREQUENCY          1111.30         N  3 -- C  7         +24.6% ( 71.8%)     98.6%
 TRANSITION DIPOLE   2.3417         C  1 -- C  7         +16.3% ( 58.5%)      1.0%
 TRAVEL (Ang.)       0.1674         C  7 -- H  8         +15.0% ( 56.1%)     57.4%
 REDUCED MASS        2.1665         O  4 -- O  5         +10.1% ( 46.0%)     98.0%
 EFFECTIVE MASS     10.6537
 FORCE CONSTANT      1.5764

 VIBRATION         34   34A           ATOM PAIR      ENERGY CONTRIBUTION    RADIAL
 FREQUENCY          1148.92         C 16 -- H 21         +18.7% ( 54.8%)      3.6%
 TRANSITION DIPOLE   0.8259         C 13 -- H 19         +14.4% ( 48.1%)      5.8%
 TRAVEL (Ang.)       0.4989         C 12 -- H 18         +12.7% ( 45.1%)      8.7%
 REDUCED MASS        0.2358         C 15 -- H 20         +10.3% ( 40.6%)     12.8%
 EFFECTIVE MASS      4.3881
 FORCE CONSTANT      0.1834

 VIBRATION         35   35A           ATOM PAIR      ENERGY CONTRIBUTION    RADIAL
 FREQUENCY          1149.94         C 15 -- H 20         +25.4% ( 62.1%)      4.9%
 TRANSITION DIPOLE   0.6130         C 13 -- H 19         +17.2% ( 51.2%)     12.8%
 TRAVEL (Ang.)       0.4486         C 12 -- H 18         +10.6% ( 40.1%)     15.6%
 REDUCED MASS        0.2914         C 13 -- C 14          +8.3% ( 35.5%)     95.5%
 EFFECTIVE MASS      4.1847
 FORCE CONSTANT      0.2270

 VIBRATION         36   36A           ATOM PAIR      ENERGY CONTRIBUTION    RADIAL
 FREQUENCY          1205.17         C 14 -- H 22         +40.6% ( 80.5%)      0.1%
 TRANSITION DIPOLE   0.0957         C 12 -- C 13         +10.4% ( 40.8%)     99.9%
 TRAVEL (Ang.)       0.3293         C 15 -- H 20          +9.4% ( 38.8%)      1.2%
 REDUCED MASS        0.5158         C 15 -- C 16          +8.5% ( 36.9%)     98.5%
 EFFECTIVE MASS      3.6828
 FORCE CONSTANT      0.4414

 VIBRATION         37   37A           ATOM PAIR      ENERGY CONTRIBUTION    RADIAL
 FREQUENCY          1218.43         C 15 -- C 16         +12.3% ( 47.2%)     98.5%
 TRANSITION DIPOLE   0.9663         C 14 -- C 15         +12.1% ( 46.8%)     99.3%
 TRAVEL (Ang.)       0.2717         C 13 -- C 14         +11.9% ( 46.4%)    100.0%
 REDUCED MASS        0.7495         C 12 -- C 13          +9.7% ( 41.9%)     97.7%
 EFFECTIVE MASS      8.4848
 FORCE CONSTANT      0.6556

 VIBRATION         38   38A           ATOM PAIR      ENERGY CONTRIBUTION    RADIAL
 FREQUENCY          1245.89         C 12 -- H 18         +17.4% ( 52.7%)     34.6%
 TRANSITION DIPOLE   0.4401         C 16 -- H 21         +17.0% ( 52.1%)     33.4%
 TRAVEL (Ang.)       0.3124         C 12 -- C 13         +10.0% ( 40.0%)     65.0%
 REDUCED MASS        0.5545         C 15 -- C 16          +9.8% ( 39.5%)     69.9%
 EFFECTIVE MASS      6.1440
 FORCE CONSTANT      0.5071

 VIBRATION         39   39A           ATOM PAIR      ENERGY CONTRIBUTION    RADIAL
 FREQUENCY          1299.95         C 12 -- H 18         +19.1% ( 52.8%)      1.6%
 TRANSITION DIPOLE   0.9652         C 16 -- H 21         +17.9% ( 51.3%)      0.7%
 TRAVEL (Ang.)       0.3641         C 13 -- H 19         +10.3% ( 38.9%)      2.6%
 REDUCED MASS        0.3913         C 15 -- H 20         +10.0% ( 38.2%)      2.4%
 EFFECTIVE MASS      3.6607
 FORCE CONSTANT      0.3896

 VIBRATION         40   40A           ATOM PAIR      ENERGY CONTRIBUTION    RADIAL
 FREQUENCY          1304.65         C  7 -- H  8         +71.0% ( 90.2%)      0.3%
 TRANSITION DIPOLE   0.5696         C  1 -- H  2          +5.4% ( 24.8%)     66.2%
 TRAVEL (Ang.)       0.2757         C  1 -- C  7          +4.9% ( 23.7%)      2.9%
 REDUCED MASS        0.6802         N  3 -- C  7          +4.1% ( 21.6%)     94.3%
 EFFECTIVE MASS      2.4955
 FORCE CONSTANT      0.6821

 VIBRATION         41   41A           ATOM PAIR      ENERGY CONTRIBUTION    RADIAL
 FREQUENCY          1326.15         C  1 -- H  2         +74.7% ( 88.5%)      0.3%
 TRANSITION DIPOLE   0.3244         C  7 -- H  8          +5.7% ( 24.4%)     23.5%
 TRAVEL (Ang.)       0.2656         H  6 -- C 10          +5.5% ( 24.0%)     37.8%
 REDUCED MASS        0.7206         C  1 -- C 10          +4.2% ( 21.0%)      7.2%
 EFFECTIVE MASS      1.9476
 FORCE CONSTANT      0.7467

 VIBRATION         42   42A           ATOM PAIR      ENERGY CONTRIBUTION    RADIAL
 FREQUENCY          1368.80         H  6 -- C 10         +30.6% ( 56.5%)      0.0%
 TRANSITION DIPOLE   2.0243         C 10 -- H 11         +23.8% ( 49.8%)      0.6%
 TRAVEL (Ang.)       0.3279         C  1 -- C  7         +14.8% ( 39.3%)     64.4%
 REDUCED MASS        0.4582         N  3 -- C  7          +8.2% ( 29.3%)     53.6%
 EFFECTIVE MASS      3.0999
 FORCE CONSTANT      0.5058

 VIBRATION         43   43A           ATOM PAIR      ENERGY CONTRIBUTION    RADIAL
 FREQUENCY          1389.45         C 12 -- C 13         +13.8% ( 54.2%)     97.4%
 TRANSITION DIPOLE   0.5094         C 15 -- C 16         +13.1% ( 52.8%)     99.3%
 TRAVEL (Ang.)       0.1982         C 13 -- C 14         +11.2% ( 48.9%)     94.3%
 REDUCED MASS        1.2351         C 14 -- C 15         +10.4% ( 46.9%)     93.7%
 EFFECTIVE MASS      8.8767
 FORCE CONSTANT      1.4049

 VIBRATION         44   44A           ATOM PAIR      ENERGY CONTRIBUTION    RADIAL
 FREQUENCY          1434.33         N  3 -- O  5         +26.0% ( 72.1%)     63.9%
 TRANSITION DIPOLE   9.1585         N  3 -- O  4         +23.8% ( 69.0%)     55.2%
 TRAVEL (Ang.)       0.1199         N  3 -- C  7         +16.4% ( 57.4%)     94.1%
 REDUCED MASS        3.2692         O  4 -- O  5         +11.8% ( 48.6%)    100.0%
 EFFECTIVE MASS     13.0293
 FORCE CONSTANT      3.9628

 VIBRATION         45   45A           ATOM PAIR      ENERGY CONTRIBUTION    RADIAL
 FREQUENCY          1499.98         C  1 -- C 10         +20.0% ( 63.4%)     75.3%
 TRANSITION DIPOLE   1.1121         C  1 -- C  7         +18.5% ( 60.9%)     78.3%
 TRAVEL (Ang.)       0.1532         C 10 -- H 11         +10.8% ( 46.6%)      4.9%
 REDUCED MASS        1.9150         H  6 -- C 10          +8.8% ( 42.1%)     18.7%
 EFFECTIVE MASS     11.1752
 FORCE CONSTANT      2.5385

 VIBRATION         46   46A           ATOM PAIR      ENERGY CONTRIBUTION    RADIAL
 FREQUENCY          1500.24         C 14 -- H 22         +11.8% ( 46.0%)      0.1%
 TRANSITION DIPOLE   0.6038         C 12 -- N 17         +11.6% ( 45.5%)     60.1%
 TRAVEL (Ang.)       0.1972         C 14 -- C 15         +11.1% ( 44.6%)     42.0%
 REDUCED MASS        1.1561         C 13 -- C 14         +10.4% ( 43.2%)     25.0%
 EFFECTIVE MASS      9.8871         C 16 -- N 17         +10.2% ( 42.8%)     40.4%
 FORCE CONSTANT      1.5331

 VIBRATION         47   47A           ATOM PAIR      ENERGY CONTRIBUTION    RADIAL
 FREQUENCY          1534.46         C 13 -- C 14         +12.2% ( 47.4%)     81.3%
 TRANSITION DIPOLE   0.4306         C 14 -- C 15         +11.9% ( 46.8%)     65.3%
 TRAVEL (Ang.)       0.1810         C 15 -- C 16         +10.9% ( 44.8%)      0.8%
 REDUCED MASS        1.3420         C 12 -- C 13         +10.7% ( 44.3%)      0.4%
 EFFECTIVE MASS      9.7351         C 16 -- N 17         +10.5% ( 43.8%)     85.5%
 FORCE CONSTANT      1.8617

 VIBRATION         48   48A           ATOM PAIR      ENERGY CONTRIBUTION    RADIAL
 FREQUENCY          1657.89         C 12 -- C 13         +17.7% ( 59.1%)     99.8%
 TRANSITION DIPOLE   2.8407         C 15 -- C 16         +17.3% ( 58.4%)     99.9%
 TRAVEL (Ang.)       0.1298         C 14 -- C 15          +9.9% ( 44.3%)     53.0%
 REDUCED MASS        2.4157         C 12 -- N 17          +9.9% ( 44.3%)     53.9%
 EFFECTIVE MASS     12.0553
 FORCE CONSTANT      3.9121

 VIBRATION         49   49A           ATOM PAIR      ENERGY CONTRIBUTION    RADIAL
 FREQUENCY          1659.99         N  3 -- O  4         +34.9% ( 83.7%)     89.6%
 TRANSITION DIPOLE   9.7041         N  3 -- O  5         +33.0% ( 81.4%)     86.7%
 TRAVEL (Ang.)       0.0804         N  3 -- C  7         +21.7% ( 66.0%)      0.1%
 REDUCED MASS        6.2843         O  4 -- O  5          +5.6% ( 33.6%)      0.5%
 EFFECTIVE MASS     14.1487
 FORCE CONSTANT     10.2028

 VIBRATION         50   50A           ATOM PAIR      ENERGY CONTRIBUTION    RADIAL
 FREQUENCY          1679.63         C 13 -- C 14         +18.4% ( 58.8%)     88.9%
 TRANSITION DIPOLE   1.3225         C 14 -- C 15         +17.2% ( 56.9%)     83.4%
 TRAVEL (Ang.)       0.1240         C 16 -- N 17         +15.0% ( 53.1%)     92.4%
 REDUCED MASS        2.6092         C 12 -- N 17         +13.0% ( 49.4%)     85.7%
 EFFECTIVE MASS     12.4294         C 14 -- H 22         +10.2% ( 43.9%)      0.0%
 FORCE CONSTANT      4.3369

 VIBRATION         51   51A           ATOM PAIR      ENERGY CONTRIBUTION    RADIAL
 FREQUENCY          1690.82         C  1 -- C 10         +32.0% ( 82.6%)     89.6%
 TRANSITION DIPOLE   5.7276         C  1 -- C  7         +26.8% ( 75.6%)     88.4%
 TRAVEL (Ang.)       0.0939         C  1 -- H  2         +17.6% ( 61.3%)      0.1%
 REDUCED MASS        4.5202         H  6 -- C 10          +4.9% ( 32.4%)     14.5%
 EFFECTIVE MASS     12.1216
 FORCE CONSTANT      7.6139

 VIBRATION         52   52A           ATOM PAIR      ENERGY CONTRIBUTION    RADIAL
 FREQUENCY          2687.37         H  6 -- C 10         +44.9% ( 69.1%)     98.6%
 TRANSITION DIPOLE   0.5062         C 10 -- H 11         +41.5% ( 66.3%)     98.5%
 TRAVEL (Ang.)       0.2504         C  1 -- H  2         +11.8% ( 35.4%)    100.0%
 REDUCED MASS        0.4001         C  1 -- C 10          +1.1% ( 10.7%)      2.1%
 EFFECTIVE MASS      1.4685
 FORCE CONSTANT      1.7026

 VIBRATION         53   53A           ATOM PAIR      ENERGY CONTRIBUTION    RADIAL
 FREQUENCY          2705.09         C 16 -- H 21         +92.7% ( 97.2%)    100.0%
 TRANSITION DIPOLE   1.1844         C 12 -- H 18          +3.9% ( 19.8%)    100.0%
 TRAVEL (Ang.)       0.1726         C 15 -- C 16          +1.0% ( 10.2%)     21.1%
 REDUCED MASS        0.8366         C 16 -- N 17          +1.0% ( 10.2%)      9.4%
 EFFECTIVE MASS      1.3789
 FORCE CONSTANT      3.6070

 VIBRATION         54   54A           ATOM PAIR      ENERGY CONTRIBUTION    RADIAL
 FREQUENCY          2712.50         C 12 -- H 18         +81.0% ( 91.0%)    100.0%
 TRANSITION DIPOLE   1.0802         C  7 -- H  8          +5.5% ( 23.6%)    100.0%
 TRAVEL (Ang.)       0.1961         C  1 -- H  2          +3.5% ( 19.0%)    100.0%
 REDUCED MASS        0.6461         C 16 -- H 21          +3.1% ( 17.8%)     99.9%
 EFFECTIVE MASS      1.4088
 FORCE CONSTANT      2.8010

 VIBRATION         55   55A           ATOM PAIR      ENERGY CONTRIBUTION    RADIAL
 FREQUENCY          2717.32         C  1 -- H  2         +49.4% ( 71.2%)    100.0%
 TRANSITION DIPOLE   0.5008         C  7 -- H  8         +29.2% ( 54.8%)     99.9%
 TRAVEL (Ang.)       0.2718         C 12 -- H 18          +9.0% ( 30.4%)    100.0%
 REDUCED MASS        0.3359         H  6 -- C 10          +7.0% ( 26.8%)     99.6%
 EFFECTIVE MASS      1.3788
 FORCE CONSTANT      1.4615

 VIBRATION         56   56A           ATOM PAIR      ENERGY CONTRIBUTION    RADIAL
 FREQUENCY          2730.35         C 14 -- H 22         +81.6% ( 91.4%)    100.0%
 TRANSITION DIPOLE   0.7486         C 15 -- H 20          +9.0% ( 30.4%)     99.8%
 TRAVEL (Ang.)       0.1932         C 13 -- H 19          +7.3% ( 27.3%)     99.7%
 REDUCED MASS        0.6613         C 14 -- C 15          +0.9% (  9.8%)      5.9%
 EFFECTIVE MASS      1.3800
 FORCE CONSTANT      2.9047

 VIBRATION         57   57A           ATOM PAIR      ENERGY CONTRIBUTION    RADIAL
 FREQUENCY          2739.47         C  7 -- H  8         +54.4% ( 73.9%)    100.0%
 TRANSITION DIPOLE   1.1578         C  1 -- H  2         +30.3% ( 55.2%)     99.8%
 TRAVEL (Ang.)       0.2527         C 10 -- H 11         +11.5% ( 34.0%)     99.5%
 REDUCED MASS        0.3854         H  6 -- C 10          +1.6% ( 12.8%)     79.1%
 EFFECTIVE MASS      1.3747
 FORCE CONSTANT      1.7043

 VIBRATION         58   58A           ATOM PAIR      ENERGY CONTRIBUTION    RADIAL
 FREQUENCY          2742.39         C 15 -- H 20         +55.0% ( 74.9%)    100.0%
 TRANSITION DIPOLE   1.5548         C 13 -- H 19         +42.1% ( 65.5%)    100.0%
 TRAVEL (Ang.)       0.2297         C 15 -- C 16          +0.6% (  7.9%)     31.1%
 REDUCED MASS        0.4660         C 14 -- C 15          +0.6% (  7.8%)     22.1%
 EFFECTIVE MASS      1.3734
 FORCE CONSTANT      2.0649

 VIBRATION         59   59A           ATOM PAIR      ENERGY CONTRIBUTION    RADIAL
 FREQUENCY          2752.53         C 13 -- H 19         +44.4% ( 67.2%)    100.0%
 TRANSITION DIPOLE   1.1223         C 15 -- H 20         +31.0% ( 56.1%)    100.0%
 TRAVEL (Ang.)       0.2817         C 14 -- H 22         +14.8% ( 38.8%)    100.0%
 REDUCED MASS        0.3088         C 12 -- H 18          +2.1% ( 14.5%)     99.0%
 EFFECTIVE MASS      1.4464
 FORCE CONSTANT      1.3785

 VIBRATION         60   60A           ATOM PAIR      ENERGY CONTRIBUTION    RADIAL
 FREQUENCY          2753.66         H  6 -- C 10         +43.2% ( 64.8%)     96.0%
 TRANSITION DIPOLE   1.6344         C 10 -- H 11         +40.0% ( 62.4%)     95.4%
 TRAVEL (Ang.)       0.2638         C  7 -- H  8          +8.6% ( 28.9%)     99.8%
 REDUCED MASS        0.3520         C  1 -- H  2          +2.6% ( 15.9%)     98.1%
 EFFECTIVE MASS      1.2893
 FORCE CONSTANT      1.5726

      SYMMETRY NUMBER FOR POINT-GROUP C1  =  1


          SYSTEM IS A GROUND STATE



 Title: ASE calculation


          MOLECULE IS NOT LINEAR

          THERE ARE 60 GENUINE VIBRATIONS IN THIS SYSTEM
          THIS THERMODYNAMICS CALCULATION IS LIMITED TO
          MOLECULES WHICH HAVE NO INTERNAL ROTATIONS




                    CALCULATED THERMODYNAMIC PROPERTIES
                                          *
   TEMP. (K)   PARTITION FUNCTION   H.O.F.    ENTHALPY  HEAT CAPACITY ENTROPY
                                   KCAL/MOL   CAL/MOLE    CAL/K/MOL  CAL/K/MOL


 298.00  VIB.     0.6162D+05                  6620.5818    40.9655    44.1330
         ROT.     0.2189D+07                   888.2803     2.9808    31.9919
         INT.     0.1349D+12                  7508.8622    43.9463    76.1249
         TRA.     0.2090D+28                  1480.4672     4.9680    41.2477
         TOT.                      116.513    8989.3293    48.9144   117.3727

   *: NOTE: HEATS OF FORMATION ARE RELATIVE TO THE
            ELEMENTS IN THEIR STANDARD STATE AT 298K
              (=  Standard Enthalpy of Formation).

            Hvib:  Zero-point energy is not included.
                   frequencies of less than zero cm-1 are not included.
            Hrot = (3/2)RT
            Htra = (3/2)RT + pV = (5/2)RT

            Heat capacity is Cp, not Cv

          For more information, see: HTTP://OpenMOPAC.net/Manual/thermochemistry.html


           FORCE CONSTANT IN CARTESIAN COORDINATES (Millidynes/A)

    ATOM   CHEMICAL       X               Y               Z
   NUMBER   SYMBOL  FORCE CONSTANT  FORCE CONSTANT  FORCE CONSTANT

      1       C        9.306044       13.158514        2.132941
      2       H        4.152667        0.951418        0.394557
      3       N       14.369998       11.912853        2.658879
      4       O       11.433745        1.580432        0.202450
      5       O        4.142625        8.753189        0.235909
      6       H        4.093266        0.809866        0.341961
      7       C        8.764427       10.118903        1.519733
      8       H        4.186530        0.957654        0.267911
      9       H       -0.169920        0.046183       -0.089436
     10       C        7.765253       10.464510        1.948648
     11       H        1.406924        3.498451        0.340682
     12       C        4.675301        8.192869       10.916281
     13       C        4.597559        8.228783       10.494597
     14       C        4.827686        8.877536        9.886889
     15       C        4.489654        7.993525       10.997298
     16       C        4.730802        8.348240       10.374829
     17       N        4.176440        9.161654        7.686165
     18       H        1.278165        2.689920        1.398705
     19       H        1.086143        2.290864        2.084320
     20       H        1.365422        2.841107        1.245284
     21       H        0.970032        2.100851        2.235978
     22       H        0.576299        0.808095        4.101914

 **********************
 *                    *
 * JOB ENDED NORMALLY *
 *                    *
 **********************



 TOTAL JOB TIME:             2.54 SECONDS

 == MOPAC DONE ==
