
                                 *****************
                                 * O   R   C   A *
                                 *****************

                                            #,                                       
                                            ###                                      
                                            ####                                     
                                            #####                                    
                                            ######                                   
                                           ########,                                 
                                     ,,################,,,,,                         
                               ,,#################################,,                 
                          ,,##########################################,,             
                       ,#########################################, ''#####,          
                    ,#############################################,,   '####,        
                  ,##################################################,,,,####,       
                ,###########''''           ''''###############################       
              ,#####''   ,,,,##########,,,,          '''####'''          '####       
            ,##' ,,,,###########################,,,                        '##       
           ' ,,###''''                  '''############,,,                           
         ,,##''                                '''############,,,,        ,,,,,,###''
      ,#''                                            '''#######################'''  
     '                                                          ''''####''''         
             ,#######,   #######,   ,#######,      ##                                
            ,#'     '#,  ##    ##  ,#'     '#,    #''#        ######   ,####,        
            ##       ##  ##   ,#'  ##            #'  '#       #        #'  '#        
            ##       ##  #######   ##           ,######,      #####,   #    #        
            '#,     ,#'  ##    ##  '#,     ,#' ,#      #,         ##   #,  ,#        
             '#######'   ##     ##  '#######'  #'      '#     #####' # '####'        



                  #######################################################
                  #                        -***-                        #
                  #          Department of theory and spectroscopy      #
                  #    Directorship and core code : Frank Neese         #
                  #        Max Planck Institute fuer Kohlenforschung    #
                  #                Kaiser Wilhelm Platz 1               #
                  #                 D-45470 Muelheim/Ruhr               #
                  #                      Germany                        #
                  #                                                     #
                  #                  All rights reserved                #
                  #                        -***-                        #
                  #######################################################


                         Program Version 5.0.4 -  RELEASE  -


 With contributions from (in alphabetic order):
   Daniel Aravena         : Magnetic Suceptibility
   Michael Atanasov       : Ab Initio Ligand Field Theory (pilot matlab implementation)
   Alexander A. Auer      : GIAO ZORA, VPT2 properties, NMR spectrum
   Ute Becker             : Parallelization
   Giovanni Bistoni       : ED, misc. LED, open-shell LED, HFLD
   Martin Brehm           : Molecular dynamics
   Dmytro Bykov           : SCF Hessian
   Vijay G. Chilkuri      : MRCI spin determinant printing, contributions to CSF-ICE
   Dipayan Datta          : RHF DLPNO-CCSD density
   Achintya Kumar Dutta   : EOM-CC, STEOM-CC
   Dmitry Ganyushin       : Spin-Orbit,Spin-Spin,Magnetic field MRCI
   Miquel Garcia          : C-PCM and meta-GGA Hessian, CC/C-PCM, Gaussian charge scheme
   Yang Guo               : DLPNO-NEVPT2, F12-NEVPT2, CIM, IAO-localization
   Andreas Hansen         : Spin unrestricted coupled pair/coupled cluster methods
   Benjamin Helmich-Paris : MC-RPA, TRAH-SCF, COSX integrals
   Lee Huntington         : MR-EOM, pCC
   Robert Izsak           : Overlap fitted RIJCOSX, COSX-SCS-MP3, EOM
   Marcus Kettner         : VPT2
   Christian Kollmar      : KDIIS, OOCD, Brueckner-CCSD(T), CCSD density, CASPT2, CASPT2-K
   Simone Kossmann        : Meta GGA functionals, TD-DFT gradient, OOMP2, MP2 Hessian
   Martin Krupicka        : Initial AUTO-CI
   Lucas Lang             : DCDCAS
   Marvin Lechner         : AUTO-CI (C++ implementation), FIC-MRCC
   Dagmar Lenk            : GEPOL surface, SMD
   Dimitrios Liakos       : Extrapolation schemes; Compound Job, initial MDCI parallelization
   Dimitrios Manganas     : Further ROCIS development; embedding schemes
   Dimitrios Pantazis     : SARC Basis sets
   Anastasios Papadopoulos: AUTO-CI, single reference methods and gradients
   Taras Petrenko         : DFT Hessian,TD-DFT gradient, ASA, ECA, R-Raman, ABS, FL, XAS/XES, NRVS
   Peter Pinski           : DLPNO-MP2, DLPNO-MP2 Gradient
   Christoph Reimann      : Effective Core Potentials
   Marius Retegan         : Local ZFS, SOC
   Christoph Riplinger    : Optimizer, TS searches, QM/MM, DLPNO-CCSD(T), (RO)-DLPNO pert. Triples
   Tobias Risthaus        : Range-separated hybrids, TD-DFT gradient, RPA, STAB
   Michael Roemelt        : Original ROCIS implementation
   Masaaki Saitow         : Open-shell DLPNO-CCSD energy and density
   Barbara Sandhoefer     : DKH picture change effects
   Avijit Sen             : IP-ROCIS
   Kantharuban Sivalingam : CASSCF convergence, NEVPT2, FIC-MRCI
   Bernardo de Souza      : ESD, SOC TD-DFT
   Georgi Stoychev        : AutoAux, RI-MP2 NMR, DLPNO-MP2 response
   Willem Van den Heuvel  : Paramagnetic NMR
   Boris Wezisla          : Elementary symmetry handling
   Frank Wennmohs         : Technical directorship


 We gratefully acknowledge several colleagues who have allowed us to
 interface, adapt or use parts of their codes:
   Stefan Grimme, W. Hujo, H. Kruse, P. Pracht,  : VdW corrections, initial TS optimization,
                  C. Bannwarth, S. Ehlert          DFT functionals, gCP, sTDA/sTD-DF
   Ed Valeev, F. Pavosevic, A. Kumar             : LibInt (2-el integral package), F12 methods
   Garnet Chan, S. Sharma, J. Yang, R. Olivares  : DMRG
   Ulf Ekstrom                                   : XCFun DFT Library
   Mihaly Kallay                                 : mrcc  (arbitrary order and MRCC methods)
   Jiri Pittner, Ondrej Demel                    : Mk-CCSD
   Frank Weinhold                                : gennbo (NPA and NBO analysis)
   Christopher J. Cramer and Donald G. Truhlar   : smd solvation model
   Lars Goerigk                                  : TD-DFT with DH, B97 family of functionals
   V. Asgeirsson, H. Jonsson                     : NEB implementation
   FAccTs GmbH                                   : IRC, NEB, NEB-TS, DLPNO-Multilevel, CI-OPT
                                                   MM, QMMM, 2- and 3-layer-ONIOM, Crystal-QMMM,
                                                   LR-CPCM, SF, NACMEs, symmetry and pop. for TD-DFT,
                                                   nearIR, NL-DFT gradient (VV10), updates on ESD,
                                                   ML-optimized integration grids
   S Lehtola, MJT Oliveira, MAL Marques          : LibXC Library
   Liviu Ungur et al                             : ANISO software


 Your calculation uses the libint2 library for the computation of 2-el integrals
 For citations please refer to: http://libint.valeyev.net

 Your ORCA version has been built with support for libXC version: 5.1.0
 For citations please refer to: https://tddft.org/programs/libxc/

 This ORCA versions uses:
   CBLAS   interface :  Fast vector & matrix operations
   LAPACKE interface :  Fast linear algebra routines
   SCALAPACK package :  Parallel linear algebra routines
   Shared memory     :  Shared parallel matrices
   BLAS/LAPACK       :  OpenBLAS 0.3.15  USE64BITINT DYNAMIC_ARCH NO_AFFINITY Prescott SINGLE_THREADED
        Core in use  :  Prescott
   Copyright (c) 2011-2014, The OpenBLAS Project


Your calculation utilizes the atom-pairwise dispersion correction
with the Becke-Johnson damping scheme (D3BJ)
Cite in your paper:
S.Grimme, S.Ehrlich, L.Goerigk, J Comput Chem, (2011), 32, 1456–1465 
S.Grimme, J.Antony, S.Ehrlich and H.Krieg, J.Chem.Phys., 132, (2010), 154104 
   

================================================================================

----- Orbital basis set information -----
Your calculation utilizes the basis: def2-TZVP
   F. Weigend and R. Ahlrichs, Phys. Chem. Chem. Phys. 7, 3297 (2005).

----- AuxJ basis set information -----
Your calculation utilizes the auxiliary basis: def2/J
   F. Weigend, Phys. Chem. Chem. Phys. 8, 1057 (2006).

================================================================================
                                        WARNINGS
                       Please study these warnings very carefully!
================================================================================

WARNING: Gradients needed for Numerical Frequencies
  ===> : Setting RunTyp to EnGrad

INFO   : the flag for use of the SHARK integral package has been found!

================================================================================
                                       INPUT FILE
================================================================================
NAME = /home/rudenko/mop_saddle_orca_4_serv/for_orca/m-clc6h4chno2ch3_piperidine/orca/start_freq_H/start_f_H.inp
|  1> !  NUMFREQ B3LYP def2-TZVP CPCM D3 
|  2> %pal nprocs 102 end
|  3> %cpcm epsilon 78.4 end 
|  4> *xyz 0 1 
|  5> C   2.00892575581721 2.65436626211559 2.09225576924066
|  6> C   2.10300469062848 1.26803429675288 2.08835098509058
|  7> C   1.01758769210209 0.48936481698598 1.69591861901639
|  8> C   -0.16762484785877 1.10567845407524 1.29657748062424
|  9> C   -0.240692709486 2.49023414719075 1.30205754930525
| 10> C   0.83240573061535 3.27904260394721 1.69715461441798
| 11> H   2.85463217538137 3.25388483659921 2.40291691865058
| 12> H   3.01762812559269 0.78248608952555 2.39462586949581
| 13> H   -1.02148034738032 0.5231874723446 0.9809084888955
| 14> Cl   -1.72873275108278 3.26473616660211 0.79883303146672
| 15> H   0.74747694171831 4.35681466575055 1.69575915885527
| 16> C   1.15037008230914 -1.01721893924532 1.70665104541796
| 17> C   0.0139702552437 -1.76351233082884 2.37605969845021
| 18> H   0.17466695684318 -2.83985356899741 2.31494151860467
| 19> H   -0.95077525138646 -1.52324606291415 1.93480982474692
| 20> H   -0.0004657000202 -1.47382488910968 3.4272144333917
| 21> N   1.30037587186095 -1.4634908933592 0.24543346529435
| 22> O   2.42734917782411 -1.45311018046194 -0.22319572122328
| 23> O   0.30048621790522 -1.77182540603444 -0.37916030099691
| 24> N   5.90416079251397 -0.30023493398637 3.27156960749838
| 25> C   6.54480668285055 -1.41637220037245 2.55513206638856
| 26> C   7.9284062142414 -1.06549221635483 2.00732225394248
| 27> C   7.8686643773436 0.19364489091422 1.13922859056607
| 28> C   7.20404610198946 1.34433537252917 1.89898111506982
| 29> C   5.84227648847716 0.91580290499433 2.44537426131492
| 30> H   2.10470680749329 -1.28479893547553 2.15334367205761
| 31> H   6.60003521139757 -2.26916514669655 3.2343156325812
| 32> H   5.88071104817835 -1.69772755681664 1.73133568489479
| 33> H   8.32331353795875 -1.91057973710782 1.43684582796089
| 34> H   8.60984496298725 -0.89786371958023 2.84874135417113
| 35> H   8.87107404963362 0.48013231657727 0.81221573616428
| 36> H   7.28829855856157 -0.02157680548794 0.23480326081094
| 37> H   7.0809926349752 2.21634938026683 1.25081574776634
| 38> H   7.843311577087 1.65186368099062 2.7340793288168
| 39> H   5.39052060382807 1.71176653143712 3.04037509802014
| 40> H   5.16609165262507 0.70849753684596 1.61039485023631
| 41> H   6.44826546444569 -0.09820508412405 4.10683027426139
| 42> H   2.93353868919256 -0.63766000980931 4.48632111400579
| 43> H   4.33399165651794 -0.8941531719007 3.84321808739948
| 44> O   3.48993056107444 -1.34379469778182 4.13766914732795
| 45> *
| 46> 
| 47>                          ****END OF INPUT****
================================================================================

                     *******************************
                     * Energy+Gradient Calculation *
                     *******************************

---------------------------------
CARTESIAN COORDINATES (ANGSTROEM)
---------------------------------
  C      2.008926    2.654366    2.092256
  C      2.103005    1.268034    2.088351
  C      1.017588    0.489365    1.695919
  C     -0.167625    1.105678    1.296577
  C     -0.240693    2.490234    1.302058
  C      0.832406    3.279043    1.697155
  H      2.854632    3.253885    2.402917
  H      3.017628    0.782486    2.394626
  H     -1.021480    0.523187    0.980908
  Cl    -1.728733    3.264736    0.798833
  H      0.747477    4.356815    1.695759
  C      1.150370   -1.017219    1.706651
  C      0.013970   -1.763512    2.376060
  H      0.174667   -2.839854    2.314942
  H     -0.950775   -1.523246    1.934810
  H     -0.000466   -1.473825    3.427214
  N      1.300376   -1.463491    0.245433
  O      2.427349   -1.453110   -0.223196
  O      0.300486   -1.771825   -0.379160
  N      5.904161   -0.300235    3.271570
  C      6.544807   -1.416372    2.555132
  C      7.928406   -1.065492    2.007322
  C      7.868664    0.193645    1.139229
  C      7.204046    1.344335    1.898981
  C      5.842276    0.915803    2.445374
  H      2.104707   -1.284799    2.153344
  H      6.600035   -2.269165    3.234316
  H      5.880711   -1.697728    1.731336
  H      8.323314   -1.910580    1.436846
  H      8.609845   -0.897864    2.848741
  H      8.871074    0.480132    0.812216
  H      7.288299   -0.021577    0.234803
  H      7.080993    2.216349    1.250816
  H      7.843312    1.651864    2.734079
  H      5.390521    1.711767    3.040375
  H      5.166092    0.708498    1.610395
  H      6.448265   -0.098205    4.106830
  H      2.933539   -0.637660    4.486321
  H      4.333992   -0.894153    3.843218
  O      3.489931   -1.343795    4.137669

----------------------------
CARTESIAN COORDINATES (A.U.)
----------------------------
  NO LB      ZA    FRAG     MASS         X           Y           Z
   0 C     6.0000    0    12.011    3.796320    5.016025    3.953790
   1 C     6.0000    0    12.011    3.974103    2.396238    3.946411
   2 C     6.0000    0    12.011    1.922962    0.924765    3.204822
   3 C     6.0000    0    12.011   -0.316765    2.089429    2.450176
   4 C     6.0000    0    12.011   -0.454843    4.705861    2.460532
   5 C     6.0000    0    12.011    1.573019    6.196493    3.207157
   6 H     1.0000    0     1.008    5.394473    6.148951    4.540855
   7 H     1.0000    0     1.008    5.702491    1.478684    4.525187
   8 H     1.0000    0     1.008   -1.930318    0.988681    1.853648
   9 Cl   17.0000    0    35.453   -3.266831    6.169457    1.509576
  10 H     1.0000    0     1.008    1.412527    8.233187    3.204520
  11 C     6.0000    0    12.011    2.173884   -1.922265    3.225103
  12 C     6.0000    0    12.011    0.026400   -3.332555    4.490102
  13 H     1.0000    0     1.008    0.330073   -5.366546    4.374605
  14 H     1.0000    0     1.008   -1.796705   -2.878518    3.656261
  15 H     1.0000    0     1.008   -0.000880   -2.785125    6.476497
  16 N     7.0000    0    14.007    2.457354   -2.765597    0.463802
  17 O     8.0000    0    15.999    4.587025   -2.745980   -0.421779
  18 O     8.0000    0    15.999    0.567837   -3.348265   -0.716509
  19 N     7.0000    0    14.007   11.157247   -0.567362    6.182371
  20 C     6.0000    0    12.011   12.367892   -2.676556    4.828500
  21 C     6.0000    0    12.011   14.982516   -2.013488    3.793289
  22 C     6.0000    0    12.011   14.869621    0.365936    2.152830
  23 C     6.0000    0    12.011   13.613674    2.540426    3.588554
  24 C     6.0000    0    12.011   11.040303    1.730617    4.621088
  25 H     1.0000    0     1.008    3.977319   -2.427918    4.069230
  26 H     1.0000    0     1.008   12.472259   -4.288101    6.111971
  27 H     1.0000    0     1.008   11.112933   -3.208240    3.271750
  28 H     1.0000    0     1.008   15.728783   -3.610472    2.715245
  29 H     1.0000    0     1.008   16.270249   -1.696717    5.383341
  30 H     1.0000    0     1.008   16.763900    0.907319    1.534865
  31 H     1.0000    0     1.008   13.772888   -0.040774    0.443714
  32 H     1.0000    0     1.008   13.381137    4.188293    2.363699
  33 H     1.0000    0     1.008   14.821711    3.121570    5.166661
  34 H     1.0000    0     1.008   10.186608    3.234770    5.745476
  35 H     1.0000    0     1.008    9.762498    1.338866    3.043205
  36 H     1.0000    0     1.008   12.185456   -0.185581    7.760784
  37 H     1.0000    0     1.008    5.543585   -1.205003    8.477918
  38 H     1.0000    0     1.008    8.190057   -1.689705    7.262630
  39 O     8.0000    0    15.999    6.595013   -2.539404    7.819062

--------------------------------
INTERNAL COORDINATES (ANGSTROEM)
--------------------------------
 C      0   0   0     0.000000000000     0.00000000     0.00000000
 C      1   0   0     1.389525966472     0.00000000     0.00000000
 C      2   1   0     1.392285668013   120.39760714     0.00000000
 C      3   2   1     1.394290001741   119.74929716     0.40638821
 C      4   3   2     1.386493206220   119.01734879   359.85207402
 C      5   4   3     1.389194275276   121.83260525   359.84298065
 H      1   2   3     1.082197864993   120.04007365   179.70599010
 H      2   1   3     1.079859895609   120.34164815   180.31225478
 H      4   3   2     1.080745978572   121.13164135   179.55802015
 Cl     5   4   3     1.751385582566   119.02848780   179.93409493
 H      6   5   4     1.081113991993   120.33220782   180.24337061
 C      3   2   1     1.512461888004   119.12117513   180.18472422
 C     12   3   2     1.515409627140   115.33152736   131.89958628
 H     13  12   3     1.089985927797   110.54717770   178.40871131
 H     13  12   3     1.087733066108   112.15619272    56.49169014
 H     13  12   3     1.090437291862   107.75325701   296.89657947
 N     12   3   2     1.535192890288   106.94112225   255.24223115
 O     17  12   3     1.220569500688   116.94844420    85.81767207
 O     17  12   3     1.218592165035   118.76599721   267.52971700
 N      8   2   1     3.205212313027   172.86657300   346.06283284
 C     20   8   2     1.472912863863   120.97085463   235.34436054
 C     21  20   8     1.528908112694   113.20281739   123.64946529
 C     22  21  20     1.530549558287   110.89752843   306.02682047
 C     23  22  21     1.530695898898   110.72414017    53.11313631
 C     20   8   2     1.471453853498    61.92280448   335.17916419
 H     12   3   2     1.087148537281   108.97504083     6.53570439
 H     21  20   8     1.091602636609   108.14149572   246.91635966
 H     21  20   8     1.094908364546   107.27030348     2.40493565
 H     22  21  20     1.093420351310   109.65801377   183.42609866
 H     22  21  20     1.095647837333   108.83167019    66.55325445
 H     23  22  21     1.092628758137   110.46559422   175.82264354
 H     23  22  21     1.095960783658   109.09717315   293.02594512
 H     24  23  22     1.093466473563   110.74109448   185.01310386
 H     24  23  22     1.095729453269   109.63051368    67.08303566
 H     25  20   8     1.091635227361   108.29730822    67.38671853
 H     25  20   8     1.094254113460   107.32958242   311.77151948
 H     20   8   2     1.017116677523   129.74294871    66.74376774
 H      8   2   1     2.529639296950   117.30944482   114.97489616
 H     38   8   2     1.562254383486    73.85849540   171.38362597
 O     38   8   2     0.964238718639    95.33411184   139.50826838

---------------------------
INTERNAL COORDINATES (A.U.)
---------------------------
 C      0   0   0     0.000000000000     0.00000000     0.00000000
 C      1   0   0     2.625823532605     0.00000000     0.00000000
 C      2   1   0     2.631038612727   120.39760714     0.00000000
 C      3   2   1     2.634826254555   119.74929716     0.40638821
 C      4   3   2     2.620092446298   119.01734879   359.85207402
 C      5   4   3     2.625196727083   121.83260525   359.84298065
 H      1   2   3     2.045057587551   120.04007365   179.70599010
 H      2   1   3     2.040639465706   120.34164815   180.31225478
 H      4   3   2     2.042313919838   121.13164135   179.55802015
 Cl     5   4   3     3.309639105949   119.02848780   179.93409493
 H      6   5   4     2.043009364418   120.33220782   180.24337061
 C      3   2   1     2.858138756322   119.12117513   180.18472422
 C     12   3   2     2.863709176003   115.33152736   131.89958628
 H     13  12   3     2.059774893364   110.54717770   178.40871131
 H     13  12   3     2.055517601754   112.15619272    56.49169014
 H     13  12   3     2.060627847835   107.75325701   296.89657947
 N     12   3   2     2.901094125387   106.94112225   255.24223115
 O     17  12   3     2.306542083717   116.94844420    85.81767207
 O     17  12   3     2.302805460858   118.76599721   267.52971700
 N      8   2   1     6.056973472693   172.86657300   346.06283284
 C     20   8   2     2.783401931830   120.97085463   235.34436054
 C     21  20   8     2.889217616922   113.20281739   123.64946529
 C     22  21  20     2.892319499556   110.89752843   306.02682047
 C     23  22  21     2.892596043234   110.72414017    53.11313631
 C     20   8   2     2.780644801814    61.92280448   335.17916419
 H     12   3   2     2.054413002354   108.97504083     6.53570439
 H     21  20   8     2.062830030257   108.14149572   246.91635966
 H     21  20   8     2.069076950732   107.27030348     2.40493565
 H     22  21  20     2.066265013232   109.65801377   183.42609866
 H     22  21  20     2.070474351783   108.83167019    66.55325445
 H     23  22  21     2.064769118925   110.46559422   175.82264354
 H     23  22  21     2.071065734631   109.09717315   293.02594512
 H     24  23  22     2.066352171659   110.74109448   185.01310386
 H     24  23  22     2.070628583549   109.63051368    67.08303566
 H     25  20   8     2.062891617853   108.29730822    67.38671853
 H     25  20   8     2.067840595357   107.32958242   311.77151948
 H     20   8   2     1.922071966762   129.74294871    66.74376774
 H      8   2   1     4.780325488841   117.30944482   114.97489616
 H     38   8   2     2.952232936306    73.85849540   171.38362597
 O     38   8   2     1.822147105951    95.33411184   139.50826838

---------------------
BASIS SET INFORMATION
---------------------
There are 5 groups of distinct atoms

 Group   1 Type C   : 11s6p2d1f contracted to 5s3p2d1f pattern {62111/411/11/1}
 Group   2 Type H   : 5s1p contracted to 3s1p pattern {311/1}
 Group   3 Type Cl  : 14s9p3d1f contracted to 5s5p2d1f pattern {73211/51111/21/1}
 Group   4 Type N   : 11s6p2d1f contracted to 5s3p2d1f pattern {62111/411/11/1}
 Group   5 Type O   : 11s6p2d1f contracted to 5s3p2d1f pattern {62111/411/11/1}

Atom   0C    basis set group =>   1
Atom   1C    basis set group =>   1
Atom   2C    basis set group =>   1
Atom   3C    basis set group =>   1
Atom   4C    basis set group =>   1
Atom   5C    basis set group =>   1
Atom   6H    basis set group =>   2
Atom   7H    basis set group =>   2
Atom   8H    basis set group =>   2
Atom   9Cl   basis set group =>   3
Atom  10H    basis set group =>   2
Atom  11C    basis set group =>   1
Atom  12C    basis set group =>   1
Atom  13H    basis set group =>   2
Atom  14H    basis set group =>   2
Atom  15H    basis set group =>   2
Atom  16N    basis set group =>   4
Atom  17O    basis set group =>   5
Atom  18O    basis set group =>   5
Atom  19N    basis set group =>   4
Atom  20C    basis set group =>   1
Atom  21C    basis set group =>   1
Atom  22C    basis set group =>   1
Atom  23C    basis set group =>   1
Atom  24C    basis set group =>   1
Atom  25H    basis set group =>   2
Atom  26H    basis set group =>   2
Atom  27H    basis set group =>   2
Atom  28H    basis set group =>   2
Atom  29H    basis set group =>   2
Atom  30H    basis set group =>   2
Atom  31H    basis set group =>   2
Atom  32H    basis set group =>   2
Atom  33H    basis set group =>   2
Atom  34H    basis set group =>   2
Atom  35H    basis set group =>   2
Atom  36H    basis set group =>   2
Atom  37H    basis set group =>   2
Atom  38H    basis set group =>   2
Atom  39O    basis set group =>   5
---------------------------------
AUXILIARY/J BASIS SET INFORMATION
---------------------------------
There are 5 groups of distinct atoms

 Group   1 Type C   : 12s5p4d2f1g contracted to 6s4p3d1f1g pattern {711111/2111/211/2/1}
 Group   2 Type H   : 5s2p1d contracted to 3s1p1d pattern {311/2/1}
 Group   3 Type Cl  : 14s5p5d2f1g contracted to 8s4p3d1f1g pattern {71111111/2111/311/2/1}
 Group   4 Type N   : 12s5p4d2f1g contracted to 6s4p3d1f1g pattern {711111/2111/211/2/1}
 Group   5 Type O   : 12s5p4d2f1g contracted to 6s4p3d1f1g pattern {711111/2111/211/2/1}

Atom   0C    basis set group =>   1
Atom   1C    basis set group =>   1
Atom   2C    basis set group =>   1
Atom   3C    basis set group =>   1
Atom   4C    basis set group =>   1
Atom   5C    basis set group =>   1
Atom   6H    basis set group =>   2
Atom   7H    basis set group =>   2
Atom   8H    basis set group =>   2
Atom   9Cl   basis set group =>   3
Atom  10H    basis set group =>   2
Atom  11C    basis set group =>   1
Atom  12C    basis set group =>   1
Atom  13H    basis set group =>   2
Atom  14H    basis set group =>   2
Atom  15H    basis set group =>   2
Atom  16N    basis set group =>   4
Atom  17O    basis set group =>   5
Atom  18O    basis set group =>   5
Atom  19N    basis set group =>   4
Atom  20C    basis set group =>   1
Atom  21C    basis set group =>   1
Atom  22C    basis set group =>   1
Atom  23C    basis set group =>   1
Atom  24C    basis set group =>   1
Atom  25H    basis set group =>   2
Atom  26H    basis set group =>   2
Atom  27H    basis set group =>   2
Atom  28H    basis set group =>   2
Atom  29H    basis set group =>   2
Atom  30H    basis set group =>   2
Atom  31H    basis set group =>   2
Atom  32H    basis set group =>   2
Atom  33H    basis set group =>   2
Atom  34H    basis set group =>   2
Atom  35H    basis set group =>   2
Atom  36H    basis set group =>   2
Atom  37H    basis set group =>   2
Atom  38H    basis set group =>   2
Atom  39O    basis set group =>   5


           ************************************************************
           *        Program running with 102 parallel MPI-processes   *
           *              working on a common directory               *
           ************************************************************
------------------------------------------------------------------------------
                           ORCA GTO INTEGRAL CALCULATION
                           -- RI-GTO INTEGRALS CHOSEN --
------------------------------------------------------------------------------
------------------------------------------------------------------------------
                   ___                                                        
                  /   \      - P O W E R E D   B Y -                         
                 /     \                                                     
                 |  |  |   _    _      __       _____    __    __             
                 |  |  |  | |  | |    /  \     |  _  \  |  |  /  |          
                  \  \/   | |  | |   /    \    | | | |  |  | /  /          
                 / \  \   | |__| |  /  /\  \   | |_| |  |  |/  /          
                |  |  |   |  __  | /  /__\  \  |    /   |      \           
                |  |  |   | |  | | |   __   |  |    \   |  |\   \          
                \     /   | |  | | |  |  |  |  | |\  \  |  | \   \       
                 \___/    |_|  |_| |__|  |__|  |_| \__\ |__|  \__/        
                                                                              
                      - O R C A' S   B I G   F R I E N D -                    
                                      &                                       
                       - I N T E G R A L  F E E D E R -                       
                                                                              
 v1 FN, 2020, v2 2021                                                         
------------------------------------------------------------------------------


Reading SHARK input file /home/rudenko/mop_saddle_orca_4_serv/for_orca/m-clc6h4chno2ch3_piperidine/orca/start_freq_H/start_f_H.SHARKINP.tmp ... ok
----------------------
SHARK INTEGRAL PACKAGE
----------------------

Number of atoms                             ...     40
Number of basis functions                   ...    721
Number of shells                            ...    295
Maximum angular momentum                    ...      3
Integral batch strategy                     ... SHARK/LIBINT Hybrid
RI-J (if used) integral strategy            ... SPLIT-RIJ (Revised 2003 algorithm where possible)
Printlevel                                  ...      1
Contraction scheme used                     ... SEGMENTED contraction
Coulomb Range Separation                    ... NOT USED
Exchange Range Separation                   ... NOT USED
Finite Nucleus Model                        ... NOT USED
Auxiliary Coulomb fitting basis             ... AVAILABLE
   # of basis functions in Aux-J            ...   1164
   # of shells in Aux-J                     ...    392
   Maximum angular momentum in Aux-J        ...      4
Auxiliary J/K fitting basis                 ... NOT available
Auxiliary Correlation fitting basis         ... NOT available
Auxiliary 'external' fitting basis          ... NOT available
Integral threshold                          ...     2.500000e-11
Primitive cut-off                           ...     2.500000e-12
Primitive pair pre-selection threshold      ...     2.500000e-12

Calculating pre-screening integrals         ... done (  0.1 sec) Dimension = 295
Organizing shell pair data                  ... done (  0.8 sec)
Shell pair information
Total number of shell pairs                 ...     43660
Shell pairs after pre-screening             ...     29797
Total number of primitive shell pairs       ...    132336
Primitive shell pairs kept                  ...     60106
          la=0 lb=0:   8601 shell pairs
          la=1 lb=0:   8940 shell pairs
          la=1 lb=1:   2387 shell pairs
          la=2 lb=0:   3931 shell pairs
          la=2 lb=1:   2087 shell pairs
          la=2 lb=2:    475 shell pairs
          la=3 lb=0:   1864 shell pairs
          la=3 lb=1:    983 shell pairs
          la=3 lb=2:    428 shell pairs
          la=3 lb=3:    101 shell pairs

Calculating one electron integrals          ... done (  0.2 sec)
Calculating RI/J V-Matrix + Cholesky decomp.... done (  0.2 sec)
Calculating Nuclear repulsion               ... done (  0.0 sec) ENN=   1567.260889152029 Eh

SHARK setup successfully completed in   1.9 seconds

Maximum memory used throughout the entire GTOINT-calculation: 45.8 MB


           ************************************************************
           *        Program running with 102 parallel MPI-processes   *
           *              working on a common directory               *
           ************************************************************
-------------------------------------------------------------------------------
                                 ORCA SCF
-------------------------------------------------------------------------------

------------
SCF SETTINGS
------------
Hamiltonian:
 Density Functional     Method          .... DFT(GTOs)
 Exchange Functional    Exchange        .... B88
   X-Alpha parameter    XAlpha          ....  0.666667
   Becke's b parameter  XBeta           ....  0.004200
 Correlation Functional Correlation     .... LYP
 LDA part of GGA corr.  LDAOpt          .... VWN-5
 Gradients option       PostSCFGGA      .... off
 Hybrid DFT is turned on
   Fraction HF Exchange ScalHFX         ....  0.200000
   Scaling of DF-GGA-X  ScalDFX         ....  0.720000
   Scaling of DF-GGA-C  ScalDFC         ....  0.810000
   Scaling of DF-LDA-C  ScalLDAC        ....  1.000000
   Perturbative correction              ....  0.000000
   Density functional embedding theory  .... OFF
   NL short-range parameter             ....  4.800000
 RI-approximation to the Coulomb term is turned on
   Number of AuxJ basis functions       .... 1164
   RIJ-COSX (HFX calculated with COS-X)).... on


General Settings:
 Integral files         IntName         .... /home/rudenko/mop_saddle_orca_4_serv/for_orca/m-clc6h4chno2ch3_piperidine/orca/start_freq_H/start_f_H
 Hartree-Fock type      HFTyp           .... RHF
 Total Charge           Charge          ....    0
 Multiplicity           Mult            ....    1
 Number of Electrons    NEL             ....  154
 Basis Dimension        Dim             ....  721
 Nuclear Repulsion      ENuc            ....   1567.2608891520 Eh

Convergence Acceleration:
 DIIS                   CNVDIIS         .... on
   Start iteration      DIISMaxIt       ....    12
   Startup error        DIISStart       ....  0.200000
   # of expansion vecs  DIISMaxEq       ....     5
   Bias factor          DIISBfac        ....   1.050
   Max. coefficient     DIISMaxC        ....  10.000
 Trust-Rad. Augm. Hess. CNVTRAH         .... auto
   Auto Start mean grad. ratio tolernc. ....  1.125000
   Auto Start start iteration           ....    20
   Auto Start num. interpolation iter.  ....    10
   Max. Number of Micro iterations      ....    16
   Max. Number of Macro iterations      .... Maxiter - #DIIS iter
   Number of Davidson start vectors     ....     2
   Converg. threshold I  (grad. norm)   ....   1.000e-05
   Converg. threshold II (energy diff.) ....   1.000e-08
   Grad. Scal. Fac. for Micro threshold ....   0.100
   Minimum threshold for Micro iter.    ....   0.010
   NR start threshold (gradient norm)   ....   0.001
   Initial trust radius                 ....   0.400
   Minimum AH scaling param. (alpha)    ....   1.000
   Maximum AH scaling param. (alpha)    .... 1000.000
   Orbital update algorithm             .... Taylor
   White noise on init. David. guess    .... on
   Maximum white noise                  ....   0.010
   Quad. conv. algorithm                .... NR
 SOSCF                  CNVSOSCF        .... on
   Start iteration      SOSCFMaxIt      ....   150
   Startup grad/error   SOSCFStart      ....  0.003300
 Level Shifting         CNVShift        .... on
   Level shift para.    LevelShift      ....    0.2500
   Turn off err/grad.   ShiftErr        ....    0.0010
 Zerner damping         CNVZerner       .... off
 Static damping         CNVDamp         .... on
   Fraction old density DampFac         ....    0.7000
   Max. Damping (<1)    DampMax         ....    0.9800
   Min. Damping (>=0)   DampMin         ....    0.0000
   Turn off err/grad.   DampErr         ....    0.1000
 Fernandez-Rico         CNVRico         .... off

SCF Procedure:
 Maximum # iterations   MaxIter         ....   125
 SCF integral mode      SCFMode         .... Direct
   Integral package                     .... SHARK and LIBINT hybrid scheme
 Reset frequency        DirectResetFreq ....    20
 Integral Threshold     Thresh          ....  2.500e-11 Eh
 Primitive CutOff       TCut            ....  2.500e-12 Eh

Convergence Tolerance:
 Convergence Check Mode ConvCheckMode   .... Total+1el-Energy
 Convergence forced     ConvForced      .... 0
 Energy Change          TolE            ....  1.000e-08 Eh
 1-El. energy change                    ....  1.000e-05 Eh
 Orbital Gradient       TolG            ....  1.000e-05
 Orbital Rotation angle TolX            ....  1.000e-05
 DIIS Error             TolErr          ....  5.000e-07


Diagonalization of the overlap matrix:
Smallest eigenvalue                        ... 6.568e-06
Time for diagonalization                   ...    0.212 sec
Threshold for overlap eigenvalues          ... 1.000e-08
Number of eigenvalues below threshold      ... 0
Time for construction of square roots      ...    0.479 sec
Total time needed                          ...    0.694 sec

Time for model grid setup =    0.286 sec

------------------------------
INITIAL GUESS: MODEL POTENTIAL
------------------------------
Loading Hartree-Fock densities                     ... done
Calculating cut-offs                               ... done
Initializing the effective Hamiltonian             ... done
Setting up the integral package (SHARK)            ... done
Starting the Coulomb interaction                   ... done (   0.1 sec)
Reading the grid                                   ... done
Mapping shells                                     ... done
Starting the XC term evaluation                    ... done (   0.1 sec)
  promolecular density results
     # of electrons  =    153.990784203
     EX              =   -138.382281570
     EC              =     -5.330280705
     EX+EC           =   -143.712562275
Transforming the Hamiltonian                       ... done (   0.5 sec)
Diagonalizing the Hamiltonian                      ... done (   0.4 sec)
Back transforming the eigenvectors                 ... done (   0.2 sec)
Now organizing SCF variables                       ... done
                      ------------------
                      INITIAL GUESS DONE (   1.6 sec)
                      ------------------
-------------------
DFT GRID GENERATION
-------------------

General Integration Accuracy     IntAcc      ... 4.388
Radial Grid Type                 RadialGrid  ... OptM3 with GC (2021)
Angular Grid (max. ang.)         AngularGrid ... 4 (Lebedev-302)
Angular grid pruning method      GridPruning ... 4 (adaptive)
Weight generation scheme         WeightScheme... Becke
Basis function cutoff            BFCut       ... 1.0000e-11
Integration weight cutoff        WCut        ... 1.0000e-14
Angular grids for H and He will be reduced by one unit
Partially contracted basis set               ... off
Rotationally invariant grid construction     ... off

Total number of grid points                  ...   181721
Total number of batches                      ...     2856
Average number of points per batch           ...       63
Average number of grid points per atom       ...     4543
Time for grid setup =    1.517 sec

--------------------
COSX GRID GENERATION
--------------------

GRIDX 1
-------
General Integration Accuracy     IntAcc      ... 3.816
Radial Grid Type                 RadialGrid  ... OptM3 with GC (2021)
Angular Grid (max. ang.)         AngularGrid ... 1 (Lebedev-50)
Angular grid pruning method      GridPruning ... 4 (adaptive)
Weight generation scheme         WeightScheme... Becke
Basis function cutoff            BFCut       ... 1.0000e-11
Integration weight cutoff        WCut        ... 1.0000e-14
Angular grids for H and He will be reduced by one unit
Partially contracted basis set               ... on
Rotationally invariant grid construction     ... off

Total number of grid points                  ...    23030
Total number of batches                      ...      383
Average number of points per batch           ...       60
Average number of grid points per atom       ...      576
UseSFitting                                  ... on

GRIDX 2
-------
General Integration Accuracy     IntAcc      ... 4.020
Radial Grid Type                 RadialGrid  ... OptM3 with GC (2021)
Angular Grid (max. ang.)         AngularGrid ... 2 (Lebedev-110)
Angular grid pruning method      GridPruning ... 4 (adaptive)
Weight generation scheme         WeightScheme... Becke
Basis function cutoff            BFCut       ... 1.0000e-11
Integration weight cutoff        WCut        ... 1.0000e-14
Angular grids for H and He will be reduced by one unit
Partially contracted basis set               ... on
Rotationally invariant grid construction     ... off

Total number of grid points                  ...    49084
Total number of batches                      ...      787
Average number of points per batch           ...       62
Average number of grid points per atom       ...     1227
UseSFitting                                  ... on

GRIDX 3
-------
General Integration Accuracy     IntAcc      ... 4.338
Radial Grid Type                 RadialGrid  ... OptM3 with GC (2021)
Angular Grid (max. ang.)         AngularGrid ... 3 (Lebedev-194)
Angular grid pruning method      GridPruning ... 4 (adaptive)
Weight generation scheme         WeightScheme... Becke
Basis function cutoff            BFCut       ... 1.0000e-11
Integration weight cutoff        WCut        ... 1.0000e-14
Angular grids for H and He will be reduced by one unit
Partially contracted basis set               ... on
Rotationally invariant grid construction     ... off

Total number of grid points                  ...   107498
Total number of batches                      ...     1700
Average number of points per batch           ...       63
Average number of grid points per atom       ...     2687
UseSFitting                                  ... on

Time for X-Grid setup             =    2.741 sec


--------------------
CPCM SOLVATION MODEL
--------------------
CPCM parameters:
  Epsilon                                         ...      78.4000
  Refrac                                          ...       1.3300
  Rsolv                                           ...       1.3000
  Surface type                                    ... GAUSSIAN VDW
  Epsilon function type                           ...         CPCM
Radii:
 Radius for C  used is    3.8550 Bohr (=   2.0400 Ang.)
 Radius for H  used is    2.4944 Bohr (=   1.3200 Ang.)
 Radius for Cl used is    3.9684 Bohr (=   2.1000 Ang.)
 Radius for N  used is    3.5149 Bohr (=   1.8600 Ang.)
 Radius for O  used is    3.4469 Bohr (=   1.8240 Ang.)
Calculating surface                               ...        done! (  0.0s)
GEPOL surface points                              ...         2235
GEPOL Volume                                      ...    2371.2250
GEPOL Surface-area                                ...    1299.2081
Calculating surface distance matrix               ...        done! (  0.3s)
Performing Cholesky decomposition & store         ...        done! (  0.8s)
Overall time for CPCM initialization              ...                 1.1s
--------------
SCF ITERATIONS
--------------
ITER       Energy         Delta-E        Max-DP      RMS-DP      [F,P]     Damp
               ***  Starting incremental Fock matrix formation  ***
  0  -1302.5028918212   0.000000000000 0.16615571  0.00107794  0.3469893 0.7000
  1  -1302.8054177049  -0.302525883727 0.16890381  0.00087119  0.1389141 0.7000
                               ***Turning on DIIS***
  2  -1302.9172147595  -0.111797054613 0.22174086  0.00120746  0.0346634 0.0000
  3  -1303.0990492189  -0.181834459362 0.14646349  0.00072206  0.0801374 0.0000
  4  -1303.1380250874  -0.038975868479 0.04445842  0.00019613  0.0166635 0.0000
  5  -1303.1402463153  -0.002221227918 0.01564463  0.00007945  0.0079986 0.0000
                      *** Initiating the SOSCF procedure ***
                           *** Shutting down DIIS ***
                      *** Re-Reading the Fockian *** 
                      *** Removing any level shift *** 
ITER      Energy       Delta-E        Grad      Rot      Max-DP    RMS-DP
  6  -1303.14050759  -0.0002612787  0.000275  0.000275  0.004086  0.000035
               *** Restarting incremental Fock matrix formation ***
  7  -1303.14052908  -0.0000214832  0.000136  0.000309  0.001272  0.000021
  8  -1303.14052869   0.0000003907  0.000194  0.000165  0.001102  0.000012
  9  -1303.14053172  -0.0000030292  0.000041  0.000152  0.000429  0.000004
 10  -1303.14053163   0.0000000817  0.000102  0.000146  0.000243  0.000002
 11  -1303.14053175  -0.0000001111  0.000036  0.000081  0.000207  0.000001
 12  -1303.14053173   0.0000000168  0.000041  0.000046  0.000088  0.000001
 13  -1303.14053176  -0.0000000366  0.000006  0.000010  0.000113  0.000001
 14  -1303.14053176   0.0000000073  0.000008  0.000006  0.000045  0.000000
                  ***Gradient check signals convergence***
              ***Rediagonalizing the Fockian in SOSCF/NRSCF***

               *****************************************************
               *                     SUCCESS                       *
               *           SCF CONVERGED AFTER  15 CYCLES          *
               *****************************************************

Old exchange energy                            =    -28.063614749 Eh
New exchange energy                            =    -28.063623253 Eh
Exchange energy change after final integration =     -0.000008504 Eh
Total energy after final integration           =  -1303.140540291 Eh
Final COS-X integration done in                =     3.537 sec

----------------
TOTAL SCF ENERGY
----------------

Total Energy       :        -1303.14054029 Eh          -35460.25687 eV

Components:
Nuclear Repulsion  :         1567.26088915 Eh           42647.33694 eV
Electronic Energy  :        -2870.40142944 Eh          -78107.59381 eV
One Electron Energy:        -4896.12062227 Eh         -133230.21543 eV
Two Electron Energy:         2025.71919283 Eh           55122.62162 eV
Max COSX asymmetry :            0.00000154 Eh               0.00004 eV
CPCM Dielectric    :           -0.02595777 Eh              -0.70635 eV

Virial components:
Potential Energy   :        -2602.03364127 Eh          -70804.93503 eV
Kinetic Energy     :         1298.89310098 Eh           35344.67817 eV
Virial Ratio       :            2.00327005


DFT components:
N(Alpha)           :       77.000246407153 electrons
N(Beta)            :       77.000246407153 electrons
N(Total)           :      154.000492814307 electrons
E(X)               :     -111.525353640409 Eh       
E(C)               :       -6.279973833251 Eh       
E(XC)              :     -117.805327473660 Eh       
DFET-embed. en.    :        0.000000000000 Eh       
CPCM Solvation Model Properties:
Surface-charge          :           -0.03517124
Charge-correction       :           -0.00002423 Eh              -0.00066 eV
Free-energy (cav+disp)  :  This term is not implemented in the current solvation scheme

---------------
SCF CONVERGENCE
---------------

  Last Energy change         ...   -2.8548e-08  Tolerance :   1.0000e-08
  Last MAX-Density change    ...    2.2204e-15  Tolerance :   1.0000e-07
  Last RMS-Density change    ...    1.6032e-17  Tolerance :   5.0000e-09
  Last Orbital Gradient      ...    6.4451e-07  Tolerance :   1.0000e-05
  Last Orbital Rotation      ...    1.7206e-06  Tolerance :   1.0000e-05

             **** THE GBW FILE WAS UPDATED (/home/rudenko/mop_saddle_orca_4_serv/for_orca/m-clc6h4chno2ch3_piperidine/orca/start_freq_H/start_f_H.gbw) ****
             **** DENSITY /home/rudenko/mop_saddle_orca_4_serv/for_orca/m-clc6h4chno2ch3_piperidine/orca/start_freq_H/start_f_H.scfp WAS UPDATED ****
             **** ENERGY FILE WAS UPDATED (/home/rudenko/mop_saddle_orca_4_serv/for_orca/m-clc6h4chno2ch3_piperidine/orca/start_freq_H/start_f_H.en.tmp) ****
             **** THE GBW FILE WAS UPDATED (/home/rudenko/mop_saddle_orca_4_serv/for_orca/m-clc6h4chno2ch3_piperidine/orca/start_freq_H/start_f_H.gbw) ****
             **** DENSITY /home/rudenko/mop_saddle_orca_4_serv/for_orca/m-clc6h4chno2ch3_piperidine/orca/start_freq_H/start_f_H.scfp WAS UPDATED ****
----------------
ORBITAL ENERGIES
----------------

  NO   OCC          E(Eh)            E(eV) 
   0   2.0000    -101.530504     -2762.7855 
   1   2.0000     -19.173033      -521.7248 
   2   2.0000     -19.171395      -521.6802 
   3   2.0000     -19.098084      -519.6853 
   4   2.0000     -14.553574      -396.0229 
   5   2.0000     -14.306804      -389.3079 
   6   2.0000     -10.241783      -278.6931 
   7   2.0000     -10.236632      -278.5529 
   8   2.0000     -10.202778      -277.6317 
   9   2.0000     -10.191301      -277.3194 
  10   2.0000     -10.189425      -277.2684 
  11   2.0000     -10.186384      -277.1856 
  12   2.0000     -10.184607      -277.1372 
  13   2.0000     -10.184592      -277.1369 
  14   2.0000     -10.183537      -277.1081 
  15   2.0000     -10.170616      -276.7565 
  16   2.0000     -10.156242      -276.3654 
  17   2.0000     -10.155604      -276.3480 
  18   2.0000     -10.155558      -276.3468 
  19   2.0000      -9.462644      -257.4916 
  20   2.0000      -7.223976      -196.5744 
  21   2.0000      -7.215833      -196.3528 
  22   2.0000      -7.215498      -196.3437 
  23   2.0000      -1.242418       -33.8079 
  24   2.0000      -1.069650       -29.1067 
  25   2.0000      -0.979248       -26.6467 
  26   2.0000      -0.911668       -24.8078 
  27   2.0000      -0.901925       -24.5426 
  28   2.0000      -0.861711       -23.4483 
  29   2.0000      -0.825195       -22.4547 
  30   2.0000      -0.778816       -21.1927 
  31   2.0000      -0.757747       -20.6194 
  32   2.0000      -0.746710       -20.3190 
  33   2.0000      -0.741224       -20.1697 
  34   2.0000      -0.702493       -19.1158 
  35   2.0000      -0.639139       -17.3919 
  36   2.0000      -0.632382       -17.2080 
  37   2.0000      -0.617385       -16.7999 
  38   2.0000      -0.612947       -16.6791 
  39   2.0000      -0.589270       -16.0349 
  40   2.0000      -0.565866       -15.3980 
  41   2.0000      -0.549818       -14.9613 
  42   2.0000      -0.546739       -14.8775 
  43   2.0000      -0.530464       -14.4347 
  44   2.0000      -0.515393       -14.0246 
  45   2.0000      -0.506957       -13.7950 
  46   2.0000      -0.486999       -13.2519 
  47   2.0000      -0.486322       -13.2335 
  48   2.0000      -0.462903       -12.5962 
  49   2.0000      -0.450299       -12.2533 
  50   2.0000      -0.447107       -12.1664 
  51   2.0000      -0.446493       -12.1497 
  52   2.0000      -0.435773       -11.8580 
  53   2.0000      -0.434758       -11.8304 
  54   2.0000      -0.416072       -11.3219 
  55   2.0000      -0.410338       -11.1659 
  56   2.0000      -0.400579       -10.9003 
  57   2.0000      -0.399936       -10.8828 
  58   2.0000      -0.385376       -10.4866 
  59   2.0000      -0.378234       -10.2923 
  60   2.0000      -0.376756       -10.2520 
  61   2.0000      -0.367243        -9.9932 
  62   2.0000      -0.365920        -9.9572 
  63   2.0000      -0.362539        -9.8652 
  64   2.0000      -0.344484        -9.3739 
  65   2.0000      -0.342627        -9.3234 
  66   2.0000      -0.341987        -9.3059 
  67   2.0000      -0.332666        -9.0523 
  68   2.0000      -0.321968        -8.7612 
  69   2.0000      -0.318454        -8.6656 
  70   2.0000      -0.317887        -8.6501 
  71   2.0000      -0.311114        -8.4659 
  72   2.0000      -0.310799        -8.4573 
  73   2.0000      -0.294097        -8.0028 
  74   2.0000      -0.270860        -7.3705 
  75   2.0000      -0.256481        -6.9792 
  76   2.0000      -0.235318        -6.4033 
  77   0.0000      -0.082465        -2.2440 
  78   0.0000      -0.031688        -0.8623 
  79   0.0000      -0.026039        -0.7085 
  80   0.0000       0.020804         0.5661 
  81   0.0000       0.030180         0.8212 
  82   0.0000       0.047587         1.2949 
  83   0.0000       0.055898         1.5211 
  84   0.0000       0.064275         1.7490 
  85   0.0000       0.068854         1.8736 
  86   0.0000       0.079927         2.1749 
  87   0.0000       0.084160         2.2901 
  88   0.0000       0.092056         2.5050 
  89   0.0000       0.093664         2.5487 
  90   0.0000       0.098233         2.6731 
  91   0.0000       0.101510         2.7622 
  92   0.0000       0.107455         2.9240 
  93   0.0000       0.111525         3.0347 
  94   0.0000       0.117671         3.2020 
  95   0.0000       0.119986         3.2650 
  96   0.0000       0.121929         3.3179 
  97   0.0000       0.124466         3.3869 
  98   0.0000       0.134689         3.6651 
  99   0.0000       0.135792         3.6951 
 100   0.0000       0.143447         3.9034 
 101   0.0000       0.149130         4.0580 
 102   0.0000       0.158225         4.3055 
 103   0.0000       0.161318         4.3897 
 104   0.0000       0.173403         4.7185 
 105   0.0000       0.179113         4.8739 
 106   0.0000       0.182078         4.9546 
 107   0.0000       0.185052         5.0355 
 108   0.0000       0.194017         5.2795 
 109   0.0000       0.196231         5.3397 
 110   0.0000       0.202692         5.5155 
 111   0.0000       0.206737         5.6256 
 112   0.0000       0.207483         5.6459 
 113   0.0000       0.208848         5.6830 
 114   0.0000       0.216284         5.8854 
 115   0.0000       0.222977         6.0675 
 116   0.0000       0.227693         6.1959 
 117   0.0000       0.231893         6.3101 
 118   0.0000       0.234893         6.3918 
 119   0.0000       0.240759         6.5514 
 120   0.0000       0.242666         6.6033 
 121   0.0000       0.246217         6.6999 
 122   0.0000       0.256464         6.9787 
 123   0.0000       0.261595         7.1184 
 124   0.0000       0.267240         7.2720 
 125   0.0000       0.270771         7.3680 
 126   0.0000       0.278624         7.5817 
 127   0.0000       0.280540         7.6339 
 128   0.0000       0.290523         7.9055 
 129   0.0000       0.293014         7.9733 
 130   0.0000       0.297134         8.0854 
 131   0.0000       0.305172         8.3042 
 132   0.0000       0.309022         8.4089 
 133   0.0000       0.317791         8.6475 
 134   0.0000       0.319390         8.6910 
 135   0.0000       0.322398         8.7729 
 136   0.0000       0.334197         9.0940 
 137   0.0000       0.337323         9.1790 
 138   0.0000       0.341548         9.2940 
 139   0.0000       0.347804         9.4642 
 140   0.0000       0.350888         9.5481 
 141   0.0000       0.355098         9.6627 
 142   0.0000       0.359490         9.7822 
 143   0.0000       0.364734         9.9249 
 144   0.0000       0.371163        10.0999 
 145   0.0000       0.380067        10.3422 
 146   0.0000       0.383303        10.4302 
 147   0.0000       0.390190        10.6176 
 148   0.0000       0.392424        10.6784 
 149   0.0000       0.398757        10.8507 
 150   0.0000       0.401229        10.9180 
 151   0.0000       0.405621        11.0375 
 152   0.0000       0.411863        11.2074 
 153   0.0000       0.416716        11.3394 
 154   0.0000       0.422188        11.4883 
 155   0.0000       0.424389        11.5482 
 156   0.0000       0.426539        11.6067 
 157   0.0000       0.427989        11.6462 
 158   0.0000       0.434407        11.8208 
 159   0.0000       0.440428        11.9847 
 160   0.0000       0.440612        11.9897 
 161   0.0000       0.442406        12.0385 
 162   0.0000       0.443789        12.0761 
 163   0.0000       0.447019        12.1640 
 164   0.0000       0.452347        12.3090 
 165   0.0000       0.457011        12.4359 
 166   0.0000       0.458736        12.4828 
 167   0.0000       0.466261        12.6876 
 168   0.0000       0.469243        12.7688 
 169   0.0000       0.474083        12.9004 
 170   0.0000       0.475222        12.9314 
 171   0.0000       0.477460        12.9924 
 172   0.0000       0.480279        13.0691 
 173   0.0000       0.486572        13.2403 
 174   0.0000       0.491472        13.3736 
 175   0.0000       0.498594        13.5674 
 176   0.0000       0.506462        13.7815 
 177   0.0000       0.508820        13.8457 
 178   0.0000       0.515421        14.0253 
 179   0.0000       0.519733        14.1426 
 180   0.0000       0.521903        14.2017 
 181   0.0000       0.524230        14.2650 
 182   0.0000       0.530104        14.4249 
 183   0.0000       0.541840        14.7442 
 184   0.0000       0.551267        15.0007 
 185   0.0000       0.556978        15.1561 
 186   0.0000       0.559538        15.2258 
 187   0.0000       0.569412        15.4945 
 188   0.0000       0.574338        15.6285 
 189   0.0000       0.581844        15.8328 
 190   0.0000       0.588464        16.0129 
 191   0.0000       0.591190        16.0871 
 192   0.0000       0.602366        16.3912 
 193   0.0000       0.606018        16.4906 
 194   0.0000       0.619393        16.8545 
 195   0.0000       0.623089        16.9551 
 196   0.0000       0.632178        17.2025 
 197   0.0000       0.635874        17.3030 
 198   0.0000       0.644366        17.5341 
 199   0.0000       0.651624        17.7316 
 200   0.0000       0.656593        17.8668 
 201   0.0000       0.664667        18.0865 
 202   0.0000       0.667668        18.1682 
 203   0.0000       0.682397        18.5690 
 204   0.0000       0.686455        18.6794 
 205   0.0000       0.693068        18.8593 
 206   0.0000       0.705619        19.2009 
 207   0.0000       0.708762        19.2864 
 208   0.0000       0.711219        19.3533 
 209   0.0000       0.720295        19.6002 
 210   0.0000       0.726598        19.7717 
 211   0.0000       0.739213        20.1150 
 212   0.0000       0.747098        20.3296 
 213   0.0000       0.759335        20.6626 
 214   0.0000       0.762483        20.7482 
 215   0.0000       0.766540        20.8586 
 216   0.0000       0.770106        20.9557 
 217   0.0000       0.776786        21.1374 
 218   0.0000       0.780748        21.2452 
 219   0.0000       0.790193        21.5022 
 220   0.0000       0.798148        21.7187 
 221   0.0000       0.814377        22.1603 
 222   0.0000       0.830436        22.5973 
 223   0.0000       0.832816        22.6621 
 224   0.0000       0.843394        22.9499 
 225   0.0000       0.845229        22.9998 
 226   0.0000       0.850476        23.1426 
 227   0.0000       0.863156        23.4877 
 228   0.0000       0.868645        23.6370 
 229   0.0000       0.880405        23.9570 
 230   0.0000       0.886468        24.1220 
 231   0.0000       0.897815        24.4308 
 232   0.0000       0.908671        24.7262 
 233   0.0000       0.916050        24.9270 
 234   0.0000       0.932315        25.3696 
 235   0.0000       0.935698        25.4616 
 236   0.0000       0.939145        25.5554 
 237   0.0000       0.954804        25.9815 
 238   0.0000       0.956380        26.0244 
 239   0.0000       0.968615        26.3574 
 240   0.0000       0.976324        26.5671 
 241   0.0000       0.990798        26.9610 
 242   0.0000       1.003621        27.3099 
 243   0.0000       1.017778        27.6951 
 244   0.0000       1.021346        27.7922 
 245   0.0000       1.031992        28.0819 
 246   0.0000       1.035664        28.1818 
 247   0.0000       1.049420        28.5562 
 248   0.0000       1.059358        28.8266 
 249   0.0000       1.066479        29.0204 
 250   0.0000       1.081355        29.4252 
 251   0.0000       1.084306        29.5055 
 252   0.0000       1.085591        29.5404 
 253   0.0000       1.089422        29.6447 
 254   0.0000       1.100524        29.9468 
 255   0.0000       1.115696        30.3596 
 256   0.0000       1.122091        30.5336 
 257   0.0000       1.131310        30.7845 
 258   0.0000       1.144633        31.1470 
 259   0.0000       1.148455        31.2511 
 260   0.0000       1.156896        31.4807 
 261   0.0000       1.161670        31.6107 
 262   0.0000       1.174083        31.9484 
 263   0.0000       1.181279        32.1442 
 264   0.0000       1.184805        32.2402 
 265   0.0000       1.200354        32.6633 
 266   0.0000       1.213954        33.0334 
 267   0.0000       1.220081        33.2001 
 268   0.0000       1.223354        33.2892 
 269   0.0000       1.241928        33.7946 
 270   0.0000       1.245869        33.9018 
 271   0.0000       1.254343        34.1324 
 272   0.0000       1.259093        34.2617 
 273   0.0000       1.273834        34.6628 
 274   0.0000       1.281803        34.8796 
 275   0.0000       1.288983        35.0750 
 276   0.0000       1.295144        35.2427 
 277   0.0000       1.306498        35.5516 
 278   0.0000       1.308471        35.6053 
 279   0.0000       1.318131        35.8682 
 280   0.0000       1.324776        36.0490 
 281   0.0000       1.329586        36.1799 
 282   0.0000       1.341253        36.4974 
 283   0.0000       1.358606        36.9696 
 284   0.0000       1.370089        37.2820 
 285   0.0000       1.387035        37.7431 
 286   0.0000       1.398868        38.0651 
 287   0.0000       1.406653        38.2770 
 288   0.0000       1.427071        38.8326 
 289   0.0000       1.441256        39.2186 
 290   0.0000       1.449565        39.4447 
 291   0.0000       1.461525        39.7701 
 292   0.0000       1.473655        40.1002 
 293   0.0000       1.482897        40.3517 
 294   0.0000       1.487371        40.4734 
 295   0.0000       1.495570        40.6965 
 296   0.0000       1.504492        40.9393 
 297   0.0000       1.506442        40.9924 
 298   0.0000       1.516203        41.2580 
 299   0.0000       1.519879        41.3580 
 300   0.0000       1.522473        41.4286 
 301   0.0000       1.533438        41.7270 
 302   0.0000       1.546325        42.0777 
 303   0.0000       1.562545        42.5190 
 304   0.0000       1.571858        42.7724 
 305   0.0000       1.574006        42.8309 
 306   0.0000       1.588108        43.2146 
 307   0.0000       1.593571        43.3633 
 308   0.0000       1.595691        43.4210 
 309   0.0000       1.598213        43.4896 
 310   0.0000       1.608978        43.7825 
 311   0.0000       1.612710        43.8841 
 312   0.0000       1.622689        44.1556 
 313   0.0000       1.623841        44.1869 
 314   0.0000       1.630367        44.3646 
 315   0.0000       1.632756        44.4296 
 316   0.0000       1.637557        44.5602 
 317   0.0000       1.653733        45.0004 
 318   0.0000       1.654929        45.0329 
 319   0.0000       1.656289        45.0699 
 320   0.0000       1.669534        45.4303 
 321   0.0000       1.678159        45.6650 
 322   0.0000       1.680670        45.7334 
 323   0.0000       1.687802        45.9274 
 324   0.0000       1.696736        46.1705 
 325   0.0000       1.703648        46.3586 
 326   0.0000       1.715240        46.6741 
 327   0.0000       1.726463        46.9794 
 328   0.0000       1.741314        47.3836 
 329   0.0000       1.742934        47.4276 
 330   0.0000       1.752327        47.6832 
 331   0.0000       1.758744        47.8579 
 332   0.0000       1.769720        48.1565 
 333   0.0000       1.774283        48.2807 
 334   0.0000       1.791294        48.7436 
 335   0.0000       1.796966        48.8979 
 336   0.0000       1.804743        49.1096 
 337   0.0000       1.806551        49.1588 
 338   0.0000       1.811889        49.3040 
 339   0.0000       1.815184        49.3937 
 340   0.0000       1.824507        49.6474 
 341   0.0000       1.831179        49.8289 
 342   0.0000       1.845470        50.2178 
 343   0.0000       1.852287        50.4033 
 344   0.0000       1.869208        50.8637 
 345   0.0000       1.874716        51.0136 
 346   0.0000       1.886432        51.3324 
 347   0.0000       1.892020        51.4845 
 348   0.0000       1.909011        51.9468 
 349   0.0000       1.912899        52.0526 
 350   0.0000       1.921762        52.2938 
 351   0.0000       1.930812        52.5401 
 352   0.0000       1.944805        52.9208 
 353   0.0000       1.950658        53.0801 
 354   0.0000       1.958229        53.2861 
 355   0.0000       1.960451        53.3466 
 356   0.0000       1.971051        53.6350 
 357   0.0000       1.972122        53.6642 
 358   0.0000       1.979691        53.8701 
 359   0.0000       1.981677        53.9242 
 360   0.0000       1.989423        54.1349 
 361   0.0000       1.994096        54.2621 
 362   0.0000       2.005835        54.5815 
 363   0.0000       2.014712        54.8231 
 364   0.0000       2.032326        55.3024 
 365   0.0000       2.037053        55.4310 
 366   0.0000       2.051111        55.8136 
 367   0.0000       2.059498        56.0418 
 368   0.0000       2.077531        56.5325 
 369   0.0000       2.081441        56.6389 
 370   0.0000       2.086703        56.7821 
 371   0.0000       2.090173        56.8765 
 372   0.0000       2.098294        57.0975 
 373   0.0000       2.122443        57.7546 
 374   0.0000       2.126179        57.8563 
 375   0.0000       2.129242        57.9396 
 376   0.0000       2.134625        58.0861 
 377   0.0000       2.139864        58.2287 
 378   0.0000       2.154521        58.6275 
 379   0.0000       2.163884        58.8823 
 380   0.0000       2.172793        59.1247 
 381   0.0000       2.176793        59.2336 
 382   0.0000       2.180286        59.3286 
 383   0.0000       2.190477        59.6059 
 384   0.0000       2.197790        59.8049 
 385   0.0000       2.203265        59.9539 
 386   0.0000       2.206999        60.0555 
 387   0.0000       2.212333        60.2006 
 388   0.0000       2.229757        60.6748 
 389   0.0000       2.230376        60.6916 
 390   0.0000       2.246264        61.1239 
 391   0.0000       2.248927        61.1964 
 392   0.0000       2.254825        61.3569 
 393   0.0000       2.259336        61.4797 
 394   0.0000       2.267662        61.7062 
 395   0.0000       2.275442        61.9179 
 396   0.0000       2.275873        61.9296 
 397   0.0000       2.300505        62.5999 
 398   0.0000       2.307620        62.7935 
 399   0.0000       2.317174        63.0535 
 400   0.0000       2.327840        63.3438 
 401   0.0000       2.339106        63.6503 
 402   0.0000       2.356835        64.1328 
 403   0.0000       2.367784        64.4307 
 404   0.0000       2.374967        64.6261 
 405   0.0000       2.391437        65.0743 
 406   0.0000       2.409015        65.5526 
 407   0.0000       2.427315        66.0506 
 408   0.0000       2.432408        66.1892 
 409   0.0000       2.435640        66.2771 
 410   0.0000       2.461618        66.9840 
 411   0.0000       2.464275        67.0563 
 412   0.0000       2.472991        67.2935 
 413   0.0000       2.481034        67.5124 
 414   0.0000       2.489726        67.7489 
 415   0.0000       2.500501        68.0421 
 416   0.0000       2.502725        68.1026 
 417   0.0000       2.506314        68.2003 
 418   0.0000       2.516574        68.4795 
 419   0.0000       2.527003        68.7633 
 420   0.0000       2.534080        68.9558 
 421   0.0000       2.545000        69.2530 
 422   0.0000       2.554835        69.5206 
 423   0.0000       2.559723        69.6536 
 424   0.0000       2.562413        69.7268 
 425   0.0000       2.570266        69.9405 
 426   0.0000       2.581570        70.2481 
 427   0.0000       2.589428        70.4619 
 428   0.0000       2.593616        70.5759 
 429   0.0000       2.598345        70.7046 
 430   0.0000       2.600779        70.7708 
 431   0.0000       2.614351        71.1401 
 432   0.0000       2.623356        71.3851 
 433   0.0000       2.626680        71.4756 
 434   0.0000       2.630832        71.5886 
 435   0.0000       2.639180        71.8157 
 436   0.0000       2.643920        71.9447 
 437   0.0000       2.644949        71.9727 
 438   0.0000       2.655592        72.2623 
 439   0.0000       2.663397        72.4747 
 440   0.0000       2.670653        72.6722 
 441   0.0000       2.674224        72.7693 
 442   0.0000       2.676277        72.8252 
 443   0.0000       2.685664        73.0806 
 444   0.0000       2.688279        73.1518 
 445   0.0000       2.699096        73.4461 
 446   0.0000       2.711566        73.7855 
 447   0.0000       2.716780        73.9273 
 448   0.0000       2.720201        74.0204 
 449   0.0000       2.729507        74.2737 
 450   0.0000       2.731447        74.3264 
 451   0.0000       2.742171        74.6183 
 452   0.0000       2.748593        74.7930 
 453   0.0000       2.758845        75.0720 
 454   0.0000       2.760909        75.1281 
 455   0.0000       2.776896        75.5632 
 456   0.0000       2.780946        75.6734 
 457   0.0000       2.787411        75.8493 
 458   0.0000       2.798370        76.1475 
 459   0.0000       2.799350        76.1742 
 460   0.0000       2.810584        76.4799 
 461   0.0000       2.816083        76.6295 
 462   0.0000       2.825885        76.8963 
 463   0.0000       2.833061        77.0915 
 464   0.0000       2.846693        77.4625 
 465   0.0000       2.856685        77.7344 
 466   0.0000       2.862321        77.8877 
 467   0.0000       2.875879        78.2566 
 468   0.0000       2.897019        78.8319 
 469   0.0000       2.902018        78.9679 
 470   0.0000       2.906902        79.1008 
 471   0.0000       2.921771        79.5054 
 472   0.0000       2.930074        79.7314 
 473   0.0000       2.935318        79.8741 
 474   0.0000       2.949914        80.2712 
 475   0.0000       2.954241        80.3890 
 476   0.0000       2.965292        80.6897 
 477   0.0000       2.972397        80.8830 
 478   0.0000       2.984301        81.2070 
 479   0.0000       2.991541        81.4040 
 480   0.0000       3.007439        81.8366 
 481   0.0000       3.020073        82.1804 
 482   0.0000       3.021305        82.2139 
 483   0.0000       3.024747        82.3076 
 484   0.0000       3.031069        82.4796 
 485   0.0000       3.052430        83.0608 
 486   0.0000       3.072024        83.5940 
 487   0.0000       3.080109        83.8140 
 488   0.0000       3.084213        83.9257 
 489   0.0000       3.093994        84.1918 
 490   0.0000       3.098872        84.3246 
 491   0.0000       3.116880        84.8146 
 492   0.0000       3.121712        84.9461 
 493   0.0000       3.131202        85.2043 
 494   0.0000       3.132745        85.2463 
 495   0.0000       3.145113        85.5829 
 496   0.0000       3.152442        85.7823 
 497   0.0000       3.158183        85.9385 
 498   0.0000       3.159227        85.9669 
 499   0.0000       3.171931        86.3126 
 500   0.0000       3.174198        86.3743 
 501   0.0000       3.182209        86.5923 
 502   0.0000       3.193022        86.8865 
 503   0.0000       3.196275        86.9751 
 504   0.0000       3.200639        87.0938 
 505   0.0000       3.202230        87.1371 
 506   0.0000       3.213441        87.4422 
 507   0.0000       3.223656        87.7201 
 508   0.0000       3.227708        87.8304 
 509   0.0000       3.236954        88.0820 
 510   0.0000       3.248140        88.3864 
 511   0.0000       3.257331        88.6365 
 512   0.0000       3.260532        88.7236 
 513   0.0000       3.271209        89.0141 
 514   0.0000       3.286718        89.4361 
 515   0.0000       3.291849        89.5758 
 516   0.0000       3.297760        89.7366 
 517   0.0000       3.312212        90.1299 
 518   0.0000       3.317940        90.2857 
 519   0.0000       3.323208        90.4291 
 520   0.0000       3.346714        91.0687 
 521   0.0000       3.353351        91.2493 
 522   0.0000       3.366727        91.6133 
 523   0.0000       3.368847        91.6710 
 524   0.0000       3.374949        91.8370 
 525   0.0000       3.380194        91.9797 
 526   0.0000       3.398611        92.4809 
 527   0.0000       3.406240        92.6885 
 528   0.0000       3.416047        92.9554 
 529   0.0000       3.419184        93.0407 
 530   0.0000       3.427541        93.2681 
 531   0.0000       3.432256        93.3964 
 532   0.0000       3.441140        93.6382 
 533   0.0000       3.453106        93.9638 
 534   0.0000       3.461592        94.1947 
 535   0.0000       3.463192        94.2382 
 536   0.0000       3.470642        94.4410 
 537   0.0000       3.477106        94.6169 
 538   0.0000       3.485250        94.8385 
 539   0.0000       3.499199        95.2181 
 540   0.0000       3.505552        95.3909 
 541   0.0000       3.508715        95.4770 
 542   0.0000       3.512562        95.5817 
 543   0.0000       3.529514        96.0429 
 544   0.0000       3.531931        96.1087 
 545   0.0000       3.534951        96.1909 
 546   0.0000       3.554049        96.7106 
 547   0.0000       3.555724        96.7562 
 548   0.0000       3.572711        97.2184 
 549   0.0000       3.578841        97.3852 
 550   0.0000       3.602099        98.0181 
 551   0.0000       3.607225        98.1576 
 552   0.0000       3.620879        98.5291 
 553   0.0000       3.645088        99.1879 
 554   0.0000       3.652722        99.3956 
 555   0.0000       3.662982        99.6748 
 556   0.0000       3.667165        99.7886 
 557   0.0000       3.695672       100.5643 
 558   0.0000       3.704894       100.8153 
 559   0.0000       3.713574       101.0515 
 560   0.0000       3.731254       101.5326 
 561   0.0000       3.739499       101.7569 
 562   0.0000       3.755610       102.1954 
 563   0.0000       3.759518       102.3017 
 564   0.0000       3.768880       102.5564 
 565   0.0000       3.777382       102.7878 
 566   0.0000       3.791584       103.1742 
 567   0.0000       3.809518       103.6623 
 568   0.0000       3.857880       104.9783 
 569   0.0000       3.874741       105.4371 
 570   0.0000       3.901893       106.1759 
 571   0.0000       3.914509       106.5192 
 572   0.0000       3.922803       106.7449 
 573   0.0000       3.932398       107.0060 
 574   0.0000       3.944996       107.3488 
 575   0.0000       3.950538       107.4996 
 576   0.0000       3.968885       107.9988 
 577   0.0000       3.977447       108.2318 
 578   0.0000       3.992760       108.6485 
 579   0.0000       4.003514       108.9412 
 580   0.0000       4.012333       109.1811 
 581   0.0000       4.026880       109.5770 
 582   0.0000       4.033060       109.7451 
 583   0.0000       4.040542       109.9487 
 584   0.0000       4.044375       110.0530 
 585   0.0000       4.058544       110.4386 
 586   0.0000       4.084203       111.1368 
 587   0.0000       4.087075       111.2150 
 588   0.0000       4.104166       111.6800 
 589   0.0000       4.117200       112.0347 
 590   0.0000       4.147764       112.8664 
 591   0.0000       4.168260       113.4241 
 592   0.0000       4.184764       113.8732 
 593   0.0000       4.191972       114.0694 
 594   0.0000       4.194812       114.1466 
 595   0.0000       4.197050       114.2075 
 596   0.0000       4.212853       114.6376 
 597   0.0000       4.214745       114.6890 
 598   0.0000       4.223800       114.9354 
 599   0.0000       4.229262       115.0841 
 600   0.0000       4.242518       115.4448 
 601   0.0000       4.260134       115.9241 
 602   0.0000       4.271027       116.2205 
 603   0.0000       4.287881       116.6792 
 604   0.0000       4.300814       117.0311 
 605   0.0000       4.305173       117.1497 
 606   0.0000       4.312803       117.3573 
 607   0.0000       4.332196       117.8851 
 608   0.0000       4.348560       118.3303 
 609   0.0000       4.353281       118.4588 
 610   0.0000       4.374564       119.0379 
 611   0.0000       4.408239       119.9543 
 612   0.0000       4.409725       119.9947 
 613   0.0000       4.436391       120.7203 
 614   0.0000       4.490567       122.1945 
 615   0.0000       4.495810       122.3372 
 616   0.0000       4.510326       122.7322 
 617   0.0000       4.526618       123.1755 
 618   0.0000       4.553863       123.9169 
 619   0.0000       4.591615       124.9442 
 620   0.0000       4.600382       125.1828 
 621   0.0000       4.640564       126.2762 
 622   0.0000       4.645796       126.4185 
 623   0.0000       4.653299       126.6227 
 624   0.0000       4.659802       126.7997 
 625   0.0000       4.661243       126.8389 
 626   0.0000       4.682923       127.4288 
 627   0.0000       4.704288       128.0102 
 628   0.0000       4.707202       128.0895 
 629   0.0000       4.723299       128.5275 
 630   0.0000       4.768945       129.7696 
 631   0.0000       4.791401       130.3807 
 632   0.0000       4.805154       130.7549 
 633   0.0000       4.828306       131.3849 
 634   0.0000       4.842121       131.7608 
 635   0.0000       4.852046       132.0309 
 636   0.0000       4.872790       132.5954 
 637   0.0000       4.873443       132.6131 
 638   0.0000       4.891028       133.0916 
 639   0.0000       4.909217       133.5866 
 640   0.0000       4.932473       134.2194 
 641   0.0000       4.994386       135.9042 
 642   0.0000       5.002164       136.1158 
 643   0.0000       5.027309       136.8000 
 644   0.0000       5.081045       138.2623 
 645   0.0000       5.082204       138.2938 
 646   0.0000       5.096464       138.6818 
 647   0.0000       5.124354       139.4408 
 648   0.0000       5.124633       139.4483 
 649   0.0000       5.128820       139.5623 
 650   0.0000       5.139592       139.8554 
 651   0.0000       5.161986       140.4648 
 652   0.0000       5.182778       141.0306 
 653   0.0000       5.193269       141.3160 
 654   0.0000       5.208223       141.7230 
 655   0.0000       5.223214       142.1309 
 656   0.0000       5.229274       142.2958 
 657   0.0000       5.280187       143.6812 
 658   0.0000       5.288430       143.9055 
 659   0.0000       5.339014       145.2819 
 660   0.0000       5.346493       145.4855 
 661   0.0000       5.382307       146.4600 
 662   0.0000       5.394976       146.8048 
 663   0.0000       5.403257       147.0301 
 664   0.0000       5.417652       147.4218 
 665   0.0000       5.431740       147.8052 
 666   0.0000       5.448652       148.2654 
 667   0.0000       5.459334       148.5560 
 668   0.0000       5.503247       149.7510 
 669   0.0000       5.552179       151.0825 
 670   0.0000       5.572828       151.6444 
 671   0.0000       5.574032       151.6771 
 672   0.0000       5.614753       152.7852 
 673   0.0000       5.634462       153.3215 
 674   0.0000       5.703899       155.2110 
 675   0.0000       5.872086       159.7876 
 676   0.0000       5.946186       161.8040 
 677   0.0000       6.097164       165.9123 
 678   0.0000       6.240609       169.8156 
 679   0.0000       6.311097       171.7337 
 680   0.0000       6.326571       172.1547 
 681   0.0000       6.352957       172.8727 
 682   0.0000       6.367793       173.2764 
 683   0.0000       6.382037       173.6641 
 684   0.0000       6.410907       174.4497 
 685   0.0000       6.427402       174.8985 
 686   0.0000       6.444525       175.3645 
 687   0.0000       6.469381       176.0408 
 688   0.0000       6.667625       181.4353 
 689   0.0000       6.850330       186.4070 
 690   0.0000       6.872172       187.0013 
 691   0.0000       6.926172       188.4707 
 692   0.0000       6.970249       189.6701 
 693   0.0000       7.089742       192.9217 
 694   0.0000       7.090181       192.9336 
 695   0.0000       7.255403       197.4296 
 696   0.0000       7.299930       198.6412 
 697   0.0000       7.361093       200.3055 
 698   0.0000       7.408578       201.5977 
 699   0.0000      10.705071       291.2998 
 700   0.0000      10.785381       293.4851 
 701   0.0000      11.323099       308.1172 
 702   0.0000      22.023036       599.2773 
 703   0.0000      22.393872       609.3682 
 704   0.0000      22.414466       609.9286 
 705   0.0000      22.469481       611.4257 
 706   0.0000      22.494951       612.1187 
 707   0.0000      22.509820       612.5234 
 708   0.0000      22.574991       614.2967 
 709   0.0000      22.576603       614.3406 
[...]


-----------
IR SPECTRUM
-----------

 Mode   freq       eps      Int      T**2         TX        TY        TZ
       cm**-1   L/(mol*cm) km/mol    a.u.
----------------------------------------------------------------------------
  7:      8.86   0.000887    4.48  0.031231  ( 0.009937 -0.031968 -0.173524)
  8:     18.68   0.000537    2.71  0.008966  (-0.075440 -0.020253 -0.053519)
  9:     34.24   0.000092    0.46  0.000834  ( 0.021395  0.013646 -0.013785)
 10:     34.98   0.000324    1.64  0.002888  ( 0.053642 -0.001451  0.002897)
 11:     44.35   0.000225    1.14  0.001586  ( 0.008774  0.011418 -0.037136)
 12:     46.53   0.000413    2.09  0.002772  (-0.014060 -0.023880 -0.044762)
 13:     53.47   0.000486    2.46  0.002835  (-0.009553 -0.029859  0.043042)
 14:     61.15   0.001976    9.98  0.010083  ( 0.000179 -0.002606  0.100381)
 15:     81.07   0.003594   18.16  0.013832  ( 0.078611 -0.002974  0.087429)
 16:     89.73   0.003555   17.97  0.012364  (-0.070040  0.061638 -0.060488)
 17:    150.50   0.000066    0.33  0.000137  ( 0.006804 -0.001371 -0.009427)
 18:    182.30   0.001934    9.77  0.003311  ( 0.048957  0.011359 -0.028016)
 19:    193.58   0.004660   23.55  0.007512  ( 0.027265 -0.031627  0.075951)
 20:    229.75   0.001120    5.66  0.001521  (-0.025880 -0.017348 -0.023460)
 21:    240.66   0.019401   98.05  0.025158  (-0.070918  0.019475 -0.140532)
 22:    248.02   0.011419   57.71  0.014367  (-0.047208  0.022193 -0.107917)
 23:    249.55   0.008878   44.87  0.011103  ( 0.041462 -0.032550  0.091236)
 24:    265.50   0.000498    2.52  0.000585  (-0.021175 -0.010384  0.005398)
 25:    297.49   0.000299    1.51  0.000314  ( 0.012110 -0.006127 -0.011397)
 26:    311.51   0.000170    0.86  0.000170  (-0.000418 -0.007749 -0.010495)
 27:    382.68   0.000233    1.18  0.000190  (-0.009904 -0.001336  0.009482)
 28:    404.10   0.000271    1.37  0.000209  ( 0.007749  0.007162  0.009881)
 29:    414.51   0.002774   14.02  0.002088  (-0.033246  0.025944 -0.017602)
 30:    452.05   0.000618    3.13  0.000427  (-0.002266 -0.006344  0.019533)
 31:    454.60   0.001373    6.94  0.000943  ( 0.029184  0.008590  0.004146)
 32:    464.45   0.000516    2.61  0.000347  ( 0.011991  0.013982 -0.002731)
 33:    471.13   0.003319   16.77  0.002198  (-0.010176 -0.013830  0.043629)
 34:    515.28   0.026298  132.90  0.015926  ( 0.111335  0.018404 -0.056497)
 35:    549.00   0.002331   11.78  0.001325  (-0.015644  0.027038  0.018689)
 36:    576.28   0.000130    0.66  0.000071  ( 0.006856 -0.001422  0.004640)
 37:    603.18   0.001394    7.04  0.000721  (-0.021082  0.008952  0.014016)
 38:    658.23   0.003203   16.19  0.001519  (-0.019218 -0.002084 -0.033836)
 39:    696.77   0.003920   19.81  0.001756  (-0.024196  0.034152 -0.001998)
 40:    710.43   0.008578   43.35  0.003768  ( 0.030391 -0.006145 -0.052978)
 41:    774.98   0.009914   50.10  0.003992  ( 0.005538 -0.011408  0.061897)
 42:    800.94   0.013872   70.10  0.005405  ( 0.069340  0.008831 -0.022774)
 43:    817.14   0.004448   22.48  0.001699  (-0.032716  0.008756  0.023491)
 44:    818.01   0.001019    5.15  0.000389  (-0.011315 -0.001491  0.016073)
 45:    825.16   0.002634   13.31  0.000996  ( 0.031384  0.002712 -0.001978)
 46:    855.45   0.008005   40.46  0.002920  ( 0.042945 -0.023746  0.022632)
 47:    866.82   0.010107   51.08  0.003639  (-0.054565 -0.010795  0.023340)
 48:    876.66   0.007809   39.46  0.002780  ( 0.015784 -0.028200 -0.041659)
 49:    880.80   0.002067   10.45  0.000732  ( 0.002977  0.010483 -0.024771)
 50:    900.03   0.016148   81.61  0.005599  ( 0.010643 -0.009278  0.073483)
 51:    917.15   0.004295   21.71  0.001461  (-0.012672 -0.000874  0.036057)
 52:    936.00   0.000429    2.17  0.000143  (-0.011045  0.001416  0.004382)
 53:    957.66   0.002299   11.62  0.000749  ( 0.013630 -0.023417 -0.003864)
 54:    966.97   0.030752  155.41  0.009924  ( 0.033258  0.019063 -0.091950)
 55:   1003.10   0.000094    0.47  0.000029  (-0.003673 -0.003292  0.002199)
 56:   1020.54   0.003812   19.26  0.001166  (-0.033372 -0.006442  0.003215)
 57:   1021.73   0.000632    3.19  0.000193  (-0.003592  0.001055  0.013379)
 58:   1023.15   0.000294    1.49  0.000090  (-0.003678  0.003883 -0.007823)
 59:   1053.99   0.001974    9.98  0.000584  ( 0.021912  0.009618 -0.003428)
 60:   1059.45   0.001934    9.77  0.000570  (-0.008169  0.021982 -0.004441)
 61:   1081.15   0.007336   37.07  0.002117  (-0.033508 -0.020779 -0.023724)
 62:   1101.40   0.004766   24.08  0.001350  ( 0.034977  0.001396  0.011179)
 63:   1104.41   0.001760    8.89  0.000497  ( 0.021490  0.001698  0.005712)
 64:   1104.87   0.007752   39.18  0.002190  ( 0.021903 -0.040887  0.006179)
 65:   1126.73   0.000491    2.48  0.000136  ( 0.003442 -0.010948  0.002091)
 66:   1147.26   0.002774   14.02  0.000755  ( 0.025239 -0.010075  0.004010)
 67:   1189.49   0.000492    2.49  0.000129  ( 0.007370 -0.008184  0.002809)
 68:   1199.66   0.001241    6.27  0.000323  (-0.012899 -0.005948  0.011008)
 69:   1206.47   0.002542   12.85  0.000658  ( 0.008730 -0.024038  0.001883)
 70:   1225.53   0.007845   39.64  0.001998  ( 0.013558 -0.038329  0.018564)
 71:   1282.34   0.002844   14.37  0.000692  (-0.019761 -0.005372  0.016516)
 72:   1288.25   0.003701   18.71  0.000897  ( 0.025983 -0.008183  0.012432)
 73:   1297.55   0.000248    1.25  0.000060  (-0.003330  0.006944  0.000633)
 74:   1333.36   0.013251   66.97  0.003101  ( 0.053230  0.005923  0.015258)
 75:   1335.87   0.000183    0.93  0.000043  ( 0.004428  0.000882  0.004733)
 76:   1344.30   0.000340    1.72  0.000079  ( 0.001573 -0.008746  0.000028)
 77:   1356.97   0.000266    1.35  0.000061  ( 0.004309 -0.006407 -0.001289)
 78:   1369.74   0.000083    0.42  0.000019  (-0.001229  0.004167  0.000238)
 79:   1373.07   0.004670   23.60  0.001061  ( 0.008962 -0.004140 -0.031049)
 80:   1378.42   0.000409    2.07  0.000093  (-0.008792  0.003131  0.002365)
 81:   1381.12   0.000591    2.99  0.000134  ( 0.008844  0.007256 -0.001658)
 82:   1398.39   0.002098   10.60  0.000468  (-0.015888 -0.004950  0.013829)
 83:   1400.66   0.012039   60.84  0.002682  (-0.011484  0.037721  0.033578)
 84:   1421.56   0.029666  149.92  0.006512  ( 0.044573 -0.035347 -0.057238)
 85:   1462.11   0.003122   15.78  0.000666  ( 0.007180 -0.024716  0.001970)
 86:   1470.19   0.003397   17.17  0.000721  ( 0.025123 -0.000905  0.009443)
 87:   1472.94   0.002971   15.01  0.000629  (-0.022686  0.008538 -0.006468)
 88:   1478.12   0.001997   10.09  0.000422  ( 0.011256  0.006182  0.016020)
 89:   1479.39   0.000762    3.85  0.000161  (-0.005563 -0.009372  0.006482)
 90:   1484.69   0.001727    8.73  0.000363  (-0.015923 -0.007362  0.007436)
 91:   1484.96   0.002685   13.57  0.000564  (-0.010986 -0.006536 -0.020020)
 92:   1491.51   0.002004   10.13  0.000419  ( 0.005609 -0.019429 -0.003208)
 93:   1497.22   0.000797    4.03  0.000166  ( 0.009089 -0.006244  0.006670)
 94:   1510.70   0.010220   51.65  0.002111  ( 0.033910 -0.027824  0.013676)
 95:   1567.22   0.120826  610.61  0.024059  ( 0.152268  0.026311  0.013454)
 96:   1612.54   0.008918   45.07  0.001726  (-0.036801  0.013480 -0.013779)
 97:   1634.35   0.003391   17.14  0.000647  (-0.005316  0.024795 -0.002092)
 98:   1648.10   0.014151   71.51  0.002679  (-0.007802  0.050623  0.007473)
 99:   3005.36   0.008054   40.70  0.000836  ( 0.014152  0.005196 -0.024678)
100:   3010.09   0.011330   57.26  0.001175  (-0.005030  0.033344  0.006124)
101:   3012.19   0.015960   80.66  0.001653  ( 0.038397  0.006601  0.011644)
102:   3017.88   0.008443   42.67  0.000873  (-0.002896  0.006782  0.028612)
103:   3023.51   0.014706   74.32  0.001518  ( 0.013568  0.019351 -0.030972)
104:   3050.60   0.288046  1455.67  0.029466  (-0.151247 -0.048948  0.064763)
105:   3054.12   0.001874    9.47  0.000191  ( 0.005027  0.010313 -0.007735)
106:   3056.05   0.045509  229.99  0.004647  (-0.054302 -0.020574  0.035709)
107:   3058.92   0.023994  121.26  0.002448  ( 0.024736 -0.042825 -0.001398)
108:   3065.15   0.125984  636.67  0.012826  (-0.107001 -0.035550 -0.010654)
109:   3076.67   0.014720   74.39  0.001493  ( 0.003699  0.031546 -0.022003)
110:   3079.61   0.020155  101.86  0.002042  (-0.014536  0.010127  0.041575)
111:   3119.03   0.005668   28.64  0.000567  (-0.003129  0.011651 -0.020531)
112:   3120.86   0.003796   19.18  0.000380  (-0.000271  0.015850  0.011324)
113:   3142.57   0.001309    6.61  0.000130  ( 0.009333 -0.006381 -0.001459)
114:   3186.44   0.001111    5.61  0.000109  ( 0.008770  0.004779  0.003006)
115:   3204.73   0.000184    0.93  0.000018  (-0.001819 -0.003757 -0.000691)
116:   3206.33   0.000062    0.31  0.000006  (-0.001681 -0.001608 -0.000781)
117:   3223.28   0.000087    0.44  0.000008  (-0.002765  0.000690  0.000548)
118:   3464.77   0.000736    3.72  0.000066  (-0.001577 -0.000840 -0.007946)
119:   3811.83   0.012762   64.49  0.001045  ( 0.024832 -0.013354 -0.015806)

* The epsilon (eps) is given for a Dirac delta lineshape.
** The dipole moment derivative (T) already includes vibrational overlap.

The first frequency considered to be a vibration is 7
The total number of vibrations considered is 113


--------------------------
THERMOCHEMISTRY AT 298.15K
--------------------------

Temperature         ... 298.15 K
Pressure            ... 1.00 atm
Total Mass          ... 288.77 AMU

Throughout the following assumptions are being made:
  (1) The electronic state is orbitally nondegenerate
  (2) There are no thermally accessible electronically excited states
  (3) Hindered rotations indicated by low frequency modes are not
      treated as such but are treated as vibrations and this may
      cause some error
  (4) All equations used are the standard statistical mechanics
      equations for an ideal gas
  (5) All vibrations are strictly harmonic

freq.       8.86  E(vib)   ...       0.58 
freq.      18.68  E(vib)   ...       0.57 
freq.      34.24  E(vib)   ...       0.54 
freq.      34.98  E(vib)   ...       0.54 
freq.      44.35  E(vib)   ...       0.53 
freq.      46.53  E(vib)   ...       0.53 
freq.      53.47  E(vib)   ...       0.52 
freq.      61.15  E(vib)   ...       0.51 
freq.      81.07  E(vib)   ...       0.48 
freq.      89.73  E(vib)   ...       0.47 
freq.     150.50  E(vib)   ...       0.40 
freq.     182.30  E(vib)   ...       0.37 
freq.     193.58  E(vib)   ...       0.36 
freq.     229.75  E(vib)   ...       0.32 
freq.     240.66  E(vib)   ...       0.31 
freq.     248.02  E(vib)   ...       0.31 
freq.     249.55  E(vib)   ...       0.31 
freq.     265.50  E(vib)   ...       0.29 
freq.     297.49  E(vib)   ...       0.27 
freq.     311.51  E(vib)   ...       0.25 
freq.     382.68  E(vib)   ...       0.20 
freq.     404.10  E(vib)   ...       0.19 
freq.     414.51  E(vib)   ...       0.19 
freq.     452.05  E(vib)   ...       0.16 
freq.     454.60  E(vib)   ...       0.16 
freq.     464.45  E(vib)   ...       0.16 
freq.     471.13  E(vib)   ...       0.15 
freq.     515.28  E(vib)   ...       0.13 
freq.     549.00  E(vib)   ...       0.12 
freq.     576.28  E(vib)   ...       0.11 
freq.     603.18  E(vib)   ...       0.10 
freq.     658.23  E(vib)   ...       0.08 
freq.     696.77  E(vib)   ...       0.07 
freq.     710.43  E(vib)   ...       0.07 
freq.     774.98  E(vib)   ...       0.05 
freq.     800.94  E(vib)   ...       0.05 
freq.     817.14  E(vib)   ...       0.05 
freq.     818.01  E(vib)   ...       0.05 
freq.     825.16  E(vib)   ...       0.04 
freq.     855.45  E(vib)   ...       0.04 
freq.     866.82  E(vib)   ...       0.04 
freq.     876.66  E(vib)   ...       0.04 
freq.     880.80  E(vib)   ...       0.04 
freq.     900.03  E(vib)   ...       0.03 
freq.     917.15  E(vib)   ...       0.03 
freq.     936.00  E(vib)   ...       0.03 
freq.     957.66  E(vib)   ...       0.03 
freq.     966.97  E(vib)   ...       0.03 
freq.    1003.10  E(vib)   ...       0.02 
freq.    1020.54  E(vib)   ...       0.02 
freq.    1021.73  E(vib)   ...       0.02 
freq.    1023.15  E(vib)   ...       0.02 
freq.    1053.99  E(vib)   ...       0.02 
freq.    1059.45  E(vib)   ...       0.02 
freq.    1081.15  E(vib)   ...       0.02 
freq.    1101.40  E(vib)   ...       0.02 
freq.    1104.41  E(vib)   ...       0.02 
freq.    1104.87  E(vib)   ...       0.02 
freq.    1126.73  E(vib)   ...       0.01 
freq.    1147.26  E(vib)   ...       0.01 
freq.    1189.49  E(vib)   ...       0.01 
freq.    1199.66  E(vib)   ...       0.01 
freq.    1206.47  E(vib)   ...       0.01 
freq.    1225.53  E(vib)   ...       0.01 
freq.    1282.34  E(vib)   ...       0.01 
freq.    1288.25  E(vib)   ...       0.01 
freq.    1297.55  E(vib)   ...       0.01 
freq.    1333.36  E(vib)   ...       0.01 
freq.    1335.87  E(vib)   ...       0.01 
freq.    1344.30  E(vib)   ...       0.01 
freq.    1356.97  E(vib)   ...       0.01 
freq.    1369.74  E(vib)   ...       0.01 
freq.    1373.07  E(vib)   ...       0.01 
freq.    1378.42  E(vib)   ...       0.01 
freq.    1381.12  E(vib)   ...       0.01 
freq.    1398.39  E(vib)   ...       0.00 
freq.    1400.66  E(vib)   ...       0.00 
freq.    1421.56  E(vib)   ...       0.00 
freq.    1462.11  E(vib)   ...       0.00 
freq.    1470.19  E(vib)   ...       0.00 
freq.    1472.94  E(vib)   ...       0.00 
freq.    1478.12  E(vib)   ...       0.00 
freq.    1479.39  E(vib)   ...       0.00 
freq.    1484.69  E(vib)   ...       0.00 
freq.    1484.96  E(vib)   ...       0.00 
freq.    1491.51  E(vib)   ...       0.00 
freq.    1497.22  E(vib)   ...       0.00 
freq.    1510.70  E(vib)   ...       0.00 
freq.    1567.22  E(vib)   ...       0.00 
freq.    1612.54  E(vib)   ...       0.00 
freq.    1634.35  E(vib)   ...       0.00 
freq.    1648.10  E(vib)   ...       0.00 
freq.    3005.36  E(vib)   ...       0.00 
freq.    3010.09  E(vib)   ...       0.00 
freq.    3012.19  E(vib)   ...       0.00 
freq.    3017.88  E(vib)   ...       0.00 
freq.    3023.51  E(vib)   ...       0.00 
freq.    3050.60  E(vib)   ...       0.00 
freq.    3054.12  E(vib)   ...       0.00 
freq.    3056.05  E(vib)   ...       0.00 
freq.    3058.92  E(vib)   ...       0.00 
freq.    3065.15  E(vib)   ...       0.00 
freq.    3076.67  E(vib)   ...       0.00 
freq.    3079.61  E(vib)   ...       0.00 
freq.    3119.03  E(vib)   ...       0.00 
freq.    3120.86  E(vib)   ...       0.00 
freq.    3142.57  E(vib)   ...       0.00 
freq.    3186.44  E(vib)   ...       0.00 
freq.    3204.73  E(vib)   ...       0.00 
freq.    3206.33  E(vib)   ...       0.00 
freq.    3223.28  E(vib)   ...       0.00 
freq.    3464.77  E(vib)   ...       0.00 
freq.    3811.83  E(vib)   ...       0.00 

------------
INNER ENERGY
------------

The inner energy is: U= E(el) + E(ZPE) + E(vib) + E(rot) + E(trans)
    E(el)   - is the total energy from the electronic structure calculation
              = E(kin-el) + E(nuc-el) + E(el-el) + E(nuc-nuc)
    E(ZPE)  - the the zero temperature vibrational energy from the frequency calculation
    E(vib)  - the the finite temperature correction to E(ZPE) due to population
              of excited vibrational states
    E(rot)  - is the rotational thermal energy
    E(trans)- is the translational thermal energy

Summary of contributions to the inner energy U:
Electronic energy                ...  -1303.21576538 Eh
Zero point energy                ...      0.33330277 Eh     209.15 kcal/mol
Thermal vibrational correction   ...      0.01800090 Eh      11.30 kcal/mol
Thermal rotational correction    ...      0.00141627 Eh       0.89 kcal/mol
Thermal translational correction ...      0.00141627 Eh       0.89 kcal/mol
-----------------------------------------------------------------------
Total thermal energy                  -1302.86162916 Eh


Summary of corrections to the electronic energy:
(perhaps to be used in another calculation)
Total thermal correction                  0.02083344 Eh      13.07 kcal/mol
Non-thermal (ZPE) correction              0.33330277 Eh     209.15 kcal/mol
-----------------------------------------------------------------------
Total correction                          0.35413622 Eh     222.22 kcal/mol


--------
ENTHALPY
--------

The enthalpy is H = U + kB*T
                kB is Boltzmann's constant
Total free energy                 ...  -1302.86162916 Eh 
Thermal Enthalpy correction       ...      0.00094421 Eh       0.59 kcal/mol
-----------------------------------------------------------------------
Total Enthalpy                    ...  -1302.86068495 Eh


Note: Only C1 symmetry has been detected, increase convergence thresholds 
      if your molecule has a higher symmetry. Symmetry factor of 1.0 is   
      used for the rotational entropy correction. 
 

Note: Rotational entropy computed according to Herzberg 
Infrared and Raman Spectra, Chapter V,1, Van Nostrand Reinhold, 1945 
Point Group:  C1, Symmetry Number:   1  
Rotational constants in cm-1:     0.014998     0.004987     0.004325 

Vibrational entropy computed according to the QRRHO of S. Grimme
Chem.Eur.J. 2012 18 9955


-------
ENTROPY
-------

The entropy contributions are T*S = T*(S(el)+S(vib)+S(rot)+S(trans))
     S(el)   - electronic entropy
     S(vib)  - vibrational entropy
     S(rot)  - rotational entropy
     S(trans)- translational entropy
The entropies will be listed as multiplied by the temperature to get
units of energy

Electronic entropy                ...      0.00000000 Eh      0.00 kcal/mol
Vibrational entropy               ...      0.03331821 Eh     20.91 kcal/mol
Rotational entropy                ...      0.01656573 Eh     10.40 kcal/mol
Translational entropy             ...      0.02037317 Eh     12.78 kcal/mol
-----------------------------------------------------------------------
Final entropy term                ...      0.07025711 Eh     44.09 kcal/mol

In case the symmetry of your molecule has not been determined correctly
or in case you have a reason to use a different symmetry number we print 
out the resulting rotational entropy values for sn=1,12 :
 --------------------------------------------------------
|  sn= 1 | S(rot)=       0.01656573 Eh     10.40 kcal/mol|
|  sn= 2 | S(rot)=       0.01591128 Eh      9.98 kcal/mol|
|  sn= 3 | S(rot)=       0.01552845 Eh      9.74 kcal/mol|
|  sn= 4 | S(rot)=       0.01525682 Eh      9.57 kcal/mol|
|  sn= 5 | S(rot)=       0.01504613 Eh      9.44 kcal/mol|
|  sn= 6 | S(rot)=       0.01487399 Eh      9.33 kcal/mol|
|  sn= 7 | S(rot)=       0.01472844 Eh      9.24 kcal/mol|
|  sn= 8 | S(rot)=       0.01460237 Eh      9.16 kcal/mol|
|  sn= 9 | S(rot)=       0.01449116 Eh      9.09 kcal/mol|
|  sn=10 | S(rot)=       0.01439168 Eh      9.03 kcal/mol|
|  sn=11 | S(rot)=       0.01430169 Eh      8.97 kcal/mol|
|  sn=12 | S(rot)=       0.01421953 Eh      8.92 kcal/mol|
 --------------------------------------------------------


-------------------
GIBBS FREE ENERGY
-------------------

The Gibbs free energy is G = H - T*S

Total enthalpy                    ...  -1302.86068495 Eh 
Total entropy correction          ...     -0.07025711 Eh    -44.09 kcal/mol
-----------------------------------------------------------------------
Final Gibbs free energy         ...  -1302.93094207 Eh

For completeness - the Gibbs free energy minus the electronic energy
G-E(el)                           ...      0.28482331 Eh    178.73 kcal/mol



Timings for individual modules:

Sum of individual times         ...     4544.744 sec (=  75.746 min)
GTO integral calculation        ...       11.423 sec (=   0.190 min)   0.3 %
SCF iterations                  ...      181.117 sec (=   3.019 min)   4.0 %
SCF Gradient evaluation         ...       35.218 sec (=   0.587 min)   0.8 %
Numerical frequency calculation ...     4316.986 sec (=  71.950 min)  95.0 %
                             ****ORCA TERMINATED NORMALLY****
TOTAL RUN TIME: 0 days 1 hours 13 minutes 56 seconds 426 msec
