 *******************************************************************************
 **                                                                           **
 **                              MOPAC v22.1.0                                **
 **                                                                           **
 *******************************************************************************
 **          Digital Object Identifier (DOI): 10.5281/zenodo.6511958          **
 **    Visit the DOI location for information on how to cite this program.    **
 *******************************************************************************

                              PM7 CALCULATION RESULTS

 *******************************************************************************
 *  CALCULATION DONE:                                Sun Mar 24 00:57:14 2024  *
 *  PM7        - The PM7 Hamiltonian to be used
 *  SINGLET    - SPIN STATE DEFINED AS A SINGLET
 *
 *
 *
 *                 CHARGE ON SYSTEM = 0
 *
 *
 *
 *  EPS=78.4   - USE ANDREAS KLAMT'S COSMO IMPLICIT SOLVATION MODEL
 *  THREADS    - USE A MAXIMUM OF 40 THREADS
 *  T=         - A TIME OF 14.0 DAYS REQUESTED
 *  DUMP=N     - RESTART FILE WRITTEN EVERY 30.0 MINUTES REQUESTED
 *  ITRY=      - DO A MAXIMUM OF 15000 ITERATIONS FOR SCF
 *  AUX        - OUTPUT AUXILIARY INFORMATION
 *  PL         - MONITOR CONVERGENCE IN DENSITY MATRIX
 *******************************************************************************
PM7 CHARGE=0 SINGLET AUX DUMP=30M ITRY=15000 eps=78.4 T=14D PL THREADS=40

 Mopac file generated by Gabedit
   ATOM   CHEMICAL          X               Y               Z
  NUMBER   SYMBOL      (ANGSTROMS)     (ANGSTROMS)     (ANGSTROMS)

     1       C         -0.10190000  *   0.05190000  *   0.14134000  *
     2       H         -1.14387000  *   0.17401000  *   0.44526000  *
     3       N         -0.22718000  *  -2.37867000  *   0.18199000  *
     4       O         -1.41802000  *  -2.57110000  *   0.35821000  *
     5       O          0.62529000  *  -3.12396000  *   0.64514000  *
     6       H          1.87776000  *   0.85949000  *   0.10187000  *
     7       C          0.20304000  *  -1.20609000  *  -0.61092000  *
     8       H         -0.34017000  *  -1.21506000  *  -1.59620000  *
     9       H          1.29164000  *  -1.30062000  *  -0.86765000  *
    10       C          0.83768000  *   0.96210000  *   0.38843000  *
    11       H          0.64114000  *   1.89565000  *   0.90080000  *
    12       C          6.53960000  *  -2.73916000  *   0.25284000  *
    13       C          7.91656000  *  -2.73222000  *  -0.02147000  *
    14       C          8.52902000  *  -1.50219000  *  -0.27685000  *
    15       C          7.76531000  *  -0.33873000  *  -0.24516000  *
    16       C          6.40014000  *  -0.43313000  *   0.05047000  *
    17       N          5.79890000  *  -1.61513000  *   0.28782000  *
    18       H          5.99748000  *  -3.67464000  *   0.44712000  *
    19       H          8.21704000  *   0.63147000  *  -0.44866000  *
    20       H          5.76069000  *   0.45738000  *   0.09950000  *
    21       C          8.68108000  *  -4.00249000  *  -0.06314000  *
    22       H          9.74895000  *  -3.86666000  *   0.16886000  *
    23       H          8.63194000  *  -4.46015000  *  -1.06674000  *
    24       H          8.29857000  *  -4.75428000  *   0.64447000  *
    25       H          9.59759000  *  -1.45501000  *  -0.50037000  *
    26       H          2.51966000  *  -2.99357000  *  -0.23082000  *
    27       O          3.17162000  *  -2.66949000  *  -0.85691000  *
    28       H          3.88518000  *  -2.30813000  *  -0.31176000  *



          CARTESIAN COORDINATES 

    NO.       ATOM           X           Y           Z

     1         C         -0.1019      0.0519      0.1413
     2         H         -1.1439      0.1740      0.4453
     3         N         -0.2272     -2.3787      0.1820
     4         O         -1.4180     -2.5711      0.3582
     5         O          0.6253     -3.1240      0.6451
     6         H          1.8778      0.8595      0.1019
     7         C          0.2030     -1.2061     -0.6109
     8         H         -0.3402     -1.2151     -1.5962
     9         H          1.2916     -1.3006     -0.8677
    10         C          0.8377      0.9621      0.3884
    11         H          0.6411      1.8957      0.9008
    12         C          6.5396     -2.7392      0.2528
    13         C          7.9166     -2.7322     -0.0215
    14         C          8.5290     -1.5022     -0.2769
    15         C          7.7653     -0.3387     -0.2452
    16         C          6.4001     -0.4331      0.0505
    17         N          5.7989     -1.6151      0.2878
    18         H          5.9975     -3.6746      0.4471
    19         H          8.2170      0.6315     -0.4487
    20         H          5.7607      0.4574      0.0995
    21         C          8.6811     -4.0025     -0.0631
    22         H          9.7490     -3.8667      0.1689
    23         H          8.6319     -4.4601     -1.0667
    24         H          8.2986     -4.7543      0.6445
    25         H          9.5976     -1.4550     -0.5004
    26         H          2.5197     -2.9936     -0.2308
    27         O          3.1716     -2.6695     -0.8569
    28         H          3.8852     -2.3081     -0.3118

 General Reference for PM7:
 "Optimization of Parameters for Semiempirical Methods VI: More Modifications to the 
 NDDO Approximations and Re-optimization of Parameters", J. J. P. Stewart, J. Mol. Mod., 1:32, 19 (2013)
 https://link.springer.com/article/10.1007/s00894-012-1667-x

           Empirical Formula: C9 H14 N2 O3  =    28 atoms



      MOLECULAR POINT GROUP   :   C1  


 SINGLET STATE CALCULATION


      RHF CALCULATION, NO. OF DOUBLY OCCUPIED LEVELS = 39


          Geometry optimization using EF
 ITERATION   1 PLS= 0.100E+01 0.000E+00 ENERGY    12869.596633 DELTAE    0.0000000
 ITERATION   2 PLS= 0.118E+01 0.000E+00 ENERGY      103.586908 DELTAE    0.0000000
 ITERATION   3 PLS= 0.959E-01 0.000E+00 ENERGY       24.927800 DELTAE  -78.6591079
 ITERATION   4 PLS= 0.625E-01 0.000E+00 ENERGY     -134.632669 DELTAE -159.5604688
 ITERATION   5 PLS= 0.234E-01 0.000E+00 ENERGY      -40.200849 DELTAE   94.4318192
 ITERATION   6 PLS= 0.272E-01 0.000E+00 ENERGY      -44.010633 DELTAE   -3.8097836
 ITERATION   7 PLS= 0.184E-01 0.000E+00 ENERGY      -47.741571 DELTAE   -3.7309377
 ITERATION   8 PLS= 0.464E-02 0.000E+00 ENERGY      -45.462133 DELTAE    2.2794377
 ITERATION   9 PLS= 0.205E-02 0.000E+00 ENERGY      -45.475495 DELTAE   -0.0133620
 ITERATION  10 PLS= 0.858E-03 0.000E+00 ENERGY      -45.481650 DELTAE   -0.0061548
 ITERATION  11 PLS= 0.167E-03 0.000E+00 ENERGY      -45.478836 DELTAE    0.0028142
 ITERATION  12 PLS= 0.925E-04 0.000E+00 ENERGY      -45.478854 DELTAE   -0.0000182
 ITERATION   1 PLS= 0.544E-04 0.000E+00 ENERGY      -58.592816 DELTAE -158.5928156
 ITERATION   2 PLS= 0.221E-01 0.000E+00 ENERGY      -59.808344 DELTAE   -1.2155287
 ITERATION   3 PLS= 0.863E-02 0.000E+00 ENERGY      -60.066696 DELTAE   -0.2583522
 ITERATION   4 PLS= 0.442E-02 0.000E+00 ENERGY      -60.259414 DELTAE   -0.1927176
 ITERATION   5 PLS= 0.105E-02 0.000E+00 ENERGY      -60.169673 DELTAE    0.0897409
 ITERATION   6 PLS= 0.633E-03 0.000E+00 ENERGY      -60.170601 DELTAE   -0.0009283
 ITERATION   7 PLS= 0.414E-03 0.000E+00 ENERGY      -60.172203 DELTAE   -0.0016012
 ITERATION   8 PLS= 0.488E-04 0.000E+00 ENERGY      -60.171199 DELTAE    0.0010040

          DIAGONAL MATRIX USED AS START HESSIAN

 CYCLE:     1 TIME:   0.139 TIME LEFT:  2.00W  GRAD.:     2.234 HEAT: -60.17120
 ITERATION   1 PLS= 0.304E-04 0.000E+00 ENERGY      -60.112262 DELTAE -160.1122619
 ITERATION   2 PLS= 0.670E-03 0.000E+00 ENERGY      -60.121982 DELTAE   -0.0097200
 ITERATION   3 PLS= 0.418E-03 0.000E+00 ENERGY      -60.123794 DELTAE   -0.0018126
 ITERATION   4 PLS= 0.249E-03 0.000E+00 ENERGY      -60.125341 DELTAE   -0.0015465
 ITERATION   1 PLS= 0.458E-04 0.000E+00 ENERGY      -60.140365 DELTAE -160.1403651
 ITERATION   2 PLS= 0.315E-03 0.000E+00 ENERGY      -60.143178 DELTAE   -0.0028129
 ITERATION   3 PLS= 0.193E-03 0.000E+00 ENERGY      -60.143693 DELTAE   -0.0005150
 ITERATION   4 PLS= 0.114E-03 0.000E+00 ENERGY      -60.144093 DELTAE   -0.0003995
 ITERATION   1 PLS= 0.232E-04 0.000E+00 ENERGY      -60.086624 DELTAE -160.0866243
 ITERATION   2 PLS= 0.172E-03 0.000E+00 ENERGY      -60.087252 DELTAE   -0.0006273
 ITERATION   3 PLS= 0.599E-04 0.000E+00 ENERGY      -60.087368 DELTAE   -0.0001167
 ITERATION   4 PLS= 0.362E-04 0.000E+00 ENERGY      -60.087442 DELTAE   -0.0000738
 ITERATION   1 PLS= 0.129E-04 0.000E+00 ENERGY      -60.086240 DELTAE -160.0862398
 ITERATION   2 PLS= 0.605E-04 0.000E+00 ENERGY      -60.086391 DELTAE   -0.0001513
 ITERATION   3 PLS= 0.305E-04 0.000E+00 ENERGY      -60.086420 DELTAE   -0.0000290
 ITERATION   4 PLS= 0.185E-04 0.000E+00 ENERGY      -60.086443 DELTAE   -0.0000230
 ITERATION   1 PLS= 0.574E-05 0.000E+00 ENERGY      -60.080540 DELTAE -160.0805402
 ITERATION   2 PLS= 0.677E-04 0.000E+00 ENERGY      -60.080576 DELTAE   -0.0000360
 ITERATION   3 PLS= 0.201E-04 0.000E+00 ENERGY      -60.080583 DELTAE   -0.0000065
 ITERATION   4 PLS= 0.875E-05 0.000E+00 ENERGY      -60.080587 DELTAE   -0.0000040
 ITERATION   1 PLS= 0.327E-05 0.000E+00 ENERGY      -60.080172 DELTAE -160.0801724
 ITERATION   2 PLS= 0.190E-04 0.000E+00 ENERGY      -60.080181 DELTAE   -0.0000089
 ITERATION   3 PLS= 0.876E-05 0.000E+00 ENERGY      -60.080183 DELTAE   -0.0000017
 ITERATION   4 PLS= 0.468E-05 0.000E+00 ENERGY      -60.080183 DELTAE   -0.0000004
 ITERATION   1 PLS= 0.262E-05 0.000E+00 ENERGY      -60.171326 DELTAE -160.1713258
 ITERATION   2 PLS= 0.317E-03 0.000E+00 ENERGY      -60.171412 DELTAE   -0.0000862
 ITERATION   3 PLS= 0.169E-03 0.000E+00 ENERGY      -60.171437 DELTAE   -0.0000248
 ITERATION   4 PLS= 0.103E-03 0.000E+00 ENERGY      -60.171466 DELTAE   -0.0000287
 CYCLE:     2 TIME:   0.331 TIME LEFT:  2.00W  GRAD.:     2.204 HEAT: -60.17145
 ITERATION   1 PLS= 0.117E-04 0.000E+00 ENERGY      -59.846911 DELTAE -159.8469114
 ITERATION   2 PLS= 0.307E-02 0.000E+00 ENERGY      -60.018450 DELTAE   -0.1715385
 ITERATION   3 PLS= 0.167E-02 0.000E+00 ENERGY      -60.053302 DELTAE   -0.0348520
 ITERATION   4 PLS= 0.102E-02 0.000E+00 ENERGY      -60.082489 DELTAE   -0.0291867
 ITERATION   5 PLS= 0.197E-03 0.000E+00 ENERGY      -60.065400 DELTAE    0.0170889
 ITERATION   6 PLS= 0.913E-04 0.000E+00 ENERGY      -60.065478 DELTAE   -0.0000784
 ITERATION   1 PLS= 0.627E-04 0.000E+00 ENERGY      -60.052563 DELTAE -160.0525629
 ITERATION   2 PLS= 0.160E-02 0.000E+00 ENERGY      -60.096831 DELTAE   -0.0442684
 ITERATION   3 PLS= 0.787E-03 0.000E+00 ENERGY      -60.105708 DELTAE   -0.0088767
 ITERATION   4 PLS= 0.488E-03 0.000E+00 ENERGY      -60.112822 DELTAE   -0.0071143
 ITERATION   5 PLS= 0.984E-04 0.000E+00 ENERGY      -60.108756 DELTAE    0.0040659
 ITERATION   1 PLS= 0.440E-04 0.000E+00 ENERGY      -60.098938 DELTAE -160.0989379
 ITERATION   2 PLS= 0.778E-03 0.000E+00 ENERGY      -60.109743 DELTAE   -0.0108050
 ITERATION   3 PLS= 0.412E-03 0.000E+00 ENERGY      -60.111938 DELTAE   -0.0021955
 ITERATION   4 PLS= 0.255E-03 0.000E+00 ENERGY      -60.113789 DELTAE   -0.0018502
 ITERATION   5 PLS= 0.452E-04 0.000E+00 ENERGY      -60.112710 DELTAE    0.0010784
 ITERATION   1 PLS= 0.264E-04 0.000E+00 ENERGY      -60.141517 DELTAE -160.1415168
 ITERATION   2 PLS= 0.380E-03 0.000E+00 ENERGY      -60.144115 DELTAE   -0.0025983
 ITERATION   3 PLS= 0.254E-03 0.000E+00 ENERGY      -60.144661 DELTAE   -0.0005460
 ITERATION   4 PLS= 0.155E-03 0.000E+00 ENERGY      -60.145174 DELTAE   -0.0005123
 ITERATION   1 PLS= 0.215E-04 0.000E+00 ENERGY      -60.131159 DELTAE -160.1311593
 ITERATION   2 PLS= 0.169E-03 0.000E+00 ENERGY      -60.131763 DELTAE   -0.0006038
 ITERATION   3 PLS= 0.871E-04 0.000E+00 ENERGY      -60.131888 DELTAE   -0.0001252
 ITERATION   4 PLS= 0.543E-04 0.000E+00 ENERGY      -60.132000 DELTAE   -0.0001119
 ITERATION   1 PLS= 0.113E-04 0.000E+00 ENERGY      -60.086380 DELTAE -160.0863804
 ITERATION   2 PLS= 0.140E-03 0.000E+00 ENERGY      -60.086555 DELTAE   -0.0001746
 ITERATION   3 PLS= 0.590E-04 0.000E+00 ENERGY      -60.086590 DELTAE   -0.0000352
 ITERATION   4 PLS= 0.271E-04 0.000E+00 ENERGY      -60.086613 DELTAE   -0.0000228
 ITERATION   1 PLS= 0.599E-05 0.000E+00 ENERGY      -60.080893 DELTAE -160.0808925
 ITERATION   2 PLS= 0.746E-04 0.000E+00 ENERGY      -60.080933 DELTAE   -0.0000400
 ITERATION   3 PLS= 0.210E-04 0.000E+00 ENERGY      -60.080941 DELTAE   -0.0000080
 ITERATION   4 PLS= 0.108E-04 0.000E+00 ENERGY      -60.080946 DELTAE   -0.0000051
 ITERATION   1 PLS= 0.265E-05 0.000E+00 ENERGY      -60.080454 DELTAE -160.0804542
 ITERATION   2 PLS= 0.186E-04 0.000E+00 ENERGY      -60.080464 DELTAE   -0.0000097
 ITERATION   3 PLS= 0.900E-05 0.000E+00 ENERGY      -60.080466 DELTAE   -0.0000020
 ITERATION   4 PLS= 0.521E-05 0.000E+00 ENERGY      -60.080466 DELTAE   -0.0000005
 ITERATION   1 PLS= 0.312E-05 0.000E+00 ENERGY      -60.080221 DELTAE -160.0802207
 ITERATION   2 PLS= 0.104E-04 0.000E+00 ENERGY      -60.080224 DELTAE   -0.0000030
 ITERATION   3 PLS= 0.543E-05 0.000E+00 ENERGY      -60.080224 DELTAE   -0.0000006
 ITERATION   4 PLS= 0.303E-05 0.000E+00 ENERGY      -60.080224 DELTAE   -0.0000002

     TRUST RADIUS NOW LESS THAN  0.00010 OPTIMIZATION TERMINATING
      THE GEOMETRY MAY NOT BE COMPLETELY OPTIMIZED
      (TO CONTINUE, ADD 'LET DDMIN=0.0' TO THE KEYWORD LINE)
 ITERATION   1 PLS= 0.181E-05 0.000E+00 ENERGY      -60.171326 DELTAE -160.1713257
 ITERATION   2 PLS= 0.316E-03 0.000E+00 ENERGY      -60.171412 DELTAE   -0.0000862
 ITERATION   3 PLS= 0.170E-03 0.000E+00 ENERGY      -60.171437 DELTAE   -0.0000249
 ITERATION   4 PLS= 0.104E-03 0.000E+00 ENERGY      -60.171466 DELTAE   -0.0000288

 -------------------------------------------------------------------------------
 PM7 CHARGE=0 SINGLET AUX DUMP=30M ITRY=15000 eps=78.4 T=14D PL THREADS=40

 Mopac file generated by Gabedit


     GEOMETRY OPTIMISED USING EIGENVECTOR FOLLOWING (EF).     
     SCF FIELD WAS ACHIEVED                                   


                              PM7 CALCULATION
                                                       MOPAC v22.1.0 Linux
                                                       Sun Mar 24 00:57:15 2024




          FINAL HEAT OF FORMATION =        -60.17145 KCAL/MOL =    -251.75735 KJ/MOL
          VAN DER WAALS AREA      =        267.55 SQUARE ANGSTROMS



          DIELECTRIC ENERGY       =         -0.71709 EV
          COSMO AREA              =        267.55 SQUARE ANGSTROMS
          COSMO VOLUME            =        264.23 CUBIC ANGSTROMS

          GRADIENT NORM           =          2.20353          =       0.41643 PER ATOM
          IONIZATION POTENTIAL    =          9.972523 EV
          HOMO LUMO ENERGIES (EV) =         -9.973 -0.580
          NO. OF FILLED LEVELS    =         39
          MOLECULAR WEIGHT        =        198.2212         POINT GROUP:  C1  

          MOLECULAR DIMENSIONS (Angstroms)

            Atom       Atom       Distance
            H    22    H     2    11.62139
            H    19    O     4     6.38366
            H     8    H    11     2.79626


          SCF CALCULATIONS        =         19

          WALL-CLOCK TIME         =      0.993 SECONDS
          COMPUTATION TIME        =     26.023 SECONDS



       FINAL  POINT  AND  DERIVATIVES

   PARAMETER     ATOM    TYPE            VALUE        GRADIENT
      1          1  C    CARTESIAN X    -0.101888     -0.254088  KCAL/ANGSTROM
      2          1  C    CARTESIAN Y     0.051896      0.130419  KCAL/ANGSTROM
      3          1  C    CARTESIAN Z     0.141340     -0.054215  KCAL/ANGSTROM
      4          2  H    CARTESIAN X    -1.143857     -0.271126  KCAL/ANGSTROM
      5          2  H    CARTESIAN Y     0.174025     -0.278729  KCAL/ANGSTROM
      6          2  H    CARTESIAN Z     0.445252      0.131945  KCAL/ANGSTROM
      7          3  N    CARTESIAN X    -0.227200      0.357972  KCAL/ANGSTROM
      8          3  N    CARTESIAN Y    -2.378668      0.029836  KCAL/ANGSTROM
      9          3  N    CARTESIAN Z     0.181989     -0.051002  KCAL/ANGSTROM
     10          4  O    CARTESIAN X    -1.418036      0.316901  KCAL/ANGSTROM
     11          4  O    CARTESIAN Y    -2.571101      0.094301  KCAL/ANGSTROM
     12          4  O    CARTESIAN Z     0.358197      0.192317  KCAL/ANGSTROM
     13          5  O    CARTESIAN X     0.625294     -0.066994  KCAL/ANGSTROM
     14          5  O    CARTESIAN Y    -3.123958     -0.005259  KCAL/ANGSTROM
     15          5  O    CARTESIAN Z     0.645174     -0.691590  KCAL/ANGSTROM
     16          6  H    CARTESIAN X     1.877750      0.199504  KCAL/ANGSTROM
     17          6  H    CARTESIAN Y     0.859513     -0.454289  KCAL/ANGSTROM
     18          6  H    CARTESIAN Z     0.101866      0.066955  KCAL/ANGSTROM
     19          7  C    CARTESIAN X     0.203048     -0.158574  KCAL/ANGSTROM
     20          7  C    CARTESIAN Y    -1.206092      0.084576  KCAL/ANGSTROM
     21          7  C    CARTESIAN Z    -0.610920     -0.051767  KCAL/ANGSTROM
     22          8  H    CARTESIAN X    -0.340174      0.080850  KCAL/ANGSTROM
     23          8  H    CARTESIAN Y    -1.215063      0.072015  KCAL/ANGSTROM
     24          8  H    CARTESIAN Z    -1.596209      0.151506  KCAL/ANGSTROM
     25          9  H    CARTESIAN X     1.291632      0.154104  KCAL/ANGSTROM
     26          9  H    CARTESIAN Y    -1.300624      0.104407  KCAL/ANGSTROM
     27          9  H    CARTESIAN Z    -0.867656      0.108028  KCAL/ANGSTROM
     28         10  C    CARTESIAN X     0.837684     -0.080134  KCAL/ANGSTROM
     29         10  C    CARTESIAN Y     0.962102      0.017507  KCAL/ANGSTROM
     30         10  C    CARTESIAN Z     0.388440     -0.263365  KCAL/ANGSTROM
     31         11  H    CARTESIAN X     0.641137      0.056949  KCAL/ANGSTROM
     32         11  H    CARTESIAN Y     1.895650      0.009301  KCAL/ANGSTROM
     33         11  H    CARTESIAN Z     0.900806     -0.145522  KCAL/ANGSTROM
     34         12  C    CARTESIAN X     6.539600     -0.023483  KCAL/ANGSTROM
     35         12  C    CARTESIAN Y    -2.739163      0.094872  KCAL/ANGSTROM
     36         12  C    CARTESIAN Z     0.252849     -0.153511  KCAL/ANGSTROM
     37         13  C    CARTESIAN X     7.916557      0.055174  KCAL/ANGSTROM
     38         13  C    CARTESIAN Y    -2.732217     -0.002513  KCAL/ANGSTROM
     39         13  C    CARTESIAN Z    -0.021479      0.227938  KCAL/ANGSTROM
     40         14  C    CARTESIAN X     8.529011      0.172658  KCAL/ANGSTROM
     41         14  C    CARTESIAN Y    -1.502191      0.039013  KCAL/ANGSTROM
     42         14  C    CARTESIAN Z    -0.276849      0.027363  KCAL/ANGSTROM
     43         15  C    CARTESIAN X     7.765309     -0.000956  KCAL/ANGSTROM
     44         15  C    CARTESIAN Y    -0.338718     -0.197404  KCAL/ANGSTROM
     45         15  C    CARTESIAN Z    -0.245147     -0.233363  KCAL/ANGSTROM
     46         16  C    CARTESIAN X     6.400147     -0.122695  KCAL/ANGSTROM
     47         16  C    CARTESIAN Y    -0.433130      0.056071  KCAL/ANGSTROM
     48         16  C    CARTESIAN Z     0.050463      0.145927  KCAL/ANGSTROM
     49         17  N    CARTESIAN X     5.798901     -0.033946  KCAL/ANGSTROM
     50         17  N    CARTESIAN Y    -1.615134      0.124940  KCAL/ANGSTROM
     51         17  N    CARTESIAN Z     0.287812      0.176467  KCAL/ANGSTROM
     52         18  H    CARTESIAN X     5.997519     -0.797185  KCAL/ANGSTROM
     53         18  H    CARTESIAN Y    -3.674654      0.301576  KCAL/ANGSTROM
     54         18  H    CARTESIAN Z     0.447135     -0.299496  KCAL/ANGSTROM
     55         19  H    CARTESIAN X     8.217051     -0.220127  KCAL/ANGSTROM
     56         19  H    CARTESIAN Y     0.631478     -0.161308  KCAL/ANGSTROM
     57         19  H    CARTESIAN Z    -0.448641     -0.370453  KCAL/ANGSTROM
     58         20  H    CARTESIAN X     5.760674      0.320275  KCAL/ANGSTROM
     59         20  H    CARTESIAN Y     0.457366      0.302106  KCAL/ANGSTROM
     60         20  H    CARTESIAN Z     0.099486      0.273684  KCAL/ANGSTROM
     61         21  C    CARTESIAN X     8.681072      0.142199  KCAL/ANGSTROM
     62         21  C    CARTESIAN Y    -4.002489      0.024831  KCAL/ANGSTROM
     63         21  C    CARTESIAN Z    -0.063146      0.176864  KCAL/ANGSTROM
     64         22  H    CARTESIAN X     9.748945      0.107113  KCAL/ANGSTROM
     65         22  H    CARTESIAN Y    -3.866652     -0.142197  KCAL/ANGSTROM
     66         22  H    CARTESIAN Z     0.168854      0.143878  KCAL/ANGSTROM
     67         23  H    CARTESIAN X     8.631957     -0.357200  KCAL/ANGSTROM
     68         23  H    CARTESIAN Y    -4.460160      0.215515  KCAL/ANGSTROM
     69         23  H    CARTESIAN Z    -1.066733     -0.106391  KCAL/ANGSTROM
     70         24  H    CARTESIAN X     8.298562      0.149921  KCAL/ANGSTROM
     71         24  H    CARTESIAN Y    -4.754277     -0.045119  KCAL/ANGSTROM
     72         24  H    CARTESIAN Z     0.644475     -0.075115  KCAL/ANGSTROM
     73         25  H    CARTESIAN X     9.597576      0.284263  KCAL/ANGSTROM
     74         25  H    CARTESIAN Y    -1.455006     -0.060531  KCAL/ANGSTROM
     75         25  H    CARTESIAN Z    -0.500368     -0.030154  KCAL/ANGSTROM
     76         26  H    CARTESIAN X     2.519638      0.432454  KCAL/ANGSTROM
     77         26  H    CARTESIAN Y    -2.993551     -0.384390  KCAL/ANGSTROM
     78         26  H    CARTESIAN Z    -0.230809     -0.217148  KCAL/ANGSTROM
     79         27  O    CARTESIAN X     3.171642     -0.444397  KCAL/ANGSTROM
     80         27  O    CARTESIAN Y    -2.669509      0.437993  KCAL/ANGSTROM
     81         27  O    CARTESIAN Z    -0.856930      0.387393  KCAL/ANGSTROM
     82         28  H    CARTESIAN X     3.885180      0.000652  KCAL/ANGSTROM
     83         28  H    CARTESIAN Y    -2.308109     -0.407395  KCAL/ANGSTROM
     84         28  H    CARTESIAN Z    -0.311787      0.533014  KCAL/ANGSTROM




   ATOM   CHEMICAL          X               Y               Z
  NUMBER   SYMBOL      (ANGSTROMS)     (ANGSTROMS)     (ANGSTROMS)

     1       C         -0.10188786  *   0.05189613  *   0.14133956  *
     2       H         -1.14385700  *   0.17402466  *   0.44525224  *
     3       N         -0.22719960  *  -2.37866765  *   0.18198910  *
     4       O         -1.41803622  *  -2.57110148  *   0.35819673  *
     5       O          0.62529405  *  -3.12395795  *   0.64517364  *
     6       H          1.87774985  *   0.85951334  *   0.10186599  *
     7       C          0.20304821  *  -1.20609217  *  -0.61091962  *
     8       H         -0.34017386  *  -1.21506302  *  -1.59620877  *
     9       H          1.29163227  *  -1.30062443  *  -0.86765603  *
    10       C          0.83768358  *   0.96210160  *   0.38844041  *
    11       H          0.64113712  *   1.89565023  *   0.90080625  *
    12       C          6.53960038  *  -2.73916260  *   0.25284944  *
    13       C          7.91655715  *  -2.73221744  *  -0.02147940  *
    14       C          8.52901141  *  -1.50219095  *  -0.27684910  *
    15       C          7.76530900  *  -0.33871763  *  -0.24514661  *
    16       C          6.40014681  *  -0.43313018  *   0.05046298  *
    17       N          5.79890081  *  -1.61513423  *   0.28781189  *
    18       H          5.99751865  *  -3.67465429  *   0.44713546  *
    19       H          8.21705065  *   0.63147848  *  -0.44864098  *
    20       H          5.76067432  *   0.45736560  *   0.09948624  *
    21       C          8.68107246  *  -4.00248929  *  -0.06314610  *
    22       H          9.74894466  *  -3.86665234  *   0.16885378  *
    23       H          8.63195742  *  -4.46016017  *  -1.06673350  *
    24       H          8.29856244  *  -4.75427720  *   0.64447480  *
    25       H          9.59757606  *  -1.45500648  *  -0.50036763  *
    26       H          2.51963826  *  -2.99355064  *  -0.23080898  *
    27       O          3.17164245  *  -2.66950897  *  -0.85692980  *
    28       H          3.88517974  *  -2.30810923  *  -0.31178738  *

                             CARTESIAN COORDINATES

   1    C       -0.101887861     0.051896132     0.141339556
   2    H       -1.143857004     0.174024661     0.445252242
   3    N       -0.227199595    -2.378667650     0.181989103
   4    O       -1.418036218    -2.571101478     0.358196727
   5    O        0.625294046    -3.123957947     0.645173638
   6    H        1.877749845     0.859513344     0.101865986
   7    C        0.203048209    -1.206092172    -0.610919620
   8    H       -0.340173862    -1.215063015    -1.596208767
   9    H        1.291632268    -1.300624434    -0.867656027
  10    C        0.837683585     0.962101603     0.388440410
  11    H        0.641137119     1.895650228     0.900806255
  12    C        6.539600381    -2.739162601     0.252849436
  13    C        7.916557153    -2.732217440    -0.021479400
  14    C        8.529011405    -1.502190945    -0.276849102
  15    C        7.765309004    -0.338717629    -0.245146607
  16    C        6.400146810    -0.433130184     0.050462975
  17    N        5.798900815    -1.615134232     0.287811885
  18    H        5.997518651    -3.674654287     0.447135458
  19    H        8.217050653     0.631478476    -0.448640978
  20    H        5.760674322     0.457365600     0.099486238
  21    C        8.681072465    -4.002489289    -0.063146101
  22    H        9.748944664    -3.866652339     0.168853784
  23    H        8.631957421    -4.460160170    -1.066733499
  24    H        8.298562445    -4.754277203     0.644474805
  25    H        9.597576057    -1.455006485    -0.500367627
  26    H        2.519638264    -2.993550641    -0.230808984
  27    O        3.171642447    -2.669508973    -0.856929805
  28    H        3.885179736    -2.308109226    -0.311787385


           Empirical Formula: C9 H14 N2 O3  =    28 atoms



      MOLECULAR POINT GROUP   :   C1  


                  EIGENVALUES  
 -37.55236 -36.14560 -30.97869 -29.31352 -29.10190 -28.95921 -27.17052 -26.47708
 -24.41146 -23.06513 -22.41116 -21.17909 -20.22395 -18.67234 -18.45756 -17.94220
 -17.77068 -17.51722 -16.90182 -15.94937 -15.73155 -15.20490 -15.01340 -14.45550
 -14.37508 -13.91791 -13.77462 -13.75586 -13.46415 -12.66460 -12.56838 -12.29219
 -12.10979 -12.05659 -11.90102 -10.94836 -10.87846 -10.71907  -9.97252  -0.57994
  -0.32365  -0.26899   0.00801   0.80875   2.13114   3.21825   3.24107   3.69452
   3.81695   3.93264   4.07159   4.32362   4.42949   4.62218   4.80456   5.00787
   5.15956   5.17103   5.29365   5.47039   5.54899   5.59824   5.62426   5.79628
   5.85802   6.00084   6.05166   6.12075   6.73641   6.77351


              NET ATOMIC CHARGES AND DIPOLE CONTRIBUTIONS

  ATOM NO.   TYPE          CHARGE      No. of ELECS.   s-Pop       p-Pop       
    1          C          -0.176212        4.1762     1.08684     3.08937
    2          H           0.174473        0.8255     0.82553
    3          N           0.663924        4.3361     1.46311     2.87297
    4          O          -0.445991        6.4460     1.93936     4.50663
    5          O          -0.472341        6.4723     1.93953     4.53282
    6          H           0.164342        0.8357     0.83566
    7          C          -0.243380        4.2434     1.09352     3.14986
    8          H           0.224316        0.7757     0.77568
    9          H           0.212115        0.7879     0.78789
   10          C          -0.257882        4.2579     1.10571     3.15217
   11          H           0.160870        0.8391     0.83913
   12          C           0.003685        3.9963     1.10092     2.89540
   13          C          -0.034083        4.0341     1.07372     2.96036
   14          C          -0.117550        4.1176     1.09426     3.02329
   15          C          -0.222645        4.2226     1.09247     3.13018
   16          C           0.027189        3.9728     1.09740     2.87541
   17          N          -0.438571        5.4386     1.73649     3.70208
   18          H           0.188590        0.8114     0.81141
   19          H           0.180979        0.8190     0.81902
   20          H           0.184778        0.8152     0.81522
   21          C          -0.463640        4.4636     1.04829     3.41535
   22          H           0.172513        0.8275     0.82749
   23          H           0.177832        0.8222     0.82217
   24          H           0.172836        0.8272     0.82716
   25          H           0.177491        0.8225     0.82251
   26          H           0.367213        0.6328     0.63279
   27          O          -0.761437        6.7614     1.81271     4.94873
   28          H           0.380586        0.6194     0.61941
 DIPOLE           X         Y         Z       TOTAL
 POINT-CHG.     4.820     4.396    -1.427     6.678
 HYBRID         0.568    -0.436     0.319     0.784
 SUM            5.387     3.960    -1.107     6.777


          ATOMIC ORBITAL ELECTRON POPULATIONS

     Atom    s        px        py        pz   
    1  C   1.08684   1.09450   0.96846   1.02641
    2  H   0.82553
    3  N   1.46311   0.95629   0.98015   0.93653
    4  O   1.93936   1.04870   1.79839   1.65954
    5  O   1.93953   1.46591   1.50480   1.56211
    6  H   0.83566
    7  C   1.09352   1.19197   0.89826   1.05963
    8  H   0.77568
    9  H   0.78789
   10  C   1.10571   1.09109   1.06705   0.99403
   11  H   0.83913
   12  C   1.10092   0.96152   0.98587   0.94801
   13  C   1.07372   0.98581   0.98638   0.98817
   14  C   1.09426   1.09190   0.97870   0.95269
   15  C   1.09247   1.01605   1.08270   1.03143
   16  C   1.09740   0.98027   0.96677   0.92837
   17  N   1.73649   1.43035   1.07695   1.19478
   18  H   0.81141
   19  H   0.81902
   20  H   0.81522
   21  C   1.04829   1.15509   1.06279   1.19747
   22  H   0.82749
   23  H   0.82217
   24  H   0.82716
   25  H   0.82251
   26  H   0.63279
   27  O   1.81271   1.52770   1.87973   1.54130
   28  H   0.61941

 **********************
 *                    *
 * JOB ENDED NORMALLY *
 *                    *
 **********************



 TOTAL JOB TIME:             1.00 SECONDS

 == MOPAC DONE ==
