 *******************************************************************************
 **                                                                           **
 **                              MOPAC v22.0.6                                **
 **                                                                           **
 *******************************************************************************
 **          Digital Object Identifier (DOI): 10.5281/zenodo.6511958          **
 **    Visit the DOI location for information on how to cite this program.    **
 *******************************************************************************

                              PM7 CALCULATION RESULTS

 *******************************************************************************
 *  CALCULATION DONE:                                Sat Mar 23 16:29:33 2024  *
 *  PM7        - The PM7 Hamiltonian to be used
 *  SINGLET    - SPIN STATE DEFINED AS A SINGLET
 *
 *
 *
 *                 CHARGE ON SYSTEM = 0
 *
 *
 *
 *  EPS=78.4   - USE ANDREAS KLAMT'S COSMO IMPLICIT SOLVATION MODEL
 *  T=         - A TIME OF 14.0 DAYS REQUESTED
 *  DUMP=N     - RESTART FILE WRITTEN EVERY 30.0 MINUTES REQUESTED
 *  RELSCF     - DEFAULT SCF CRITERION MULTIPLIED BY 1.0000
 *              (DEFAULT SCF CRITERION = 0.00010)
 *  ITRY=      - DO A MAXIMUM OF 15000 ITERATIONS FOR SCF
 *  AUX        - OUTPUT AUXILIARY INFORMATION
 *  BONDS      - FINAL BOND-ORDER MATRIX TO BE PRINTED
 *******************************************************************************
PM7 BONDS AUX DUMP=30M ITRY=15000 T=14D CHARGE=0 SINGLET eps=78.4 RELSCF=1
 Title: ASE calculation

   ATOM   CHEMICAL          X               Y               Z
  NUMBER   SYMBOL      (ANGSTROMS)     (ANGSTROMS)     (ANGSTROMS)

     1       C         -0.05484492  *  -0.45388402  *   0.15521080  *
     2       H          0.34910777  *  -0.85293208  *   1.09257740  *
     3       N          0.26377992  *  -2.63800513  *  -0.85755234  *
     4       O          0.80997928  *  -3.09665313  *   0.18932605  *
     5       O          0.16492896  *  -3.42572813  *  -1.83632061  *
     6       H         -0.77232468  *   1.27929710  *  -0.86207880  *
     7       C         -0.19844739     -1.39262876     -0.92813738   
     8       H         -0.63362518  *  -1.06040275  *  -1.86538225  *
     9       H          8.04822901     -1.47163804  *  -5.12272490  *
    10       C         -0.38591151  *   0.83798346  *   0.04008536  *
    11       H         -0.28332391  *   1.55104607  *   0.83935692  *
    12       C          4.96556704  *  -2.36123611  *  -5.82005074  *
    13       C          3.55330370  *  -2.37711146  *  -5.82386624  *
    14       C          2.86690721  *  -1.42202599  *  -5.06631182  *
    15       C          3.60634097  *  -0.49827634  *  -4.33779968  *
    16       C          5.01526236  *  -0.54570632  *  -4.37753258  *
    17       N          5.71959074  *  -1.46194728  *  -5.11193909  *
    18       H          5.52072957  *  -3.10564817  *  -6.42051199  *
    19       H          3.08397640  *   0.25195953  *  -3.72308970  *
    20       H          5.59394186  *   0.18740788  *  -3.78603219  *
    21       C          2.74913621  *  -3.35716430  *  -6.60826615  *
    22       H          2.54926656  *  -2.99186082  *  -7.63170007  *
    23       H          1.75191767  *  -3.54177466  *  -6.16495958  *
    24       H          3.22570201  *  -4.34117384  *  -6.71557400  *
    25       H          1.76829786  *  -1.40656144  *  -5.04814891  *
    26       H          2.57528864  *  -1.79256760  *  -1.72814584  *
    27       O          3.42541672     -1.41963910     -1.97438547   
    28       H          4.03922951  *  -2.16176591  *  -1.93224475  *



          CARTESIAN COORDINATES 

    NO.       ATOM           X           Y           Z

     1         C         -0.0548     -0.4539      0.1552
     2         H          0.3491     -0.8529      1.0926
     3         N          0.2638     -2.6380     -0.8576
     4         O          0.8100     -3.0967      0.1893
     5         O          0.1649     -3.4257     -1.8363
     6         H         -0.7723      1.2793     -0.8621
     7         C         -0.1984     -1.3926     -0.9281
     8         H         -0.6336     -1.0604     -1.8654
     9         H          8.0482     -1.4716     -5.1227
    10         C         -0.3859      0.8380      0.0401
    11         H         -0.2833      1.5510      0.8394
    12         C          4.9656     -2.3612     -5.8201
    13         C          3.5533     -2.3771     -5.8239
    14         C          2.8669     -1.4220     -5.0663
    15         C          3.6063     -0.4983     -4.3378
    16         C          5.0153     -0.5457     -4.3775
    17         N          5.7196     -1.4619     -5.1119
    18         H          5.5207     -3.1056     -6.4205
    19         H          3.0840      0.2520     -3.7231
    20         H          5.5939      0.1874     -3.7860
    21         C          2.7491     -3.3572     -6.6083
    22         H          2.5493     -2.9919     -7.6317
    23         H          1.7519     -3.5418     -6.1650
    24         H          3.2257     -4.3412     -6.7156
    25         H          1.7683     -1.4066     -5.0481
    26         H          2.5753     -1.7926     -1.7281
    27         O          3.4254     -1.4196     -1.9744
    28         H          4.0392     -2.1618     -1.9322

 General Reference for PM7:
 "Optimization of Parameters for Semiempirical Methods VI: More Modifications to the 
 NDDO Approximations and Re-optimization of Parameters", J. J. P. Stewart, J. Mol. Mod., 1:32, 19 (2013)
 https://link.springer.com/article/10.1007/s00894-012-1667-x

           Empirical Formula: C9 H14 N2 O3  =    28 atoms



      MOLECULAR POINT GROUP   :   C1  


 SINGLET STATE CALCULATION


      RHF CALCULATION, NO. OF DOUBLY OCCUPIED LEVELS = 39


          Geometry optimization using EF
  SCF CRITERION =    0.1000E-03


 ALL CONVERGERS ARE NOW FORCED ON
 SHIFT=10, PULAY ON, CAMP-KING ON
 AND ITERATION COUNTER RESET



          DIAGONAL MATRIX USED AS START HESSIAN

 CYCLE:     1 TIME:  13.875 TIME LEFT:  2.00W  GRAD.:    42.216 HEAT:  20.11621

     TRUST RADIUS NOW LESS THAN  0.00010 OPTIMIZATION TERMINATING
      THE GEOMETRY MAY NOT BE COMPLETELY OPTIMIZED
      (TO CONTINUE, ADD 'LET DDMIN=0.0' TO THE KEYWORD LINE)

 -------------------------------------------------------------------------------
 PM7 BONDS AUX DUMP=30M ITRY=15000 T=14D CHARGE=0 SINGLET eps=78.4 RELSCF=1
 Title: ASE calculation



     GEOMETRY OPTIMISED USING EIGENVECTOR FOLLOWING (EF).     
     SCF FIELD WAS ACHIEVED                                   


                              PM7 CALCULATION
                                                       MOPAC v22.0.6 Linux
                                                       Sat Mar 23 16:29:47 2024




          FINAL HEAT OF FORMATION =         20.11612 KCAL/MOL =      84.16586 KJ/MOL
          VAN DER WAALS AREA      =        265.62 SQUARE ANGSTROMS



          DIELECTRIC ENERGY       =         -5.50219 EV
          COSMO AREA              =        265.62 SQUARE ANGSTROMS
          COSMO VOLUME            =        278.82 CUBIC ANGSTROMS

          GRADIENT NORM           =         42.21603          =       7.97808 PER ATOM
          IONIZATION POTENTIAL    =          8.473454 EV
          HOMO LUMO ENERGIES (EV) =         -8.473 -0.216
          NO. OF FILLED LEVELS    =         39
          MOLECULAR WEIGHT        =        198.2212         POINT GROUP:  C1  

          MOLECULAR DIMENSIONS (Angstroms)

            Atom       Atom       Distance
            H    11    H     9    10.68166
            H    23    H    20     5.82672
            H    22    O     4     5.01516


          SCF CALCULATIONS        =         13

          WALL-CLOCK TIME         =     14.160 SECONDS
          COMPUTATION TIME        =          4 MINUTES AND 17.457 SECONDS



       FINAL  POINT  AND  DERIVATIVES

   PARAMETER     ATOM    TYPE            VALUE        GRADIENT
      1          1  C    CARTESIAN X    -0.054845     -0.246612  KCAL/ANGSTROM
      2          1  C    CARTESIAN Y    -0.453884      1.306071  KCAL/ANGSTROM
      3          1  C    CARTESIAN Z     0.155211     -0.489409  KCAL/ANGSTROM
      4          2  H    CARTESIAN X     0.349108     -0.058831  KCAL/ANGSTROM
      5          2  H    CARTESIAN Y    -0.852932     -0.012498  KCAL/ANGSTROM
      6          2  H    CARTESIAN Z     1.092577      0.044639  KCAL/ANGSTROM
      7          3  N    CARTESIAN X     0.263780     -3.540261  KCAL/ANGSTROM
      8          3  N    CARTESIAN Y    -2.638005      4.928825  KCAL/ANGSTROM
      9          3  N    CARTESIAN Z    -0.857552     -6.505876  KCAL/ANGSTROM
     10          4  O    CARTESIAN X     0.809979      2.870103  KCAL/ANGSTROM
     11          4  O    CARTESIAN Y    -3.096653     -2.964339  KCAL/ANGSTROM
     12          4  O    CARTESIAN Z     0.189326      6.193112  KCAL/ANGSTROM
     13          5  O    CARTESIAN X     0.164929      0.303274  KCAL/ANGSTROM
     14          5  O    CARTESIAN Y    -3.425728      0.001325  KCAL/ANGSTROM
     15          5  O    CARTESIAN Z    -1.836321     -0.149542  KCAL/ANGSTROM
     16          6  H    CARTESIAN X    -0.772325      0.272092  KCAL/ANGSTROM
     17          6  H    CARTESIAN Y     1.279297     -0.023341  KCAL/ANGSTROM
     18          6  H    CARTESIAN Z    -0.862079     -0.120382  KCAL/ANGSTROM
     19          8  H    CARTESIAN X    -0.633625      0.438964  KCAL/ANGSTROM
     20          8  H    CARTESIAN Y    -1.060403     -0.476863  KCAL/ANGSTROM
     21          8  H    CARTESIAN Z    -1.865382      0.390007  KCAL/ANGSTROM
     22          9  H    CARTESIAN Y    -1.471638     -0.138373  KCAL/ANGSTROM
     23          9  H    CARTESIAN Z    -5.122725     -0.075362  KCAL/ANGSTROM
     24         10  C    CARTESIAN X    -0.385912      0.250966  KCAL/ANGSTROM
     25         10  C    CARTESIAN Y     0.837983     -1.324211  KCAL/ANGSTROM
     26         10  C    CARTESIAN Z     0.040085     -0.087535  KCAL/ANGSTROM
     27         11  H    CARTESIAN X    -0.283324      0.149462  KCAL/ANGSTROM
     28         11  H    CARTESIAN Y     1.551046      0.236996  KCAL/ANGSTROM
     29         11  H    CARTESIAN Z     0.839357      0.076177  KCAL/ANGSTROM
     30         12  C    CARTESIAN X     4.965567     -5.093383  KCAL/ANGSTROM
     31         12  C    CARTESIAN Y    -2.361236     -7.720414  KCAL/ANGSTROM
     32         12  C    CARTESIAN Z    -5.820051     -5.308287  KCAL/ANGSTROM
     33         13  C    CARTESIAN X     3.553304     -5.340835  KCAL/ANGSTROM
     34         13  C    CARTESIAN Y    -2.377111      0.174522  KCAL/ANGSTROM
     35         13  C    CARTESIAN Z    -5.823866      0.100074  KCAL/ANGSTROM
     36         14  C    CARTESIAN X     2.866907     -5.051602  KCAL/ANGSTROM
     37         14  C    CARTESIAN Y    -1.422026     -0.639236  KCAL/ANGSTROM
     38         14  C    CARTESIAN Z    -5.066312     -0.011372  KCAL/ANGSTROM
     39         15  C    CARTESIAN X     3.606341     -6.911500  KCAL/ANGSTROM
     40         15  C    CARTESIAN Y    -0.498276     -2.610274  KCAL/ANGSTROM
     41         15  C    CARTESIAN Z    -4.337800     -0.213448  KCAL/ANGSTROM
     42         16  C    CARTESIAN X     5.015262     -4.969679  KCAL/ANGSTROM
     43         16  C    CARTESIAN Y    -0.545706     10.042013  KCAL/ANGSTROM
     44         16  C    CARTESIAN Z    -4.377533      7.762934  KCAL/ANGSTROM
     45         17  N    CARTESIAN X     5.719591     31.564271  KCAL/ANGSTROM
     46         17  N    CARTESIAN Y    -1.461947     -0.816522  KCAL/ANGSTROM
     47         17  N    CARTESIAN Z    -5.111939     -1.240049  KCAL/ANGSTROM
     48         18  H    CARTESIAN X     5.520730      0.725137  KCAL/ANGSTROM
     49         18  H    CARTESIAN Y    -3.105648     -5.707958  KCAL/ANGSTROM
     50         18  H    CARTESIAN Z    -6.420512     -5.010982  KCAL/ANGSTROM
     51         19  H    CARTESIAN X     3.083976     -6.234072  KCAL/ANGSTROM
     52         19  H    CARTESIAN Y     0.251960      3.130815  KCAL/ANGSTROM
     53         19  H    CARTESIAN Z    -3.723090      2.362108  KCAL/ANGSTROM
     54         20  H    CARTESIAN X     5.593942     -1.100501  KCAL/ANGSTROM
     55         20  H    CARTESIAN Y     0.187408      6.498393  KCAL/ANGSTROM
     56         20  H    CARTESIAN Z    -3.786032      5.397366  KCAL/ANGSTROM
     57         21  C    CARTESIAN X     2.749136     -2.014287  KCAL/ANGSTROM
     58         21  C    CARTESIAN Y    -3.357164     -0.293281  KCAL/ANGSTROM
     59         21  C    CARTESIAN Z    -6.608266      0.583616  KCAL/ANGSTROM
     60         22  H    CARTESIAN X     2.549267     -2.601523  KCAL/ANGSTROM
     61         22  H    CARTESIAN Y    -2.991861     -0.308130  KCAL/ANGSTROM
     62         22  H    CARTESIAN Z    -7.631700     -1.019266  KCAL/ANGSTROM
     63         23  H    CARTESIAN X     1.751918     -2.693893  KCAL/ANGSTROM
     64         23  H    CARTESIAN Y    -3.541775     -0.581924  KCAL/ANGSTROM
     65         23  H    CARTESIAN Z    -6.164960     -0.708086  KCAL/ANGSTROM
     66         24  H    CARTESIAN X     3.225702     -2.603137  KCAL/ANGSTROM
     67         24  H    CARTESIAN Y    -4.341174     -1.267924  KCAL/ANGSTROM
     68         24  H    CARTESIAN Z    -6.715574     -0.572336  KCAL/ANGSTROM
     69         25  H    CARTESIAN X     1.768298     -4.232187  KCAL/ANGSTROM
     70         25  H    CARTESIAN Y    -1.406561     -0.085470  KCAL/ANGSTROM
     71         25  H    CARTESIAN Z    -5.048149     -0.352882  KCAL/ANGSTROM
     72         26  H    CARTESIAN X     2.575289     -0.177026  KCAL/ANGSTROM
     73         26  H    CARTESIAN Y    -1.792568      0.220638  KCAL/ANGSTROM
     74         26  H    CARTESIAN Z    -1.728146     -0.311474  KCAL/ANGSTROM
     75         28  H    CARTESIAN X     4.039230      0.471156  KCAL/ANGSTROM
     76         28  H    CARTESIAN Y    -2.161766     -0.653109  KCAL/ANGSTROM
     77         28  H    CARTESIAN Z    -1.932245      1.639348  KCAL/ANGSTROM




   ATOM   CHEMICAL          X               Y               Z
  NUMBER   SYMBOL      (ANGSTROMS)     (ANGSTROMS)     (ANGSTROMS)

     1       C         -0.05484492  *  -0.45388402  *   0.15521080  *
     2       H          0.34910777  *  -0.85293208  *   1.09257740  *
     3       N          0.26377992  *  -2.63800513  *  -0.85755234  *
     4       O          0.80997928  *  -3.09665313  *   0.18932605  *
     5       O          0.16492896  *  -3.42572813  *  -1.83632061  *
     6       H         -0.77232468  *   1.27929710  *  -0.86207880  *
     7       C         -0.19844739     -1.39262876     -0.92813738   
     8       H         -0.63362518  *  -1.06040275  *  -1.86538225  *
     9       H          8.04822901     -1.47163804  *  -5.12272490  *
    10       C         -0.38591151  *   0.83798346  *   0.04008536  *
    11       H         -0.28332391  *   1.55104607  *   0.83935692  *
    12       C          4.96556704  *  -2.36123611  *  -5.82005074  *
    13       C          3.55330370  *  -2.37711146  *  -5.82386624  *
    14       C          2.86690721  *  -1.42202599  *  -5.06631182  *
    15       C          3.60634097  *  -0.49827634  *  -4.33779968  *
    16       C          5.01526236  *  -0.54570632  *  -4.37753258  *
    17       N          5.71959074  *  -1.46194728  *  -5.11193909  *
    18       H          5.52072957  *  -3.10564817  *  -6.42051199  *
    19       H          3.08397640  *   0.25195953  *  -3.72308970  *
    20       H          5.59394186  *   0.18740788  *  -3.78603219  *
    21       C          2.74913621  *  -3.35716430  *  -6.60826615  *
    22       H          2.54926656  *  -2.99186082  *  -7.63170007  *
    23       H          1.75191767  *  -3.54177466  *  -6.16495958  *
    24       H          3.22570201  *  -4.34117384  *  -6.71557400  *
    25       H          1.76829786  *  -1.40656144  *  -5.04814891  *
    26       H          2.57528864  *  -1.79256760  *  -1.72814584  *
    27       O          3.42541672     -1.41963910     -1.97438547   
    28       H          4.03922951  *  -2.16176591  *  -1.93224475  *

                             CARTESIAN COORDINATES

   1    C       -0.054844920    -0.453884020     0.155210800
   2    H        0.349107770    -0.852932080     1.092577400
   3    N        0.263779920    -2.638005130    -0.857552340
   4    O        0.809979280    -3.096653130     0.189326050
   5    O        0.164928960    -3.425728130    -1.836320610
   6    H       -0.772324680     1.279297100    -0.862078800
   7    C       -0.198447390    -1.392628760    -0.928137380
   8    H       -0.633625180    -1.060402750    -1.865382250
   9    H        8.048229010    -1.471638040    -5.122724900
  10    C       -0.385911510     0.837983460     0.040085360
  11    H       -0.283323910     1.551046070     0.839356920
  12    C        4.965567040    -2.361236110    -5.820050740
  13    C        3.553303700    -2.377111460    -5.823866240
  14    C        2.866907210    -1.422025990    -5.066311820
  15    C        3.606340970    -0.498276340    -4.337799680
  16    C        5.015262360    -0.545706320    -4.377532580
  17    N        5.719590740    -1.461947280    -5.111939090
  18    H        5.520729570    -3.105648170    -6.420511990
  19    H        3.083976400     0.251959530    -3.723089700
  20    H        5.593941860     0.187407880    -3.786032190
  21    C        2.749136210    -3.357164300    -6.608266150
  22    H        2.549266560    -2.991860820    -7.631700070
  23    H        1.751917670    -3.541774660    -6.164959580
  24    H        3.225702010    -4.341173840    -6.715574000
  25    H        1.768297860    -1.406561440    -5.048148910
  26    H        2.575288640    -1.792567600    -1.728145840
  27    O        3.425416720    -1.419639100    -1.974385470
  28    H        4.039229510    -2.161765910    -1.932244750


           Empirical Formula: C9 H14 N2 O3  =    28 atoms



      MOLECULAR POINT GROUP   :   C1  


                  EIGENVALUES  
 -35.81335 -35.45046 -29.22943 -28.90626 -28.17630 -27.53941 -26.77264 -25.52615
 -24.11054 -22.25813 -21.17093 -20.92939 -19.29846 -17.59697 -17.57357 -17.48671
 -16.97057 -16.69332 -16.02840 -15.54220 -14.96610 -14.25586 -14.19744 -14.09429
 -14.07513 -13.87657 -13.58929 -13.41078 -12.30744 -12.13905 -11.99816 -11.39072
 -10.99473 -10.86910 -10.82873 -10.69657 -10.64393  -9.71909  -8.47345  -0.21561
  -0.07533   0.15975   0.46557   1.94750   2.13624   2.26082   3.44521   3.92132
   4.22259   4.38557   4.42661   4.49248   4.72423   5.18456   5.25682   5.39714
   5.56175   5.61866   5.66713   5.70074   5.84065   5.95848   6.11986   6.15136
   6.25138   6.43096   6.66759   6.67650   6.79033   6.89403


              NET ATOMIC CHARGES AND DIPOLE CONTRIBUTIONS

  ATOM NO.   TYPE          CHARGE      No. of ELECS.   s-Pop       p-Pop       
    1          C          -0.033197        4.0332     1.07906     2.95414
    2          H           0.151280        0.8487     0.84872
    3          N           0.705929        4.2941     1.41758     2.87649
    4          O          -0.717943        6.7179     1.94652     4.77142
    5          O          -0.698336        6.6983     1.94552     4.75282
    6          H           0.147057        0.8529     0.85294
    7          C          -0.452334        4.4523     1.05680     3.39553
    8          H           0.188488        0.8115     0.81151
    9          H           0.974163        0.0258     0.02584
   10          C          -0.434757        4.4348     1.08553     3.34923
   11          H           0.145290        0.8547     0.85471
   12          C          -0.013678        4.0137     1.10451     2.90917
   13          C          -0.040936        4.0409     1.07569     2.96525
   14          C          -0.114937        4.1149     1.09505     3.01989
   15          C          -0.163315        4.1633     1.09546     3.06786
   16          C           0.014453        3.9855     1.10476     2.88079
   17          N          -0.443887        5.4439     1.74844     3.69545
   18          H           0.176698        0.8233     0.82330
   19          H           0.187834        0.8122     0.81217
   20          H           0.179010        0.8210     0.82099
   21          C          -0.461206        4.4612     1.04915     3.41206
   22          H           0.171145        0.8289     0.82885
   23          H           0.182349        0.8177     0.81765
   24          H           0.166880        0.8331     0.83312
   25          H           0.185502        0.8145     0.81450
   26          H           0.350067        0.6499     0.64993
   27          O          -0.714651        6.7147     1.81529     4.89936
   28          H           0.363031        0.6370     0.63697
 DIPOLE           X         Y         Z       TOTAL
 POINT-CHG.    31.700     5.955   -20.535    38.237
 HYBRID        -0.136    -0.820    -0.096     0.837
 SUM           31.565     5.135   -20.631    38.057


          ATOMIC ORBITAL ELECTRON POPULATIONS

     Atom    s        px        py        pz   
    1  C   1.07906   0.94373   0.97878   1.03163
    2  H   0.84872
    3  N   1.41758   0.95904   0.99552   0.92194
    4  O   1.94652   1.64388   1.82960   1.29794
    5  O   1.94552   1.79425   1.60096   1.35760
    6  H   0.85294
    7  C   1.05680   1.34112   0.91153   1.14288
    8  H   0.81151
    9  H   0.02584
   10  C   1.08553   1.14524   1.04724   1.15675
   11  H   0.85471
   12  C   1.10451   0.97262   0.97139   0.96517
   13  C   1.07569   0.97292   0.99769   0.99464
   14  C   1.09505   1.09066   0.96637   0.96286
   15  C   1.09546   0.99988   1.04902   1.01896
   16  C   1.10476   0.98145   0.95478   0.94455
   17  N   1.74844   1.41387   1.12687   1.15471
   18  H   0.82330
   19  H   0.81217
   20  H   0.82099
   21  C   1.04915   1.14417   1.11819   1.14970
   22  H   0.82885
   23  H   0.81765
   24  H   0.83312
   25  H   0.81450
   26  H   0.64993
   27  O   1.81529   1.41142   1.53181   1.95614
   28  H   0.63697

          BONDING CONTRIBUTION OF EACH M.O.

  1.4164  1.3335  1.1953  1.7799  1.2110  1.5192  1.9114  1.3222  1.9634  1.8171
  1.3070  1.9456  1.5808  1.6862  1.5943  1.8634  1.3803  2.0284  1.2691  1.8670
  1.9167  1.4012  1.9176  1.6951  1.5301  1.7559  1.8442  1.8975  1.7340  0.4188
  1.9765  1.6418  0.4648  1.3831  0.4596  0.2399  1.8676  2.0389  1.2311 -2.0425
 -1.9370 -0.1105 -2.2914 -2.3005 -2.1570 -1.9891 -1.9370 -1.9481 -1.9950 -1.9550
 -1.7621 -2.0035 -2.0151 -1.9534 -1.9302 -1.9273 -1.9560 -1.9364 -1.9573 -1.9604
 -1.9636 -1.9556 -1.9566 -1.9838 -1.9479 -1.9641 -1.7810 -1.9373 -1.8944 -1.9567





            (VALENCIES)   BOND ORDERS

     1  C     (3.967)    10  C 1.901     7  C 1.085     2  H 0.961     5  O 0.013

     2  H     (0.977)     1  C 0.961

     3  N     (3.813)     7  C 1.379     5  O 1.203     4  O 1.187    10  C 0.037

     4  O     (1.512)     3  N 1.187     5  O 0.152     7  C 0.144    10  C 0.014     8  H 0.011

     5  O     (1.530)     3  N 1.203     4  O 0.152     7  C 0.145    10  C 0.015     1  C 0.013

     6  H     (0.978)    10  C 0.969

     7  C     (3.740)     3  N 1.379     1  C 1.085     8  H 0.947     5  O 0.145     4  O 0.144    10  C 0.030

     8  H     (0.964)     7  C 0.947     4  O 0.011

     9  H     (0.051)    17  N 0.044

    10  C     (3.936)     1  C 1.901    11  H 0.970     6  H 0.969     3  N 0.037     7  C 0.030     5  O 0.015
                          4  O 0.014

    11  H     (0.979)    10  C 0.970

    12  C     (3.941)    13  C 1.416    17  N 1.397    18  H 0.949    15  C 0.117    16  C 0.017    20  H 0.011

    13  C     (3.993)    12  C 1.416    14  C 1.416    21  C 1.016    16  C 0.118    17  N 0.013

    14  C     (3.962)    15  C 1.458    13  C 1.416    25  H 0.952    17  N 0.096

    15  C     (3.964)    14  C 1.458    16  C 1.410    19  H 0.951    12  C 0.117    17  N 0.012

    16  C     (3.935)    15  C 1.410    17  N 1.407    20  H 0.949    13  C 0.118    12  C 0.017    18  H 0.011

    17  N     (2.984)    16  C 1.407    12  C 1.397    14  C 0.096     9  H 0.044    13  C 0.013    15  C 0.012

    18  H     (0.969)    12  C 0.949    16  C 0.011

    19  H     (0.965)    15  C 0.951

    20  H     (0.968)    16  C 0.949    12  C 0.011

    21  C     (3.909)    13  C 1.016    24  H 0.960    23  H 0.955    22  H 0.950

    22  H     (0.971)    21  C 0.950

    23  H     (0.967)    21  C 0.955

    24  H     (0.972)    21  C 0.960

    25  H     (0.966)    14  C 0.952

    26  H     (0.877)    27  O 0.873

    27  O     (1.746)    26  H 0.873    28  H 0.865

    28  H     (0.868)    27  O 0.865


 **********************
 *                    *
 * JOB ENDED NORMALLY *
 *                    *
 **********************



 TOTAL JOB TIME:            14.17 SECONDS

 == MOPAC DONE ==
