 *******************************************************************************
 **                                                                           **
 **                              MOPAC v22.0.6                                **
 **                                                                           **
 *******************************************************************************
 **          Digital Object Identifier (DOI): 10.5281/zenodo.6511958          **
 **    Visit the DOI location for information on how to cite this program.    **
 *******************************************************************************

                              PM7 CALCULATION RESULTS

 *******************************************************************************
 *  CALCULATION DONE:                                Sat Mar 23 16:30:05 2024  *
 *  PM7        - The PM7 Hamiltonian to be used
 *  SINGLET    - SPIN STATE DEFINED AS A SINGLET
 *
 *
 *
 *                 CHARGE ON SYSTEM = 0
 *
 *
 *
 *  EPS=78.4   - USE ANDREAS KLAMT'S COSMO IMPLICIT SOLVATION MODEL
 *  LET        - OVERRIDE SOME SAFETY CHECKS
 *  T=         - A TIME OF 14.0 DAYS REQUESTED
 *  DUMP=N     - RESTART FILE WRITTEN EVERY 30.0 MINUTES REQUESTED
 *  RELSCF     - DEFAULT SCF CRITERION MULTIPLIED BY 1.0000
 *              (DEFAULT SCF CRITERION = 0.00010)
 *  ITRY=      - DO A MAXIMUM OF 15000 ITERATIONS FOR SCF
 *  AUX        - OUTPUT AUXILIARY INFORMATION
 *  ISOTOPE    - SAVE THE FORCE MATRIX FOR USE LATER
 *  BONDS      - FINAL BOND-ORDER MATRIX TO BE PRINTED
 *  LARGE      - EXPANDED OUTPUT TO BE PRINTED
 *  THERMO     - THERMODYNAMIC QUANTITIES TO BE CALCULATED
 *******************************************************************************
PM7 AUX LARGE THERMO(298,298) LET ISOTOPE BONDS DUMP=30M ITRY=15000 T=14D CHARGE=0 SINGLET eps=78.4 RELSCF=1
 Title: ASE calculation

   ATOM   CHEMICAL          X               Y               Z
  NUMBER   SYMBOL      (ANGSTROMS)     (ANGSTROMS)     (ANGSTROMS)

     1       C         -0.05484492  *  -0.45388402  *   0.15521080  *
     2       H          0.34910777  *  -0.85293208  *   1.09257740  *
     3       N          0.26377992  *  -2.63800513  *  -0.85755234  *
     4       O          0.80997928  *  -3.09665313  *   0.18932605  *
     5       O          0.16492896  *  -3.42572813  *  -1.83632061  *
     6       H         -0.77232468  *   1.27929710  *  -0.86207880  *
     7       C         -0.19844739  *  -1.39262876  *  -0.92813738  *
     8       H         -0.63362518  *  -1.06040275  *  -1.86538225  *
     9       D          8.04822901  *  -1.47163804  *  -5.12272490  *
    10       C         -0.38591151  *   0.83798346  *   0.04008536  *
    11       H         -0.28332391  *   1.55104607  *   0.83935692  *
    12       C          4.96556704  *  -2.36123611  *  -5.82005074  *
    13       C          3.55330370  *  -2.37711146  *  -5.82386624  *
    14       C          2.86690721  *  -1.42202599  *  -5.06631182  *
    15       C          3.60634097  *  -0.49827634  *  -4.33779968  *
    16       C          5.01526236  *  -0.54570632  *  -4.37753258  *
    17       N          5.71959074  *  -1.46194728  *  -5.11193909  *
    18       H          5.52072957  *  -3.10564817  *  -6.42051199  *
    19       H          3.08397640  *   0.25195953  *  -3.72308970  *
    20       H          5.59394186  *   0.18740788  *  -3.78603219  *
    21       C          2.74913621  *  -3.35716430  *  -6.60826615  *
    22       H          2.54926656  *  -2.99186082  *  -7.63170007  *
    23       H          1.75191767  *  -3.54177466  *  -6.16495958  *
    24       H          3.22570201  *  -4.34117384  *  -6.71557400  *
    25       H          1.76829786  *  -1.40656144  *  -5.04814891  *
    26       H          2.57528864  *  -1.79256760  *  -1.72814584  *
    27       O          3.42541672  *  -1.41963910  *  -1.97438547  *
    28       H          4.03922951  *  -2.16176591  *  -1.93224475  *


                                Isotopes Used

              Atom:    9  H  Default mass  1.0079,  mass used:  2.0140 amu


          CARTESIAN COORDINATES 

    NO.       ATOM           X           Y           Z

     1         C         -0.0548     -0.4539      0.1552
     2         H          0.3491     -0.8529      1.0926
     3         N          0.2638     -2.6380     -0.8576
     4         O          0.8100     -3.0967      0.1893
     5         O          0.1649     -3.4257     -1.8363
     6         H         -0.7723      1.2793     -0.8621
     7         C         -0.1984     -1.3926     -0.9281
     8         H         -0.6336     -1.0604     -1.8654
     9         H          8.0482     -1.4716     -5.1227
    10         C         -0.3859      0.8380      0.0401
    11         H         -0.2833      1.5510      0.8394
    12         C          4.9656     -2.3612     -5.8201
    13         C          3.5533     -2.3771     -5.8239
    14         C          2.8669     -1.4220     -5.0663
    15         C          3.6063     -0.4983     -4.3378
    16         C          5.0153     -0.5457     -4.3775
    17         N          5.7196     -1.4619     -5.1119
    18         H          5.5207     -3.1056     -6.4205
    19         H          3.0840      0.2520     -3.7231
    20         H          5.5939      0.1874     -3.7860
    21         C          2.7491     -3.3572     -6.6083
    22         H          2.5493     -2.9919     -7.6317
    23         H          1.7519     -3.5418     -6.1650
    24         H          3.2257     -4.3412     -6.7156
    25         H          1.7683     -1.4066     -5.0481
    26         H          2.5753     -1.7926     -1.7281
    27         O          3.4254     -1.4196     -1.9744
    28         H          4.0392     -2.1618     -1.9322

 General Reference for PM7:
 "Optimization of Parameters for Semiempirical Methods VI: More Modifications to the 
 NDDO Approximations and Re-optimization of Parameters", J. J. P. Stewart, J. Mol. Mod., 1:32, 19 (2013)
 https://link.springer.com/article/10.1007/s00894-012-1667-x

           Empirical Formula: C9 H14 N2 O3  =    28 atoms



      MOLECULAR POINT GROUP   :   C1  


 SINGLET STATE CALCULATION


      RHF CALCULATION, NO. OF DOUBLY OCCUPIED LEVELS = 39

