
                                 *****************
                                 * O   R   C   A *
                                 *****************

                                            #,                                       
                                            ###                                      
                                            ####                                     
                                            #####                                    
                                            ######                                   
                                           ########,                                 
                                     ,,################,,,,,                         
                               ,,#################################,,                 
                          ,,##########################################,,             
                       ,#########################################, ''#####,          
                    ,#############################################,,   '####,        
                  ,##################################################,,,,####,       
                ,###########''''           ''''###############################       
              ,#####''   ,,,,##########,,,,          '''####'''          '####       
            ,##' ,,,,###########################,,,                        '##       
           ' ,,###''''                  '''############,,,                           
         ,,##''                                '''############,,,,        ,,,,,,###''
      ,#''                                            '''#######################'''  
     '                                                          ''''####''''         
             ,#######,   #######,   ,#######,      ##                                
            ,#'     '#,  ##    ##  ,#'     '#,    #''#        ######   ,####,        
            ##       ##  ##   ,#'  ##            #'  '#       #        #'  '#        
            ##       ##  #######   ##           ,######,      #####,   #    #        
            '#,     ,#'  ##    ##  '#,     ,#' ,#      #,         ##   #,  ,#        
             '#######'   ##     ##  '#######'  #'      '#     #####' # '####'        



                  #######################################################
                  #                        -***-                        #
                  #          Department of theory and spectroscopy      #
                  #    Directorship and core code : Frank Neese         #
                  #        Max Planck Institute fuer Kohlenforschung    #
                  #                Kaiser Wilhelm Platz 1               #
                  #                 D-45470 Muelheim/Ruhr               #
                  #                      Germany                        #
                  #                                                     #
                  #                  All rights reserved                #
                  #                        -***-                        #
                  #######################################################


                         Program Version 5.0.4 -  RELEASE  -


 With contributions from (in alphabetic order):
   Daniel Aravena         : Magnetic Suceptibility
   Michael Atanasov       : Ab Initio Ligand Field Theory (pilot matlab implementation)
   Alexander A. Auer      : GIAO ZORA, VPT2 properties, NMR spectrum
   Ute Becker             : Parallelization
   Giovanni Bistoni       : ED, misc. LED, open-shell LED, HFLD
   Martin Brehm           : Molecular dynamics
   Dmytro Bykov           : SCF Hessian
   Vijay G. Chilkuri      : MRCI spin determinant printing, contributions to CSF-ICE
   Dipayan Datta          : RHF DLPNO-CCSD density
   Achintya Kumar Dutta   : EOM-CC, STEOM-CC
   Dmitry Ganyushin       : Spin-Orbit,Spin-Spin,Magnetic field MRCI
   Miquel Garcia          : C-PCM and meta-GGA Hessian, CC/C-PCM, Gaussian charge scheme
   Yang Guo               : DLPNO-NEVPT2, F12-NEVPT2, CIM, IAO-localization
   Andreas Hansen         : Spin unrestricted coupled pair/coupled cluster methods
   Benjamin Helmich-Paris : MC-RPA, TRAH-SCF, COSX integrals
   Lee Huntington         : MR-EOM, pCC
   Robert Izsak           : Overlap fitted RIJCOSX, COSX-SCS-MP3, EOM
   Marcus Kettner         : VPT2
   Christian Kollmar      : KDIIS, OOCD, Brueckner-CCSD(T), CCSD density, CASPT2, CASPT2-K
   Simone Kossmann        : Meta GGA functionals, TD-DFT gradient, OOMP2, MP2 Hessian
   Martin Krupicka        : Initial AUTO-CI
   Lucas Lang             : DCDCAS
   Marvin Lechner         : AUTO-CI (C++ implementation), FIC-MRCC
   Dagmar Lenk            : GEPOL surface, SMD
   Dimitrios Liakos       : Extrapolation schemes; Compound Job, initial MDCI parallelization
   Dimitrios Manganas     : Further ROCIS development; embedding schemes
   Dimitrios Pantazis     : SARC Basis sets
   Anastasios Papadopoulos: AUTO-CI, single reference methods and gradients
   Taras Petrenko         : DFT Hessian,TD-DFT gradient, ASA, ECA, R-Raman, ABS, FL, XAS/XES, NRVS
   Peter Pinski           : DLPNO-MP2, DLPNO-MP2 Gradient
   Christoph Reimann      : Effective Core Potentials
   Marius Retegan         : Local ZFS, SOC
   Christoph Riplinger    : Optimizer, TS searches, QM/MM, DLPNO-CCSD(T), (RO)-DLPNO pert. Triples
   Tobias Risthaus        : Range-separated hybrids, TD-DFT gradient, RPA, STAB
   Michael Roemelt        : Original ROCIS implementation
   Masaaki Saitow         : Open-shell DLPNO-CCSD energy and density
   Barbara Sandhoefer     : DKH picture change effects
   Avijit Sen             : IP-ROCIS
   Kantharuban Sivalingam : CASSCF convergence, NEVPT2, FIC-MRCI
   Bernardo de Souza      : ESD, SOC TD-DFT
   Georgi Stoychev        : AutoAux, RI-MP2 NMR, DLPNO-MP2 response
   Willem Van den Heuvel  : Paramagnetic NMR
   Boris Wezisla          : Elementary symmetry handling
   Frank Wennmohs         : Technical directorship


 We gratefully acknowledge several colleagues who have allowed us to
 interface, adapt or use parts of their codes:
   Stefan Grimme, W. Hujo, H. Kruse, P. Pracht,  : VdW corrections, initial TS optimization,
                  C. Bannwarth, S. Ehlert          DFT functionals, gCP, sTDA/sTD-DF
   Ed Valeev, F. Pavosevic, A. Kumar             : LibInt (2-el integral package), F12 methods
   Garnet Chan, S. Sharma, J. Yang, R. Olivares  : DMRG
   Ulf Ekstrom                                   : XCFun DFT Library
   Mihaly Kallay                                 : mrcc  (arbitrary order and MRCC methods)
   Jiri Pittner, Ondrej Demel                    : Mk-CCSD
   Frank Weinhold                                : gennbo (NPA and NBO analysis)
   Christopher J. Cramer and Donald G. Truhlar   : smd solvation model
   Lars Goerigk                                  : TD-DFT with DH, B97 family of functionals
   V. Asgeirsson, H. Jonsson                     : NEB implementation
   FAccTs GmbH                                   : IRC, NEB, NEB-TS, DLPNO-Multilevel, CI-OPT
                                                   MM, QMMM, 2- and 3-layer-ONIOM, Crystal-QMMM,
                                                   LR-CPCM, SF, NACMEs, symmetry and pop. for TD-DFT,
                                                   nearIR, NL-DFT gradient (VV10), updates on ESD,
                                                   ML-optimized integration grids
   S Lehtola, MJT Oliveira, MAL Marques          : LibXC Library
   Liviu Ungur et al                             : ANISO software


 Your calculation uses the libint2 library for the computation of 2-el integrals
 For citations please refer to: http://libint.valeyev.net

 Your ORCA version has been built with support for libXC version: 5.1.0
 For citations please refer to: https://tddft.org/programs/libxc/

 This ORCA versions uses:
   CBLAS   interface :  Fast vector & matrix operations
   LAPACKE interface :  Fast linear algebra routines
   SCALAPACK package :  Parallel linear algebra routines
   Shared memory     :  Shared parallel matrices
   BLAS/LAPACK       :  OpenBLAS 0.3.15  USE64BITINT DYNAMIC_ARCH NO_AFFINITY Prescott SINGLE_THREADED
        Core in use  :  Prescott
   Copyright (c) 2011-2014, The OpenBLAS Project


Your calculation utilizes the atom-pairwise dispersion correction
with the Becke-Johnson damping scheme (D3BJ)
Cite in your paper:
S.Grimme, S.Ehrlich, L.Goerigk, J Comput Chem, (2011), 32, 1456–1465 
S.Grimme, J.Antony, S.Ehrlich and H.Krieg, J.Chem.Phys., 132, (2010), 154104 
   

================================================================================

----- Orbital basis set information -----
Your calculation utilizes the basis: def2-TZVP
   F. Weigend and R. Ahlrichs, Phys. Chem. Chem. Phys. 7, 3297 (2005).

----- AuxJ basis set information -----
Your calculation utilizes the auxiliary basis: def2/J
   F. Weigend, Phys. Chem. Chem. Phys. 8, 1057 (2006).

================================================================================
                                        WARNINGS
                       Please study these warnings very carefully!
================================================================================


WARNING: Geometry Optimization
  ===> : Switching off AutoStart
         For restart on a previous wavefunction, please use MOREAD

INFO   : the flag for use of the SHARK integral package has been found!

================================================================================
                                       INPUT FILE
================================================================================
NAME = /home/rudenko/mop_saddle_orca_4_serv/for_orca/CH2CHCH2NO2_picoline_from_lutidine/orca/orca_start/start.inp
|  1> !  opt B3LYP def2-TZVP CPCM D3 
|  2> %pal nprocs 102 end
|  3> %cpcm epsilon 78.4 end 
|  4> *xyz 0 1 
|  5> C   -0.10189 0.0519 0.14134
|  6> H   -1.14386 0.17402 0.44525
|  7> N   -0.2272 -2.37867 0.18199
|  8> O   -1.41804 -2.5711 0.3582
|  9> O   0.62529 -3.12396 0.64517
| 10> H   1.87775 0.85951 0.10187
| 11> C   0.20305 -1.20609 -0.61092
| 12> H   -0.34017 -1.21506 -1.59621
| 13> H   1.29163 -1.30062 -0.86766
| 14> C   0.83768 0.9621 0.38844
| 15> H   0.64114 1.89565 0.90081
| 16> C   6.5396 -2.73916 0.25285
| 17> C   7.91656 -2.73222 -0.02148
| 18> C   8.52901 -1.50219 -0.27685
| 19> C   7.76531 -0.33872 -0.24515
| 20> C   6.40015 -0.43313 0.05046
| 21> N   5.7989 -1.61513 0.28781
| 22> H   5.99752 -3.67465 0.44714
| 23> H   8.21705 0.63148 -0.44864
| 24> H   5.76067 0.45737 0.09949
| 25> C   8.68107 -4.00249 -0.06315
| 26> H   9.74894 -3.86665 0.16885
| 27> H   8.63196 -4.46016 -1.06673
| 28> H   8.29856 -4.75428 0.64447
| 29> H   9.59758 -1.45501 -0.50037
| 30> H   2.51964 -2.99355 -0.23081
| 31> O   3.17164 -2.66951 -0.85693
| 32> H   3.88518 -2.30811 -0.31179
| 33> *
| 34> 
| 35>                          ****END OF INPUT****
================================================================================

                       *****************************
                       * Geometry Optimization Run *
                       *****************************

Geometry optimization settings:
Update method            Update   .... BFGS
Choice of coordinates    CoordSys .... Z-matrix Internals
Initial Hessian          InHess   .... Almoef's Model

Convergence Tolerances:
Energy Change            TolE     ....  5.0000e-06 Eh
Max. Gradient            TolMAXG  ....  3.0000e-04 Eh/bohr
RMS Gradient             TolRMSG  ....  1.0000e-04 Eh/bohr
Max. Displacement        TolMAXD  ....  4.0000e-03 bohr
RMS Displacement         TolRMSD  ....  2.0000e-03 bohr
Strict Convergence                ....  False
------------------------------------------------------------------------------
                        ORCA OPTIMIZATION COORDINATE SETUP
------------------------------------------------------------------------------

The optimization will be done in new redundant internal coordinates
Making redundant internal coordinates   ...  (new redundants) done
Evaluating the initial hessian          ...  (Almloef) done
Evaluating the coordinates              ...  done
Calculating the B-matrix                .... done
Calculating the G-matrix                .... done
Diagonalizing the G-matrix              .... done
Small eigenvalue found = 8.845e-03
Small eigenvalue found = 1.703e-02
Small eigenvalue found = 2.951e-02
The first mode is                       ....  103
The number of degrees of freedom        ....   78

    -----------------------------------------------------------------
                    Redundant Internal Coordinates


    -----------------------------------------------------------------
         Definition                    Initial Value    Approx d2E/dq
    -----------------------------------------------------------------
      1. B(H   1,C   0)                  1.0922         0.357156   
      2. B(O   3,N   2)                  1.2191         0.939051   
      3. B(O   4,N   2)                  1.2234         0.924264   
      4. B(C   6,N   2)                  1.4794         0.402872   
      5. B(C   6,C   0)                  1.4971         0.421509   
      6. B(H   7,C   6)                  1.1252         0.316477   
      7. B(H   8,C   6)                  1.1224         0.319652   
      8. B(C   9,C   0)                  1.3313         0.775207   
      9. B(C   9,H   5)                  1.0837         0.368539   
     10. B(H  10,C   9)                  1.0829         0.369620   
     11. B(C  12,C  11)                  1.4040         0.593391   
     12. B(C  13,C  12)                  1.3976         0.607596   
     13. B(C  14,C  13)                  1.3921         0.620026   
     14. B(C  15,C  14)                  1.4000         0.602292   
     15. B(N  16,C  11)                  1.3466         0.656349   
     16. B(N  16,C  15)                  1.3472         0.654866   
     17. B(H  17,C  11)                  1.0985         0.349007   
     18. B(H  18,C  14)                  1.0894         0.360911   
     19. B(H  19,C  15)                  1.0974         0.350418   
     20. B(C  20,C  12)                  1.4832         0.443700   
     21. B(H  21,C  20)                  1.1012         0.345595   
     22. B(H  22,C  20)                  1.1041         0.341917   
     23. B(H  23,C  20)                  1.1010         0.345823   
     24. B(H  24,C  13)                  1.0927         0.356525   
     25. B(H  25,H   8)                  2.1862         0.001229   
     26. B(H  25,O   4)                  2.0912         0.008152   
     27. B(O  26,H   8)                  2.3256         0.003445   
     28. B(O  26,H  25)                  0.9603         0.519427   
     29. B(H  27,N  16)                  2.1218         0.007284   
     30. B(H  27,C  11)                  2.7478         0.000816   
     31. B(H  27,O  26)                  0.9679         0.504991   
     32. B(H  27,H  17)                  2.6278         0.000243   
     33. A(C   6,C   0,C   9)          121.6010         0.421608   
     34. A(H   1,C   0,C   9)          123.0380         0.366082   
     35. A(H   1,C   0,C   6)          115.3448         0.330388   
     36. A(O   3,N   2,O   4)          121.9909         0.490292   
     37. A(O   3,N   2,C   6)          119.1208         0.424349   
     38. A(O   4,N   2,C   6)          118.8878         0.423147   
     39. A(N   2,O   4,H  25)          115.7631         0.208126   
     40. A(N   2,C   6,H   7)          108.8205         0.319567   
     41. A(C   0,C   6,N   2)          109.7213         0.373451   
     42. A(C   0,C   6,H   7)          110.3876         0.323871   
     43. A(H   7,C   6,H   8)          105.5014         0.279810   
     44. A(N   2,C   6,H   8)          109.7482         0.320088   
     45. A(C   0,C   6,H   8)          112.5343         0.324403   
     46. A(C   6,H   8,O  26)          146.3598         0.156793   
     47. A(C   6,H   8,H  25)          122.9117         0.132433   
     48. A(H  25,H   8,O  26)           24.3247         0.104396   
     49. A(C   0,C   9,H   5)          124.3014         0.368056   
     50. A(C   0,C   9,H  10)          123.3079         0.368241   
     51. A(H   5,C   9,H  10)          112.3905         0.293102   
     52. A(C  12,C  11,H  27)          155.0194         0.154840   
     53. A(N  16,C  11,H  17)          115.7738         0.352263   
     54. A(C  12,C  11,H  17)          121.5145         0.348458   
     55. A(H  17,C  11,H  27)           72.1360         0.139498   
     56. A(C  12,C  11,N  16)          122.7105         0.432243   
     57. A(N  16,C  11,H  27)           48.9311         0.155805   
     58. A(C  13,C  12,C  20)          121.5171         0.407441   
     59. A(C  11,C  12,C  20)          120.4490         0.405740   
     60. A(C  11,C  12,C  13)          118.0223         0.429098   
     61. A(C  14,C  13,H  24)          120.3347         0.352316   
     62. A(C  12,C  13,H  24)          120.2589         0.351112   
     63. A(C  12,C  13,C  14)          119.4064         0.432494   
     64. A(C  15,C  14,H  18)          120.2556         0.351317   
     65. A(C  13,C  14,H  18)          120.8365         0.353046   
     66. A(C  13,C  14,C  15)          118.9077         0.431813   
     67. A(N  16,C  15,H  19)          116.3600         0.352369   
     68. A(C  14,C  15,H  19)          121.5290         0.349571   
     69. A(C  14,C  15,N  16)          122.1109         0.433226   
     70. A(C  15,N  16,H  27)          129.7388         0.197325   
     71. A(C  11,N  16,H  27)          102.4833         0.197380   
     72. A(C  11,N  16,C  15)          118.8359         0.437100   
     73. A(C  11,H  17,H  27)           84.4182         0.119690   
     74. A(C  12,C  20,H  22)          110.9544         0.330810   
     75. A(C  12,C  20,H  21)          112.8481         0.331396   
     76. A(H  22,C  20,H  23)          106.6002         0.286668   
     77. A(H  21,C  20,H  23)          106.6025         0.287147   
     78. A(C  12,C  20,H  23)          112.8094         0.331432   
     79. A(H  21,C  20,H  22)          106.6047         0.286638   
     80. A(O   4,H  25,H   8)           70.2131         0.107710   
     81. A(H   8,H  25,O  26)           85.9942         0.136912   
     82. A(O   4,H  25,O  26)          155.4014         0.179882   
     83. A(H   8,O  26,H  27)          112.2564         0.163310   
     84. A(H   8,O  26,H  25)           69.6811         0.163786   
     85. A(H  25,O  26,H  27)          105.0281         0.320247   
     86. A(N  16,H  27,H  17)           50.4479         0.101634   
     87. A(C  11,H  27,H  17)           23.4458         0.096788   
     88. A(H  17,H  27,O  26)          124.1288         0.121978   
     89. A(C  11,H  27,N  16)           28.5855         0.109789   
     90. A(N  16,H  27,O  26)          161.0786         0.177032   
     91. A(C  11,H  27,O  26)          140.2879         0.143263   
     92. D(H  25,O   4,N   2,C   6)    -18.5967         0.081332   
     93. D(H  25,O   4,N   2,O   3)    161.6573         0.081332   
     94. D(C   0,C   6,N   2,O   3)     68.3666         0.013854   
     95. D(H   7,C   6,C   0,H   1)     64.4661         0.013135   
     96. D(N   2,C   6,C   0,C   9)    125.9624         0.013135   
     97. D(H   8,C   6,N   2,O   4)     12.7553         0.013854   
     98. D(H   8,C   6,C   0,H   1)   -177.9599         0.013135   
     99. D(N   2,C   6,C   0,H   1)    -55.4568         0.013135   
    100. D(H   8,C   6,N   2,O   3)   -167.4913         0.013854   
    101. D(H   7,C   6,N   2,O   3)    -52.5077         0.013854   
    102. D(H   7,C   6,C   0,C   9)   -114.1148         0.013135   
    103. D(H   8,C   6,C   0,C   9)      3.4593         0.013135   
    104. D(C   0,C   6,N   2,O   4)   -111.3868         0.013854   
    105. D(H   7,C   6,N   2,O   4)    127.7389         0.013854   
    106. D(H  25,H   8,C   6,C   0)    121.9626         0.099321   
    107. D(O  26,H   8,C   6,C   0)    131.3247         0.099321   
    108. D(O  26,H   8,C   6,N   2)      8.8368         0.099321   
    109. D(O  26,H   8,C   6,H   7)   -108.2456         0.099321   
    110. D(H  25,H   8,C   6,H   7)   -117.6078         0.099321   
    111. D(H  25,H   8,C   6,N   2)     -0.5253         0.099321   
    112. D(H  10,C   9,C   0,C   6)    177.9171         0.043140   
    113. D(H  10,C   9,C   0,H   1)     -0.5529         0.043140   
    114. D(H   5,C   9,C   0,C   6)     -1.9165         0.043140   
    115. D(H   5,C   9,C   0,H   1)    179.6135         0.043140   
    116. D(C  20,C  12,C  11,H  27)   -117.3301         0.026335   
    117. D(C  20,C  12,C  11,H  17)      0.3165         0.026335   
    118. D(C  20,C  12,C  11,N  16)   -179.2747         0.026335   
    119. D(C  13,C  12,C  11,H  27)     61.4531         0.026335   
    120. D(C  13,C  12,C  11,H  17)    179.0998         0.026335   
    121. D(C  13,C  12,C  11,N  16)     -0.4914         0.026335   
    122. D(C  14,C  13,C  12,C  11)      0.2959         0.025485   
    123. D(H  24,C  13,C  12,C  20)     -0.8700         0.025485   
    124. D(H  24,C  13,C  12,C  11)   -179.6396         0.025485   
    125. D(C  14,C  13,C  12,C  20)    179.0655         0.025485   
    126. D(H  18,C  14,C  13,H  24)      0.4393         0.026602   
    127. D(H  18,C  14,C  13,C  12)   -179.4961         0.026602   
    128. D(C  15,C  14,C  13,H  24)   -179.7085         0.026602   
    129. D(C  15,C  14,C  13,C  12)      0.3561         0.026602   
    130. D(H  19,C  15,C  14,C  13)    179.2080         0.025018   
    131. D(N  16,C  15,C  14,H  18)    178.9648         0.025018   
    132. D(N  16,C  15,C  14,C  13)     -0.8883         0.025018   
    133. D(H  19,C  15,C  14,H  18)     -0.9388         0.025018   
    134. D(H  27,N  16,C  15,H  19)     39.4850         0.035044   
    135. D(H  27,N  16,C  15,C  14)   -140.4233         0.035044   
    136. D(C  11,N  16,C  15,H  19)   -179.3815         0.035044   
    137. D(C  11,N  16,C  15,C  14)      0.7101         0.035044   
    138. D(H  27,N  16,C  11,H  17)    -29.2387         0.038314   
    139. D(H  27,N  16,C  11,C  12)    150.3743         0.038314   
    140. D(C  15,N  16,C  11,H  17)   -179.6205         0.038314   
    141. D(C  15,N  16,C  11,C  12)     -0.0075         0.038314   
    142. D(C  15,N  16,C  11,H  27)   -150.3818         0.038314   
    143. D(H  27,H  17,C  11,N  16)     22.7621         0.112578   
    144. D(H  27,H  17,C  11,C  12)   -156.8560         0.112578   
    145. D(H  23,C  20,C  12,C  11)    -33.0447         0.014523   
    146. D(H  22,C  20,C  12,C  13)    -92.2514         0.014523   
    147. D(H  22,C  20,C  12,C  11)     86.4886         0.014523   
    148. D(H  21,C  20,C  12,C  13)     27.3139         0.014523   
    149. D(H  23,C  20,C  12,C  13)    148.2153         0.014523   
    150. D(H  21,C  20,C  12,C  11)   -153.9461         0.014523   
    151. D(O   4,H  25,H   8,C   6)     -6.2844         0.001515   
    152. D(O  26,H  25,H   8,C   6)    167.3626         0.001515   
    153. D(H   8,H  25,O   4,N   2)     12.8258         0.001535   
    154. D(O  26,H  25,O   4,N   2)     -2.5519         0.001535   
    155. D(O   4,H  25,H   8,O  26)   -173.6470         0.001515   
    156. D(H   8,O  26,H  25,O   4)     14.4855         0.382499   
    157. D(H  27,O  26,H  25,H   8)    108.5888         0.382499   
    158. D(H  27,O  26,H  25,O   4)    123.0743         0.382499   
    159. D(H  27,O  26,H   8,H  25)    -98.4659         0.001507   
    160. D(H  27,O  26,H   8,C   6)   -117.8285         0.001507   
    161. D(H  25,O  26,H   8,C   6)    -19.3626         0.001507   
    162. D(H  17,H  27,O  26,H   8)    166.4406         0.388145   
    163. D(H  17,H  27,O  26,H  25)     92.6180         0.388145   
    164. D(N  16,H  27,O  26,H   8)   -126.8286         0.388145   
    165. D(C  11,H  27,O  26,H   8)   -170.2807         0.388145   
    166. D(C  11,H  27,O  26,H  25)    115.8967         0.388145   
    167. D(N  16,H  27,H  17,C  11)    -16.6651         0.001501   
    168. D(O  26,H  27,H  17,C  11)    140.6073         0.001501   
    169. D(H  17,H  27,N  16,C  15)    159.5323         0.001533   
    170. D(H  17,H  27,N  16,C  11)     13.7966         0.001533   
    171. D(C  11,H  27,N  16,C  15)    145.7357         0.001533   
    172. D(O  26,H  27,N  16,C  15)     79.0437         0.001533   
    173. D(O  26,H  27,N  16,C  11)    -66.6920         0.001533   
    174. D(H  17,H  27,C  11,N  16)   -152.4749         0.001500   
    175. D(H  17,H  27,C  11,C  12)    127.4931         0.001500   
    176. D(N  16,H  27,C  11,H  17)    152.4749         0.001500   
    177. D(N  16,H  27,O  26,H  25)    159.3489         0.388145   
    178. D(N  16,H  27,C  11,C  12)    -80.0320         0.001500   
    179. D(O  26,H  27,C  11,H  17)    -55.3067         0.001500   
    180. D(O  26,H  27,C  11,N  16)    152.2184         0.001500   
    181. D(O  26,H  27,C  11,C  12)     72.1864         0.001500   
    -----------------------------------------------------------------

Number of atoms                         .... 28
Number of degrees of freedom            .... 181

         *************************************************************
         *                GEOMETRY OPTIMIZATION CYCLE   1            *
         *************************************************************
---------------------------------
CARTESIAN COORDINATES (ANGSTROEM)
---------------------------------
  C     -0.101890    0.051900    0.141340
  H     -1.143860    0.174020    0.445250
  N     -0.227200   -2.378670    0.181990
  O     -1.418040   -2.571100    0.358200
  O      0.625290   -3.123960    0.645170
  H      1.877750    0.859510    0.101870
  C      0.203050   -1.206090   -0.610920
  H     -0.340170   -1.215060   -1.596210
  H      1.291630   -1.300620   -0.867660
  C      0.837680    0.962100    0.388440
  H      0.641140    1.895650    0.900810
  C      6.539600   -2.739160    0.252850
  C      7.916560   -2.732220   -0.021480
  C      8.529010   -1.502190   -0.276850
  C      7.765310   -0.338720   -0.245150
  C      6.400150   -0.433130    0.050460
  N      5.798900   -1.615130    0.287810
  H      5.997520   -3.674650    0.447140
  H      8.217050    0.631480   -0.448640
  H      5.760670    0.457370    0.099490
  C      8.681070   -4.002490   -0.063150
  H      9.748940   -3.866650    0.168850
  H      8.631960   -4.460160   -1.066730
  H      8.298560   -4.754280    0.644470
  H      9.597580   -1.455010   -0.500370
  H      2.519640   -2.993550   -0.230810
  O      3.171640   -2.669510   -0.856930
  H      3.885180   -2.308110   -0.311790

----------------------------
CARTESIAN COORDINATES (A.U.)
----------------------------
  NO LB      ZA    FRAG     MASS         X           Y           Z
   0 C     6.0000    0    12.011   -0.192544    0.098077    0.267094
   1 H     1.0000    0     1.008   -2.161582    0.328850    0.841401
   2 N     7.0000    0    14.007   -0.429346   -4.495035    0.343911
   3 O     8.0000    0    15.999   -2.679707   -4.858675    0.676900
   4 O     8.0000    0    15.999    1.181627   -5.903429    1.219195
   5 H     1.0000    0     1.008    3.548433    1.624239    0.192506
   6 C     6.0000    0    12.011    0.383709   -2.279180   -1.154471
   7 H     1.0000    0     1.008   -0.642828   -2.296131   -3.016400
   8 H     1.0000    0     1.008    2.440827   -2.457816   -1.639640
   9 C     6.0000    0    12.011    1.582986    1.818106    0.734045
  10 H     1.0000    0     1.008    1.211579    3.582259    1.702284
  11 C     6.0000    0    12.011   12.358053   -5.176262    0.477817
  12 C     6.0000    0    12.011   14.960130   -5.163148   -0.040591
  13 C     6.0000    0    12.011   16.117493   -2.838728   -0.523171
  14 C     6.0000    0    12.011   14.674309   -0.640088   -0.463266
  15 C     6.0000    0    12.011   12.094531   -0.818497    0.095356
  16 N     7.0000    0    14.007   10.958333   -3.052153    0.543882
  17 H     1.0000    0     1.008   11.333670   -6.944082    0.844972
  18 H     1.0000    0     1.008   15.527974    1.193324   -0.847807
  19 H     1.0000    0     1.008   10.886089    0.864304    0.188009
  20 C     6.0000    0    12.011   16.404845   -7.563610   -0.119336
  21 H     1.0000    0     1.008   18.422827   -7.306910    0.319080
  22 H     1.0000    0     1.008   16.312040   -8.428481   -2.015828
  23 H     1.0000    0     1.008   15.682006   -8.984287    1.217872
  24 H     1.0000    0     1.008   18.136798   -2.749570   -0.945562
  25 H     1.0000    0     1.008    4.761430   -5.656990   -0.436168
  26 O     8.0000    0    15.999    5.993531   -5.044643   -1.619363
  27 H     1.0000    0     1.008    7.341926   -4.361696   -0.589198

--------------------------------
INTERNAL COORDINATES (ANGSTROEM)
--------------------------------
 C      0   0   0     0.000000000000     0.00000000     0.00000000
 H      1   0   0     1.092234436099     0.00000000     0.00000000
 N      1   2   0     2.434137535864    93.31846684     0.00000000
 O      3   1   2     1.219089485887   102.14093772     7.94814526
 O      3   1   2     1.223410027996   125.36254717   223.14516067
 H      1   2   3     2.138402750326   147.78597642   207.03002677
 C      3   1   2     1.479447595219    35.37903422   131.78365951
 H      7   3   1     1.125151018042   108.82049865   239.12573670
 H      7   3   1     1.122433857695   109.74819735   124.14206087
 C      6   1   2     1.083693996431    30.94979925   359.39216363
 H     10   6   1     1.082897313230   112.39054053   180.15042813
 C      9   7   3     5.555729395192   153.09890004   322.96398174
 C     12   9   7     1.404038444666   152.33788899   191.88362290
 C     13  12   9     1.397598883908   118.02233575    49.36220227
 C     14  13  12     1.392086570907   119.40635013     0.29587274
 C     15  14  13     1.399985837714   118.90774315     0.35611992
 N     12   9   7     1.346589073363    43.07299452   262.23768550
 H     12   9   7     1.098517578649    77.88022150    53.98983391
 H     15  14  13     1.089387556244   120.83651253   180.50387542
 H     16  15  14     1.097419182127   121.52897509   179.20803144
 C     13  12   9     1.483171534887   120.44899517   230.57892287
 H     21  13  12     1.101191555770   112.84811776   206.05391207
 H     21  13  12     1.104104359832   110.95442520    86.48864030
 H     21  13  12     1.101012338078   112.80943543   326.95532592
 H     14  13  12     1.092716334508   120.25893466   180.36042646
 H      5   3   1     2.091150317648   115.76314321   300.02112453
 O     26   5   3     0.960277134998   155.40140654   357.44811258
 H     27  26   5     0.967949849527   105.02812866   123.07431239

---------------------------
INTERNAL COORDINATES (A.U.)
---------------------------
 C      0   0   0     0.000000000000     0.00000000     0.00000000
 H      1   0   0     2.064023958265     0.00000000     0.00000000
 N      1   2   0     4.599853315080    93.31846684     0.00000000
 O      3   1   2     2.303745261069   102.14093772     7.94814526
 O      3   1   2     2.311909902404   125.36254717   223.14516067
 H      1   2   3     4.040995562139   147.78597642   207.03002677
 C      3   1   2     2.795750784453    35.37903422   131.78365951
 H      7   3   1     2.126227283401   108.82049865   239.12573670
 H      7   3   1     2.121092594484   109.74819735   124.14206087
 C      6   1   2     2.047884866229    30.94979925   359.39216363
 H     10   6   1     2.046379353163   112.39054053   180.15042813
 C      9   7   3    10.498807031089   153.09890004   322.96398174
 C     12   9   7     2.653248141915   152.33788899   191.88362290
 C     13  12   9     2.641079135660   118.02233575    49.36220227
 C     14  13  12     2.630662373724   119.40635013     0.29587274
 C     15  14  13     2.645589824648   118.90774315     0.35611992
 N     12   9   7     2.544684563586    43.07299452   262.23768550
 H     12   9   7     2.075897376944    77.88022150    53.98983391
 H     15  14  13     2.058644135004   120.83651253   180.50387542
 H     16  15  14     2.073821708332   121.52897509   179.20803144
 C     13  12   9     2.802788010565   120.44899517   230.57892287
 H     21  13  12     2.080950461393   112.84811776   206.05391207
 H     21  13  12     2.086454863351   110.95442520    86.48864030
 H     21  13  12     2.080611789036   112.80943543   326.95532592
 H     14  13  12     2.064934614282   120.25893466   180.36042646
 H      5   3   1     3.951701405217   115.76314321   300.02112453
 O     26   5   3     1.814660797813   155.40140654   357.44811258
 H     27  26   5     1.829160126977   105.02812866   123.07431239

---------------------
BASIS SET INFORMATION
---------------------
There are 4 groups of distinct atoms

 Group   1 Type C   : 11s6p2d1f contracted to 5s3p2d1f pattern {62111/411/11/1}
 Group   2 Type H   : 5s1p contracted to 3s1p pattern {311/1}
 Group   3 Type N   : 11s6p2d1f contracted to 5s3p2d1f pattern {62111/411/11/1}
 Group   4 Type O   : 11s6p2d1f contracted to 5s3p2d1f pattern {62111/411/11/1}

Atom   0C    basis set group =>   1
Atom   1H    basis set group =>   2
Atom   2N    basis set group =>   3
Atom   3O    basis set group =>   4
Atom   4O    basis set group =>   4
Atom   5H    basis set group =>   2
Atom   6C    basis set group =>   1
Atom   7H    basis set group =>   2
Atom   8H    basis set group =>   2
Atom   9C    basis set group =>   1
Atom  10H    basis set group =>   2
Atom  11C    basis set group =>   1
Atom  12C    basis set group =>   1
Atom  13C    basis set group =>   1
Atom  14C    basis set group =>   1
Atom  15C    basis set group =>   1
Atom  16N    basis set group =>   3
Atom  17H    basis set group =>   2
Atom  18H    basis set group =>   2
Atom  19H    basis set group =>   2
Atom  20C    basis set group =>   1
Atom  21H    basis set group =>   2
Atom  22H    basis set group =>   2
Atom  23H    basis set group =>   2
Atom  24H    basis set group =>   2
Atom  25H    basis set group =>   2
Atom  26O    basis set group =>   4
Atom  27H    basis set group =>   2
---------------------------------
AUXILIARY/J BASIS SET INFORMATION
---------------------------------
There are 4 groups of distinct atoms

 Group   1 Type C   : 12s5p4d2f1g contracted to 6s4p3d1f1g pattern {711111/2111/211/2/1}
 Group   2 Type H   : 5s2p1d contracted to 3s1p1d pattern {311/2/1}
 Group   3 Type N   : 12s5p4d2f1g contracted to 6s4p3d1f1g pattern {711111/2111/211/2/1}
 Group   4 Type O   : 12s5p4d2f1g contracted to 6s4p3d1f1g pattern {711111/2111/211/2/1}

Atom   0C    basis set group =>   1
Atom   1H    basis set group =>   2
Atom   2N    basis set group =>   3
Atom   3O    basis set group =>   4
Atom   4O    basis set group =>   4
Atom   5H    basis set group =>   2
Atom   6C    basis set group =>   1
Atom   7H    basis set group =>   2
Atom   8H    basis set group =>   2
Atom   9C    basis set group =>   1
Atom  10H    basis set group =>   2
Atom  11C    basis set group =>   1
Atom  12C    basis set group =>   1
Atom  13C    basis set group =>   1
Atom  14C    basis set group =>   1
Atom  15C    basis set group =>   1
Atom  16N    basis set group =>   3
Atom  17H    basis set group =>   2
Atom  18H    basis set group =>   2
Atom  19H    basis set group =>   2
Atom  20C    basis set group =>   1
Atom  21H    basis set group =>   2
Atom  22H    basis set group =>   2
Atom  23H    basis set group =>   2
Atom  24H    basis set group =>   2
Atom  25H    basis set group =>   2
Atom  26O    basis set group =>   4
Atom  27H    basis set group =>   2


           ************************************************************
           *        Program running with 102 parallel MPI-processes   *
           *              working on a common directory               *
           ************************************************************
------------------------------------------------------------------------------
                           ORCA GTO INTEGRAL CALCULATION
                           -- RI-GTO INTEGRALS CHOSEN --
------------------------------------------------------------------------------
------------------------------------------------------------------------------
                   ___                                                        
                  /   \      - P O W E R E D   B Y -                         
                 /     \                                                     
                 |  |  |   _    _      __       _____    __    __             
                 |  |  |  | |  | |    /  \     |  _  \  |  |  /  |          
                  \  \/   | |  | |   /    \    | | | |  |  | /  /          
                 / \  \   | |__| |  /  /\  \   | |_| |  |  |/  /          
                |  |  |   |  __  | /  /__\  \  |    /   |      \           
                |  |  |   | |  | | |   __   |  |    \   |  |\   \          
                \     /   | |  | | |  |  |  |  | |\  \  |  | \   \       
                 \___/    |_|  |_| |__|  |__|  |_| \__\ |__|  \__/        
                                                                              
                      - O R C A' S   B I G   F R I E N D -                    
                                      &                                       
                       - I N T E G R A L  F E E D E R -                       
                                                                              
 v1 FN, 2020, v2 2021                                                         
------------------------------------------------------------------------------


Reading SHARK input file /home/rudenko/mop_saddle_orca_4_serv/for_orca/CH2CHCH2NO2_picoline_from_lutidine/orca/orca_start/start.SHARKINP.tmp ... ok
----------------------
SHARK INTEGRAL PACKAGE
----------------------

Number of atoms                             ...     28
Number of basis functions                   ...    518
Number of shells                            ...    210
Maximum angular momentum                    ...      3
Integral batch strategy                     ... SHARK/LIBINT Hybrid
RI-J (if used) integral strategy            ... SPLIT-RIJ (Revised 2003 algorithm where possible)
Printlevel                                  ...      1
Contraction scheme used                     ... SEGMENTED contraction
Coulomb Range Separation                    ... NOT USED
Exchange Range Separation                   ... NOT USED
Finite Nucleus Model                        ... NOT USED
Auxiliary Coulomb fitting basis             ... AVAILABLE
   # of basis functions in Aux-J            ...    840
   # of shells in Aux-J                     ...    280
   Maximum angular momentum in Aux-J        ...      4
Auxiliary J/K fitting basis                 ... NOT available
Auxiliary Correlation fitting basis         ... NOT available
Auxiliary 'external' fitting basis          ... NOT available
Integral threshold                          ...     2.500000e-11
Primitive cut-off                           ...     2.500000e-12
Primitive pair pre-selection threshold      ...     2.500000e-12

Calculating pre-screening integrals         ... done (  0.1 sec) Dimension = 210
Organizing shell pair data                  ... done (  0.4 sec)
Shell pair information
Total number of shell pairs                 ...     22155
Shell pairs after pre-screening             ...     14498
Total number of primitive shell pairs       ...     66780
Primitive shell pairs kept                  ...     30196
          la=0 lb=0:   4117 shell pairs
          la=1 lb=0:   4295 shell pairs
          la=1 lb=1:   1149 shell pairs
          la=2 lb=0:   1957 shell pairs
          la=2 lb=1:   1031 shell pairs
          la=2 lb=2:    238 shell pairs
          la=3 lb=0:    934 shell pairs
          la=3 lb=1:    505 shell pairs
          la=3 lb=2:    214 shell pairs
          la=3 lb=3:     58 shell pairs

Calculating one electron integrals          ... done (  0.1 sec)
Calculating RI/J V-Matrix + Cholesky decomp.... done (  0.1 sec)
Calculating Nuclear repulsion               ... done (  0.0 sec) ENN=    797.227327347762 Eh

SHARK setup successfully completed in   1.0 seconds

Maximum memory used throughout the entire GTOINT-calculation: 26.9 MB


           ************************************************************
           *        Program running with 102 parallel MPI-processes   *
           *              working on a common directory               *
           ************************************************************
-------------------------------------------------------------------------------
                                 ORCA SCF
-------------------------------------------------------------------------------

------------
SCF SETTINGS
------------
Hamiltonian:
 Density Functional     Method          .... DFT(GTOs)
 Exchange Functional    Exchange        .... B88
   X-Alpha parameter    XAlpha          ....  0.666667
   Becke's b parameter  XBeta           ....  0.004200
 Correlation Functional Correlation     .... LYP
 LDA part of GGA corr.  LDAOpt          .... VWN-5
 Gradients option       PostSCFGGA      .... off
 Hybrid DFT is turned on
   Fraction HF Exchange ScalHFX         ....  0.200000
   Scaling of DF-GGA-X  ScalDFX         ....  0.720000
   Scaling of DF-GGA-C  ScalDFC         ....  0.810000
   Scaling of DF-LDA-C  ScalLDAC        ....  1.000000
   Perturbative correction              ....  0.000000
   Density functional embedding theory  .... OFF
   NL short-range parameter             ....  4.800000
 RI-approximation to the Coulomb term is turned on
   Number of AuxJ basis functions       .... 840
   RIJ-COSX (HFX calculated with COS-X)).... on


General Settings:
 Integral files         IntName         .... /home/rudenko/mop_saddle_orca_4_serv/for_orca/CH2CHCH2NO2_picoline_from_lutidine/orca/orca_start/start
 Hartree-Fock type      HFTyp           .... RHF
 Total Charge           Charge          ....    0
 Multiplicity           Mult            ....    1
 Number of Electrons    NEL             ....  106
 Basis Dimension        Dim             ....  518
 Nuclear Repulsion      ENuc            ....    797.2273273478 Eh

Convergence Acceleration:
 DIIS                   CNVDIIS         .... on
   Start iteration      DIISMaxIt       ....    12
   Startup error        DIISStart       ....  0.200000
   # of expansion vecs  DIISMaxEq       ....     5
   Bias factor          DIISBfac        ....   1.050
   Max. coefficient     DIISMaxC        ....  10.000
 Trust-Rad. Augm. Hess. CNVTRAH         .... auto
   Auto Start mean grad. ratio tolernc. ....  1.125000
   Auto Start start iteration           ....    20
   Auto Start num. interpolation iter.  ....    10
   Max. Number of Micro iterations      ....    16
   Max. Number of Macro iterations      .... Maxiter - #DIIS iter
   Number of Davidson start vectors     ....     2
   Converg. threshold I  (grad. norm)   ....   1.000e-05
   Converg. threshold II (energy diff.) ....   1.000e-08
   Grad. Scal. Fac. for Micro threshold ....   0.100
   Minimum threshold for Micro iter.    ....   0.010
   NR start threshold (gradient norm)   ....   0.001
   Initial trust radius                 ....   0.400
   Minimum AH scaling param. (alpha)    ....   1.000
   Maximum AH scaling param. (alpha)    .... 1000.000
   Orbital update algorithm             .... Taylor
   White noise on init. David. guess    .... on
   Maximum white noise                  ....   0.010
   Quad. conv. algorithm                .... NR
 SOSCF                  CNVSOSCF        .... on
   Start iteration      SOSCFMaxIt      ....   150
   Startup grad/error   SOSCFStart      ....  0.003300
 Level Shifting         CNVShift        .... on
   Level shift para.    LevelShift      ....    0.2500
   Turn off err/grad.   ShiftErr        ....    0.0010
 Zerner damping         CNVZerner       .... off
 Static damping         CNVDamp         .... on
   Fraction old density DampFac         ....    0.7000
   Max. Damping (<1)    DampMax         ....    0.9800
   Min. Damping (>=0)   DampMin         ....    0.0000
   Turn off err/grad.   DampErr         ....    0.1000
 Fernandez-Rico         CNVRico         .... off

SCF Procedure:
 Maximum # iterations   MaxIter         ....   125
 SCF integral mode      SCFMode         .... Direct
   Integral package                     .... SHARK and LIBINT hybrid scheme
 Reset frequency        DirectResetFreq ....    20
 Integral Threshold     Thresh          ....  2.500e-11 Eh
 Primitive CutOff       TCut            ....  2.500e-12 Eh

Convergence Tolerance:
 Convergence Check Mode ConvCheckMode   .... Total+1el-Energy
 Convergence forced     ConvForced      .... 0
 Energy Change          TolE            ....  1.000e-08 Eh
 1-El. energy change                    ....  1.000e-05 Eh
 Orbital Gradient       TolG            ....  1.000e-05
 Orbital Rotation angle TolX            ....  1.000e-05
 DIIS Error             TolErr          ....  5.000e-07


Diagonalization of the overlap matrix:
Smallest eigenvalue                        ... 5.053e-05
Time for diagonalization                   ...    0.140 sec
Threshold for overlap eigenvalues          ... 1.000e-08
Number of eigenvalues below threshold      ... 0
Time for construction of square roots      ...    0.205 sec
Total time needed                          ...    0.348 sec

Time for model grid setup =    0.195 sec

------------------------------
INITIAL GUESS: MODEL POTENTIAL
------------------------------
Loading Hartree-Fock densities                     ... done
Calculating cut-offs                               ... done
Initializing the effective Hamiltonian             ... done
Setting up the integral package (SHARK)            ... done
Starting the Coulomb interaction                   ... done (   0.0 sec)
Reading the grid                                   ... done
Mapping shells                                     ... done
Starting the XC term evaluation                    ... done (   0.0 sec)
  promolecular density results
     # of electrons  =    105.993267581
     EX              =    -88.090285810
     EC              =     -3.582313921
     EX+EC           =    -91.672599731
Transforming the Hamiltonian                       ... done (   0.2 sec)
Diagonalizing the Hamiltonian                      ... done (   0.2 sec)
Back transforming the eigenvectors                 ... done (   0.1 sec)
Now organizing SCF variables                       ... done
                      ------------------
                      INITIAL GUESS DONE (   0.7 sec)
                      ------------------
-------------------
DFT GRID GENERATION
-------------------

General Integration Accuracy     IntAcc      ... 4.388
Radial Grid Type                 RadialGrid  ... OptM3 with GC (2021)
Angular Grid (max. ang.)         AngularGrid ... 4 (Lebedev-302)
Angular grid pruning method      GridPruning ... 4 (adaptive)
Weight generation scheme         WeightScheme... Becke
Basis function cutoff            BFCut       ... 1.0000e-11
Integration weight cutoff        WCut        ... 1.0000e-14
Angular grids for H and He will be reduced by one unit
Partially contracted basis set               ... off
Rotationally invariant grid construction     ... off

Total number of grid points                  ...   129651
Total number of batches                      ...     2042
Average number of points per batch           ...       63
Average number of grid points per atom       ...     4630
Time for grid setup =    1.108 sec

--------------------
COSX GRID GENERATION
--------------------

GRIDX 1
-------
General Integration Accuracy     IntAcc      ... 3.816
Radial Grid Type                 RadialGrid  ... OptM3 with GC (2021)
Angular Grid (max. ang.)         AngularGrid ... 1 (Lebedev-50)
Angular grid pruning method      GridPruning ... 4 (adaptive)
Weight generation scheme         WeightScheme... Becke
Basis function cutoff            BFCut       ... 1.0000e-11
Integration weight cutoff        WCut        ... 1.0000e-14
Angular grids for H and He will be reduced by one unit
Partially contracted basis set               ... on
Rotationally invariant grid construction     ... off

Total number of grid points                  ...    16589
Total number of batches                      ...      271
Average number of points per batch           ...       61
Average number of grid points per atom       ...      592
UseSFitting                                  ... on

GRIDX 2
-------
General Integration Accuracy     IntAcc      ... 4.020
Radial Grid Type                 RadialGrid  ... OptM3 with GC (2021)
Angular Grid (max. ang.)         AngularGrid ... 2 (Lebedev-110)
Angular grid pruning method      GridPruning ... 4 (adaptive)
Weight generation scheme         WeightScheme... Becke
Basis function cutoff            BFCut       ... 1.0000e-11
Integration weight cutoff        WCut        ... 1.0000e-14
Angular grids for H and He will be reduced by one unit
Partially contracted basis set               ... on
Rotationally invariant grid construction     ... off

Total number of grid points                  ...    35872
Total number of batches                      ...      572
Average number of points per batch           ...       62
Average number of grid points per atom       ...     1281
UseSFitting                                  ... on

GRIDX 3
-------
General Integration Accuracy     IntAcc      ... 4.338
Radial Grid Type                 RadialGrid  ... OptM3 with GC (2021)
Angular Grid (max. ang.)         AngularGrid ... 3 (Lebedev-194)
Angular grid pruning method      GridPruning ... 4 (adaptive)
Weight generation scheme         WeightScheme... Becke
Basis function cutoff            BFCut       ... 1.0000e-11
Integration weight cutoff        WCut        ... 1.0000e-14
Angular grids for H and He will be reduced by one unit
Partially contracted basis set               ... on
Rotationally invariant grid construction     ... off

Total number of grid points                  ...    78513
Total number of batches                      ...     1243
Average number of points per batch           ...       63
Average number of grid points per atom       ...     2804
UseSFitting                                  ... on

Time for X-Grid setup             =    1.447 sec


--------------------
CPCM SOLVATION MODEL
--------------------
CPCM parameters:
  Epsilon                                         ...      78.4000
  Refrac                                          ...       1.3300
  Rsolv                                           ...       1.3000
  Surface type                                    ... GAUSSIAN VDW
  Epsilon function type                           ...         CPCM
Radii:
 Radius for C  used is    3.8550 Bohr (=   2.0400 Ang.)
 Radius for H  used is    2.4944 Bohr (=   1.3200 Ang.)
 Radius for N  used is    3.5149 Bohr (=   1.8600 Ang.)
 Radius for O  used is    3.4469 Bohr (=   1.8240 Ang.)
Calculating surface                               ...        done! (  0.0s)
GEPOL surface points                              ...         1656
GEPOL Volume                                      ...    1756.4397
GEPOL Surface-area                                ...    1031.2664
Calculating surface distance matrix               ...        done! (  0.2s)
Performing Cholesky decomposition & store         ...        done! (  0.4s)
Overall time for CPCM initialization              ...                 0.6s
--------------
SCF ITERATIONS
--------------
ITER       Energy         Delta-E        Max-DP      RMS-DP      [F,P]     Damp
               ***  Starting incremental Fock matrix formation  ***
  0   -685.8748566018   0.000000000000 0.05518691  0.00085271  0.3420038 0.7000
  1   -686.1035081805  -0.228651578643 0.04566151  0.00062639  0.1367705 0.7000
                               ***Turning on DIIS***
  2   -686.1870326393  -0.083524458812 0.05927506  0.00097574  0.0393909 0.0000
  3   -686.3255002981  -0.138467658801 0.04194554  0.00046585  0.0790708 0.0000
  4   -686.3531682595  -0.027667961408 0.01066544  0.00015319  0.0200762 0.0000
  5   -686.3550916613  -0.001923401847 0.00419175  0.00006267  0.0065046 0.0000
                      *** Initiating the SOSCF procedure ***
                           *** Shutting down DIIS ***
                      *** Re-Reading the Fockian *** 
                      *** Removing any level shift *** 
ITER      Energy       Delta-E        Grad      Rot      Max-DP    RMS-DP
  6   -686.35521660  -0.0001249403  0.000250  0.000250  0.001876  0.000028
               *** Restarting incremental Fock matrix formation ***
  7   -686.35521251   0.0000040896  0.000178  0.000721  0.001076  0.000016
  8   -686.35520986   0.0000026522  0.000518  0.000762  0.000474  0.000007
  9   -686.35521472  -0.0000048610  0.000182  0.000556  0.000288  0.000003
 10   -686.35521393   0.0000007923  0.000334  0.000370  0.000202  0.000002
 11   -686.35521493  -0.0000010047  0.000014  0.000050  0.000038  0.000001
 12   -686.35521492   0.0000000142  0.000025  0.000033  0.000023  0.000000
                  ***Gradient check signals convergence***
              ***Rediagonalizing the Fockian in SOSCF/NRSCF***

               *****************************************************
               *                     SUCCESS                       *
               *           SCF CONVERGED AFTER  13 CYCLES          *
               *****************************************************

Old exchange energy                            =    -17.866969280 Eh
New exchange energy                            =    -17.867005831 Eh
Exchange energy change after final integration =     -0.000036551 Eh
Total energy after final integration           =   -686.355251490 Eh
Final COS-X integration done in                =     1.447 sec

----------------
TOTAL SCF ENERGY
----------------

Total Energy       :         -686.35525149 Eh          -18676.67590 eV

Components:
Nuclear Repulsion  :          797.22732735 Eh           21693.65846 eV
Electronic Energy  :        -1483.58257884 Eh          -40370.33436 eV
One Electron Energy:        -2514.77977218 Eh          -68430.63655 eV
Two Electron Energy:         1031.19719335 Eh           28060.30219 eV
Max COSX asymmetry :            0.00000145 Eh               0.00004 eV
CPCM Dielectric    :           -0.02200788 Eh              -0.59886 eV

Virial components:
Potential Energy   :        -1369.54361629 Eh          -37267.17643 eV
Kinetic Energy     :          683.18836480 Eh           18590.50053 eV
Virial Ratio       :            2.00463545


DFT components:
N(Alpha)           :       52.999989204283 electrons
N(Beta)            :       52.999989204283 electrons
N(Total)           :      105.999978408566 electrons
E(X)               :      -71.105899514179 Eh       
E(C)               :       -4.235495946966 Eh       
E(XC)              :      -75.341395461145 Eh       
DFET-embed. en.    :        0.000000000000 Eh       
CPCM Solvation Model Properties:
Surface-charge          :           -0.03027183
Charge-correction       :           -0.00018373 Eh              -0.00500 eV
Free-energy (cav+disp)  :  This term is not implemented in the current solvation scheme

---------------
SCF CONVERGENCE
---------------

  Last Energy change         ...   -1.9106e-08  Tolerance :   1.0000e-08
  Last MAX-Density change    ...    2.1094e-15  Tolerance :   1.0000e-07
  Last RMS-Density change    ...    1.3320e-17  Tolerance :   5.0000e-09
  Last Orbital Gradient      ...    1.6882e-06  Tolerance :   1.0000e-05
  Last Orbital Rotation      ...    5.6921e-06  Tolerance :   1.0000e-05

             **** THE GBW FILE WAS UPDATED (/home/rudenko/mop_saddle_orca_4_serv/for_orca/CH2CHCH2NO2_picoline_from_lutidine/orca/orca_start/start.gbw) ****
             **** DENSITY /home/rudenko/mop_saddle_orca_4_serv/for_orca/CH2CHCH2NO2_picoline_from_lutidine/orca/orca_start/start.scfp WAS UPDATED ****
             **** ENERGY FILE WAS UPDATED (/home/rudenko/mop_saddle_orca_4_serv/for_orca/CH2CHCH2NO2_picoline_from_lutidine/orca/orca_start/start.en.tmp) ****
             **** THE GBW FILE WAS UPDATED (/home/rudenko/mop_saddle_orca_4_serv/for_orca/CH2CHCH2NO2_picoline_from_lutidine/orca/orca_start/start.gbw) ****
             **** DENSITY /home/rudenko/mop_saddle_orca_4_serv/for_orca/CH2CHCH2NO2_picoline_from_lutidine/orca/orca_start/start.scfp WAS UPDATED ****
----------------
ORBITAL ENERGIES
----------------

  NO   OCC          E(Eh)            E(eV) 
   0   2.0000     -19.177824      -521.8551 
   1   2.0000     -19.176410      -521.8166 
   2   2.0000     -19.110223      -520.0156 
   3   2.0000     -14.563927      -396.3046 
   4   2.0000     -14.323605      -389.7651 
   5   2.0000     -10.235270      -278.5159 
   6   2.0000     -10.210258      -277.8353 
   7   2.0000     -10.209464      -277.8136 
   8   2.0000     -10.194168      -277.3974 
   9   2.0000     -10.192300      -277.3466 
  10   2.0000     -10.189179      -277.2617 
  11   2.0000     -10.183953      -277.1195 
  12   2.0000     -10.177693      -276.9491 
  13   2.0000     -10.165698      -276.6227 
  14   2.0000      -1.251269       -34.0488 
  15   2.0000      -1.072711       -29.1899 
  16   2.0000      -0.997754       -27.1503 
  17   2.0000      -0.943113       -25.6634 
  18   2.0000      -0.847102       -23.0508 
  19   2.0000      -0.815963       -22.2035 
  20   2.0000      -0.775088       -21.0912 
  21   2.0000      -0.759728       -20.6732 
  22   2.0000      -0.696868       -18.9628 
  23   2.0000      -0.635291       -17.2872 
  24   2.0000      -0.630205       -17.1488 
  25   2.0000      -0.606264       -16.4973 
  26   2.0000      -0.589190       -16.0327 
  27   2.0000      -0.560999       -15.2655 
  28   2.0000      -0.546235       -14.8638 
  29   2.0000      -0.533130       -14.5072 
  30   2.0000      -0.523688       -14.2503 
  31   2.0000      -0.513248       -13.9662 
  32   2.0000      -0.491918       -13.3858 
  33   2.0000      -0.471722       -12.8362 
  34   2.0000      -0.456433       -12.4202 
  35   2.0000      -0.441773       -12.0213 
  36   2.0000      -0.427020       -11.6198 
  37   2.0000      -0.419109       -11.4045 
  38   2.0000      -0.404972       -11.0198 
  39   2.0000      -0.403661       -10.9842 
  40   2.0000      -0.387669       -10.5490 
  41   2.0000      -0.386913       -10.5284 
  42   2.0000      -0.381893       -10.3918 
  43   2.0000      -0.368114       -10.0169 
  44   2.0000      -0.359457        -9.7813 
  45   2.0000      -0.337659        -9.1882 
  46   2.0000      -0.336497        -9.1565 
  47   2.0000      -0.313977        -8.5437 
  48   2.0000      -0.305363        -8.3093 
  49   2.0000      -0.290688        -7.9100 
  50   2.0000      -0.281256        -7.6534 
  51   2.0000      -0.271324        -7.3831 
  52   2.0000      -0.258324        -7.0293 
  53   0.0000      -0.090040        -2.4501 
  54   0.0000      -0.038716        -1.0535 
  55   0.0000      -0.022465        -0.6113 
  56   0.0000      -0.012476        -0.3395 
  57   0.0000       0.039852         1.0844 
  58   0.0000       0.057250         1.5578 
  59   0.0000       0.065193         1.7740 
  60   0.0000       0.072441         1.9712 
  61   0.0000       0.078266         2.1297 
  62   0.0000       0.093368         2.5407 
  63   0.0000       0.098449         2.6789 
  64   0.0000       0.106261         2.8915 
  65   0.0000       0.110197         2.9986 
  66   0.0000       0.115512         3.1432 
  67   0.0000       0.119450         3.2504 
  68   0.0000       0.120451         3.2776 
  69   0.0000       0.126313         3.4371 
  70   0.0000       0.135987         3.7004 
  71   0.0000       0.147399         4.0109 
  72   0.0000       0.153158         4.1676 
  73   0.0000       0.164043         4.4638 
  74   0.0000       0.170603         4.6423 
  75   0.0000       0.179578         4.8866 
  76   0.0000       0.184883         5.0309 
  77   0.0000       0.189891         5.1672 
  78   0.0000       0.199719         5.4346 
  79   0.0000       0.207250         5.6396 
  80   0.0000       0.210524         5.7286 
  81   0.0000       0.213182         5.8010 
  82   0.0000       0.224567         6.1108 
  83   0.0000       0.229988         6.2583 
  84   0.0000       0.238964         6.5025 
  85   0.0000       0.242418         6.5965 
  86   0.0000       0.258352         7.0301 
  87   0.0000       0.263486         7.1698 
  88   0.0000       0.271612         7.3909 
  89   0.0000       0.272979         7.4281 
  90   0.0000       0.280583         7.6350 
  91   0.0000       0.296435         8.0664 
  92   0.0000       0.298133         8.1126 
  93   0.0000       0.305763         8.3202 
  94   0.0000       0.310174         8.4403 
  95   0.0000       0.313561         8.5324 
  96   0.0000       0.320344         8.7170 
  97   0.0000       0.326046         8.8722 
  98   0.0000       0.336693         9.1619 
  99   0.0000       0.342740         9.3264 
 100   0.0000       0.346653         9.4329 
 101   0.0000       0.350636         9.5413 
 102   0.0000       0.353069         9.6075 
 103   0.0000       0.361156         9.8276 
 104   0.0000       0.370907        10.0929 
 105   0.0000       0.378100        10.2886 
 106   0.0000       0.382835        10.4175 
 107   0.0000       0.394444        10.7334 
 108   0.0000       0.397470        10.8157 
 109   0.0000       0.402021        10.9396 
 110   0.0000       0.411494        11.1973 
 111   0.0000       0.418449        11.3866 
 112   0.0000       0.426285        11.5998 
 113   0.0000       0.428626        11.6635 
 114   0.0000       0.436927        11.8894 
 115   0.0000       0.440446        11.9852 
 116   0.0000       0.445111        12.1121 
 117   0.0000       0.453775        12.3478 
 118   0.0000       0.464635        12.6434 
 119   0.0000       0.466841        12.7034 
 120   0.0000       0.470682        12.8079 
 121   0.0000       0.478285        13.0148 
 122   0.0000       0.480807        13.0834 
 123   0.0000       0.484364        13.1802 
 124   0.0000       0.489827        13.3289 
 125   0.0000       0.493746        13.4355 
 126   0.0000       0.502237        13.6666 
 127   0.0000       0.508794        13.8450 
 128   0.0000       0.529423        14.4063 
 129   0.0000       0.531774        14.4703 
 130   0.0000       0.542375        14.7588 
 131   0.0000       0.544274        14.8104 
 132   0.0000       0.553266        15.0551 
 133   0.0000       0.566073        15.4036 
 134   0.0000       0.568354        15.4657 
 135   0.0000       0.586109        15.9488 
 136   0.0000       0.590085        16.0570 
 137   0.0000       0.595520        16.2049 
 138   0.0000       0.609206        16.5773 
 139   0.0000       0.612004        16.6535 
 140   0.0000       0.623362        16.9625 
 141   0.0000       0.632951        17.2235 
 142   0.0000       0.637382        17.3441 
 143   0.0000       0.649277        17.6677 
 144   0.0000       0.658729        17.9249 
 145   0.0000       0.660358        17.9693 
 146   0.0000       0.680060        18.5054 
 147   0.0000       0.685482        18.6529 
 148   0.0000       0.690182        18.7808 
 149   0.0000       0.706205        19.2168 
 150   0.0000       0.718620        19.5546 
 151   0.0000       0.732388        19.9293 
 152   0.0000       0.746052        20.3011 
 153   0.0000       0.755011        20.5449 
 154   0.0000       0.760000        20.6807 
 155   0.0000       0.771465        20.9926 
 156   0.0000       0.781341        21.2614 
 157   0.0000       0.788584        21.4585 
 158   0.0000       0.800749        21.7895 
 159   0.0000       0.820394        22.3240 
 160   0.0000       0.829569        22.5737 
 161   0.0000       0.838646        22.8207 
 162   0.0000       0.853876        23.2352 
 163   0.0000       0.881344        23.9826 
 164   0.0000       0.889505        24.2047 
 165   0.0000       0.909319        24.7438 
 166   0.0000       0.914304        24.8795 
 167   0.0000       0.926338        25.2069 
 168   0.0000       0.948948        25.8222 
 169   0.0000       0.960688        26.1417 
 170   0.0000       0.962790        26.1988 
 171   0.0000       0.971394        26.4330 
 172   0.0000       0.981105        26.6972 
 173   0.0000       1.010892        27.5078 
 174   0.0000       1.016162        27.6512 
 175   0.0000       1.031004        28.0551 
 176   0.0000       1.037858        28.2416 
 177   0.0000       1.066684        29.0260 
 178   0.0000       1.075549        29.2672 
 179   0.0000       1.084986        29.5240 
 180   0.0000       1.112151        30.2632 
 181   0.0000       1.117630        30.4123 
 182   0.0000       1.121418        30.5153 
 183   0.0000       1.151780        31.3415 
 184   0.0000       1.154950        31.4278 
 185   0.0000       1.178425        32.0666 
 186   0.0000       1.186306        32.2810 
 187   0.0000       1.206194        32.8222 
 188   0.0000       1.210026        32.9265 
 189   0.0000       1.222220        33.2583 
 190   0.0000       1.235970        33.6325 
 191   0.0000       1.238758        33.7083 
 192   0.0000       1.252496        34.0821 
 193   0.0000       1.254122        34.1264 
 194   0.0000       1.265845        34.4454 
 195   0.0000       1.274523        34.6815 
 196   0.0000       1.282032        34.8859 
 197   0.0000       1.308886        35.6166 
 198   0.0000       1.317414        35.8486 
 199   0.0000       1.327585        36.1254 
 200   0.0000       1.335850        36.3503 
 201   0.0000       1.342221        36.5237 
 202   0.0000       1.354086        36.8465 
 203   0.0000       1.375579        37.4314 
 204   0.0000       1.381839        37.6017 
 205   0.0000       1.399456        38.0811 
 206   0.0000       1.419605        38.6294 
 207   0.0000       1.436075        39.0776 
 208   0.0000       1.441345        39.2210 
 209   0.0000       1.452978        39.5375 
 210   0.0000       1.471063        40.0297 
 211   0.0000       1.481656        40.3179 
 212   0.0000       1.494071        40.6557 
 213   0.0000       1.503386        40.9092 
 214   0.0000       1.523291        41.4508 
 215   0.0000       1.533192        41.7203 
 216   0.0000       1.534419        41.7537 
 217   0.0000       1.542675        41.9783 
 218   0.0000       1.557223        42.3742 
 219   0.0000       1.564017        42.5591 
 220   0.0000       1.576517        42.8992 
 221   0.0000       1.585743        43.1503 
 222   0.0000       1.596933        43.4548 
 223   0.0000       1.605776        43.6954 
 224   0.0000       1.619130        44.0588 
 225   0.0000       1.621369        44.1197 
 226   0.0000       1.635211        44.4964 
 227   0.0000       1.639864        44.6230 
 228   0.0000       1.649213        44.8774 
 229   0.0000       1.669618        45.4326 
 230   0.0000       1.676924        45.6314 
 231   0.0000       1.689730        45.9799 
 232   0.0000       1.696505        46.1642 
 233   0.0000       1.712816        46.6081 
 234   0.0000       1.717908        46.7467 
 235   0.0000       1.728985        47.0481 
 236   0.0000       1.741181        47.3799 
 237   0.0000       1.753088        47.7039 
 238   0.0000       1.756289        47.7911 
 239   0.0000       1.775733        48.3202 
 240   0.0000       1.785434        48.5841 
 241   0.0000       1.817050        49.4444 
 242   0.0000       1.822366        49.5891 
 243   0.0000       1.833248        49.8852 
 244   0.0000       1.843106        50.1535 
 245   0.0000       1.851921        50.3933 
 246   0.0000       1.861792        50.6619 
 247   0.0000       1.885423        51.3050 
 248   0.0000       1.888529        51.3895 
 249   0.0000       1.910077        51.9758 
 250   0.0000       1.913383        52.0658 
 251   0.0000       1.929486        52.5040 
 252   0.0000       1.936813        52.7034 
 253   0.0000       1.946795        52.9750 
 254   0.0000       1.948365        53.0177 
 255   0.0000       1.965327        53.4793 
 256   0.0000       1.980874        53.9023 
 257   0.0000       2.012934        54.7747 
 258   0.0000       2.021373        55.0044 
 259   0.0000       2.032393        55.3042 
 260   0.0000       2.062552        56.1249 
 261   0.0000       2.071319        56.3635 
 262   0.0000       2.101061        57.1728 
 263   0.0000       2.103222        57.2316 
 264   0.0000       2.110142        57.4199 
 265   0.0000       2.123190        57.7749 
 266   0.0000       2.124406        57.8080 
 267   0.0000       2.150720        58.5241 
 268   0.0000       2.154421        58.6248 
 269   0.0000       2.170434        59.0605 
 270   0.0000       2.174387        59.1681 
 271   0.0000       2.188917        59.5634 
 272   0.0000       2.202221        59.9255 
 273   0.0000       2.217101        60.3304 
 274   0.0000       2.225853        60.5685 
 275   0.0000       2.235519        60.8316 
 276   0.0000       2.244234        61.0687 
 277   0.0000       2.259932        61.4959 
 278   0.0000       2.272506        61.8380 
 279   0.0000       2.286703        62.2244 
 280   0.0000       2.307790        62.7982 
 281   0.0000       2.319927        63.1284 
 282   0.0000       2.332817        63.4792 
 283   0.0000       2.354136        64.0593 
 284   0.0000       2.361620        64.2630 
 285   0.0000       2.381368        64.8003 
 286   0.0000       2.384923        64.8971 
 287   0.0000       2.403310        65.3974 
 288   0.0000       2.406108        65.4735 
 289   0.0000       2.421520        65.8929 
 290   0.0000       2.430431        66.1354 
 291   0.0000       2.440647        66.4134 
 292   0.0000       2.447648        66.6039 
 293   0.0000       2.487400        67.6856 
 294   0.0000       2.496948        67.9454 
 295   0.0000       2.505839        68.1874 
 296   0.0000       2.521713        68.6193 
 297   0.0000       2.546723        69.2999 
 298   0.0000       2.550020        69.3896 
 299   0.0000       2.566379        69.8347 
 300   0.0000       2.568104        69.8817 
 301   0.0000       2.573135        70.0186 
 302   0.0000       2.584597        70.3305 
 303   0.0000       2.589388        70.4608 
 304   0.0000       2.610281        71.0294 
 305   0.0000       2.614186        71.1356 
 306   0.0000       2.619326        71.2755 
 307   0.0000       2.627864        71.5078 
 308   0.0000       2.636703        71.7483 
 309   0.0000       2.654574        72.2346 
 310   0.0000       2.667813        72.5949 
 311   0.0000       2.674341        72.7725 
 312   0.0000       2.681472        72.9666 
 313   0.0000       2.695947        73.3605 
 314   0.0000       2.699958        73.4696 
 315   0.0000       2.715639        73.8963 
 316   0.0000       2.721491        74.0555 
 317   0.0000       2.731655        74.3321 
 318   0.0000       2.738158        74.5091 
 319   0.0000       2.742272        74.6210 
 320   0.0000       2.762294        75.1658 
 321   0.0000       2.777201        75.5715 
 322   0.0000       2.781875        75.6987 
 323   0.0000       2.787158        75.8424 
 324   0.0000       2.813653        76.5634 
 325   0.0000       2.820428        76.7477 
 326   0.0000       2.832881        77.0866 
 327   0.0000       2.859148        77.8014 
 328   0.0000       2.867710        78.0344 
 329   0.0000       2.873574        78.1939 
 330   0.0000       2.905376        79.0593 
 331   0.0000       2.916529        79.3628 
 332   0.0000       2.925157        79.5976 
 333   0.0000       2.934948        79.8640 
 334   0.0000       2.948044        80.2204 
 335   0.0000       2.951127        80.3043 
 336   0.0000       2.961392        80.5836 
 337   0.0000       2.978931        81.0608 
 338   0.0000       3.004765        81.7638 
 339   0.0000       3.012604        81.9771 
 340   0.0000       3.014238        82.0216 
 341   0.0000       3.026362        82.3515 
 342   0.0000       3.039829        82.7179 
 343   0.0000       3.051902        83.0465 
 344   0.0000       3.054391        83.1142 
 345   0.0000       3.068094        83.4871 
 346   0.0000       3.071708        83.5854 
 347   0.0000       3.084928        83.9452 
 348   0.0000       3.102456        84.4221 
 349   0.0000       3.106280        84.5262 
 350   0.0000       3.111930        84.6799 
 351   0.0000       3.123771        85.0021 
 352   0.0000       3.140851        85.4669 
 353   0.0000       3.145311        85.5883 
 354   0.0000       3.157619        85.9232 
 355   0.0000       3.163407        86.0807 
 356   0.0000       3.173548        86.3566 
 357   0.0000       3.182197        86.5920 
 358   0.0000       3.186061        86.6971 
 359   0.0000       3.194156        86.9174 
 360   0.0000       3.207610        87.2835 
 361   0.0000       3.212938        87.4285 
 362   0.0000       3.225695        87.7756 
 363   0.0000       3.237233        88.0896 
 364   0.0000       3.268848        88.9499 
 365   0.0000       3.279528        89.2405 
 366   0.0000       3.282744        89.3280 
 367   0.0000       3.293674        89.6254 
 368   0.0000       3.298913        89.7680 
 369   0.0000       3.310535        90.0842 
 370   0.0000       3.318876        90.3112 
 371   0.0000       3.323635        90.4407 
 372   0.0000       3.337467        90.8171 
 373   0.0000       3.348368        91.1137 
 374   0.0000       3.364455        91.5515 
 375   0.0000       3.381922        92.0268 
 376   0.0000       3.394541        92.3702 
 377   0.0000       3.404758        92.6482 
 378   0.0000       3.418540        93.0232 
 379   0.0000       3.448787        93.8463 
 380   0.0000       3.458399        94.1078 
 381   0.0000       3.461850        94.2017 
 382   0.0000       3.480560        94.7108 
 383   0.0000       3.498074        95.1874 
 384   0.0000       3.503597        95.3377 
 385   0.0000       3.521223        95.8173 
 386   0.0000       3.561254        96.9067 
 387   0.0000       3.603156        98.0469 
 388   0.0000       3.627435        98.7075 
 389   0.0000       3.630380        98.7877 
 390   0.0000       3.663117        99.6785 
 391   0.0000       3.678149       100.0875 
 392   0.0000       3.681767       100.1860 
 393   0.0000       3.708201       100.9053 
 394   0.0000       3.726224       101.3957 
 395   0.0000       3.731574       101.5413 
 396   0.0000       3.750112       102.0457 
 397   0.0000       3.753780       102.1455 
 398   0.0000       3.807136       103.5974 
 399   0.0000       3.824740       104.0765 
 400   0.0000       3.842137       104.5499 
 401   0.0000       3.844943       104.6262 
 402   0.0000       3.848848       104.7325 
 403   0.0000       3.863661       105.1355 
 404   0.0000       3.869502       105.2945 
 405   0.0000       3.896756       106.0361 
 406   0.0000       3.970608       108.0457 
 407   0.0000       3.993596       108.6713 
 408   0.0000       4.006412       109.0200 
 409   0.0000       4.014762       109.2472 
 410   0.0000       4.054212       110.3207 
 411   0.0000       4.060559       110.4934 
 412   0.0000       4.064218       110.5930 
 413   0.0000       4.069493       110.7365 
 414   0.0000       4.105366       111.7127 
 415   0.0000       4.115009       111.9751 
 416   0.0000       4.148888       112.8970 
 417   0.0000       4.153456       113.0213 
 418   0.0000       4.177086       113.6643 
 419   0.0000       4.227183       115.0275 
 420   0.0000       4.261734       115.9677 
 421   0.0000       4.263857       116.0255 
 422   0.0000       4.288358       116.6922 
 423   0.0000       4.289480       116.7227 
 424   0.0000       4.304686       117.1365 
 425   0.0000       4.343971       118.2055 
 426   0.0000       4.359211       118.6202 
 427   0.0000       4.369003       118.8866 
 428   0.0000       4.424106       120.3860 
 429   0.0000       4.457541       121.2959 
 430   0.0000       4.470193       121.6401 
 431   0.0000       4.476971       121.8246 
 432   0.0000       4.484087       122.0182 
 433   0.0000       4.550161       123.8162 
 434   0.0000       4.558416       124.0408 
 435   0.0000       4.567678       124.2928 
 436   0.0000       4.572368       124.4205 
 437   0.0000       4.592623       124.9716 
 438   0.0000       4.631470       126.0287 
 439   0.0000       4.641693       126.3069 
 440   0.0000       4.658069       126.7525 
 441   0.0000       4.728993       128.6824 
 442   0.0000       4.744780       129.1120 
 443   0.0000       4.748473       129.2125 
 444   0.0000       4.788303       130.2964 
 445   0.0000       4.791469       130.3825 
 446   0.0000       4.833459       131.5251 
 447   0.0000       4.864766       132.3770 
 448   0.0000       4.869328       132.5011 
 449   0.0000       4.916621       133.7880 
 450   0.0000       4.935119       134.2914 
 451   0.0000       4.949331       134.6781 
 452   0.0000       5.039553       137.1332 
 453   0.0000       5.057850       137.6311 
 454   0.0000       5.079734       138.2266 
 455   0.0000       5.080783       138.2551 
 456   0.0000       5.110945       139.0759 
 457   0.0000       5.113055       139.1333 
 458   0.0000       5.117207       139.2463 
 459   0.0000       5.133419       139.6874 
 460   0.0000       5.149524       140.1257 
 461   0.0000       5.157546       140.3439 
 462   0.0000       5.203096       141.5834 
 463   0.0000       5.213146       141.8569 
 464   0.0000       5.224894       142.1766 
 465   0.0000       5.267713       143.3417 
 466   0.0000       5.271624       143.4482 
 467   0.0000       5.300127       144.2238 
 468   0.0000       5.360837       145.8758 
 469   0.0000       5.371166       146.1568 
 470   0.0000       5.398122       146.8904 
 471   0.0000       5.431685       147.8037 
 472   0.0000       5.455174       148.4428 
 473   0.0000       5.493374       149.4823 
 474   0.0000       5.559903       151.2927 
 475   0.0000       5.591191       152.1441 
 476   0.0000       5.603195       152.4707 
 477   0.0000       5.637386       153.4011 
 478   0.0000       5.697059       155.0249 
 479   0.0000       5.753023       156.5477 
 480   0.0000       5.933955       161.4711 
 481   0.0000       5.990167       163.0007 
 482   0.0000       6.081246       165.4791 
 483   0.0000       6.230037       169.5279 
 484   0.0000       6.259717       170.3356 
 485   0.0000       6.275968       170.7778 
 486   0.0000       6.315975       171.8664 
 487   0.0000       6.327519       172.1805 
 488   0.0000       6.344826       172.6515 
 489   0.0000       6.377214       173.5328 
 490   0.0000       6.394143       173.9935 
 491   0.0000       6.419319       174.6786 
 492   0.0000       6.448555       175.4741 
 493   0.0000       6.654340       181.0738 
 494   0.0000       6.829720       185.8461 
 495   0.0000       6.857635       186.6057 
 496   0.0000       6.915252       188.1736 
 497   0.0000       6.979449       189.9205 
 498   0.0000       7.053055       191.9234 
 499   0.0000       7.088280       192.8819 
 500   0.0000       7.221371       196.5035 
 501   0.0000       7.246920       197.1987 
 502   0.0000       7.306320       198.8151 
 503   0.0000       7.389802       201.0867 
 504   0.0000      22.038330       599.6935 
 505   0.0000      22.254677       605.5806 
 506   0.0000      22.364396       608.5661 
 507   0.0000      22.376334       608.8910 
 508   0.0000      22.568324       614.1153 
 509   0.0000      22.650655       616.3557 
 510   0.0000      22.685773       617.3113 
 511   0.0000      22.730414       618.5260 
 512   0.0000      23.080587       628.0547 
 513   0.0000      32.361618       880.6044 
 514   0.0000      32.370921       880.8575 
[...]
  28   H   :    0.000327127   -0.000743302   -0.001920182

Difference to translation invariance:
           :   -0.0000280696    0.0001325665   -0.0000214653

Difference to rotation invariance:
           :    0.0004042719    0.0007473486   -0.0012915236

Norm of the cartesian gradient     ...    0.0049626879
RMS gradient                       ...    0.0005414736
MAX gradient                       ...    0.0019201818

-------
TIMINGS
-------

Total SCF gradient time            ...        6.732 sec

One electron gradient       ....       0.140 sec  (  2.1%)
RI-J Coulomb gradient       ....       0.611 sec  (  9.1%)
COSX gradient               ....       2.095 sec  ( 31.1%)
XC gradient                 ....       0.818 sec  ( 12.1%)
CPCM gradient               ....       0.394 sec  (  5.8%)
   A-Matrix (El+Nuc)        ....       0.241 sec  (  3.6%)
   Potential                ....       0.153 sec  (  2.3%)

Maximum memory used throughout the entire SCFGRAD-calculation: 74.5 MB
------------------------------------------------------------------------------
                         ORCA GEOMETRY RELAXATION STEP
------------------------------------------------------------------------------

Reading the OPT-File                    .... done
Getting information on internals        .... done
Copying old internal coords+grads       .... done
Making the new internal coordinates     .... (new redundants).... done
Validating the new internal coordinates .... (new redundants).... done
Calculating the B-matrix                .... done
Calculating the G,G- and P matrices     .... done
Transforming gradient to internals      .... done
Projecting the internal gradient        .... done
Number of atoms                         ....  28
Number of internal coordinates          .... 158
Current Energy                          ....  -686.407382252 Eh
Current gradient norm                   ....     0.004962688 Eh/bohr
Maximum allowed component of the step   ....  0.300
Current trust radius                    ....  0.300
Updating the Hessian (BFGS)             .... done
Forming the augmented Hessian           .... done
Diagonalizing the augmented Hessian     .... done
Last element of RFO vector              ....  0.970304016
Lowest eigenvalues of augmented Hessian:
 -0.000219504  0.000727122  0.000887009  0.003112957  0.004253767
Length of the computed step             ....  0.249291605
The final length of the internal step   ....  0.249291605
Converting the step to cartesian space:
 Initial RMS(Int)=    0.0198325752
Transforming coordinates:
 Iter   0:  RMS(Cart)=    0.0527154278 RMS(Int)=    0.7066043289
 Iter   1:  RMS(Cart)=    0.0015004579 RMS(Int)=    0.0005461498
 Iter   2:  RMS(Cart)=    0.0005391559 RMS(Int)=    0.0001190282
 Iter   3:  RMS(Cart)=    0.0002387005 RMS(Int)=    0.0000534436
 Iter   4:  RMS(Cart)=    0.0001086785 RMS(Int)=    0.0000243315
 Iter   5:  RMS(Cart)=    0.0000495363 RMS(Int)=    0.0000110890
 Iter   6:  RMS(Cart)=    0.0000225723 RMS(Int)=    0.0000050530
 Iter   7:  RMS(Cart)=    0.0000102858 RMS(Int)=    0.0000023025
 Iter   8:  RMS(Cart)=    0.0000046870 RMS(Int)=    0.0000010492
 Iter   9:  RMS(Cart)=    0.0000021358 RMS(Int)=    0.0000004781
 Iter  10:  RMS(Cart)=    0.0000009732 RMS(Int)=    0.0000002179
 Iter  11:  RMS(Cart)=    0.0000004435 RMS(Int)=    0.0000000993
 Iter  12:  RMS(Cart)=    0.0000002021 RMS(Int)=    0.0000000452
 Iter  13:  RMS(Cart)=    0.0000000921 RMS(Int)=    0.0000000206
done
Storing new coordinates                 .... done

                                .--------------------.
          ----------------------|Geometry convergence|-------------------------
          Item                value                   Tolerance       Converged
          ---------------------------------------------------------------------
          Energy change      -0.0000948234            0.0000050000      NO
          RMS gradient        0.0002759602            0.0001000000      NO
          MAX gradient        0.0010368154            0.0003000000      NO
          RMS step            0.0198325752            0.0020000000      NO
          MAX step            0.0652819671            0.0040000000      NO
          ........................................................
          Max(Bonds)      0.0345      Max(Angles)    3.57
          Max(Dihed)        3.73      Max(Improp)    0.00
          ---------------------------------------------------------------------

The optimization has not yet converged - more geometry cycles are needed


    ---------------------------------------------------------------------------
                         Redundant Internal Coordinates
                            (Angstroem and degrees)

        Definition                    Value    dE/dq     Step     New-Value
    ----------------------------------------------------------------------------
     1. B(H   1,C   0)                1.0846  0.000010  0.0001    1.0847   
     2. B(O   3,N   2)                1.2168 -0.000111  0.0006    1.2173   
     3. B(O   4,N   2)                1.2251  0.001037 -0.0029    1.2221   
     4. B(C   6,N   2)                1.5165  0.000144 -0.0029    1.5136   
     5. B(C   6,C   0)                1.4964 -0.000052  0.0025    1.4988   
     6. B(H   7,C   6)                1.0892  0.000018 -0.0002    1.0890   
     7. B(H   8,C   6)                1.0842 -0.000496  0.0030    1.0872   
     8. B(C   9,H   5)                1.0843  0.000385 -0.0014    1.0828   
     9. B(C   9,C   0)                1.3268  0.000968  0.0005    1.3273   
    10. B(H  10,C   9)                1.0826 -0.000093  0.0004    1.0830   
    11. B(C  12,C  11)                1.3937  0.000194  0.0003    1.3940   
    12. B(C  13,C  12)                1.3945 -0.000338  0.0027    1.3972   
    13. B(C  14,C  13)                1.3880  0.000402 -0.0001    1.3878   
    14. B(C  15,C  14)                1.3880 -0.000403 -0.0005    1.3876   
    15. B(N  16,C  11)                1.3357 -0.000497 -0.0005    1.3351   
    16. B(N  16,C  15)                1.3351  0.000448 -0.0037    1.3315   
    17. B(H  17,C  11)                1.0855  0.000044  0.0001    1.0855   
    18. B(H  18,C  14)                1.0817 -0.000162  0.0002    1.0819   
    19. B(H  19,H   5)                2.6830 -0.000390  0.0345    2.7176   
    20. B(H  19,C  15)                1.0831 -0.000240 -0.0026    1.0805   
    21. B(C  20,C  12)                1.5020  0.000204 -0.0001    1.5019   
    22. B(H  21,C  20)                1.0925 -0.000138  0.0004    1.0929   
    23. B(H  22,C  20)                1.0919 -0.000073  0.0001    1.0920   
    24. B(H  23,C  20)                1.0899 -0.000019  0.0000    1.0899   
    25. B(H  24,C  13)                1.0836 -0.000128  0.0005    1.0840   
    26. B(H  25,H   8)                2.3258  0.000254 -0.0025    2.3233   
    27. B(H  25,O   4)                2.0652 -0.000005 -0.0187    2.0464   
    28. B(O  26,H   8)                2.7660  0.000016  0.0066    2.7726   
    29. B(O  26,H  25)                0.9675  0.000157 -0.0014    0.9660   
    30. B(H  27,N  16)                1.8483  0.000251 -0.0137    1.8346   
    31. B(H  27,O  26)                0.9862 -0.000253  0.0015    0.9877   
    32. A(C   6,C   0,C   9)          122.66 -0.000004    0.05    122.71   
    33. A(H   1,C   0,C   6)          116.01 -0.000279    0.10    116.11   
    34. A(H   1,C   0,C   9)          121.32  0.000284   -0.14    121.18   
    35. A(O   3,N   2,O   4)          123.92 -0.000612    0.09    124.01   
    36. A(O   3,N   2,C   6)          117.60 -0.000140    0.09    117.70   
    37. A(O   4,N   2,C   6)          118.46  0.000752   -0.19    118.27   
    38. A(N   2,O   4,H  25)          119.42 -0.001033    1.01    120.43   
    39. A(C   9,H   5,H  19)           79.92 -0.000261    3.57     83.49   
    40. A(C   0,C   6,H   7)          112.04 -0.000042    0.11    112.14   
    41. A(C   0,C   6,N   2)          109.25 -0.000298    0.05    109.30   
    42. A(H   7,C   6,H   8)          110.93 -0.000280    0.64    111.57   
    43. A(N   2,C   6,H   7)          104.78  0.000232   -0.06    104.72   
    44. A(C   0,C   6,H   8)          113.01  0.000535   -0.75    112.26   
    45. A(N   2,C   6,H   8)          106.32 -0.000184    0.07    106.39   
    46. A(C   6,H   8,O  26)          135.60  0.000029    0.88    136.48   
    47. A(C   6,H   8,H  25)          118.68  0.000031    0.73    119.40   
    48. A(H  25,H   8,O  26)           19.56  0.000053   -0.16     19.40   
    49. A(H   5,C   9,H  10)          116.92 -0.000599    0.35    117.27   
    50. A(C   0,C   9,H  10)          121.34  0.000589   -0.24    121.09   
    51. A(C   0,C   9,H   5)          121.74  0.000010   -0.11    121.63   
    52. A(N  16,C  11,H  17)          116.25 -0.000066    0.08    116.33   
    53. A(C  12,C  11,H  17)          119.83 -0.000152    0.11    119.94   
    54. A(C  12,C  11,N  16)          123.93  0.000219   -0.19    123.74   
    55. A(C  13,C  12,C  20)          121.98  0.000306   -0.18    121.79   
    56. A(C  11,C  12,C  20)          121.19 -0.000331    0.17    121.35   
    57. A(C  11,C  12,C  13)          116.83  0.000025    0.02    116.85   
    58. A(C  14,C  13,H  24)          120.17 -0.000109    0.12    120.29   
    59. A(C  12,C  13,H  24)          120.11  0.000378   -0.17    119.94   
    60. A(C  12,C  13,C  14)          119.72 -0.000269    0.05    119.77   
    61. A(C  13,C  14,H  18)          120.90 -0.000455    0.30    121.20   
    62. A(C  15,C  14,H  18)          120.28  0.000156    0.00    120.28   
    63. A(C  13,C  14,C  15)          118.82  0.000299   -0.30    118.53   
    64. A(N  16,C  15,H  19)          116.49 -0.000164   -0.82    115.67   
    65. A(C  14,C  15,H  19)          121.22  0.000351    0.49    121.70   
    66. A(C  14,C  15,N  16)          122.30 -0.000186    0.33    122.63   
    67. A(C  15,N  16,H  27)          123.88  0.000563   -1.30    122.59   
    68. A(C  11,N  16,H  27)          117.71 -0.000476    1.24    118.95   
    69. A(C  11,N  16,C  15)          118.40 -0.000088    0.09    118.48   
    70. A(H   5,H  19,C  15)          113.45 -0.000293    2.95    116.39   
    71. A(C  12,C  20,H  22)          111.06  0.000288   -0.13    110.94   
    72. A(C  12,C  20,H  21)          110.64 -0.000205   -0.01    110.63   
    73. A(H  22,C  20,H  23)          108.47  0.000039    0.03    108.51   
    74. A(H  21,C  20,H  23)          108.18  0.000098   -0.02    108.16   
    75. A(C  12,C  20,H  23)          111.07 -0.000170    0.09    111.16   
    76. A(H  21,C  20,H  22)          107.28 -0.000046    0.04    107.31   
    77. A(O   4,H  25,H   8)           67.09  0.000442   -0.19     66.90   
    78. A(H   8,H  25,O  26)          106.87 -0.000216    0.72    107.58   
    79. A(O   4,H  25,O  26)          173.06  0.000251    0.53    173.58   
    80. A(H   8,O  26,H  27)          109.71  0.000055   -1.10    108.61   
    81. A(H   8,O  26,H  25)           53.58  0.000163   -0.56     53.02   
    82. A(H  25,O  26,H  27)          105.23  0.000212   -0.33    104.90   
    83. L(N  16,H  27,O  26,H   8, 2) 184.96  0.000751   -1.04    183.92   
    84. L(N  16,H  27,O  26,H   8, 1) 182.35 -0.000490   -0.24    182.11   
    85. D(H  25,O   4,N   2,C   6)      4.29 -0.000162    0.82      5.12   
    86. D(H  25,O   4,N   2,O   3)   -174.02 -0.000140    0.94   -173.08   
    87. D(H   8,C   6,C   0,H   1)    179.38  0.000138    0.89    180.27   
    88. D(N   2,C   6,C   0,C   9)    118.73 -0.000049    0.44    119.18   
    89. D(H   7,C   6,C   0,H   1)     53.18  0.000118    0.54     53.73   
    90. D(N   2,C   6,C   0,H   1)    -62.47  0.000042    0.53    -61.94   
    91. D(H   7,C   6,N   2,O   3)    -43.02 -0.000227   -2.01    -45.03   
    92. D(H   8,C   6,N   2,O   3)   -160.56  0.000065   -2.74   -163.29   
    93. D(C   0,C   6,N   2,O   4)   -101.23 -0.000269   -1.79   -103.02   
    94. D(H   7,C   6,C   0,C   9)   -125.61  0.000027    0.46   -125.16   
    95. D(H   7,C   6,N   2,O   4)    138.56 -0.000197   -1.90    136.65   
    96. D(H   8,C   6,C   0,C   9)      0.59  0.000047    0.80      1.38   
    97. D(H   8,C   6,N   2,O   4)     21.02  0.000095   -2.63     18.39   
    98. D(C   0,C   6,N   2,O   3)     77.19 -0.000299   -1.90     75.29   
    99. D(O  26,H   8,C   6,H   7)   -159.72 -0.000127    3.45   -156.27   
   100. D(H  25,H   8,C   6,C   0)     85.92 -0.000122    2.52     88.45   
   101. D(O  26,H   8,C   6,N   2)    -46.35 -0.000089    3.73    -42.62   
   102. D(O  26,H   8,C   6,C   0)     73.50 -0.000266    3.38     76.88   
   103. D(H  25,H   8,C   6,H   7)   -147.29  0.000017    2.59   -144.70   
   104. D(H  25,H   8,C   6,N   2)    -33.92  0.000055    2.86    -31.06   
   105. D(H  10,C   9,H   5,H  19)     70.24 -0.000156    3.55     73.79   
   106. D(C   0,C   9,H   5,H  19)   -109.88 -0.000055    3.10   -106.77   
   107. D(H  10,C   9,C   0,C   6)    178.71  0.000403   -0.09    178.62   
   108. D(H  10,C   9,C   0,H   1)     -0.02  0.000314   -0.19     -0.21   
   109. D(H   5,C   9,C   0,C   6)     -1.17  0.000298    0.38     -0.80   
   110. D(H   5,C   9,C   0,H   1)   -179.90  0.000209    0.28   -179.62   
   111. D(C  20,C  12,C  11,H  17)     -0.77 -0.000064    0.22     -0.55   
   112. D(C  20,C  12,C  11,N  16)    179.30 -0.000104    0.62    179.93   
   113. D(C  13,C  12,C  11,H  17)    179.64 -0.000014   -0.08    179.56   
   114. D(C  13,C  12,C  11,N  16)     -0.29 -0.000053    0.32      0.03   
   115. D(C  14,C  13,C  12,C  11)      0.40  0.000049    0.01      0.41   
   116. D(H  24,C  13,C  12,C  20)      0.78  0.000086   -0.41      0.37   
   117. D(H  24,C  13,C  12,C  11)   -179.63  0.000032   -0.11   -179.74   
   118. D(C  14,C  13,C  12,C  20)   -179.19  0.000102   -0.29   -179.48   
   119. D(H  18,C  14,C  13,H  24)     -0.16 -0.000038    0.11     -0.05   
   120. D(C  15,C  14,C  13,H  24)    179.90  0.000008   -0.11    179.79   
   121. D(H  18,C  14,C  13,C  12)    179.81 -0.000054   -0.01    179.80   
   122. D(C  15,C  14,C  13,C  12)     -0.14 -0.000009   -0.23     -0.37   
   123. D(H  19,C  15,C  14,H  18)     -0.42 -0.000088   -0.21     -0.64   
   124. D(H  19,C  15,C  14,C  13)    179.52 -0.000134    0.01    179.53   
   125. D(N  16,C  15,C  14,H  18)    179.77  0.000012   -0.08    179.69   
   126. D(N  16,C  15,C  14,C  13)     -0.28 -0.000034    0.14     -0.14   
   127. D(H  27,N  16,C  15,H  19)     -0.29  0.000041    0.64      0.34   
   128. D(H  27,N  16,C  15,C  14)    179.52 -0.000053    0.51    180.03   
   129. D(C  11,N  16,C  15,H  19)   -179.41  0.000126    0.30   -179.11   
   130. D(C  11,N  16,C  15,C  14)      0.40  0.000032    0.18      0.58   
   131. D(H  27,N  16,C  11,H  17)      0.79  0.000045   -0.30      0.49   
   132. D(H  27,N  16,C  11,C  12)   -179.28  0.000083   -0.69   -179.97   
   133. D(C  15,N  16,C  11,H  17)    179.96 -0.000026   -0.03    179.93   
   134. D(C  15,N  16,C  11,C  12)     -0.11  0.000012   -0.42     -0.53   
   135. D(H   5,H  19,C  15,N  16)    -50.78 -0.000276    1.31    -49.46   
   136. D(H   5,H  19,C  15,C  14)    129.41 -0.000182    1.44    130.85   
   137. D(C  15,H  19,H   5,C   9)   -160.13 -0.000230   -1.47   -161.60   
   138. D(H  23,C  20,C  12,C  11)      4.54 -0.000046   -0.54      4.00   
   139. D(H  22,C  20,C  12,C  13)    -55.07  0.000029   -0.21    -55.28   
   140. D(H  22,C  20,C  12,C  11)    125.36  0.000083   -0.53    124.83   
   141. D(H  21,C  20,C  12,C  13)     63.95  0.000024   -0.25     63.70   
   142. D(H  23,C  20,C  12,C  13)   -175.89 -0.000100   -0.23   -176.12   
   143. D(H  21,C  20,C  12,C  11)   -115.62  0.000078   -0.57   -116.19   
   144. D(O   4,H  25,H   8,C   6)     30.37  0.000115   -2.13     28.25   
   145. D(O  26,H  25,H   8,C   6)   -153.26  0.000240   -1.99   -155.25   
   146. D(H   8,H  25,O   4,N   2)    -14.23  0.000220    0.33    -13.90   
   147. D(O  26,H  25,O   4,N   2)    -44.35  0.000120    0.58    -43.77   
   148. D(O   4,H  25,H   8,O  26)   -176.37 -0.000124   -0.13   -176.50   
   149. D(H   8,O  26,H  25,O   4)     28.88  0.000163   -0.23     28.65   
   150. D(H  27,O  26,H  25,H   8)    103.50 -0.000061   -1.13    102.38   
   151. D(H  27,O  26,H  25,O   4)    132.38  0.000102   -1.35    131.03   
   152. D(H   8,O  26,N  16,C  15)     24.50  0.000037   -1.04     23.46   
   153. D(H   8,O  26,N  16,C  11)   -158.27 -0.000086   -0.09   -158.36   
   154. D(H  25,O  26,N  16,C  15)    -31.48 -0.000085   -0.40    -31.89   
   155. D(H  25,O  26,N  16,C  11)    145.76 -0.000208    0.54    146.29   
   156. D(H  27,O  26,H   8,H  25)    -94.73 -0.000280   -0.08    -94.81   
   157. D(H  27,O  26,H   8,C   6)    -60.39  0.000053   -2.51    -62.89   
   158. D(H  25,O  26,H   8,C   6)     34.34  0.000333   -2.42     31.92   
    ----------------------------------------------------------------------------




    ----------------------------------------------------------------------------
                                  WARNING !!!
       The optimization did not converge but reached the maximum number of
       optimization cycles.
       Please check your results very carefully.
    ----------------------------------------------------------------------------



                            ***************************************
                            *     ORCA property calculations      *
                            ***************************************

                                    ---------------------
                                    Active property flags
                                    ---------------------
   (+) Dipole Moment


------------------------------------------------------------------------------
                       ORCA ELECTRIC PROPERTIES CALCULATION
------------------------------------------------------------------------------

Dipole Moment Calculation                       ... on
Quadrupole Moment Calculation                   ... off
Polarizability Calculation                      ... off
GBWName                                         ... /home/rudenko/mop_saddle_orca_4_serv/for_orca/CH2CHCH2NO2_picoline_from_lutidine/orca/orca_start/start.gbw
Electron density                                ... /home/rudenko/mop_saddle_orca_4_serv/for_orca/CH2CHCH2NO2_picoline_from_lutidine/orca/orca_start/start.scfp
The origin for moment calculation is the CENTER OF MASS  = ( 7.041294, -3.298488  0.283476)

-------------
DIPOLE MOMENT
-------------
                                X             Y             Z
Electronic contribution:     -9.14517      -0.24465       5.36838
Nuclear contribution   :     12.40244       1.71372      -5.73161
                        -----------------------------------------
Total Dipole Moment    :      3.25727       1.46907      -0.36324
                        -----------------------------------------
Magnitude (a.u.)       :      3.59165
Magnitude (Debye)      :      9.12924



--------------------
Rotational spectrum 
--------------------
 
Rotational constants in cm-1:     0.043420     0.007718     0.007185 
Rotational constants in MHz :  1301.705103   231.378789   215.387554 

 Dipole components along the rotational axes: 
x,y,z [a.u.] :     3.049104     1.879072     0.268288 
x,y,z [Debye]:     7.750207     4.776221     0.681933 

 

Timings for individual modules:

Sum of individual times         ...     4865.653 sec (=  81.094 min)
GTO integral calculation        ...      407.981 sec (=   6.800 min)   8.4 %
SCF iterations                  ...     3572.524 sec (=  59.542 min)  73.4 %
SCF Gradient evaluation         ...      880.639 sec (=  14.677 min)  18.1 %
Geometry relaxation             ...        4.508 sec (=   0.075 min)   0.1 %
                             ****ORCA TERMINATED NORMALLY****
TOTAL RUN TIME: 0 days 1 hours 26 minutes 33 seconds 344 msec
