 *******************************************************************************
 **                                                                           **
 **                              MOPAC v22.0.6                                **
 **                                                                           **
 *******************************************************************************
 **          Digital Object Identifier (DOI): 10.5281/zenodo.6511958          **
 **    Visit the DOI location for information on how to cite this program.    **
 *******************************************************************************

                              PM7 CALCULATION RESULTS

 *******************************************************************************
 *  CALCULATION DONE:                                Tue Mar 26 11:28:06 2024  *
 *  PM7        - The PM7 Hamiltonian to be used
 *  SINGLET    - SPIN STATE DEFINED AS A SINGLET
 *
 *
 *
 *                 CHARGE ON SYSTEM = 0
 *
 *
 *
 *  EPS=78.4   - USE ANDREAS KLAMT'S COSMO IMPLICIT SOLVATION MODEL
 *  T=         - A TIME OF 14.0 DAYS REQUESTED
 *  DUMP=N     - RESTART FILE WRITTEN EVERY 30.0 MINUTES REQUESTED
 *  RELSCF     - DEFAULT SCF CRITERION MULTIPLIED BY 1.0000
 *              (DEFAULT SCF CRITERION = 0.00010)
 *  ITRY=      - DO A MAXIMUM OF 15000 ITERATIONS FOR SCF
 *  AUX        - OUTPUT AUXILIARY INFORMATION
 *  BONDS      - FINAL BOND-ORDER MATRIX TO BE PRINTED
 *******************************************************************************
PM7 BONDS AUX DUMP=30M ITRY=15000 T=14D CHARGE=0 SINGLET eps=78.4 RELSCF=1
 Title: ASE calculation

   ATOM   CHEMICAL          X               Y               Z
  NUMBER   SYMBOL      (ANGSTROMS)     (ANGSTROMS)     (ANGSTROMS)

     1       C          0.09419000  *   3.37958000  *   0.97107000  *
     2       C          0.73178000  *   2.14269000  *   0.96668000  *
     3       C          0.06352000  *   1.00743000  *   1.43057000  *
     4       C         -1.25671000  *   1.10920000  *   1.87156000  *
     5       C         -1.89226000  *   2.35055000  *   1.87780000  *
     6       C         -1.21830000  *   3.48444000  *   1.43214000  *
     7       H          0.62243000  *   4.26358000  *   0.61413000  *
     8       H          1.75913000  *   2.06516000  *   0.59934000  *
     9       H         -1.80066000  *   0.22491000  *   2.20826000  *
    10       H         -1.71489000  *   4.45532000  *   1.44188000  *
    11       C          0.81388000  *  -0.29685000  *   1.46190000  *
    12       C          0.43513000  *  -1.19299000  *   2.63295000  *
    13       H          1.08693000  *  -2.07416000  *   2.71445000  *
    14       H         -0.59881000  *  -1.56172000  *   2.57812000  *
    15       H          0.52891000  *  -0.63935000  *   3.58031000  *
    16       N          0.53180000  *  -1.03803000  *   0.18795000  *
    17       O          1.46910000  *  -1.27624000  *  -0.56200000  *
    18       O         -0.61120000  *  -1.37737000  *  -0.07253000  *
    19       N          5.03019000  *   0.39526000  *   4.22738000  *
    20       C          5.80093000  *  -0.86220000  *   4.36835000  *
    21       C          6.63822000  *  -0.81153000  *   5.66497000  *
    22       N          7.55447000  *   0.35530000  *   5.62337000  *
    23       C          6.78289000  *   1.61483000  *   5.48198000  *
    24       C          5.94142000  *   1.56559000  *   4.19047000  *
    25       H          5.31720000  *   2.48266000  *   4.11102000  *
    26       H          6.61386000  *   1.55392000  *   3.30649000  *
    27       H          7.50363000  *   2.45894000  *   5.43089000  *
    28       H          6.11980000  *   1.80988000  *   6.35150000  *
    29       H          7.25577000  *  -1.73053000  *   5.75426000  *
    30       H          5.95987000  *  -0.78840000  *   6.54483000  *
    31       H          6.46647000  *  -1.05687000  *   3.50072000  *
    32       H          1.93370000  *  -0.09405000  *   1.49471000  *
    33       H          4.47475000  *   0.37448000  *   3.36112000  *
    34       H          5.07672000  *  -1.70445000  *   4.41810000  *
    35       H          8.10818000  *   0.38963000  *   6.48835000  *
    36       H          4.19113000  *   1.65757000  *   1.12074000  *
    37       H          3.31854000  *   2.04052000  *   2.31114000  *
    38       O          3.60547000  *   1.27821000  *   1.79256000  *
    39       H         -2.91784000  *   2.43455000  *   2.23934000  *



          CARTESIAN COORDINATES 

    NO.       ATOM           X           Y           Z

     1         C          0.0942      3.3796      0.9711
     2         C          0.7318      2.1427      0.9667
     3         C          0.0635      1.0074      1.4306
     4         C         -1.2567      1.1092      1.8716
     5         C         -1.8923      2.3506      1.8778
     6         C         -1.2183      3.4844      1.4321
     7         H          0.6224      4.2636      0.6141
     8         H          1.7591      2.0652      0.5993
     9         H         -1.8007      0.2249      2.2083
    10         H         -1.7149      4.4553      1.4419
    11         C          0.8139     -0.2969      1.4619
    12         C          0.4351     -1.1930      2.6330
    13         H          1.0869     -2.0742      2.7145
    14         H         -0.5988     -1.5617      2.5781
    15         H          0.5289     -0.6394      3.5803
    16         N          0.5318     -1.0380      0.1880
    17         O          1.4691     -1.2762     -0.5620
    18         O         -0.6112     -1.3774     -0.0725
    19         N          5.0302      0.3953      4.2274
    20         C          5.8009     -0.8622      4.3684
    21         C          6.6382     -0.8115      5.6650
    22         N          7.5545      0.3553      5.6234
    23         C          6.7829      1.6148      5.4820
    24         C          5.9414      1.5656      4.1905
    25         H          5.3172      2.4827      4.1110
    26         H          6.6139      1.5539      3.3065
    27         H          7.5036      2.4589      5.4309
    28         H          6.1198      1.8099      6.3515
    29         H          7.2558     -1.7305      5.7543
    30         H          5.9599     -0.7884      6.5448
    31         H          6.4665     -1.0569      3.5007
    32         H          1.9337     -0.0940      1.4947
    33         H          4.4748      0.3745      3.3611
    34         H          5.0767     -1.7045      4.4181
    35         H          8.1082      0.3896      6.4884
    36         H          4.1911      1.6576      1.1207
    37         H          3.3185      2.0405      2.3111
    38         O          3.6055      1.2782      1.7926
    39         H         -2.9178      2.4346      2.2393

 General Reference for PM7:
 "Optimization of Parameters for Semiempirical Methods VI: More Modifications to the 
 NDDO Approximations and Re-optimization of Parameters", J. J. P. Stewart, J. Mol. Mod., 1:32, 19 (2013)
 https://link.springer.com/article/10.1007/s00894-012-1667-x

           Empirical Formula: C12 H21 N3 O3  =    39 atoms



      MOLECULAR POINT GROUP   :   C1  


 SINGLET STATE CALCULATION


      RHF CALCULATION, NO. OF DOUBLY OCCUPIED LEVELS = 51


          Geometry optimization using L-BFGS
  SCF CRITERION =    0.1000E-03
 CYCLE:     1 TIME:   0.242 TIME LEFT:  2.00W  GRAD.:     7.752 HEAT: -73.80831
 CYCLE:     2 TIME:   0.113 TIME LEFT:  2.00W  GRAD.:     7.577 HEAT: -73.80886
 CYCLE:     3 TIME:   0.105 TIME LEFT:  2.00W  GRAD.:     3.180 HEAT: -73.82132
 CYCLE:     4 TIME:   0.105 TIME LEFT:  2.00W  GRAD.:     7.588 HEAT: -73.80885
 CYCLE:     5 TIME:   0.098 TIME LEFT:  2.00W  GRAD.:     3.182 HEAT: -73.82132
 CYCLE:     6 TIME:   0.105 TIME LEFT:  2.00W  GRAD.:     3.002 HEAT: -73.82386
 CYCLE:     7 TIME:   0.117 TIME LEFT:  2.00W  GRAD.:     5.532 HEAT: -73.65578
 CYCLE:     8 TIME:   0.098 TIME LEFT:  2.00W  GRAD.:     5.153 HEAT: -73.67717
 CYCLE:     9 TIME:   0.113 TIME LEFT:  2.00W  GRAD.:     2.382 HEAT: -73.68274
 CYCLE:    10 TIME:   0.105 TIME LEFT:  2.00W  GRAD.:     1.963 HEAT: -73.69056
 CYCLE:    11 TIME:   0.105 TIME LEFT:  2.00W  GRAD.:     3.201 HEAT: -73.69084
 CYCLE:    12 TIME:   0.094 TIME LEFT:  2.00W  GRAD.:     3.243 HEAT: -73.57243
 CYCLE:    13 TIME:   0.117 TIME LEFT:  2.00W  GRAD.:     4.833 HEAT: -73.65697
 CYCLE:    14 TIME:   0.105 TIME LEFT:  2.00W  GRAD.:     3.203 HEAT: -73.67311
 CYCLE:    15 TIME:   0.105 TIME LEFT:  2.00W  GRAD.:     3.000 HEAT: -73.69451
 CYCLE:    16 TIME:   0.105 TIME LEFT:  2.00W  GRAD.:     5.023 HEAT: -73.36367
 CYCLE:    17 TIME:   0.113 TIME LEFT:  2.00W  GRAD.:     5.304 HEAT: -73.31562
 CYCLE:    18 TIME:   0.109 TIME LEFT:  2.00W  GRAD.:     5.797 HEAT: -73.32071
 CYCLE:    19 TIME:   0.137 TIME LEFT:  2.00W  GRAD.:     4.935 HEAT: -73.37016
 CYCLE:    20 TIME:   0.109 TIME LEFT:  2.00W  GRAD.:     4.485 HEAT: -73.28835
 CYCLE:    21 TIME:   0.113 TIME LEFT:  2.00W  GRAD.:     5.814 HEAT: -73.34642
 CYCLE:    22 TIME:   0.109 TIME LEFT:  2.00W  GRAD.:     7.378 HEAT: -73.31970
 CYCLE:    23 TIME:   0.086 TIME LEFT:  2.00W  GRAD.:     5.163 HEAT: -73.39440
 CYCLE:    24 TIME:   0.051 TIME LEFT:  2.00W  GRAD.:     3.767 HEAT: -73.40233
 CYCLE:    25 TIME:   0.059 TIME LEFT:  2.00W  GRAD.:     4.133 HEAT: -73.27381
 CYCLE:    26 TIME:   0.055 TIME LEFT:  2.00W  GRAD.:     5.088 HEAT: -73.27554
 CYCLE:    27 TIME:   0.055 TIME LEFT:  2.00W  GRAD.:     3.890 HEAT: -73.27490
 CYCLE:    28 TIME:   0.055 TIME LEFT:  2.00W  GRAD.:     3.699 HEAT: -73.32261
 CYCLE:    29 TIME:   0.059 TIME LEFT:  2.00W  GRAD.:     3.861 HEAT: -73.27995
 CYCLE:    30 TIME:   0.055 TIME LEFT:  2.00W  GRAD.:     5.142 HEAT: -73.23434
 CYCLE:    31 TIME:   0.059 TIME LEFT:  2.00W  GRAD.:     6.218 HEAT: -73.19646
 CYCLE:    32 TIME:   0.059 TIME LEFT:  2.00W  GRAD.:     6.030 HEAT: -73.24959
 CYCLE:    33 TIME:   0.059 TIME LEFT:  2.00W  GRAD.:     6.519 HEAT: -73.21787
 CYCLE:    34 TIME:   0.059 TIME LEFT:  2.00W  GRAD.:     7.482 HEAT: -73.29726
 CYCLE:    35 TIME:   0.051 TIME LEFT:  2.00W  GRAD.:     4.963 HEAT: -73.39952
 CYCLE:    36 TIME:   0.059 TIME LEFT:  2.00W  GRAD.:     5.449 HEAT: -73.43158


           HEAT OF FORMATION IS ESSENTIALLY STATIONARY


          CURRENT BEST VALUE OF HEAT OF FORMATION =    -73.823837

 PM7 BONDS AUX DUMP=30M ITRY=15000 T=14D CHARGE=0 SINGLET eps=78.4 RELSCF=1
 Title: ASE calculation

  C     0.09332525 +1   3.37944469 +1   0.97072853 +1
  C     0.73200714 +1   2.14322260 +1   0.96667929 +1
  C     0.06314942 +1   1.00768673 +1   1.43073030 +1
  C    -1.25668627 +1   1.10992650 +1   1.87068576 +1
  C    -1.89203435 +1   2.34977066 +1   1.87810267 +1
  C    -1.21750470 +1   3.48492249 +1   1.43180314 +1
  H     0.62212097 +1   4.26417145 +1   0.61409035 +1
  H     1.75919601 +1   2.06547177 +1   0.59909268 +1
  H    -1.79999749 +1   0.22479969 +1   2.20867905 +1
  H    -1.71514651 +1   4.45546191 +1   1.44185750 +1
  C     0.81363199 +1  -0.29712706 +1   1.46242607 +1
  C     0.43527326 +1  -1.19321971 +1   2.63396020 +1
  H     1.08802039 +1  -2.07430236 +1   2.71418572 +1
  H    -0.59933327 +1  -1.56156458 +1   2.57814684 +1
  H     0.52904888 +1  -0.63959786 +1   3.58164844 +1
  N     0.53180882 +1  -1.03732081 +1   0.18582991 +1
  O     1.46790724 +1  -1.27589527 +1  -0.56077597 +1
  O    -0.61020875 +1  -1.37766201 +1  -0.07234552 +1
  N     5.03035228 +1   0.39523710 +1   4.22696912 +1
  C     5.80121612 +1  -0.86252749 +1   4.36820408 +1
  C     6.63794680 +1  -0.81157057 +1   5.66526575 +1
  N     7.55444452 +1   0.35550557 +1   5.62423977 +1
  C     6.78264930 +1   1.61516166 +1   5.48220352 +1
  C     5.94136897 +1   1.56569079 +1   4.19026200 +1
  H     5.31727788 +1   2.48288588 +1   4.11087756 +1
  H     6.61392527 +1   1.55332707 +1   3.30603406 +1
  H     7.50408746 +1   2.45924601 +1   5.43087819 +1
  H     6.11971995 +1   1.80912661 +1   6.35224820 +1
  H     7.25581567 +1  -1.73122140 +1   5.75416141 +1
  H     5.96005035 +1  -0.78793875 +1   6.54509209 +1
  H     6.46660020 +1  -1.05625334 +1   3.50029722 +1
  H     1.93333732 +1  -0.09462883 +1   1.49419292 +1
  H     4.47448418 +1   0.37480500 +1   3.36088924 +1
  H     5.07688405 +1  -1.70475634 +1   4.41818596 +1
  H     8.10799873 +1   0.38928343 +1   6.48926318 +1
  H     4.19048998 +1   1.65726523 +1   1.12110058 +1
  H     3.31847778 +1   2.04037991 +1   2.31039329 +1
  O     3.60569400 +1   1.27821890 +1   1.79185169 +1
  H    -2.91805893 +1   2.43403462 +1   2.23873513 +1



 -------------------------------------------------------------------------------
 PM7 BONDS AUX DUMP=30M ITRY=15000 T=14D CHARGE=0 SINGLET eps=78.4 RELSCF=1
 Title: ASE calculation



     HERBERTS TEST WAS SATISFIED IN BFGS                      
     SCF FIELD WAS ACHIEVED                                   


                              PM7 CALCULATION
                                                       MOPAC v22.0.6 Linux
                                                       Tue Mar 26 11:28:09 2024




          FINAL HEAT OF FORMATION =        -73.82384 KCAL/MOL =    -308.87893 KJ/MOL
          VAN DER WAALS AREA      =        311.48 SQUARE ANGSTROMS



          DIELECTRIC ENERGY       =         -1.09295 EV
          COSMO AREA              =        311.48 SQUARE ANGSTROMS
          COSMO VOLUME            =        337.20 CUBIC ANGSTROMS

          GRADIENT NORM           =          3.00179          =       0.48067 PER ATOM
          IONIZATION POTENTIAL    =          9.225797 EV
          HOMO LUMO ENERGIES (EV) =         -9.226 -0.545
          NO. OF FILLED LEVELS    =         51
          MOLECULAR WEIGHT        =        255.3162         POINT GROUP:  C1  

          MOLECULAR DIMENSIONS (Angstroms)

            Atom       Atom       Distance
            H    39    H    35    11.99258
            H    28    O    17     6.36342
            H    14    H     7     5.86578


          SCF CALCULATIONS        =         39

          WALL-CLOCK TIME         =      3.469 SECONDS
          COMPUTATION TIME        =          5 MINUTES AND 1.933 SECONDS



       FINAL  POINT  AND  DERIVATIVES

   PARAMETER     ATOM    TYPE            VALUE        GRADIENT
      1          1  C    CARTESIAN X     0.093325     -0.149109  KCAL/ANGSTROM
      2          1  C    CARTESIAN Y     3.379445     -0.286425  KCAL/ANGSTROM
      3          1  C    CARTESIAN Z     0.970729      0.405194  KCAL/ANGSTROM
      4          2  C    CARTESIAN X     0.732007      0.001255  KCAL/ANGSTROM
      5          2  C    CARTESIAN Y     2.143223      0.135114  KCAL/ANGSTROM
      6          2  C    CARTESIAN Z     0.966679     -0.031085  KCAL/ANGSTROM
      7          3  C    CARTESIAN X     0.063149     -0.513881  KCAL/ANGSTROM
      8          3  C    CARTESIAN Y     1.007687     -0.230669  KCAL/ANGSTROM
      9          3  C    CARTESIAN Z     1.430730      0.157791  KCAL/ANGSTROM
     10          4  C    CARTESIAN X    -1.256686      0.152569  KCAL/ANGSTROM
     11          4  C    CARTESIAN Y     1.109927      0.246325  KCAL/ANGSTROM
     12          4  C    CARTESIAN Z     1.870686      0.159007  KCAL/ANGSTROM
     13          5  C    CARTESIAN X    -1.892034     -0.023053  KCAL/ANGSTROM
     14          5  C    CARTESIAN Y     2.349771     -0.516125  KCAL/ANGSTROM
     15          5  C    CARTESIAN Z     1.878103      0.128629  KCAL/ANGSTROM
     16          6  C    CARTESIAN X    -1.217505      0.483711  KCAL/ANGSTROM
     17          6  C    CARTESIAN Y     3.484922      0.092690  KCAL/ANGSTROM
     18          6  C    CARTESIAN Z     1.431803     -0.159995  KCAL/ANGSTROM
     19          7  H    CARTESIAN X     0.622121      0.274490  KCAL/ANGSTROM
     20          7  H    CARTESIAN Y     4.264171     -0.260531  KCAL/ANGSTROM
     21          7  H    CARTESIAN Z     0.614090      0.027141  KCAL/ANGSTROM
     22          8  H    CARTESIAN X     1.759196     -0.018895  KCAL/ANGSTROM
     23          8  H    CARTESIAN Y     2.065472     -0.235504  KCAL/ANGSTROM
     24          8  H    CARTESIAN Z     0.599093      0.130721  KCAL/ANGSTROM
     25          9  H    CARTESIAN X    -1.799997     -0.491292  KCAL/ANGSTROM
     26          9  H    CARTESIAN Y     0.224800     -0.043049  KCAL/ANGSTROM
     27          9  H    CARTESIAN Z     2.208679     -0.186131  KCAL/ANGSTROM
     28         10  H    CARTESIAN X    -1.715147      0.128620  KCAL/ANGSTROM
     29         10  H    CARTESIAN Y     4.455462     -0.028616  KCAL/ANGSTROM
     30         10  H    CARTESIAN Z     1.441858      0.003117  KCAL/ANGSTROM
     31         11  C    CARTESIAN X     0.813632      0.260450  KCAL/ANGSTROM
     32         11  C    CARTESIAN Y    -0.297127     -0.078493  KCAL/ANGSTROM
     33         11  C    CARTESIAN Z     1.462426     -0.125990  KCAL/ANGSTROM
     34         12  C    CARTESIAN X     0.435273     -0.029057  KCAL/ANGSTROM
     35         12  C    CARTESIAN Y    -1.193220      0.146202  KCAL/ANGSTROM
     36         12  C    CARTESIAN Z     2.633960     -0.364310  KCAL/ANGSTROM
     37         13  H    CARTESIAN X     1.088020     -0.586852  KCAL/ANGSTROM
     38         13  H    CARTESIAN Y    -2.074302     -0.014491  KCAL/ANGSTROM
     39         13  H    CARTESIAN Z     2.714186      0.122433  KCAL/ANGSTROM
     40         14  H    CARTESIAN X    -0.599333      0.127435  KCAL/ANGSTROM
     41         14  H    CARTESIAN Y    -1.561565     -0.116755  KCAL/ANGSTROM
     42         14  H    CARTESIAN Z     2.578147     -0.110123  KCAL/ANGSTROM
     43         15  H    CARTESIAN X     0.529049     -0.091532  KCAL/ANGSTROM
     44         15  H    CARTESIAN Y    -0.639598      0.259459  KCAL/ANGSTROM
     45         15  H    CARTESIAN Z     3.581648     -0.759378  KCAL/ANGSTROM
     46         16  N    CARTESIAN X     0.531809      0.494850  KCAL/ANGSTROM
     47         16  N    CARTESIAN Y    -1.037321     -0.866806  KCAL/ANGSTROM
     48         16  N    CARTESIAN Z     0.185830     -0.797759  KCAL/ANGSTROM
     49         17  O    CARTESIAN X     1.467907     -0.801027  KCAL/ANGSTROM
     50         17  O    CARTESIAN Y    -1.275895      0.049852  KCAL/ANGSTROM
     51         17  O    CARTESIAN Z    -0.560776      0.608158  KCAL/ANGSTROM
     52         18  O    CARTESIAN X    -0.610209      0.445873  KCAL/ANGSTROM
     53         18  O    CARTESIAN Y    -1.377662      0.396295  KCAL/ANGSTROM
     54         18  O    CARTESIAN Z    -0.072346      0.247308  KCAL/ANGSTROM
     55         19  N    CARTESIAN X     5.030352     -0.072132  KCAL/ANGSTROM
     56         19  N    CARTESIAN Y     0.395237      0.069229  KCAL/ANGSTROM
     57         19  N    CARTESIAN Z     4.226969      0.183033  KCAL/ANGSTROM
     58         20  C    CARTESIAN X     5.801216     -0.095358  KCAL/ANGSTROM
     59         20  C    CARTESIAN Y    -0.862527     -0.003105  KCAL/ANGSTROM
     60         20  C    CARTESIAN Z     4.368204      0.077477  KCAL/ANGSTROM
     61         21  C    CARTESIAN X     6.637947     -0.059228  KCAL/ANGSTROM
     62         21  C    CARTESIAN Y    -0.811571      0.074293  KCAL/ANGSTROM
     63         21  C    CARTESIAN Z     5.665266     -0.074260  KCAL/ANGSTROM
     64         22  N    CARTESIAN X     7.554445      0.112800  KCAL/ANGSTROM
     65         22  N    CARTESIAN Y     0.355506     -0.029104  KCAL/ANGSTROM
     66         22  N    CARTESIAN Z     5.624240     -0.418787  KCAL/ANGSTROM
     67         23  C    CARTESIAN X     6.782649      0.028048  KCAL/ANGSTROM
     68         23  C    CARTESIAN Y     1.615162     -0.108921  KCAL/ANGSTROM
     69         23  C    CARTESIAN Z     5.482204     -0.175974  KCAL/ANGSTROM
     70         24  C    CARTESIAN X     5.941369     -0.118103  KCAL/ANGSTROM
     71         24  C    CARTESIAN Y     1.565691     -0.013710  KCAL/ANGSTROM
     72         24  C    CARTESIAN Z     4.190262      0.066208  KCAL/ANGSTROM
     73         25  H    CARTESIAN X     5.317278     -0.068684  KCAL/ANGSTROM
     74         25  H    CARTESIAN Y     2.482886     -0.117159  KCAL/ANGSTROM
     75         25  H    CARTESIAN Z     4.110878      0.120699  KCAL/ANGSTROM
     76         26  H    CARTESIAN X     6.613925     -0.011003  KCAL/ANGSTROM
     77         26  H    CARTESIAN Y     1.553327      0.349995  KCAL/ANGSTROM
     78         26  H    CARTESIAN Z     3.306034      0.198954  KCAL/ANGSTROM
     79         27  H    CARTESIAN X     7.504087     -0.146064  KCAL/ANGSTROM
     80         27  H    CARTESIAN Y     2.459246     -0.094434  KCAL/ANGSTROM
     81         27  H    CARTESIAN Z     5.430878     -0.021286  KCAL/ANGSTROM
     82         28  H    CARTESIAN X     6.119720      0.047762  KCAL/ANGSTROM
     83         28  H    CARTESIAN Y     1.809127      0.425404  KCAL/ANGSTROM
     84         28  H    CARTESIAN Z     6.352248     -0.395399  KCAL/ANGSTROM
     85         29  H    CARTESIAN X     7.255816      0.093805  KCAL/ANGSTROM
     86         29  H    CARTESIAN Y    -1.731221      0.245742  KCAL/ANGSTROM
     87         29  H    CARTESIAN Z     5.754161      0.048967  KCAL/ANGSTROM
     88         30  H    CARTESIAN X     5.960050     -0.048348  KCAL/ANGSTROM
     89         30  H    CARTESIAN Y    -0.787939     -0.258070  KCAL/ANGSTROM
     90         30  H    CARTESIAN Z     6.545092     -0.199317  KCAL/ANGSTROM
     91         31  H    CARTESIAN X     6.466600     -0.113460  KCAL/ANGSTROM
     92         31  H    CARTESIAN Y    -1.056253     -0.364773  KCAL/ANGSTROM
     93         31  H    CARTESIAN Z     3.500297      0.235354  KCAL/ANGSTROM
     94         32  H    CARTESIAN X     1.933337      0.241498  KCAL/ANGSTROM
     95         32  H    CARTESIAN Y    -0.094629      0.371521  KCAL/ANGSTROM
     96         32  H    CARTESIAN Z     1.494193      0.275876  KCAL/ANGSTROM
     97         33  H    CARTESIAN X     4.474484      0.116510  KCAL/ANGSTROM
     98         33  H    CARTESIAN Y     0.374805     -0.164588  KCAL/ANGSTROM
     99         33  H    CARTESIAN Z     3.360889      0.136214  KCAL/ANGSTROM
    100         34  H    CARTESIAN X     5.076884     -0.155846  KCAL/ANGSTROM
    101         34  H    CARTESIAN Y    -1.704756      0.172585  KCAL/ANGSTROM
    102         34  H    CARTESIAN Z     4.418186     -0.023286  KCAL/ANGSTROM
    103         35  H    CARTESIAN X     8.107999      0.170273  KCAL/ANGSTROM
    104         35  H    CARTESIAN Y     0.389283      0.174798  KCAL/ANGSTROM
    105         35  H    CARTESIAN Z     6.489263     -0.650271  KCAL/ANGSTROM
    106         36  H    CARTESIAN X     4.190490      0.070555  KCAL/ANGSTROM
    107         36  H    CARTESIAN Y     1.657265     -0.042723  KCAL/ANGSTROM
    108         36  H    CARTESIAN Z     1.121101      0.169554  KCAL/ANGSTROM
    109         37  H    CARTESIAN X     3.318478      0.071794  KCAL/ANGSTROM
    110         37  H    CARTESIAN Y     2.040380     -0.013668  KCAL/ANGSTROM
    111         37  H    CARTESIAN Z     2.310393      0.467041  KCAL/ANGSTROM
    112         38  O    CARTESIAN X     3.605694      0.190517  KCAL/ANGSTROM
    113         38  O    CARTESIAN Y     1.278219      0.360626  KCAL/ANGSTROM
    114         38  O    CARTESIAN Z     1.791852      0.129548  KCAL/ANGSTROM
    115         39  H    CARTESIAN X    -2.918059      0.080182  KCAL/ANGSTROM
    116         39  H    CARTESIAN Y     2.434035      0.317683  KCAL/ANGSTROM
    117         39  H    CARTESIAN Z     2.238735      0.394971  KCAL/ANGSTROM




   ATOM   CHEMICAL          X               Y               Z
  NUMBER   SYMBOL      (ANGSTROMS)     (ANGSTROMS)     (ANGSTROMS)

     1       C          0.09332525  *   3.37944469  *   0.97072853  *
     2       C          0.73200714  *   2.14322260  *   0.96667929  *
     3       C          0.06314942  *   1.00768673  *   1.43073030  *
     4       C         -1.25668627  *   1.10992650  *   1.87068576  *
     5       C         -1.89203435  *   2.34977066  *   1.87810267  *
     6       C         -1.21750470  *   3.48492249  *   1.43180314  *
     7       H          0.62212097  *   4.26417145  *   0.61409035  *
     8       H          1.75919601  *   2.06547177  *   0.59909268  *
     9       H         -1.79999749  *   0.22479969  *   2.20867905  *
    10       H         -1.71514651  *   4.45546191  *   1.44185750  *
    11       C          0.81363199  *  -0.29712706  *   1.46242607  *
    12       C          0.43527326  *  -1.19321971  *   2.63396020  *
    13       H          1.08802039  *  -2.07430236  *   2.71418572  *
    14       H         -0.59933327  *  -1.56156458  *   2.57814684  *
    15       H          0.52904888  *  -0.63959786  *   3.58164844  *
    16       N          0.53180882  *  -1.03732081  *   0.18582991  *
    17       O          1.46790724  *  -1.27589527  *  -0.56077597  *
    18       O         -0.61020875  *  -1.37766201  *  -0.07234552  *
    19       N          5.03035228  *   0.39523710  *   4.22696912  *
    20       C          5.80121612  *  -0.86252749  *   4.36820408  *
    21       C          6.63794680  *  -0.81157057  *   5.66526575  *
    22       N          7.55444452  *   0.35550557  *   5.62423977  *
    23       C          6.78264930  *   1.61516166  *   5.48220352  *
    24       C          5.94136897  *   1.56569079  *   4.19026200  *
    25       H          5.31727788  *   2.48288588  *   4.11087756  *
    26       H          6.61392527  *   1.55332707  *   3.30603406  *
    27       H          7.50408746  *   2.45924601  *   5.43087819  *
    28       H          6.11971995  *   1.80912661  *   6.35224820  *
    29       H          7.25581567  *  -1.73122140  *   5.75416141  *
    30       H          5.96005035  *  -0.78793875  *   6.54509209  *
    31       H          6.46660020  *  -1.05625334  *   3.50029722  *
    32       H          1.93333732  *  -0.09462883  *   1.49419292  *
    33       H          4.47448418  *   0.37480500  *   3.36088924  *
    34       H          5.07688405  *  -1.70475634  *   4.41818596  *
    35       H          8.10799873  *   0.38928343  *   6.48926318  *
    36       H          4.19048998  *   1.65726523  *   1.12110058  *
    37       H          3.31847778  *   2.04037991  *   2.31039329  *
    38       O          3.60569400  *   1.27821890  *   1.79185169  *
    39       H         -2.91805893  *   2.43403462  *   2.23873513  *

                             CARTESIAN COORDINATES

   1    C        0.093325250     3.379444687     0.970728532
   2    C        0.732007139     2.143222604     0.966679293
   3    C        0.063149420     1.007686731     1.430730297
   4    C       -1.256686268     1.109926502     1.870685755
   5    C       -1.892034350     2.349770656     1.878102673
   6    C       -1.217504701     3.484922491     1.431803139
   7    H        0.622120971     4.264171448     0.614090346
   8    H        1.759196009     2.065471768     0.599092685
   9    H       -1.799997488     0.224799686     2.208679055
  10    H       -1.715146509     4.455461908     1.441857500
  11    C        0.813631986    -0.297127056     1.462426074
  12    C        0.435273262    -1.193219714     2.633960205
  13    H        1.088020391    -2.074302359     2.714185720
  14    H       -0.599333272    -1.561564580     2.578146842
  15    H        0.529048884    -0.639597860     3.581648442
  16    N        0.531808816    -1.037320810     0.185829909
  17    O        1.467907236    -1.275895272    -0.560775971
  18    O       -0.610208749    -1.377662012    -0.072345520
  19    N        5.030352276     0.395237102     4.226969120
  20    C        5.801216124    -0.862527494     4.368204076
  21    C        6.637946803    -0.811570566     5.665265752
  22    N        7.554444520     0.355505569     5.624239769
  23    C        6.782649304     1.615161662     5.482203518
  24    C        5.941368966     1.565690785     4.190262001
  25    H        5.317277880     2.482885881     4.110877558
  26    H        6.613925267     1.553327069     3.306034062
  27    H        7.504087457     2.459246007     5.430878195
  28    H        6.119719953     1.809126611     6.352248203
  29    H        7.255815665    -1.731221398     5.754161406
  30    H        5.960050350    -0.787938751     6.545092093
  31    H        6.466600196    -1.056253340     3.500297224
  32    H        1.933337319    -0.094628832     1.494192916
  33    H        4.474484183     0.374804997     3.360889237
  34    H        5.076884049    -1.704756340     4.418185957
  35    H        8.107998728     0.389283427     6.489263183
  36    H        4.190489979     1.657265230     1.121100576
  37    H        3.318477779     2.040379914     2.310393295
  38    O        3.605693998     1.278218899     1.791851692
  39    H       -2.918058929     2.434034616     2.238735131


           Empirical Formula: C12 H21 N3 O3  =    39 atoms



      MOLECULAR POINT GROUP   :   C1  


                  EIGENVALUES  
 -37.35330 -35.98423 -34.27801 -31.05981 -30.79772 -29.13680 -28.98141 -26.35420
 -26.22019 -25.67273 -24.93091 -24.51566 -22.28233 -21.67461 -21.25071 -20.31482
 -19.49748 -18.52510 -18.50295 -18.10430 -17.57033 -17.43038 -17.09616 -15.99769
 -15.87792 -15.74487 -15.32719 -14.97151 -14.94882 -14.90864 -14.49712 -14.26115
 -14.24746 -14.00908 -13.84783 -13.52745 -13.12128 -12.87764 -12.42544 -12.25840
 -12.19953 -11.96518 -11.93086 -11.82053 -11.79262 -11.52093 -11.49514 -10.14027
 -10.08999  -9.66178  -9.22580  -0.54500  -0.32151  -0.05832   0.63826   2.22397
   2.90587   3.05425   3.22671   3.26170   3.80622   4.00265   4.04227   4.12237
   4.28678   4.39241   4.44881   4.55572   4.71423   4.88026   4.98015   4.99444
   5.14071   5.38178   5.42676   5.46105   5.47629   5.54342   5.62144   5.70301
   5.96040   5.97273   6.01809   6.02911   6.06047   6.07285   6.14346   6.16034
   6.20670   6.57960   6.63193   6.74504   6.89540


              NET ATOMIC CHARGES AND DIPOLE CONTRIBUTIONS

  ATOM NO.   TYPE          CHARGE      No. of ELECS.   s-Pop       p-Pop       
    1          C          -0.164707        4.1647     1.08646     3.07825
    2          C          -0.139794        4.1398     1.09211     3.04768
    3          C          -0.075191        4.0752     1.06657     3.00862
    4          C          -0.129529        4.1295     1.08912     3.04041
    5          C          -0.168930        4.1689     1.08660     3.08233
    6          C          -0.134906        4.1349     1.09020     3.04471
    7          H           0.166762        0.8332     0.83324
    8          H           0.177895        0.8221     0.82211
    9          H           0.172192        0.8278     0.82781
   10          H           0.163777        0.8362     0.83622
   11          C          -0.045337        4.0453     1.09786     2.94747
   12          C          -0.468699        4.4687     1.05787     3.41083
   13          H           0.177804        0.8222     0.82220
   14          H           0.176963        0.8230     0.82304
   15          H           0.185421        0.8146     0.81458
   16          N           0.623687        4.3763     1.48133     2.89498
   17          O          -0.457184        6.4572     1.93957     4.51762
   18          O          -0.448320        6.4483     1.93892     4.50940
   19          N          -0.587125        5.5871     1.67812     3.90900
   20          C          -0.123749        4.1237     1.07015     3.05360
   21          C          -0.125900        4.1259     1.07088     3.05502
   22          N          -0.579285        5.5793     1.67796     3.90132
   23          C          -0.127894        4.1279     1.07051     3.05738
   24          C          -0.123058        4.1231     1.06997     3.05308
   25          H           0.145102        0.8549     0.85490
   26          H           0.129225        0.8708     0.87077
   27          H           0.145071        0.8549     0.85493
   28          H           0.130580        0.8694     0.86942
   29          H           0.145809        0.8542     0.85419
   30          H           0.129947        0.8701     0.87005
   31          H           0.129300        0.8707     0.87070
   32          H           0.219381        0.7806     0.78062
   33          H           0.286851        0.7131     0.71315
   34          H           0.145265        0.8547     0.85474
   35          H           0.274352        0.7256     0.72565
   36          H           0.378383        0.6216     0.62162
   37          H           0.370825        0.6292     0.62918
   38          O          -0.741733        6.7417     1.81553     4.92621
   39          H           0.166754        0.8332     0.83325
 DIPOLE           X         Y         Z       TOTAL
 POINT-CHG.     1.221     5.230     4.750     7.169
 HYBRID        -0.058     0.031    -0.455     0.460
 SUM            1.163     5.260     4.295     6.890


          ATOMIC ORBITAL ELECTRON POPULATIONS

     Atom    s        px        py        pz   
    1  C   1.08646   1.01119   1.05518   1.01188
    2  C   1.09211   1.07995   0.98130   0.98643
    3  C   1.06657   0.99249   0.96079   1.05534
    4  C   1.08912   0.99846   1.05752   0.98443
    5  C   1.08660   1.08235   0.98566   1.01433
    6  C   1.09020   1.00566   1.06722   0.97183
    7  H   0.83324
    8  H   0.82211
    9  H   0.82781
   10  H   0.83622
   11  C   1.09786   1.14175   0.95371   0.85201
   12  C   1.05787   1.19949   1.13258   1.07876
   13  H   0.82220
   14  H   0.82304
   15  H   0.81458
   16  N   1.48133   0.95281   0.93601   1.00615
   17  O   1.93957   1.35996   1.62335   1.53431
   18  O   1.93892   1.10965   1.58374   1.81601
   19  N   1.67812   1.29417   1.09556   1.51927
   20  C   1.07015   1.04941   0.94679   1.05739
   21  C   1.07088   1.02283   0.97447   1.05772
   22  N   1.67796   1.29550   1.10064   1.50518
   23  C   1.07051   1.05045   0.94406   1.06287
   24  C   1.06997   1.02319   0.97622   1.05368
   25  H   0.85490
   26  H   0.87077
   27  H   0.85493
   28  H   0.86942
   29  H   0.85419
   30  H   0.87005
   31  H   0.87070
   32  H   0.78062
   33  H   0.71315
   34  H   0.85474
   35  H   0.72565
   36  H   0.62162
   37  H   0.62918
   38  O   1.81553   1.77279   1.52571   1.62771
   39  H   0.83325

          BONDING CONTRIBUTION OF EACH M.O.

  1.3114  1.3684  1.2564  1.8014  1.0867  1.3193  1.5537  1.9469  1.9194  1.5717
  1.3856  1.7884  1.6587  1.9580  1.9256  1.6620  1.7419  1.7521  1.2012  1.9563
  1.6181  1.6604  1.7457  1.9594  1.8770  1.9627  1.9193  2.0416  1.9198  1.9482
  1.6675  1.3551  1.2937  1.7029  1.8849  1.9489  2.0089  1.8802  1.0316  1.9582
  1.7367  1.1284  0.8790  2.0127  0.7603  1.7272  0.8963  2.0205  1.9139  0.7810
  0.9929 -2.2162 -2.1942 -1.9786 -2.0491 -1.9962 -1.9810 -1.9619 -1.9624 -1.9559
 -1.9540 -1.9564 -1.9758 -1.9559 -1.9331 -1.9001 -1.9005 -1.9272 -1.9624 -2.0053
 -1.9893 -1.9019 -1.9279 -1.9545 -1.9549 -1.9670 -1.9767 -1.9577 -1.9607 -1.9828
 -1.9584 -1.9798 -1.9874 -1.9676 -1.9707 -1.9568 -1.9640 -1.9772 -1.9708 -1.8907
 -1.8654 -1.7181 -1.8512





            (VALENCIES)   BOND ORDERS

     1  C     (3.972)     2  C 1.450     6  C 1.437     7  H 0.960     4  C 0.110

     2  C     (3.967)     1  C 1.450     3  C 1.418     8  H 0.952     5  C 0.111

     3  C     (3.988)     4  C 1.424     2  C 1.418    11  C 0.992     6  C 0.113

     4  C     (3.969)     5  C 1.445     3  C 1.424     9  H 0.956     1  C 0.110

     5  C     (3.972)     4  C 1.445     6  C 1.441    39  H 0.960     2  C 0.111

     6  C     (3.971)     5  C 1.441     1  C 1.437    10  H 0.961     3  C 0.113

     7  H     (0.972)     1  C 0.960

     8  H     (0.968)     2  C 0.952

     9  H     (0.970)     4  C 0.956

    10  H     (0.973)     6  C 0.961

    11  C     (3.895)    12  C 0.995     3  C 0.992    32  H 0.930    16  N 0.816    18  O 0.068    17  O 0.065

    12  C     (3.897)    11  C 0.995    13  H 0.959    14  H 0.958    15  H 0.950

    13  H     (0.968)    12  C 0.959

    14  H     (0.969)    12  C 0.958

    15  H     (0.966)    12  C 0.950

    16  N     (3.739)    18  O 1.448    17  O 1.439    11  C 0.816

    17  O     (1.831)    16  N 1.439    18  O 0.301    11  C 0.065

    18  O     (1.840)    16  N 1.448    17  O 0.301    11  C 0.068

    19  N     (2.874)    24  C 0.974    20  C 0.973    33  H 0.882

    20  C     (3.937)    21  C 0.996    19  N 0.973    31  H 0.968    34  H 0.963

    21  C     (3.936)    20  C 0.996    22  N 0.972    30  H 0.969    29  H 0.963

    22  N     (2.880)    23  C 0.972    21  C 0.972    35  H 0.899

    23  C     (3.936)    24  C 0.997    22  N 0.972    28  H 0.968    27  H 0.963

    24  C     (3.938)    23  C 0.997    19  N 0.974    26  H 0.969    25  H 0.963

    25  H     (0.979)    24  C 0.963

    26  H     (0.983)    24  C 0.969

    27  H     (0.979)    23  C 0.963

    28  H     (0.983)    23  C 0.968

    29  H     (0.979)    21  C 0.963

    30  H     (0.983)    21  C 0.969

    31  H     (0.983)    20  C 0.968

    32  H     (0.952)    11  C 0.930

    33  H     (0.918)    19  N 0.882

    34  H     (0.979)    20  C 0.963

    35  H     (0.925)    22  N 0.899

    36  H     (0.857)    38  O 0.853

    37  H     (0.862)    38  O 0.858

    38  O     (1.737)    37  H 0.858    36  H 0.853

    39  H     (0.972)     5  C 0.960


 **********************
 *                    *
 * JOB ENDED NORMALLY *
 *                    *
 **********************



 TOTAL JOB TIME:             3.48 SECONDS

 == MOPAC DONE ==
