 *******************************************************************************
 **                                                                           **
 **                              MOPAC v22.0.6                                **
 **                                                                           **
 *******************************************************************************
 **          Digital Object Identifier (DOI): 10.5281/zenodo.6511958          **
 **    Visit the DOI location for information on how to cite this program.    **
 *******************************************************************************

                              PM7 CALCULATION RESULTS

 *******************************************************************************
 *  CALCULATION DONE:                                Tue Mar 26 11:51:03 2024  *
 *  PM7        - The PM7 Hamiltonian to be used
 *  SINGLET    - SPIN STATE DEFINED AS A SINGLET
 *
 *
 *
 *                 CHARGE ON SYSTEM = 0
 *
 *
 *
 *  EPS=78.4   - USE ANDREAS KLAMT'S COSMO IMPLICIT SOLVATION MODEL
 *  LET        - OVERRIDE SOME SAFETY CHECKS
 *  THREADS    - USE A MAXIMUM OF 30 THREADS
 *  T=         - A TIME OF 14.0 DAYS REQUESTED
 *  DUMP=N     - RESTART FILE WRITTEN EVERY 30.0 MINUTES REQUESTED
 *  RELSCF     - DEFAULT SCF CRITERION MULTIPLIED BY 1.0000
 *              (DEFAULT SCF CRITERION = 0.00010)
 *  ITRY=      - DO A MAXIMUM OF 15000 ITERATIONS FOR SCF
 *  AUX        - OUTPUT AUXILIARY INFORMATION
 *  ISOTOPE    - SAVE THE FORCE MATRIX FOR USE LATER
 *  BONDS      - FINAL BOND-ORDER MATRIX TO BE PRINTED
 *  LARGE      - EXPANDED OUTPUT TO BE PRINTED
 *  THERMO     - THERMODYNAMIC QUANTITIES TO BE CALCULATED
 *******************************************************************************
PM7 AUX LARGE THERMO(298,298) LET ISOTOPE BONDS DUMP=30M ITRY=15000 T=14D THREADS=30 CHARGE=0 SINGLET eps=78.4 RELSCF=1
 Title: ASE calculation

   ATOM   CHEMICAL          X               Y               Z
  NUMBER   SYMBOL      (ANGSTROMS)     (ANGSTROMS)     (ANGSTROMS)

     1       C         -0.08605000  *  -0.46341000  *   0.17799000  *
     2       H         -0.07163000  *  -0.91773000  *  -0.81574000  *
     3       N         -0.17269000  *  -2.70545000  *   1.20686000  *
     4       O         -0.60634000  *  -3.12794000  *   0.14742000  *
     5       O         -0.16502000  *  -3.39455000  *   2.21888000  *
     6       H         -0.48249000  *   1.27946000  *   1.35115000  *
     7       C          0.37671000  *  -1.34040000  *   1.29515000  *
     8       D          1.50921000  *  -1.41818000  *   1.28183000  *
     9       H          0.13517000  *  -0.91747000  *   2.30647000  *
    10       C         -0.45595000  *   0.79918000  *   0.38202000  *
    11       H         -0.76132000  *   1.46427000  *  -0.41555000  *
    12       C          6.69408000  *  -3.15063000  *   0.76359000  *
    13       C          8.08913000  *  -3.20744000  *   0.67950000  *
    14       C          8.79121000  *  -2.03261000  *   0.41527000  *
    15       C          8.08581000  *  -0.84334000  *   0.24072000  *
    16       C          6.68989000  *  -0.86978000  *   0.33821000  *
    17       N          6.00582000  *  -2.00272000  *   0.59561000  *
    18       H          6.09365000  *  -4.04736000  *   0.97126000  *
    19       H          8.61154000  *  -4.15346000  *   0.81692000  *
    20       H          8.60513000  *   0.09114000  *   0.03156000  *
    21       H          6.08857000  *   0.03973000  *   0.20631000  *
    22       H          9.88182000  *  -2.04542000  *   0.34581000  *
    23       H          3.06721000  *  -3.43066000  *   0.84365000  *
    24       H          3.99734000  *  -2.27534000  *   0.49713000  *
    25       O          3.07347000  *  -2.56449000  *   0.42372000  *


                                Isotopes Used

              Atom:    8  H  Default mass  1.0079,  mass used:  2.0140 amu


          CARTESIAN COORDINATES 

    NO.       ATOM           X           Y           Z

     1         C         -0.0861     -0.4634      0.1780
     2         H         -0.0716     -0.9177     -0.8157
     3         N         -0.1727     -2.7054      1.2069
     4         O         -0.6063     -3.1279      0.1474
     5         O         -0.1650     -3.3946      2.2189
     6         H         -0.4825      1.2795      1.3512
     7         C          0.3767     -1.3404      1.2952
     8         H          1.5092     -1.4182      1.2818
     9         H          0.1352     -0.9175      2.3065
    10         C         -0.4560      0.7992      0.3820
    11         H         -0.7613      1.4643     -0.4156
    12         C          6.6941     -3.1506      0.7636
    13         C          8.0891     -3.2074      0.6795
    14         C          8.7912     -2.0326      0.4153
    15         C          8.0858     -0.8433      0.2407
    16         C          6.6899     -0.8698      0.3382
    17         N          6.0058     -2.0027      0.5956
    18         H          6.0937     -4.0474      0.9713
    19         H          8.6115     -4.1535      0.8169
    20         H          8.6051      0.0911      0.0316
    21         H          6.0886      0.0397      0.2063
    22         H          9.8818     -2.0454      0.3458
    23         H          3.0672     -3.4307      0.8437
    24         H          3.9973     -2.2753      0.4971
    25         O          3.0735     -2.5645      0.4237

 General Reference for PM7:
 "Optimization of Parameters for Semiempirical Methods VI: More Modifications to the 
 NDDO Approximations and Re-optimization of Parameters", J. J. P. Stewart, J. Mol. Mod., 1:32, 19 (2013)
 https://link.springer.com/article/10.1007/s00894-012-1667-x

           Empirical Formula: C8 H12 N2 O3  =    25 atoms



      MOLECULAR POINT GROUP   :   C1  


 SINGLET STATE CALCULATION


      RHF CALCULATION, NO. OF DOUBLY OCCUPIED LEVELS = 36

  SCF CRITERION =    0.1000E-03


          HEAT OF FORMATION =     -49.219655 KCALS/MOLE


          CARTESIAN COORDINATE DERIVATIVES

   NUMBER  ATOM         X            Y            Z

     1       C     -0.097859    -0.063820    -0.056457
     2       H     -0.055707    -0.154226    -0.052665
     3       N     -0.057411     0.093881     0.298023
     4       O      0.218754     0.021173    -0.031734
     5       O      0.036514     0.390250     0.071155
     6       H     -0.007114    -0.004960     0.075640
     7       C     -0.081246    -0.011903    -0.046087
     8       H      0.110606     0.182452    -0.064716
     9       H      0.031858     0.101911     0.079898
    10       C     -0.087904    -0.002996     0.081726
    11       H      0.050891    -0.010222    -0.107261
    12       C     -0.056280    -0.143202     0.041877
    13       C      0.011981     0.025981     0.074600
    14       C     -0.025602    -0.060716    -0.138597
    15       C      0.058723     0.000776    -0.027336
    16       C     -0.107138    -0.078343    -0.123638
    17       N     -0.086751    -0.057263    -0.117039
    18       H     -0.003297    -0.031121     0.093012
    19       H      0.143278    -0.044244     0.087414
    20       H      0.022319    -0.115737     0.030756
    21       H      0.061191    -0.050323    -0.132306
    22       H      0.012793     0.188410    -0.057273
    23       H     -0.133862     0.102694    -0.129780
    24       H      0.031676     0.249924     0.143538
    25       O      0.009689    -0.528288     0.007248

 DIPOLE           X         Y         Z       TOTAL
 POINT-CHG.    -2.583    -3.973    -6.746     8.244
 HYBRID         0.113     0.628    -0.764     0.995
 SUM           -2.470    -3.345    -7.511     8.585


          GRADIENT NORM =   1.05314


                              **** WARNING ****

           GRADIENT IS VERY LARGE FOR A THERMO CALCULATION
           RESULTS ARE LIKELY TO BE INACCURATE IF THERE ARE
           ANY LOW-LYING VIBRATIONS (LESS THAN ABOUT 400CM-1)
           GRADIENT NORM SHOULD BE LESS THAN ABOUT 1.0 FOR THERMO
           TO GIVE ACCURATE RESULTS


          TIME FOR SCF CALCULATION =    0.06

          TIME FOR DERIVATIVES     =    0.02

          MOLECULAR WEIGHT =  185.20



          ROTATIONAL CONSTANTS IN CM(-1)

          A =    0.04663593   B =    0.00664224   C =    0.00600928



           PRINCIPAL MOMENTS OF INERTIA IN UNITS OF 10**(-40)*GRAM-CM**2

          A =      600.2401   B =     4214.3518   C =     4658.2550


          ORIENTATION OF MOLECULE IN FORCE CALCULATION

    NO.       ATOM         X         Y         Z

     1          C      -0.1896   -1.4553    3.5157
     2          H       0.9031   -1.4553    3.5157
     3          N      -0.1943    1.0131    3.5157
     4          O       0.9391    0.9726    3.9661
     5          O      -0.8280    2.0594    3.4630
     6          H      -1.9863   -2.5388    3.9268
     7          C      -0.8348   -0.2105    3.0005
     8          H      -0.7755   -0.1850    1.8670
     9          H      -1.9335   -0.1667    3.2261
    10          C      -0.9050   -2.5054    3.9133
    11          H      -0.4602   -3.4304    4.2572
    12          C       0.4845    0.9929   -3.3462
    13          C       0.6030    0.9607   -4.7395
    14          C       0.3641   -0.2416   -5.4030
    15          C       0.0191   -1.3705   -4.6621
    16          C      -0.0770   -1.2570   -3.2704
    17          N       0.1509   -0.0962   -2.6236
    18          H       0.6606    1.9154   -2.7754
    19          H       0.8783    1.8595   -5.2902
    20          H      -0.1724   -2.3250   -5.1508
    21          H      -0.3431   -2.1175   -2.6420
    22          H       0.4470   -0.2970   -6.4914
    23          H       0.4803    1.4080    0.2686
    24          H       0.3273    0.1812   -0.6211
    25          O       0.5021    0.4460    0.2964


    FIRST DERIVATIVES WILL BE USED IN THE CALCULATION OF SECOND DERIVATIVES

          ESTIMATED TIME TO COMPLETE CALCULATION =       12.89 SECONDS

    FOR POINT-GROUP C1   THERE ARE   1 UNIQUE SYMMETRY FUNCTIONS.

 STEP:   1 TIME =     0.04 SECS, INTEGRAL =      0.04 TIME LEFT:1209599.87
 STEP:   2 TIME =     0.04 SECS, INTEGRAL =      0.09 TIME LEFT:1209599.83
 STEP:   3 TIME =     0.04 SECS, INTEGRAL =      0.13 TIME LEFT:1209599.79
 STEP:   4 TIME =     0.04 SECS, INTEGRAL =      0.17 TIME LEFT:1209599.75
 STEP:   5 TIME =     0.04 SECS, INTEGRAL =      0.21 TIME LEFT:1209599.70
 STEP:   6 TIME =     0.04 SECS, INTEGRAL =      0.25 TIME LEFT:1209599.66
 STEP:   7 TIME =     0.04 SECS, INTEGRAL =      0.30 TIME LEFT:1209599.62
 STEP:   8 TIME =     0.05 SECS, INTEGRAL =      0.34 TIME LEFT:1209599.57
 STEP:   9 TIME =     0.04 SECS, INTEGRAL =      0.39 TIME LEFT:1209599.53
 STEP:  10 TIME =     0.05 SECS, INTEGRAL =      0.43 TIME LEFT:1209599.48
 STEP:  11 TIME =     0.04 SECS, INTEGRAL =      0.47 TIME LEFT:1209599.44
 STEP:  12 TIME =     0.05 SECS, INTEGRAL =      0.52 TIME LEFT:1209599.39
 STEP:  13 TIME =     0.04 SECS, INTEGRAL =      0.56 TIME LEFT:1209599.35
 STEP:  14 TIME =     0.04 SECS, INTEGRAL =      0.61 TIME LEFT:1209599.31
 STEP:  15 TIME =     0.04 SECS, INTEGRAL =      0.65 TIME LEFT:1209599.27
 STEP:  16 TIME =     0.04 SECS, INTEGRAL =      0.69 TIME LEFT:1209599.22
 STEP:  17 TIME =     0.04 SECS, INTEGRAL =      0.73 TIME LEFT:1209599.18
 STEP:  18 TIME =     0.04 SECS, INTEGRAL =      0.77 TIME LEFT:1209599.14
 STEP:  19 TIME =     0.05 SECS, INTEGRAL =      0.82 TIME LEFT:1209599.09
 STEP:  20 TIME =     0.04 SECS, INTEGRAL =      0.86 TIME LEFT:1209599.05
 STEP:  21 TIME =     0.05 SECS, INTEGRAL =      0.91 TIME LEFT:1209599.00
 STEP:  22 TIME =     0.04 SECS, INTEGRAL =      0.95 TIME LEFT:1209598.96
 STEP:  23 TIME =     0.05 SECS, INTEGRAL =      1.01 TIME LEFT:1209598.91
 STEP:  24 TIME =     0.04 SECS, INTEGRAL =      1.05 TIME LEFT:1209598.86
 STEP:  25 TIME =     0.04 SECS, INTEGRAL =      1.09 TIME LEFT:1209598.82
 STEP:  26 TIME =     0.04 SECS, INTEGRAL =      1.14 TIME LEFT:1209598.78
 STEP:  27 TIME =     0.04 SECS, INTEGRAL =      1.18 TIME LEFT:1209598.73
 STEP:  28 TIME =     0.04 SECS, INTEGRAL =      1.22 TIME LEFT:1209598.69
 STEP:  29 TIME =     0.04 SECS, INTEGRAL =      1.27 TIME LEFT:1209598.65
 STEP:  30 TIME =     0.04 SECS, INTEGRAL =      1.31 TIME LEFT:1209598.61
 STEP:  31 TIME =     0.04 SECS, INTEGRAL =      1.35 TIME LEFT:1209598.56
 STEP:  32 TIME =     0.04 SECS, INTEGRAL =      1.39 TIME LEFT:1209598.52
 STEP:  33 TIME =     0.04 SECS, INTEGRAL =      1.44 TIME LEFT:1209598.48
 STEP:  34 TIME =     0.04 SECS, INTEGRAL =      1.48 TIME LEFT:1209598.43
 STEP:  35 TIME =     0.04 SECS, INTEGRAL =      1.52 TIME LEFT:1209598.39
 STEP:  36 TIME =     0.05 SECS, INTEGRAL =      1.57 TIME LEFT:1209598.34
 STEP:  37 TIME =     0.04 SECS, INTEGRAL =      1.62 TIME LEFT:1209598.30
 STEP:  38 TIME =     0.04 SECS, INTEGRAL =      1.66 TIME LEFT:1209598.25
 STEP:  39 TIME =     0.05 SECS, INTEGRAL =      1.71 TIME LEFT:1209598.21
 STEP:  40 TIME =     0.05 SECS, INTEGRAL =      1.75 TIME LEFT:1209598.16
 STEP:  41 TIME =     0.05 SECS, INTEGRAL =      1.80 TIME LEFT:1209598.11
 STEP:  42 TIME =     0.04 SECS, INTEGRAL =      1.84 TIME LEFT:1209598.07
 STEP:  43 TIME =     0.29 SECS, INTEGRAL =      2.13 TIME LEFT:1209597.78
 STEP:  44 TIME =     0.17 SECS, INTEGRAL =      2.30 TIME LEFT:1209597.61
 STEP:  45 TIME =     0.17 SECS, INTEGRAL =      2.47 TIME LEFT:1209597.45
 STEP:  46 TIME =     0.10 SECS, INTEGRAL =      2.57 TIME LEFT:1209597.34
 STEP:  47 TIME =     0.16 SECS, INTEGRAL =      2.73 TIME LEFT:1209597.18
 STEP:  48 TIME =     0.23 SECS, INTEGRAL =      2.96 TIME LEFT:1209596.95
 STEP:  49 TIME =     0.31 SECS, INTEGRAL =      3.28 TIME LEFT:1209596.64
 STEP:  50 TIME =     0.16 SECS, INTEGRAL =      3.44 TIME LEFT:1209596.47
 STEP:  51 TIME =     0.15 SECS, INTEGRAL =      3.59 TIME LEFT:1209596.32
 STEP:  52 TIME =     0.52 SECS, INTEGRAL =      4.11 TIME LEFT:1209595.80
 STEP:  53 TIME =     0.13 SECS, INTEGRAL =      4.24 TIME LEFT:1209595.68
 STEP:  54 TIME =     0.51 SECS, INTEGRAL =      4.75 TIME LEFT:1209595.16
 STEP:  55 TIME =     0.15 SECS, INTEGRAL =      4.90 TIME LEFT:1209595.01
 STEP:  56 TIME =     0.29 SECS, INTEGRAL =      5.19 TIME LEFT:1209594.72
 STEP:  57 TIME =     0.37 SECS, INTEGRAL =      5.56 TIME LEFT:1209594.35
 STEP:  58 TIME =     0.14 SECS, INTEGRAL =      5.71 TIME LEFT:1209594.21
 STEP:  59 TIME =     0.11 SECS, INTEGRAL =      5.82 TIME LEFT:1209594.10
 STEP:  60 TIME =     0.23 SECS, INTEGRAL =      6.05 TIME LEFT:1209593.86
 STEP:  61 TIME =     0.16 SECS, INTEGRAL =      6.21 TIME LEFT:1209593.71
 STEP:  62 TIME =     0.14 SECS, INTEGRAL =      6.34 TIME LEFT:1209593.57
 STEP:  63 TIME =     0.09 SECS, INTEGRAL =      6.43 TIME LEFT:1209593.48
 STEP:  64 TIME =     0.09 SECS, INTEGRAL =      6.52 TIME LEFT:1209593.40
 STEP:  65 TIME =     0.21 SECS, INTEGRAL =      6.73 TIME LEFT:1209593.19
 STEP:  66 TIME =     0.12 SECS, INTEGRAL =      6.84 TIME LEFT:1209593.07
 STEP:  67 TIME =     0.15 SECS, INTEGRAL =      6.99 TIME LEFT:1209592.92
 STEP:  68 TIME =     0.07 SECS, INTEGRAL =      7.06 TIME LEFT:1209592.86
 STEP:  69 TIME =     0.07 SECS, INTEGRAL =      7.13 TIME LEFT:1209592.78
 STEP:  70 TIME =     0.07 SECS, INTEGRAL =      7.20 TIME LEFT:1209592.71
 STEP:  71 TIME =     0.12 SECS, INTEGRAL =      7.32 TIME LEFT:1209592.59
 STEP:  72 TIME =     0.07 SECS, INTEGRAL =      7.39 TIME LEFT:1209592.52
 STEP:  73 TIME =     0.11 SECS, INTEGRAL =      7.50 TIME LEFT:1209592.41
 STEP:  74 TIME =     0.05 SECS, INTEGRAL =      7.55 TIME LEFT:1209592.36
 STEP:  75 TIME =     0.05 SECS, INTEGRAL =      7.60 TIME LEFT:1209592.31

(To convert to Hartree/Bohr^2, multiply by (10^(-21) x N x a0^2)/(4.184 x 627.51) =  0.0642)


           FORCE MATRIX IN MILLIDYNES/ANGSTROM


                  C  1       H  2       N  3       O  4       O  5       H  6
 ------------------------------------------------------------------------------
     C    1  16.869836
     H    2   3.401418   4.293243
     N    3   0.853603   0.076530  19.005711
     O    4   0.080886   0.035953   9.585492  12.274225
     O    5   0.098444   0.020803   9.347251   2.691185  12.052824
     H    6   0.795552   0.136909   0.034914   0.013752   0.020661   4.223894
     C    7   3.641253   0.675916   3.104279   1.163732   1.169281   0.076489
     H    8   0.694877   0.016811   0.926711   0.093355   0.080185   0.014971
     H    9   0.670253   0.037921   0.904610   0.078963   0.121154   0.017964
     C   10  10.507401   0.806956   0.076543   0.021490   0.036759   3.492528
     H   11   0.805224   0.066098   0.033531   0.010236   0.013182   0.462675
     C   12   0.000904   0.000669   0.003365   0.001370   0.002021   0.000824
     C   13   0.000928   0.000413   0.002377   0.001018   0.001446   0.000367
     C   14   0.000627   0.000260   0.002190   0.001114   0.001332   0.000263
     C   15   0.000754   0.000463   0.001327   0.000830   0.000660   0.000533
     C   16   0.000845   0.000421   0.003149   0.001220   0.001848   0.000476
     N   17   0.001934   0.000694   0.009021   0.005426   0.004966   0.001195
     H   18   0.000656   0.000297   0.002265   0.000995   0.001579   0.000286
     H   19   0.000165   0.000105   0.001236   0.000689   0.000888   0.000136
     H   20   0.000374   0.000196   0.000920   0.000502   0.000571   0.000283
     H   21   0.000924   0.000321   0.001683   0.001006   0.001050   0.000283
     H   22   0.000222   0.000119   0.000878   0.000608   0.000594   0.000223
     H   23   0.005516   0.005354   0.057076   0.052103   0.074985   0.002125
     H   24   0.003057   0.002500   0.044022   0.030393   0.028207   0.001601
     O   25   0.013134   0.012837   0.103727   0.062502   0.094311   0.005553


                  C  7       H  8       H  9       C 10       H 11       C 12
 ------------------------------------------------------------------------------
     C    7  11.872898
     H    8   2.840523   3.811462
     H    9   3.088670   0.420576   4.053781
     C   10   0.917353   0.031000   0.032138  15.950173
     H   11   0.132978   0.018471   0.006974   3.510638   4.246136
     C   12   0.001041   0.001877   0.000484   0.000879   0.000655  15.120436
     C   13   0.000790   0.001996   0.000612   0.000585   0.000307   5.698447
     C   14   0.000784   0.000868   0.000351   0.000421   0.000374   2.391528
     C   15   0.000896   0.001970   0.000667   0.000596   0.000454   1.649094
     C   16   0.000608   0.001168   0.000711   0.000405   0.000492   2.843970
     N   17   0.009408   0.017142   0.002361   0.000973   0.001474   6.448112
     H   18   0.000317   0.000499   0.000406   0.000366   0.000325   3.316029
     H   19   0.000556   0.000897   0.000267   0.000233   0.000221   0.722545
     H   20   0.000586   0.000748   0.000347   0.000351   0.000414   0.006088
     H   21   0.000678   0.001158   0.000419   0.000606   0.000250   0.150747
     H   22   0.000652   0.001188   0.000321   0.000271   0.000343   0.109268
     H   23   0.015540   0.023009   0.008908   0.002555   0.001499   0.008632
     H   24   0.024934   0.035601   0.005354   0.002191   0.001135   0.050378
     O   25   0.124807   0.064894   0.018335   0.007879   0.004042   0.018380


                  C 13       C 14       C 15       C 16       N 17       H 18
 ------------------------------------------------------------------------------
     C   13  15.089541
     C   14   6.201137  15.233682
     C   15   2.183568   6.164213  15.092554
     C   16   1.730080   2.457715   5.678817  15.083488
     N   17   2.680621   1.842243   2.651211   6.524638  14.157390
     H   18   0.682377   0.092105   0.020754   0.152623   0.877172   4.233903
     H   19   3.437577   0.735933   0.096802   0.004999   0.102285   0.023403
     H   20   0.098508   0.737305   3.425990   0.728215   0.100339   0.015955
     H   21   0.024568   0.090351   0.676464   3.332303   0.882810   0.015480
     H   22   0.718785   3.427665   0.717225   0.107882   0.045389   0.011374
     H   23   0.005145   0.001738   0.003574   0.007078   0.043227   0.003334
     H   24   0.022362   0.008413   0.023399   0.042188   0.099554   0.015186
     O   25   0.011713   0.006152   0.010264   0.020383   0.182846   0.007772


                  H 19       H 20       H 21       H 22       H 23       H 24
 ------------------------------------------------------------------------------
     H   19   4.317202
     H   20   0.009332   4.310781
     H   21   0.016046   0.025777   4.241123
     H   22   0.034687   0.032832   0.011527   4.290430
     H   23   0.001222   0.000870   0.002616   0.000684   4.417611
     H   24   0.004990   0.004252   0.013107   0.003832   0.798175   4.128311
     O   25   0.002211   0.001624   0.008430   0.001167   3.971902   3.722033


                  O 25
 ------------------
     O   25   6.197009


          HEAT OF FORMATION =     -49.219655 KCALS/MOLE


          TRIVIAL VIBRATIONS, SHOULD BE ZERO

  46.7409=TX -47.4163=TY  48.4011=TZ -41.4276=RX  44.8584=RY  48.8458=RZ


      MOLECULAR POINT GROUP   :   C1  


           EIGENVECTORS  


   Root No.       1         2         3         4         5         6         7         8

                 1 A       2 A       3 A       4 A       5 A       6 A       7 A       8 A   

                  -0.2      -0.0      -0.0      -0.0      -0.0       0.0       0.0       0.0
  
           1    0.0081   -0.0236    0.0238    0.0346   -0.0615   -0.0318   -0.0274    0.0207
           2   -0.0015   -0.0443   -0.0984    0.0505   -0.0222   -0.0545    0.0018   -0.0012
           3   -0.0087   -0.1290   -0.0639   -0.0890   -0.0916    0.1248   -0.1655   -0.1520
           4    0.0072   -0.0247    0.0239    0.0349   -0.0620   -0.0319   -0.0275    0.0198
           5   -0.0144   -0.1301   -0.1337    0.1254   -0.0332   -0.1245   -0.0468   -0.0733
           6    0.0015   -0.5107   -0.0946   -0.1352   -0.1534    0.1682   -0.2027   -0.3059
           7    0.0331   -0.0211    0.0125    0.0356   -0.0061    0.2116    0.1041   -0.0281
           8    0.0023   -0.0516   -0.1030    0.0559   -0.0207   -0.0456    0.0042   -0.0084
           9    0.0130   -0.0657   -0.0861   -0.0230    0.0582    0.0304   -0.1918    0.3162
          10    0.0389    0.0026    0.0217    0.0883    0.0372    0.2144    0.1217   -0.0871
          11    0.0136   -0.0846   -0.0742    0.0291   -0.0672   -0.1428   -0.0487   -0.0886
          12   -0.0069   -0.1285   -0.1075   -0.1580   -0.0553    0.0149   -0.2405    0.4582
          13    0.0017    0.0075   -0.0318    0.0675    0.0070    0.3252    0.1608   -0.0196
          14   -0.0151   -0.0325   -0.1268    0.0781   -0.0061    0.0196    0.0395    0.0009
          15    0.0557   -0.0262   -0.0326    0.0301    0.1875   -0.0237   -0.1816    0.4087
          16   -0.0116    0.0313   -0.0028    0.1303   -0.0506   -0.1173   -0.0632    0.0014
          17    0.0281    0.1536   -0.0081   -0.1339   -0.0337    0.0526    0.0802    0.1054
          18   -0.0097    0.6402    0.0573   -0.1526   -0.0717    0.0270   -0.1201    0.0483
          19    0.0325   -0.0911    0.0545   -0.0801   -0.0818    0.0586    0.0091    0.0410
          20    0.0095   -0.0342   -0.1081    0.0669    0.0243   -0.0067    0.0321    0.0806
          21   -0.0140   -0.0233   -0.1267    0.0958    0.0441    0.1279   -0.1373    0.0177
          22    0.0732   -0.2302    0.1464   -0.3498   -0.1908   -0.0344   -0.0568    0.1493
          23    0.0345   -0.0014   -0.1179    0.0998    0.0972   -0.0594    0.0165    0.3021
          24   -0.0070   -0.0282   -0.1223    0.0819    0.0411    0.1236   -0.1425    0.0288
          25    0.0311   -0.0607    0.0366   -0.0255   -0.0569    0.0796    0.0254    0.0193
          26    0.0140   -0.0356   -0.1111    0.0608    0.0306    0.1121    0.0941    0.0137
          27   -0.0214    0.1209   -0.2176    0.3662    0.1641    0.2162   -0.0721   -0.0795
          28   -0.0107    0.0299   -0.0016    0.1265   -0.0509   -0.1148   -0.0622    0.0026
          29    0.0115    0.0592   -0.0473   -0.0493   -0.0431   -0.0187    0.0314    0.0281
          30   -0.0078    0.2408    0.0250   -0.1871   -0.1274    0.0706   -0.1500   -0.1070
          31   -0.0276    0.0779   -0.0239    0.2080   -0.0432   -0.1907   -0.0953   -0.0148
          32    0.0047    0.0586   -0.0408   -0.0562   -0.0721   -0.0564    0.0096   -0.0226
          33   -0.0039    0.1779    0.0718   -0.3120   -0.2156    0.0660   -0.1674   -0.2197
          34    0.0574    0.0416   -0.0238    0.0044    0.1445   -0.1327   -0.1393   -0.1090
          35   -0.0368    0.0052    0.0933   -0.0020    0.0381    0.0740   -0.0637   -0.0397
          36   -0.0124   -0.0017   -0.0360    0.0156   -0.0785   -0.0985    0.1968   -0.0141
          37    0.0242    0.0390    0.0668    0.1307   -0.0784   -0.0565   -0.1146   -0.0213
          38   -0.0077    0.0303   -0.0443   -0.0474   -0.0201    0.0314    0.0074   -0.0464
          39   -0.0168   -0.0043   -0.0215    0.0297   -0.0967   -0.0936    0.2013   -0.0051
          40    0.0055    0.0371    0.0539    0.1150   -0.1440    0.0921   -0.0073    0.0540
          41    0.0037    0.0437   -0.0985   -0.0521   -0.0569   -0.0147    0.0140   -0.0591
          42   -0.0302   -0.0248    0.0760    0.0401   -0.0063   -0.0593    0.1432   -0.0116
          43   -0.0020    0.0349   -0.0343   -0.0163    0.0024    0.1622    0.0755    0.0420
          44   -0.0077    0.0300   -0.0133   -0.0108   -0.0334   -0.0217   -0.0442   -0.0631
          45   -0.0495   -0.0439    0.1591    0.0374    0.0986   -0.0327    0.0861   -0.0256
          46    0.0311    0.0384   -0.1278   -0.1433    0.2264    0.0876    0.0508   -0.0441
          47   -0.0364    0.0044    0.1259    0.0356    0.0237    0.0204   -0.1146   -0.0564
          48   -0.0471   -0.0432    0.1443    0.0272    0.1090   -0.0439    0.0942   -0.0308
          49    0.0920    0.0438   -0.1336   -0.1388    0.3045   -0.0619   -0.0594   -0.1199
          50   -0.0604   -0.0068    0.1783    0.0390    0.0568    0.0702   -0.1265   -0.0458
          51   -0.0369   -0.0220    0.0474    0.0150    0.0227   -0.0759    0.1462   -0.0257
          52    0.0522    0.0431   -0.0166    0.0107    0.2054   -0.2517   -0.2262   -0.1744
          53   -0.0446   -0.0041    0.1350    0.0003    0.0698    0.1125   -0.0762   -0.0310
          54    0.0037    0.0131   -0.1061    0.0101   -0.1487   -0.1252    0.2427   -0.0086
          55    0.0141    0.0385    0.1442    0.2374   -0.1967   -0.1118   -0.1805   -0.0122
          56    0.0019    0.0411   -0.1119   -0.0815   -0.0364    0.0372    0.0550   -0.0432
          57   -0.0048    0.0131   -0.0931    0.0275   -0.1815   -0.1120    0.2448    0.0046
          58   -0.0316    0.0309   -0.0330   -0.0223   -0.0555    0.2746    0.1574    0.0989
          59    0.0060    0.0402   -0.0549   -0.0152   -0.0582   -0.0571   -0.0394   -0.0728
          60   -0.0589   -0.0621    0.2388    0.0482    0.1700   -0.0081    0.0445   -0.0295
          61    0.0065    0.0364   -0.1982   -0.2497    0.3447    0.1455    0.1178   -0.0537
          62   -0.0269   -0.0051    0.1934    0.0668    0.0466    0.0183   -0.1682   -0.0623
          63   -0.0452   -0.0573    0.2076    0.0250    0.1906   -0.0221    0.0498   -0.0425
          64   -0.0076    0.0350    0.1199    0.2103   -0.3136    0.1504    0.0154    0.1238
          65    0.0199    0.0625   -0.2046   -0.0852   -0.1061   -0.0507    0.0749   -0.0638
          66   -0.0303   -0.0258    0.0858    0.0487   -0.0163   -0.0527    0.1415   -0.0061
          67   -0.4754   -0.0324   -0.2234   -0.1534   -0.0609   -0.2264    0.0849    0.0909
          68    0.0403   -0.0368    0.2655   -0.0734    0.0638    0.0324    0.1208    0.0961
          69    0.1596    0.0041    0.0031    0.0910    0.0904   -0.0765   -0.0168   -0.1108
          70   -0.5337   -0.0410    0.1253   -0.1197    0.1522   -0.1759    0.0379   -0.0097
          71   -0.0212   -0.0251    0.2347   -0.0266    0.0937    0.0383    0.0229    0.0547
          72    0.2113   -0.0083   -0.0088    0.0265    0.0167   -0.0830    0.1195   -0.0437
          73    0.5914   -0.0432    0.0212   -0.1353    0.0287   -0.2642    0.0989    0.0303
          74    0.0826   -0.0368    0.2708   -0.0746    0.0647    0.0339    0.1238    0.0963
          75   -0.0333   -0.0051    0.0008    0.0412    0.0501   -0.0623    0.0775   -0.0646


   Root No.       9        10        11        12        13        14        15        16

                 9 A      10 A      11 A      12 A      13 A      14 A      15 A      16 A   

                   0.0       0.0       0.0       0.0       0.1       0.1       0.1       0.2
  
           1   -0.0303   -0.0106   -0.0453   -0.0062    0.0595    0.0235    0.0010    0.1927
           2    0.0195    0.0025   -0.0318    0.0109    0.0164    0.0010    0.0009   -0.0663
           3    0.0072    0.0783    0.0706    0.0024   -0.0528   -0.0004   -0.0006    0.0744
           4   -0.0315   -0.0100   -0.0452   -0.0074    0.0588    0.0229    0.0011    0.1820
           5    0.0040    0.0098    0.0077    0.0068   -0.0212   -0.0216    0.0028   -0.1870
           6    0.0205    0.1196    0.0880   -0.0176   -0.0634   -0.0345   -0.0011   -0.0179
           7   -0.0131    0.0126   -0.0282    0.0025    0.0369    0.0039   -0.0028   -0.0639
           8    0.0135   -0.0035   -0.0264    0.0274    0.0148    0.0125    0.0003    0.0843
           9   -0.0004    0.0493   -0.0104    0.0098   -0.0055   -0.0019   -0.0017   -0.0235
          10    0.1272    0.1731   -0.0568   -0.1182    0.0212    0.0057   -0.0028   -0.0556
          11    0.0883    0.0669   -0.0527   -0.0339    0.0303    0.0401    0.0021    0.3658
          12   -0.3541   -0.3523    0.0598    0.3153    0.0337   -0.0026   -0.0014   -0.0313
          13   -0.1612   -0.1340    0.0407    0.1260    0.0125   -0.0112   -0.0041   -0.2698
          14   -0.0535   -0.0700    0.0064    0.0789    0.0037    0.0068   -0.0003   -0.0413
          15    0.3553    0.4339   -0.1538   -0.3119    0.0070   -0.0056   -0.0017   -0.1746
          16   -0.0583   -0.0209   -0.0030   -0.0048    0.0115    0.0022    0.0037   -0.0306
          17    0.0661   -0.0143   -0.1206    0.0181    0.1171    0.0517   -0.0035    0.4002
          18    0.0050   -0.0059    0.0357    0.0249   -0.0335    0.0138    0.0001    0.0851
          19   -0.0145   -0.0070   -0.0825   -0.0120    0.0876    0.0300   -0.0003    0.1316
          20    0.0209    0.0005   -0.0433    0.0199    0.0221    0.0049   -0.0005   -0.0663
          21   -0.0141    0.0637    0.0884    0.0343   -0.0698    0.0056   -0.0020    0.1382
          22    0.0193   -0.0019   -0.1945   -0.0779    0.1547    0.0704    0.0032    0.0429
          23    0.0213   -0.0053   -0.0729    0.0162    0.0252   -0.0176   -0.0018   -0.1375
          24   -0.0142    0.0646    0.0854    0.0367   -0.0705   -0.0016   -0.0023    0.1310
          25   -0.0145   -0.0022   -0.0602   -0.0030    0.0673    0.0196   -0.0011    0.1359
          26    0.0121   -0.0012   -0.0240    0.0333    0.0091    0.0045   -0.0015   -0.1987
          27   -0.0255    0.0792    0.2064    0.0946   -0.1740   -0.0557   -0.0065    0.2392
          28   -0.0561   -0.0200   -0.0052   -0.0048    0.0144    0.0032    0.0035   -0.0101
          29    0.0406   -0.0051   -0.0689    0.0080    0.0540    0.0091   -0.0006    0.0214
          30    0.0171    0.0418    0.0449   -0.0021   -0.0349   -0.0153   -0.0002   -0.0444
          31   -0.0818   -0.0283    0.0342   -0.0065   -0.0343   -0.0226    0.0062   -0.3080
          32    0.0367   -0.0035   -0.0555   -0.0042    0.0367   -0.0207    0.0006   -0.2158
          33    0.0390    0.0573    0.0323   -0.0337   -0.0237   -0.0668   -0.0004   -0.3326
          34   -0.1566    0.0462   -0.0562   -0.0497    0.0273    0.0038   -0.1247    0.0052
          35    0.0820   -0.1138   -0.0539   -0.0021   -0.0661    0.0009    0.0346   -0.0004
          36   -0.0746    0.0536   -0.0780    0.0044   -0.0001   -0.0753   -0.0169    0.0077
          37   -0.0638    0.0388   -0.0161   -0.0305    0.0126   -0.0073    0.1382    0.0067
          38    0.0279   -0.0244   -0.0395    0.0133   -0.0286   -0.0029   -0.0337   -0.0012
          39   -0.0672    0.0515   -0.0764    0.0054   -0.0023   -0.0823    0.0086    0.0085
          40    0.0441    0.0017    0.0107   -0.0104   -0.0111    0.0106   -0.0014   -0.0014
          41   -0.0126    0.0268   -0.0331    0.0186   -0.0049   -0.0032   -0.0016   -0.0003
          42   -0.0299   -0.0280   -0.0952   -0.0103   -0.0363   -0.0818   -0.0033    0.0090
          43    0.0551   -0.0269   -0.0083   -0.0173   -0.0028   -0.0013   -0.1341   -0.0044
          44    0.0003   -0.0117   -0.0397    0.0097   -0.0232    0.0073    0.0344    0.0003
          45   -0.0026   -0.1006   -0.1127   -0.0263   -0.0610   -0.0690   -0.0137    0.0081
          46   -0.0395   -0.0144   -0.0455   -0.0344    0.0160   -0.0141    0.1253   -0.0026
          47    0.0562   -0.1024   -0.0519   -0.0061   -0.0604    0.0228   -0.0267   -0.0003
          48   -0.0153   -0.0913   -0.1141   -0.0263   -0.0552   -0.0718    0.0110    0.0084
          49   -0.1446    0.0219   -0.0631   -0.0465    0.0197    0.0076   -0.0056   -0.0004
          50    0.0971   -0.1516   -0.0597   -0.0116   -0.0777    0.0152    0.0047   -0.0001
          51   -0.0486   -0.0139   -0.0900   -0.0089   -0.0208   -0.0506   -0.0027    0.0055
          52   -0.2476    0.0772   -0.0838   -0.0683    0.0522    0.0131   -0.4679    0.0074
          53    0.1165   -0.1560   -0.0542   -0.0057   -0.0849    0.0127    0.1173   -0.0019
          54   -0.1032    0.1125   -0.0703    0.0158    0.0213   -0.1002   -0.0468    0.0099
          55   -0.0749    0.0639   -0.0055   -0.0283    0.0207   -0.0285    0.4659    0.0138
          56    0.0185    0.0049   -0.0333    0.0214   -0.0167   -0.0033   -0.1174   -0.0030
          57   -0.0881    0.1123   -0.0602    0.0198    0.0222   -0.0945    0.0356    0.0092
          58    0.1376   -0.0565    0.0062   -0.0062   -0.0101    0.0022   -0.4552   -0.0086
          59   -0.0310    0.0265   -0.0346    0.0143   -0.0091    0.0052    0.1126    0.0010
          60    0.0259   -0.1645   -0.1286   -0.0405   -0.0878   -0.0677   -0.0401    0.0087
          61   -0.0333   -0.0311   -0.0637   -0.0375    0.0304   -0.0472    0.4707   -0.0024
          62    0.0702   -0.1426   -0.0616   -0.0169   -0.0871    0.0259   -0.1110    0.0011
          63    0.0060   -0.1531   -0.1360   -0.0424   -0.0861   -0.0842    0.0425    0.0105
          64    0.1203   -0.0049    0.0444    0.0125   -0.0372    0.0327   -0.0090   -0.0056
          65   -0.0586    0.0993   -0.0250    0.0288    0.0295   -0.0193    0.0013    0.0008
          66   -0.0217   -0.0323   -0.0929   -0.0093   -0.0403   -0.0807   -0.0040    0.0088
          67    0.1435   -0.2910    0.3965   -0.4701   -0.2074   -0.0526   -0.0026    0.0525
          68   -0.2651    0.2336    0.2850   -0.0884   -0.1009    0.1340    0.0049    0.0079
          69    0.2892   -0.1989    0.2626    0.0648    0.6543   -0.1082   -0.0080   -0.0309
          70    0.2385    0.3077    0.0712    0.6273    0.0088    0.1224   -0.0000   -0.0291
          71   -0.0981    0.1015    0.4045   -0.0927    0.3401   -0.3951   -0.0226    0.0326
          72    0.0348   -0.1059    0.1274   -0.0833   -0.0146    0.6188    0.0314   -0.0522
          73    0.3358   -0.0837    0.2591    0.2718   -0.4093   -0.1887   -0.0072    0.0220
          74   -0.2728    0.2329    0.2791   -0.0642   -0.1182    0.1289    0.0047    0.0046
          75    0.0593   -0.0710    0.1171   -0.0157    0.1939    0.5125    0.0241   -0.0547


   Root No.      17        18        19        20        21        22        23        24

                17 A      18 A      19 A      20 A      21 A      22 A      23 A      24 A   

                   0.2       0.2       0.4       0.5       0.7       0.8       0.8       0.9
  
           1    0.0043    0.1863    0.1063   -0.0021   -0.0010   -0.0077    0.0001   -0.0003
           2   -0.0007   -0.0328    0.1044    0.0004   -0.0612    0.0161   -0.0003   -0.0003
           3   -0.0010   -0.1466    0.0409    0.0003   -0.1092    0.1142   -0.0007    0.0007
           4    0.0043    0.1785    0.1057   -0.0023   -0.0010   -0.0184    0.0001   -0.0003
           5   -0.0004   -0.0097    0.3922   -0.0003   -0.1447    0.3017    0.0004    0.0002
           6   -0.0001   -0.1241    0.3109    0.0010    0.3833   -0.2882   -0.0004    0.0005
           7   -0.0002   -0.0124   -0.0312    0.0000    0.0093   -0.1209   -0.0001   -0.0002
           8   -0.0005   -0.0861   -0.1412    0.0006   -0.0201    0.0177   -0.0002   -0.0003
           9   -0.0030    0.0064   -0.0308    0.0016   -0.0069    0.0900   -0.0005    0.0003
          10    0.0008   -0.0470   -0.0473   -0.0015    0.0505    0.0168   -0.0001   -0.0002
          11    0.0018   -0.0988   -0.4037    0.0015    0.0231   -0.1530   -0.0002   -0.0004
          12   -0.0052    0.0972    0.0146    0.0053   -0.1046   -0.2454   -0.0004    0.0003
          13   -0.0024   -0.0376    0.1315   -0.0020    0.0320    0.1906   -0.0004   -0.0001
          14   -0.0018   -0.1015   -0.0494   -0.0005   -0.0147    0.1797   -0.0004   -0.0003
          15   -0.0022    0.0630    0.1417    0.0029   -0.1415   -0.1474    0.0003    0.0004
          16    0.0032    0.0382    0.0794   -0.0018   -0.0323    0.0413    0.0002   -0.0002
          17    0.0015    0.2454    0.4214   -0.0011   -0.0666    0.0230   -0.0007   -0.0003
          18   -0.0029   -0.4756    0.1683    0.0024    0.2103   -0.1251   -0.0003    0.0009
          19    0.0030    0.0316   -0.0982   -0.0007    0.0603   -0.1808   -0.0001   -0.0003
          20   -0.0020   -0.0715   -0.0560    0.0010   -0.0142   -0.0069   -0.0003   -0.0004
          21   -0.0028   -0.0655   -0.0961    0.0005   -0.0854    0.2125   -0.0006    0.0005
          22    0.0041   -0.2818   -0.2079   -0.0029   -0.1185    0.4177    0.0005    0.0004
          23   -0.0021    0.0668   -0.1809   -0.0016    0.7276    0.1718    0.0000   -0.0006
          24   -0.0022   -0.0617   -0.1009   -0.0005   -0.0883    0.2534   -0.0009    0.0004
          25    0.0023    0.0718   -0.1124    0.0004    0.0587   -0.2304    0.0003   -0.0001
          26   -0.0046   -0.2297   -0.1629    0.0040   -0.3993   -0.3672   -0.0004   -0.0003
          27   -0.0056    0.2242   -0.1478    0.0062   -0.0275    0.0045    0.0012    0.0013
          28    0.0034    0.0581    0.0922   -0.0019   -0.0402    0.0573    0.0002   -0.0002
          29   -0.0001    0.0979    0.1067    0.0003   -0.0197   -0.0458   -0.0004   -0.0003
          30   -0.0008   -0.0339   -0.0105    0.0006   -0.0315    0.0589   -0.0008    0.0008
          31    0.0015   -0.1799   -0.0263   -0.0000    0.0040   -0.1655   -0.0000   -0.0007
          32   -0.0002    0.2062   -0.0327    0.0008   -0.0053   -0.1404   -0.0005   -0.0004
          33    0.0011    0.5138   -0.2892   -0.0005   -0.0272    0.0809   -0.0008    0.0010
          34    0.0360    0.0016   -0.0005   -0.1920   -0.0008   -0.0032   -0.0194    0.0038
          35   -0.0091    0.0005   -0.0000    0.0453    0.0005    0.0011   -0.0681    0.0172
          36    0.0104   -0.0024    0.0001   -0.0183   -0.0000   -0.0009   -0.0244    0.0230
          37   -0.0899    0.0014   -0.0005   -0.1703   -0.0012   -0.0039   -0.0067   -0.0183
          38    0.0216    0.0009   -0.0003    0.0400    0.0005    0.0014   -0.0306   -0.0596
          39   -0.0045   -0.0027    0.0001   -0.0157   -0.0001   -0.0009   -0.0367    0.0482
          40    0.1596   -0.0009   -0.0001   -0.1432   -0.0015   -0.0030    0.0129   -0.0057
          41   -0.0381    0.0020   -0.0006    0.0347    0.0009    0.0010    0.0089   -0.0387
          42    0.0205   -0.0035    0.0004   -0.0155   -0.0005   -0.0004   -0.0968   -0.0432
          43   -0.0979   -0.0028    0.0003   -0.1713   -0.0016   -0.0023    0.0153    0.0039
          44    0.0224    0.0024   -0.0005    0.0426    0.0010    0.0006    0.0620   -0.0170
          45   -0.0010   -0.0036    0.0007   -0.0197   -0.0004   -0.0004    0.0157   -0.0466
          46    0.0390   -0.0023    0.0003   -0.1987   -0.0012   -0.0016    0.0070    0.0240
          47   -0.0131    0.0023   -0.0002    0.0517    0.0009    0.0002    0.0276    0.0642
          48    0.0077   -0.0036    0.0007   -0.0213   -0.0005   -0.0004    0.0052   -0.0275
          49    0.2523   -0.0001   -0.0002   -0.4609   -0.0008   -0.0007   -0.0025    0.0021
          50   -0.0612    0.0013    0.0000    0.1131    0.0006    0.0003    0.0044    0.0043
          51    0.0245   -0.0020    0.0003   -0.0383    0.0002   -0.0010    0.0659    0.0415
          52    0.0045    0.0031   -0.0003    0.4969    0.0019    0.0004    0.0737    0.0187
          53    0.0007    0.0005    0.0000   -0.1184    0.0005    0.0006    0.1442    0.0674
          54    0.0044   -0.0030   -0.0001    0.0355   -0.0008   -0.0010   -0.4240   -0.0624
          55   -0.4553    0.0033   -0.0007    0.0409    0.0013    0.0028    0.0385   -0.0344
          56    0.1154    0.0004   -0.0004   -0.0163   -0.0004   -0.0002    0.3558   -0.1687
          57   -0.0345   -0.0027   -0.0001   -0.0015   -0.0003    0.0000    0.6104   -0.1194
          58   -0.4808   -0.0046    0.0008    0.0490    0.0004    0.0058   -0.0352   -0.1326
          59    0.1187    0.0030   -0.0007   -0.0126    0.0006   -0.0011   -0.0453   -0.3133
          60   -0.0383   -0.0040    0.0009   -0.0001   -0.0005   -0.0001    0.2571    0.5751
          61    0.0073   -0.0037    0.0009    0.4993    0.0006    0.0030   -0.0153   -0.0078
          62   -0.0010    0.0023   -0.0001   -0.1250   -0.0001   -0.0002   -0.1505   -0.1272
          63    0.0106   -0.0043    0.0011    0.0322   -0.0012    0.0011   -0.2609   -0.3227
          64    0.6184   -0.0013    0.0002    0.2615    0.0007    0.0042   -0.0669    0.1497
          65   -0.1563    0.0021   -0.0009   -0.0588    0.0006   -0.0006   -0.3031    0.5774
          66    0.0618   -0.0036    0.0004    0.0195   -0.0003    0.0003   -0.0969   -0.0666
          67    0.0092    0.0076   -0.0085   -0.0111   -0.0021   -0.0079   -0.0022   -0.0012
          68   -0.0071    0.0112    0.0019    0.0038    0.0021   -0.0052   -0.0026   -0.0020
          69    0.0115   -0.0204   -0.0062   -0.0020    0.0071    0.0082   -0.0034   -0.0008
          70    0.0037   -0.0025   -0.0045   -0.0186    0.0069    0.0032   -0.0064   -0.0036
          71    0.0230   -0.0267   -0.0018   -0.0076   -0.0144    0.0071    0.0022    0.0009
          72   -0.0334    0.0360    0.0032    0.0212    0.0136   -0.0094   -0.0038   -0.0029
          73   -0.0302   -0.0045    0.0209    0.0331   -0.0245    0.0033    0.0066    0.0035
          74   -0.0070    0.0117    0.0056    0.0024    0.0016   -0.0015   -0.0018   -0.0016
          75   -0.0148    0.0226   -0.0027    0.0039    0.0121   -0.0036   -0.0031   -0.0027


   Root No.      25        26        27        28        29        30        31        32

                25 A      26 A      27 A      28 A      29 A      30 A      31 A      32 A   

                   1.0       1.0       1.0       1.0       1.1       1.2       1.4       1.5
  
           1   -0.0408    0.0021   -0.0775   -0.0051   -0.0008   -0.0279    0.0996    0.0000
           2    0.1030   -0.0001   -0.0295   -0.0031   -0.0004   -0.0802    0.0276   -0.0000
           3    0.0500    0.0026   -0.1819   -0.0157   -0.0016   -0.0028   -0.0565    0.0001
           4   -0.0539    0.0025   -0.0949   -0.0064   -0.0010   -0.0322    0.1354    0.0000
           5   -0.4366   -0.0074    0.3279    0.0244    0.0043   -0.1217   -0.3819   -0.0003
           6    0.0611   -0.0008    0.0631    0.0063    0.0007    0.0868    0.1676    0.0000
           7   -0.0992    0.0007   -0.0103   -0.0001   -0.0001   -0.0375   -0.2463   -0.0003
           8    0.0546    0.0006   -0.0630   -0.0059   -0.0010   -0.2092    0.1801    0.0004
           9   -0.0112    0.0016   -0.1126   -0.0113   -0.0007    0.0582   -0.1215   -0.0003
          10   -0.0758    0.0016   -0.0784   -0.0062   -0.0009    0.0091   -0.2691   -0.0003
          11   -0.1467    0.0020   -0.1082   -0.0082   -0.0007   -0.1369   -0.2419    0.0001
          12   -0.0671   -0.0004    0.0401    0.0028    0.0014   -0.1076   -0.1199   -0.0002
          13    0.0857    0.0011   -0.1170   -0.0113   -0.0015   -0.1855    0.0545    0.0002
          14    0.1585    0.0009   -0.1311   -0.0130   -0.0020   -0.3121    0.3823    0.0006
          15    0.0400    0.0001    0.0031   -0.0006   -0.0007   -0.2163    0.1372   -0.0004
          16   -0.1588    0.0024   -0.0889   -0.0061   -0.0009    0.0566    0.2831    0.0002
          17    0.1429    0.0016   -0.0672   -0.0042   -0.0006    0.4256   -0.0248    0.0002
          18   -0.1119   -0.0032    0.1438    0.0115    0.0015   -0.1395    0.0298   -0.0002
          19   -0.0607    0.0010   -0.0064    0.0009    0.0001   -0.1337   -0.1027   -0.0001
          20    0.0370    0.0002   -0.0359   -0.0039   -0.0006   -0.1189    0.0694    0.0000
          21    0.0308    0.0036   -0.2302   -0.0205   -0.0020    0.1007   -0.1164   -0.0002
          22    0.1837   -0.0096    0.4479    0.0338    0.0043    0.1573    0.1053    0.0001
          23   -0.1821   -0.0006   -0.0008   -0.0023    0.0006    0.2752    0.0307   -0.0004
          24    0.0416    0.0043   -0.2504   -0.0215   -0.0017    0.1340   -0.1372   -0.0001
          25   -0.0644   -0.0023    0.1679    0.0149    0.0017   -0.1728   -0.0592   -0.0003
          26   -0.3145    0.0022    0.0337    0.0080   -0.0001    0.4537    0.2401   -0.0001
          27    0.1581   -0.0125    0.6025    0.0459    0.0050    0.0339    0.1238   -0.0005
          28   -0.1542    0.0021   -0.0790   -0.0053   -0.0007    0.0718    0.2126    0.0002
          29    0.1641   -0.0007    0.0092    0.0004    0.0000   -0.1235   -0.0433   -0.0002
          30   -0.0238    0.0010   -0.0905   -0.0076   -0.0005    0.0235   -0.0128    0.0000
          31    0.4396    0.0014   -0.0396   -0.0021    0.0008    0.2932   -0.2080    0.0001
          32    0.4184   -0.0018    0.0708    0.0056    0.0011   -0.0509   -0.2333   -0.0002
          33   -0.1694   -0.0003   -0.0115   -0.0004   -0.0001    0.0306    0.0987    0.0003
          34   -0.0003   -0.0444    0.0022   -0.0260    0.0095   -0.0007   -0.0001    0.0181
          35   -0.0001   -0.0956   -0.0056    0.0419   -0.0209    0.0007   -0.0005    0.2341
          36   -0.0001   -0.0010    0.0021   -0.0010   -0.1355    0.0000   -0.0003    0.1985
          37   -0.0011   -0.1586    0.0230   -0.3285    0.0180    0.0012    0.0004   -0.0820
          38    0.0002   -0.1072   -0.0136    0.1341    0.0237    0.0001   -0.0005   -0.1676
          39   -0.0002    0.0204    0.0060   -0.0459   -0.1504    0.0002   -0.0003    0.1972
          40   -0.0010   -0.1547    0.0272   -0.3864    0.0161    0.0018    0.0007   -0.0306
          41    0.0001   -0.0558   -0.0116    0.1319   -0.0018   -0.0004   -0.0002   -0.1111
          42   -0.0001   -0.0222    0.0033   -0.0277   -0.2024    0.0007   -0.0011    0.0087
          43   -0.0006   -0.1441    0.0224   -0.3238    0.0033    0.0015    0.0005   -0.0179
          44    0.0001   -0.1207   -0.0124    0.1332   -0.0193   -0.0005    0.0004   -0.2017
          45   -0.0000   -0.0565    0.0007   -0.0057   -0.1437    0.0004   -0.0000   -0.1848
          46    0.0002   -0.0316    0.0012   -0.0175    0.0115   -0.0003   -0.0001    0.0894
          47   -0.0002   -0.1011   -0.0046    0.0336    0.0261   -0.0000    0.0003    0.1967
          48    0.0001   -0.0181    0.0008    0.0052   -0.1461    0.0001    0.0001   -0.2121
          49    0.0014    0.1338   -0.0308    0.4388    0.0103   -0.0026   -0.0007    0.0356
          50   -0.0004   -0.1107    0.0039   -0.0799    0.0004    0.0007    0.0002    0.1105
          51    0.0001   -0.0032   -0.0000    0.0402   -0.1778   -0.0006    0.0005   -0.0071
          52   -0.0008    0.0355    0.0091   -0.1004   -0.1156    0.0005   -0.0008    0.0732
          53    0.0001    0.1071    0.0059   -0.0144   -0.3449    0.0006   -0.0012    0.3423
          54   -0.0004   -0.4115   -0.0216    0.1341    0.4036   -0.0000    0.0006    0.2274
          55    0.0005    0.0769   -0.0240    0.3084    0.0467   -0.0011   -0.0007   -0.0713
          56   -0.0000   -0.0455    0.0006   -0.0645    0.2649    0.0004    0.0000   -0.2615
          57    0.0003    0.2936    0.0091   -0.0730    0.2042   -0.0004   -0.0001    0.2363
          58    0.0014    0.1002   -0.0219    0.2881   -0.0859   -0.0005    0.0004   -0.0593
          59   -0.0006   -0.1116    0.0046   -0.0388   -0.2496   -0.0000    0.0002   -0.2863
          60    0.0004   -0.2401   -0.0186    0.1173    0.2928    0.0006    0.0005   -0.2199
          61    0.0001   -0.0230    0.0037   -0.0865    0.0671    0.0009    0.0007    0.0857
          62    0.0001    0.2128    0.0059   -0.0552    0.3516   -0.0008    0.0006    0.3146
          63    0.0005    0.4633    0.0187   -0.1610    0.2864   -0.0004    0.0008   -0.2505
          64    0.0010    0.2063   -0.0158    0.2319    0.0157   -0.0011    0.0000   -0.0418
          65    0.0001    0.4286    0.0264   -0.2187   -0.0349   -0.0003   -0.0001   -0.1721
          66    0.0000   -0.0218   -0.0020    0.0395   -0.2540    0.0008   -0.0016    0.0134
          67   -0.0047    0.0032    0.0050    0.0076    0.0039    0.0031   -0.0080    0.0002
          68   -0.0016    0.0006    0.0029   -0.0016    0.0062    0.0018   -0.0040    0.0015
          69    0.0015    0.0030    0.0087    0.0029    0.0048    0.0026    0.0073    0.0014
          70   -0.0022    0.0060    0.0058    0.0031    0.0123    0.0043   -0.0009   -0.0014
          71    0.0018    0.0008   -0.0086   -0.0002   -0.0062   -0.0023   -0.0030   -0.0005
          72   -0.0001   -0.0032    0.0067   -0.0111    0.0106   -0.0037    0.0000   -0.0023
          73    0.0048   -0.0085   -0.0309   -0.0158   -0.0138   -0.0052    0.0034    0.0022
          74    0.0018    0.0013    0.0002    0.0008    0.0040   -0.0012    0.0025    0.0011
          75   -0.0002    0.0012    0.0106   -0.0024    0.0063   -0.0018    0.0007   -0.0048


   Root No.      33        34        35        36        37        38        39        40

                33 A      34 A      35 A      36 A      37 A      38 A      39 A      40 A   

                   1.6       1.8       1.8       1.9       2.0       2.6       3.0       3.0
  
           1    0.0003    0.0018   -0.1881   -0.1412   -0.0026    0.0927   -0.0000   -0.0001
           2    0.0003    0.0009   -0.2160    0.0857    0.0054   -0.2125   -0.0000    0.0004
           3    0.0003   -0.0008   -0.2487    0.3791    0.0140    0.0870   -0.0009   -0.0009
           4    0.0003    0.0028   -0.2925   -0.2255   -0.0057    0.1775   -0.0003   -0.0007
           5   -0.0001   -0.0004    0.0823   -0.0109   -0.0027    0.1939   -0.0002   -0.0005
           6   -0.0004    0.0004    0.0970   -0.1541   -0.0040   -0.0778   -0.0000   -0.0001
           7   -0.0003   -0.0009    0.0233    0.0437   -0.0018   -0.2021    0.0003    0.0010
           8    0.0001   -0.0002    0.1308    0.0385   -0.0047    0.1293   -0.0002   -0.0002
           9   -0.0005    0.0000    0.0204   -0.1433   -0.0062   -0.0564   -0.0004   -0.0019
          10   -0.0004   -0.0011    0.0249   -0.0400   -0.0034   -0.2128    0.0002    0.0004
          11    0.0001   -0.0025    0.2653   -0.0072   -0.0040   -0.3165    0.0003    0.0007
          12   -0.0002   -0.0002    0.0613    0.0650   -0.0004   -0.1531   -0.0000    0.0001
          13   -0.0004   -0.0009    0.1713   -0.0064   -0.0049   -0.1050    0.0002    0.0001
          14    0.0000   -0.0003    0.2403    0.0177   -0.0054    0.2054   -0.0002   -0.0008
          15   -0.0002   -0.0008    0.1179    0.0811    0.0016    0.0041   -0.0001   -0.0003
          16    0.0006    0.0004   -0.0159    0.0077    0.0021   -0.3599    0.0006    0.0014
          17   -0.0004   -0.0034    0.3818    0.1197   -0.0011    0.0113   -0.0002   -0.0001
          18   -0.0004    0.0013    0.0195   -0.2755   -0.0093    0.0243   -0.0004   -0.0004
          19    0.0001   -0.0000   -0.0034    0.0692    0.0025    0.2250    0.0001    0.0000
          20   -0.0001    0.0000    0.0275    0.0015   -0.0009   -0.0587   -0.0001   -0.0001
          21   -0.0005   -0.0004   -0.0333   -0.1834   -0.0061    0.0856   -0.0008   -0.0014
          22    0.0001    0.0009   -0.0150   -0.0597    0.0053   -0.1015    0.0002    0.0004
          23    0.0001   -0.0008   -0.1452    0.1479    0.0178    0.0822   -0.0005   -0.0009
          24   -0.0005    0.0011   -0.0540   -0.2748   -0.0198    0.1928   -0.0005   -0.0003
          25    0.0001   -0.0001    0.0149    0.1809    0.0091    0.4700    0.0000   -0.0003
          26   -0.0002    0.0013   -0.1460   -0.0894   -0.0006    0.1280   -0.0003   -0.0006
          27   -0.0002   -0.0000   -0.0149    0.0820    0.0057   -0.1108   -0.0002   -0.0005
          28    0.0006   -0.0000    0.0302    0.0340    0.0010   -0.1688    0.0003    0.0007
          29    0.0002    0.0022   -0.3721    0.0108    0.0054   -0.1349    0.0003    0.0002
          30    0.0005   -0.0011   -0.2071    0.5506    0.0218   -0.0431    0.0005   -0.0004
          31    0.0004   -0.0024    0.2520    0.1420    0.0007    0.1836   -0.0001   -0.0001
          32   -0.0002    0.0024   -0.2489   -0.3119   -0.0069   -0.0266   -0.0001    0.0001
          33   -0.0003   -0.0007    0.2414   -0.1303   -0.0079    0.0459   -0.0004   -0.0003
          34   -0.4024    0.0386    0.0005    0.0005    0.0038   -0.0014   -0.0596   -0.4016
          35    0.0893    0.1228    0.0003    0.0001    0.0007    0.0003    0.2192    0.0159
          36   -0.0423   -0.1031   -0.0006   -0.0003   -0.0080    0.0002    0.0652    0.0104
          37   -0.4378    0.0731    0.0002    0.0006   -0.0000   -0.0002   -0.0237   -0.1304
          38    0.1198    0.2537    0.0015    0.0007    0.0054   -0.0000    0.0149    0.0572
          39   -0.0518   -0.0819   -0.0005   -0.0003   -0.0060    0.0002   -0.0031    0.0276
          40    0.0124   -0.0212   -0.0006   -0.0003   -0.0057    0.0016    0.1611    0.5898
          41    0.0060    0.0183    0.0001    0.0002   -0.0036   -0.0001   -0.0213   -0.0815
          42    0.0004    0.3205    0.0020    0.0008    0.0084   -0.0001   -0.1321    0.0854
          43    0.4489   -0.0583   -0.0005   -0.0008   -0.0033    0.0005   -0.0340   -0.1306
          44   -0.1019   -0.2580   -0.0017   -0.0005   -0.0130    0.0003    0.0120    0.0610
          45    0.0494   -0.0580   -0.0001   -0.0003   -0.0030   -0.0001   -0.0193   -0.0468
          46    0.3900   -0.0315    0.0001   -0.0002    0.0034   -0.0010   -0.1540   -0.3723
          47   -0.1080   -0.1366   -0.0011   -0.0002   -0.0017   -0.0001   -0.1891    0.1074
          48    0.0410   -0.0926   -0.0002   -0.0003   -0.0017   -0.0004    0.0378   -0.1059
          49   -0.0119    0.0166    0.0005    0.0006    0.0057   -0.0001    0.0946    0.3388
          50   -0.0011   -0.0138   -0.0003   -0.0001    0.0015   -0.0004   -0.0428   -0.1340
          51   -0.0054   -0.2915   -0.0015   -0.0006   -0.0040   -0.0004   -0.1621    0.0674
          52    0.2215    0.0296    0.0004   -0.0002   -0.0039    0.0002    0.1256    0.0820
          53   -0.0733    0.1089    0.0001    0.0005   -0.0077    0.0005    0.4912   -0.1239
          54    0.0194   -0.0210    0.0001   -0.0005    0.0052   -0.0003    0.2618   -0.0854
          55    0.2521    0.1059    0.0012   -0.0000    0.0041   -0.0003    0.0198    0.0497
          56   -0.0488    0.3950    0.0024    0.0014    0.0136   -0.0006    0.0274   -0.0403
          57    0.0068   -0.1008   -0.0003   -0.0006   -0.0002   -0.0003   -0.0060   -0.0325
          58   -0.2487   -0.0927   -0.0012    0.0000   -0.0026    0.0007    0.0041    0.0542
          59    0.0747   -0.3969   -0.0022   -0.0011   -0.0188    0.0004   -0.0385   -0.0033
          60   -0.0106   -0.0641   -0.0004   -0.0006   -0.0110    0.0008    0.0254    0.0483
          61   -0.2223   -0.0251   -0.0009   -0.0000   -0.0014    0.0009   -0.1123    0.1405
          62    0.0399   -0.1210   -0.0009   -0.0004   -0.0012   -0.0001   -0.4586    0.1206
          63   -0.0069   -0.0113    0.0001   -0.0003   -0.0049    0.0004    0.3094   -0.0414
          64   -0.0043   -0.0394   -0.0002   -0.0002    0.0019   -0.0005   -0.0256   -0.2235
          65    0.0039    0.0259    0.0004    0.0003    0.0034   -0.0004   -0.0157    0.0230
          66    0.0003    0.4750    0.0030    0.0012    0.0141   -0.0002   -0.3886    0.0865
          67   -0.0002    0.0064   -0.0021    0.0028   -0.0926   -0.0030    0.0009    0.0019
          68    0.0005    0.0144   -0.0038    0.0107   -0.2985   -0.0040   -0.0004   -0.0040
          69    0.0002    0.0175   -0.0089    0.0209   -0.5024    0.0004   -0.0032   -0.0025
          70    0.0004    0.0117   -0.0011    0.0011   -0.0120   -0.0011    0.0035    0.0018
          71   -0.0015   -0.0234    0.0092   -0.0244    0.6170    0.0012    0.0038    0.0037
          72    0.0008    0.0111    0.0021   -0.0038    0.1424    0.0019    0.0041   -0.0057
          73    0.0007   -0.0141    0.0021   -0.0086    0.1003    0.0049   -0.0021   -0.0033
          74    0.0006    0.0114   -0.0036    0.0106   -0.2994    0.0020   -0.0010   -0.0001
          75    0.0011    0.0014    0.0058   -0.0116    0.3815   -0.0005    0.0140    0.0010


   Root No.      41        42        43        44        45        46        47        48

                41 A      42 A      43 A      44 A      45 A      46 A      47 A      48 A   

                   3.2       3.2       3.6       3.7       4.1       4.2       5.0       5.2
  
           1   -0.0007    0.1625    0.0002    0.0372   -0.0056   -0.0001   -0.0294    0.0002
           2    0.0011   -0.2350    0.0001    0.1825    0.0951   -0.0028    0.1442   -0.0009
           3   -0.0002   -0.1022    0.0000    0.5780    0.2537   -0.0063   -0.1452    0.0004
           4   -0.0021    0.4690    0.0001    0.1850   -0.0338   -0.0011    0.2245   -0.0009
           5   -0.0003    0.0722    0.0002   -0.0415   -0.0174    0.0006   -0.0306    0.0004
           6   -0.0001    0.0259    0.0001   -0.1413   -0.0535    0.0015    0.0317   -0.0001
           7    0.0006   -0.0668   -0.0003    0.1386   -0.2999    0.0035    0.1442   -0.0004
           8    0.0005   -0.0986    0.0001    0.0090   -0.1723    0.0021    0.2501   -0.0007
           9   -0.0005    0.0392   -0.0002   -0.3010    0.6581   -0.0085    0.2374   -0.0015
          10    0.0003   -0.0290   -0.0004   -0.0151    0.0509   -0.0007    0.2519   -0.0013
          11   -0.0009    0.3068    0.0002    0.0274    0.0767   -0.0011   -0.2657    0.0009
          12   -0.0000    0.0194    0.0000    0.1139   -0.1899    0.0018    0.0156    0.0002
          13   -0.0008    0.2543   -0.0006   -0.0002    0.1283   -0.0021   -0.3161    0.0009
          14   -0.0005    0.1175   -0.0001   -0.0607    0.0455   -0.0006   -0.0350    0.0003
          15   -0.0005    0.0922   -0.0001    0.0983   -0.1674    0.0024   -0.1685    0.0010
          16    0.0019   -0.3667    0.0005   -0.1445    0.0426    0.0005   -0.2867    0.0014
          17    0.0003   -0.0568   -0.0003    0.0435    0.0171   -0.0001   -0.0187   -0.0001
          18   -0.0001   -0.0558    0.0001    0.1333    0.0426   -0.0011   -0.0057   -0.0001
          19    0.0005   -0.1403    0.0001   -0.0443    0.0084    0.0001    0.0419   -0.0002
          20    0.0009   -0.2031   -0.0001   -0.0154   -0.0537    0.0005    0.4254   -0.0018
          21   -0.0005   -0.0820   -0.0000   -0.0383    0.0010    0.0027    0.0388    0.0004
          22    0.0002    0.0349    0.0000    0.0143   -0.0656    0.0005   -0.0055   -0.0000
          23   -0.0002    0.0361   -0.0002    0.1231   -0.0564    0.0008   -0.1065    0.0009
          24    0.0005   -0.1992    0.0002   -0.1543   -0.4324    0.0074   -0.1864    0.0012
          25    0.0012   -0.3272    0.0001   -0.2004    0.1916   -0.0011   -0.1766    0.0005
          26   -0.0004    0.1126   -0.0004   -0.0215    0.0600   -0.0006   -0.0898    0.0003
          27   -0.0002    0.0555   -0.0002    0.0385    0.0350   -0.0008    0.0320   -0.0002
          28    0.0007   -0.1161    0.0005   -0.0270    0.0027   -0.0002    0.0280   -0.0001
          29    0.0003    0.0257   -0.0002   -0.2149   -0.0561    0.0015    0.0619   -0.0003
          30   -0.0006    0.2666   -0.0002   -0.4862   -0.1667    0.0045    0.0268    0.0001
          31   -0.0006    0.1270    0.0005    0.0565   -0.0206   -0.0003    0.1238   -0.0004
          32    0.0003   -0.0761    0.0001   -0.0304    0.0583    0.0003   -0.3362    0.0015
          33   -0.0000   -0.0578    0.0002    0.1589    0.0222   -0.0011    0.1199   -0.0007
          34   -0.0080   -0.0007   -0.4880   -0.0003   -0.0007   -0.0477    0.0015    0.3741
          35   -0.1699   -0.0009    0.1241   -0.0004   -0.0018   -0.1151   -0.0003   -0.0915
          36    0.3235    0.0012   -0.0523    0.0009    0.0026    0.1828    0.0006    0.0343
          37    0.0555    0.0001    0.4414   -0.0001   -0.0004    0.0063   -0.0017   -0.4257
          38    0.1741    0.0008   -0.1099    0.0007    0.0017    0.0875    0.0009    0.1074
          39    0.2691    0.0010    0.0388    0.0002    0.0010    0.0721    0.0002   -0.0403
          40   -0.0214    0.0004   -0.0025    0.0001    0.0016    0.0146    0.0024    0.4410
          41    0.3599    0.0014   -0.0084    0.0001    0.0000   -0.0068   -0.0001   -0.1017
          42   -0.0183   -0.0001    0.0001   -0.0001   -0.0004   -0.0254    0.0001    0.0380
          43    0.0826   -0.0000   -0.4408   -0.0002   -0.0011   -0.0297   -0.0020   -0.4282
          44    0.1489    0.0005    0.1086   -0.0004   -0.0007   -0.0661    0.0007    0.1089
          45   -0.2735   -0.0013   -0.0384    0.0000    0.0004    0.0602   -0.0002   -0.0413
          46    0.0529    0.0001    0.4885   -0.0001    0.0005    0.0187    0.0017    0.3724
          47   -0.2018   -0.0009   -0.1141    0.0003    0.0018    0.1420    0.0002   -0.0933
          48   -0.3011   -0.0012    0.0504    0.0007    0.0021    0.1844    0.0003    0.0275
          49   -0.1453   -0.0002   -0.0031   -0.0003    0.0008   -0.0327   -0.0002   -0.2784
          50   -0.3153   -0.0015    0.0014   -0.0001   -0.0000    0.0185    0.0005    0.0711
          51    0.0060    0.0005   -0.0023    0.0024    0.0074    0.5221    0.0006   -0.0300
          52    0.0348   -0.0001    0.1409   -0.0001    0.0001   -0.0016   -0.0000   -0.0522
          53    0.1450    0.0005   -0.0445    0.0006   -0.0003   -0.0222   -0.0006    0.0143
          54   -0.1928   -0.0008    0.0134    0.0000   -0.0007   -0.0366   -0.0004   -0.0066
          55   -0.0066   -0.0002   -0.1165    0.0006    0.0021    0.1206    0.0007    0.0625
          56   -0.0609    0.0004    0.0338    0.0021    0.0052    0.3661   -0.0001   -0.0239
          57   -0.2180   -0.0012   -0.0094   -0.0017   -0.0044   -0.2933   -0.0002    0.0098
          58   -0.0379    0.0000    0.1198   -0.0005   -0.0008   -0.0738    0.0001    0.0656
          59   -0.0387   -0.0006   -0.0271   -0.0022   -0.0061   -0.4029   -0.0010   -0.0170
          60    0.2275    0.0005    0.0096   -0.0011   -0.0038   -0.2706   -0.0004    0.0081
          61    0.0072    0.0002   -0.1417   -0.0001    0.0001    0.0075   -0.0005   -0.0552
          62    0.1725    0.0008    0.0344   -0.0001    0.0004    0.0192   -0.0003    0.0067
          63    0.1673    0.0004   -0.0141    0.0005   -0.0002   -0.0323    0.0003    0.0009
          64   -0.0165   -0.0003    0.0011   -0.0000    0.0002    0.0225   -0.0003   -0.0749
          65   -0.2189   -0.0006    0.0027   -0.0002   -0.0003   -0.0183   -0.0001    0.0179
          66    0.0137   -0.0001    0.0030   -0.0016   -0.0051   -0.3455   -0.0007   -0.0031
          67   -0.0005   -0.0019   -0.0002    0.0003   -0.0031   -0.0024    0.0008   -0.0012
          68   -0.0044   -0.0012    0.0002    0.0001    0.0045   -0.0025    0.0029    0.0021
          69   -0.0047    0.0010   -0.0000    0.0013    0.0019    0.0029   -0.0016    0.0004
          70    0.0057    0.0001   -0.0002    0.0009   -0.0034   -0.0101   -0.0003   -0.0011
          71    0.0119   -0.0005   -0.0008   -0.0003   -0.0030   -0.0033    0.0016    0.0001
          72    0.0010   -0.0024   -0.0002   -0.0035   -0.0020   -0.0156    0.0069    0.0035
          73   -0.0035    0.0011    0.0006   -0.0005    0.0050    0.0088   -0.0021    0.0018
          74   -0.0034    0.0004    0.0003   -0.0014    0.0019    0.0034   -0.0033   -0.0015
          75    0.0023    0.0006    0.0014    0.0023   -0.0012   -0.0073   -0.0019   -0.0019


   Root No.      49        50        51        52        53        54        55        56

                49 A      50 A      51 A      52 A      53 A      54 A      55 A      56 A   

                   6.1       6.7       7.0       7.5       8.1       8.2       8.4       8.9
  
           1    0.0001   -0.0281    0.0036    0.0005    0.4077   -0.3271    0.0010   -0.0910
           2    0.0007    0.4150    0.0373    0.0008    0.0234    0.0287    0.0001   -0.0829
           3   -0.0004   -0.0965   -0.0235   -0.0013   -0.0864   -0.1043    0.0006    0.0351
           4    0.0000    0.0152   -0.0047   -0.0007   -0.4123    0.3133   -0.0011    0.0747
           5   -0.0003   -0.0720   -0.0064   -0.0001    0.0010   -0.0061   -0.0000    0.0520
           6   -0.0002    0.0186    0.0043    0.0002    0.0154    0.0198    0.0004   -0.0203
           7   -0.0000   -0.1365   -0.0158   -0.0004   -0.0596   -0.0113   -0.0001   -0.1568
           8   -0.0001   -0.2888   -0.0379   -0.0017   -0.1302   -0.1576    0.0005   -0.2262
           9    0.0007   -0.0070   -0.0247   -0.0016   -0.1660   -0.2067    0.0006   -0.0225
          10    0.0004   -0.1443   -0.0253   -0.0010   -0.1362   -0.1208    0.0002   -0.1822
          11   -0.0003    0.1630    0.0133    0.0005    0.0064    0.0632    0.0001    0.0331
          12   -0.0001   -0.0519   -0.0029   -0.0003   -0.0234    0.0118    0.0002   -0.0924
          13   -0.0002    0.2150    0.0249    0.0007    0.0702    0.0851   -0.0001    0.1259
          14   -0.0002   -0.1546   -0.0194   -0.0009   -0.0399   -0.1286    0.0003   -0.0873
          15   -0.0002    0.0267    0.0072    0.0005    0.0513    0.0519    0.0000    0.0130
          16   -0.0004   -0.2603   -0.0288   -0.0010   -0.2579    0.1483   -0.0009    0.2866
          17   -0.0002   -0.0323   -0.0048   -0.0001   -0.0529    0.0283   -0.0001    0.0124
          18   -0.0003    0.0193    0.0008   -0.0000    0.0119   -0.0201    0.0005   -0.0049
          19    0.0001   -0.1515   -0.0164   -0.0002    0.2356   -0.2947    0.0002    0.5738
          20    0.0006    0.0989    0.0241    0.0015    0.0291    0.2682   -0.0012    0.3438
          21   -0.0012   -0.2496    0.0443    0.0045    0.5061    0.5367   -0.0009   -0.0715
          22    0.0001    0.0120    0.0027    0.0002    0.0169    0.0400   -0.0001   -0.0228
          23   -0.0002   -0.0259    0.0002    0.0002    0.0234    0.0024   -0.0001   -0.0130
          24    0.0003    0.3378   -0.0041   -0.0018   -0.2819   -0.2595    0.0010    0.0701
          25    0.0000    0.2408    0.0330    0.0010   -0.1200    0.3039   -0.0006   -0.2889
          26   -0.0001   -0.0094   -0.0029   -0.0000    0.0362   -0.0492    0.0001    0.0038
          27    0.0000   -0.0109   -0.0065   -0.0003   -0.0105   -0.0754    0.0004    0.0769
          28    0.0002    0.1397    0.0166    0.0006    0.2301   -0.1391    0.0008   -0.4011
          29    0.0005    0.2540    0.0304    0.0011    0.1816   -0.0565    0.0002    0.0945
          30   -0.0005   -0.1166   -0.0078   -0.0001   -0.0450    0.0511    0.0004   -0.0321
          31    0.0003    0.0994    0.0099    0.0002    0.0225   -0.0016   -0.0001    0.0817
          32   -0.0010   -0.3477   -0.0340   -0.0009   -0.0798    0.0048    0.0001   -0.1299
          33   -0.0001    0.1287    0.0130    0.0004    0.0350    0.0031    0.0005    0.0478
          34   -0.0491    0.0002    0.0018   -0.0377    0.0001    0.0001    0.0573    0.0004
          35   -0.2061    0.0003   -0.0007   -0.1870    0.0010    0.0018    0.2996    0.0009
          36    0.0533    0.0004   -0.0019   -0.1158    0.0001    0.0005    0.1938   -0.0002
          37   -0.0486   -0.0000   -0.0006   -0.0294    0.0003   -0.0001   -0.0836   -0.0001
          38   -0.2227    0.0009   -0.0030   -0.2071    0.0015    0.0008   -0.2037    0.0001
          39   -0.1010    0.0006   -0.0007   -0.2304    0.0009    0.0014    0.3034    0.0006
          40   -0.0774    0.0002   -0.0003    0.0319   -0.0002   -0.0005   -0.0597   -0.0001
          41   -0.3189    0.0005   -0.0014   -0.0195    0.0004   -0.0005   -0.2508   -0.0003
          42    0.0087    0.0006   -0.0032   -0.4253    0.0030    0.0028    0.0062    0.0003
          43   -0.0658   -0.0003    0.0011    0.0706   -0.0004   -0.0006   -0.0317   -0.0000
          44   -0.2103    0.0002    0.0006    0.1919   -0.0015   -0.0021   -0.2382   -0.0004
          45    0.1139    0.0006   -0.0027   -0.2472    0.0010   -0.0001   -0.2991   -0.0006
          46   -0.0413    0.0002   -0.0008    0.0523   -0.0004   -0.0001    0.0847    0.0001
          47   -0.2064    0.0008   -0.0054    0.1742   -0.0014   -0.0006    0.2829   -0.0002
          48   -0.0365    0.0012   -0.0033   -0.1190    0.0000   -0.0011   -0.2169   -0.0000
          49   -0.0707   -0.0002   -0.0035   -0.0238    0.0004    0.0003    0.0259   -0.0007
          50   -0.2522    0.0006   -0.0027    0.0141   -0.0001    0.0002    0.0914    0.0000
          51    0.0148    0.0001   -0.0015    0.3440   -0.0021   -0.0021    0.0002   -0.0005
          52    0.0649   -0.0000   -0.0007    0.0327   -0.0002   -0.0004   -0.0485   -0.0002
          53    0.3328   -0.0006   -0.0004    0.1918   -0.0007   -0.0011   -0.2537   -0.0007
          54    0.1720   -0.0006    0.0010    0.1629   -0.0005   -0.0008   -0.1503   -0.0004
          55    0.1019   -0.0001    0.0006    0.0162   -0.0004   -0.0002    0.0785   -0.0000
          56    0.3440   -0.0004    0.0012    0.0564   -0.0008    0.0001    0.2575    0.0001
          57   -0.1734    0.0002   -0.0009   -0.0247    0.0007    0.0002   -0.1442   -0.0000
          58    0.0756   -0.0003    0.0006   -0.0148    0.0002    0.0004    0.0566    0.0001
          59    0.3569   -0.0010    0.0019   -0.0675    0.0009    0.0020    0.2748    0.0003
          60    0.1438   -0.0008    0.0015   -0.0232    0.0006    0.0010    0.1280    0.0002
          61    0.0930   -0.0002    0.0016   -0.0577    0.0003    0.0001   -0.0740    0.0001
          62    0.3134   -0.0005    0.0054   -0.1718    0.0007    0.0000   -0.2424    0.0001
          63   -0.1932   -0.0000   -0.0023    0.1744   -0.0006   -0.0002    0.1723   -0.0001
          64    0.0164    0.0000   -0.0001   -0.0387    0.0001    0.0001   -0.0047    0.0000
          65    0.0683   -0.0000   -0.0000    0.0253   -0.0000   -0.0000   -0.0170   -0.0001
          66   -0.0007   -0.0015    0.0053    0.5123   -0.0025   -0.0022    0.0027   -0.0003
          67    0.0002    0.0012   -0.0117   -0.0007    0.0002    0.0015   -0.0002    0.0006
          68   -0.0036   -0.0389    0.4809   -0.0090   -0.0461   -0.0486    0.0011   -0.0379
          69   -0.0005   -0.0009   -0.0012    0.0006    0.0019    0.0017    0.0001    0.0006
          70    0.0027    0.0091   -0.1101   -0.0036    0.0047    0.0050   -0.0003   -0.0059
          71    0.0037    0.0138   -0.1620   -0.0007    0.0048    0.0042    0.0001   -0.0087
          72    0.0032    0.0451   -0.5440   -0.0063    0.0165    0.0129    0.0001   -0.0302
          73   -0.0024   -0.0112    0.1225    0.0028   -0.0015   -0.0015    0.0004    0.0059
          74    0.0018    0.0242   -0.3142    0.0085    0.0429    0.0464   -0.0018    0.0464
          75   -0.0027   -0.0434    0.5537   -0.0027   -0.0253   -0.0226   -0.0003    0.0314


   Root No.      57        58        59        60        61        62        63        64

                57 A      58 A      59 A      60 A      61 A      62 A      63 A      64 A   

                   9.0       9.7      10.8      11.3      11.6      14.6      16.3      16.6
  
           1    0.0032   -0.1710   -0.0005    0.0004    0.4927   -0.0001   -0.0001    0.0000
           2    0.0072   -0.0173    0.0002   -0.0006   -0.3815    0.0001    0.0000    0.0001
           3    0.0020    0.0145    0.0005    0.0017    0.1681   -0.0001   -0.0001    0.0000
           4   -0.0035    0.0837   -0.0000   -0.0005   -0.1680    0.0001    0.0000   -0.0000
           5   -0.0038   -0.0184   -0.0001   -0.0001   -0.0001    0.0000    0.0000    0.0000
           6    0.0007    0.0061    0.0005    0.0016    0.0006   -0.0000   -0.0001    0.0001
           7    0.0195   -0.0805    0.0001    0.0002   -0.0021   -0.0001    0.0002   -0.0002
           8    0.0234   -0.1398    0.0002   -0.0001   -0.0580    0.0001   -0.0005   -0.0001
           9    0.0186   -0.0098    0.0006    0.0005    0.0063    0.0000   -0.0001    0.0002
          10    0.0281   -0.1043    0.0004   -0.0001    0.0147    0.0000    0.0004    0.0003
          11   -0.0025    0.0306   -0.0001   -0.0000    0.0372    0.0001   -0.0001   -0.0000
          12    0.0022   -0.0499    0.0002    0.0008    0.0093   -0.0001    0.0001    0.0001
          13   -0.0257    0.0782   -0.0001    0.0001    0.0229    0.0000   -0.0004   -0.0001
          14    0.0122   -0.0867    0.0003   -0.0000   -0.0968   -0.0001    0.0006    0.0001
          15   -0.0021    0.0013    0.0001    0.0004   -0.0179   -0.0000   -0.0001    0.0001
          16   -0.0210   -0.2681   -0.0003   -0.0003    0.0469   -0.0000   -0.0000   -0.0001
          17   -0.0001    0.0220    0.0002    0.0003   -0.0137    0.0000    0.0000    0.0000
          18    0.0006   -0.0074    0.0007    0.0020    0.0047   -0.0000   -0.0001    0.0000
          19   -0.0365    0.2079    0.0003   -0.0008   -0.4067    0.0000   -0.0000    0.0001
          20   -0.0355    0.3641   -0.0004    0.0006    0.5451   -0.0000    0.0000    0.0001
          21   -0.0339   -0.1032   -0.0005    0.0017   -0.1899   -0.0001   -0.0003   -0.0003
          22   -0.0016   -0.0090   -0.0002   -0.0001    0.0087   -0.0000    0.0000   -0.0001
          23   -0.0005   -0.0172   -0.0001   -0.0006   -0.0134    0.0000    0.0001    0.0001
          24    0.0141    0.0712    0.0012    0.0004    0.0412    0.0000    0.0002    0.0004
          25    0.0129   -0.0751   -0.0003    0.0002    0.1149    0.0000    0.0000   -0.0001
          26   -0.0006   -0.0157    0.0001    0.0001   -0.0125   -0.0000    0.0000    0.0000
          27   -0.0020    0.0318    0.0006    0.0011   -0.0241    0.0000   -0.0001    0.0002
          28    0.0297    0.5088   -0.0001   -0.0007   -0.1408    0.0001    0.0000   -0.0001
          29   -0.0109   -0.4475   -0.0000    0.0002   -0.0391   -0.0000   -0.0000   -0.0000
          30    0.0021    0.1676    0.0007    0.0019    0.0138    0.0000   -0.0002    0.0000
          31   -0.0070   -0.1701   -0.0004   -0.0005    0.0179    0.0000   -0.0000    0.0000
          32    0.0111    0.3261    0.0001    0.0003    0.0325   -0.0000    0.0000   -0.0001
          33   -0.0046   -0.1228    0.0008    0.0023   -0.0131   -0.0000   -0.0002    0.0001
          34    0.0050    0.0000   -0.0203    0.0669   -0.0000    0.0917   -0.0352    0.0966
          35    0.0082   -0.0001   -0.1877    0.1562   -0.0002    0.4316   -0.2428    0.3231
          36   -0.0051    0.0000   -0.3353   -0.3378    0.0003    0.1716   -0.2839   -0.1990
          37    0.0004   -0.0000    0.1056   -0.0228    0.0001    0.0881   -0.0907   -0.0832
          38    0.0034   -0.0001    0.3927    0.1126    0.0001    0.2739   -0.2487   -0.3864
          39    0.0021    0.0001   -0.1354    0.3938   -0.0005   -0.2213    0.3270   -0.1450
          40   -0.0005    0.0000   -0.0471   -0.0597    0.0000    0.0250    0.1026   -0.0318
          41   -0.0019   -0.0001   -0.0765   -0.3165    0.0004   -0.0200    0.4089    0.0377
          42    0.0040   -0.0002    0.3668   -0.0963    0.0002   -0.3386   -0.0212    0.4712
          43   -0.0003    0.0000   -0.0436    0.0962   -0.0003   -0.0535   -0.0454    0.1028
          44   -0.0027    0.0002   -0.2882    0.2959   -0.0005   -0.2915   -0.2928    0.3537
          45   -0.0033   -0.0000   -0.3193   -0.2697    0.0001   -0.2086   -0.3075   -0.1759
          46   -0.0007   -0.0000    0.0630   -0.0310    0.0000   -0.1187   -0.0754   -0.0695
          47   -0.0071    0.0000    0.2305    0.0659    0.0001   -0.4083   -0.1989   -0.3469
          48   -0.0014    0.0002   -0.0966    0.4528   -0.0005    0.2105    0.3129   -0.1683
          49   -0.0085   -0.0001   -0.0466   -0.0777   -0.0000   -0.0255    0.0951   -0.0223
          50   -0.0006   -0.0001   -0.1078   -0.3921    0.0004    0.0102    0.3784    0.0210
          51   -0.0069    0.0000    0.3108   -0.1040    0.0004    0.3049   -0.0201    0.3212
          52   -0.0013    0.0000    0.0267    0.0106    0.0001   -0.0223    0.0077   -0.0099
          53   -0.0047    0.0001    0.1368    0.0346   -0.0001   -0.1170    0.0494   -0.0417
          54   -0.0021    0.0000    0.0876   -0.0042    0.0001   -0.0691    0.0497    0.0036
          55   -0.0004    0.0000   -0.0548    0.0132    0.0001   -0.0295    0.0208    0.0153
          56   -0.0025    0.0001   -0.1770    0.0399   -0.0001   -0.0943    0.0620    0.0588
          57    0.0016   -0.0001    0.1193   -0.0151    0.0001    0.0644   -0.0569   -0.0077
          58    0.0006   -0.0001    0.0353   -0.0126   -0.0001    0.0194    0.0124   -0.0141
          59    0.0025   -0.0001    0.1773   -0.0684    0.0002    0.0995    0.0692   -0.0566
          60    0.0016   -0.0000    0.0949   -0.0432    0.0000    0.0570    0.0522   -0.0004
          61    0.0012   -0.0000   -0.0270    0.0283   -0.0002    0.0341    0.0153    0.0103
          62    0.0044    0.0001   -0.0817    0.0955   -0.0002    0.1111    0.0432    0.0424
          63   -0.0029   -0.0000    0.0802   -0.0472    0.0001   -0.0776   -0.0541   -0.0009
          64    0.0004   -0.0000    0.0108   -0.0094   -0.0000   -0.0082   -0.0071    0.0070
          65   -0.0007   -0.0000   -0.0164   -0.0194    0.0001    0.0052   -0.0278   -0.0053
          66   -0.0028    0.0001   -0.1737    0.0500   -0.0001    0.1100    0.0030   -0.0981
          67    0.0201   -0.0003   -0.0005    0.0004    0.0007   -0.0007   -0.0001   -0.0006
          68   -0.5243    0.0030    0.0017    0.0006   -0.0007    0.0018    0.0000    0.0013
          69    0.0040   -0.0002    0.0005    0.0007   -0.0002    0.0003    0.0002    0.0005
          70   -0.0678   -0.0004   -0.0020    0.0023   -0.0002   -0.0009   -0.0011   -0.0012
          71   -0.1057   -0.0002   -0.0012   -0.0013   -0.0007    0.0011   -0.0010    0.0009
          72   -0.3793   -0.0008   -0.0036    0.0060   -0.0020    0.0028    0.0008    0.0026
          73    0.0538    0.0004    0.0013   -0.0027   -0.0013    0.0008    0.0009    0.0010
          74    0.6316   -0.0026   -0.0030   -0.0038    0.0014   -0.0033    0.0006   -0.0023
          75    0.3926    0.0015   -0.0017   -0.0003    0.0030   -0.0060   -0.0011   -0.0047


   Root No.      65        66        67        68        69

                65 A      66 A      67 A      68 A      69 A   

                  20.0      20.2      21.0      23.8      25.3
  
           1    0.0000    0.0298    0.0001   -0.0409    0.3762
           2    0.0000    0.0122   -0.0000   -0.0662    0.5606
           3   -0.0000   -0.0122   -0.0000    0.0329   -0.2103
           4   -0.0000   -0.0039   -0.0000    0.0043   -0.0424
           5   -0.0000    0.0002   -0.0000    0.0023   -0.0008
           6    0.0001   -0.0001   -0.0000    0.0002    0.0007
           7    0.0004    0.2177   -0.0003    0.6654    0.0718
           8    0.0013    0.5626   -0.0006   -0.3479   -0.0838
           9    0.0004    0.1973   -0.0002    0.2036    0.0160
[...]
 FREQUENCY          1043.82         C 14 -- H 22         +31.6% ( 61.5%)      0.0%
 TRANSITION DIPOLE   0.2439         C 13 -- H 19         +14.5% ( 41.7%)      0.0%
 TRAVEL (Ang.)       0.2762         C 15 -- H 20         +14.0% ( 41.0%)      0.0%
 REDUCED MASS        0.8470         C 13 -- C 14         +11.6% ( 37.2%)      0.0%
 EFFECTIVE MASS      5.0106         C 14 -- C 15         +11.6% ( 37.2%)      0.1%
 FORCE CONSTANT      0.5438

 VIBRATION         36   36A           ATOM PAIR      ENERGY CONTRIBUTION    RADIAL
 FREQUENCY          1046.28         N  3 -- C  7         +22.6% ( 71.7%)     98.9%
 TRANSITION DIPOLE   0.5123         C  7 -- H  9         +18.7% ( 65.4%)      6.1%
 TRAVEL (Ang.)       0.1770         C  1 -- C  7         +15.0% ( 58.5%)      1.6%
 REDUCED MASS        2.0567         C  7 -- H  8         +14.7% ( 58.0%)      7.1%
 EFFECTIVE MASS      8.8035
 FORCE CONSTANT      1.3265

 VIBRATION         37   37A           ATOM PAIR      ENERGY CONTRIBUTION    RADIAL
 FREQUENCY          1080.44         C 10 -- H 11         +36.0% ( 63.3%)      0.2%
 TRANSITION DIPOLE   0.7011         H  6 -- C 10         +33.8% ( 61.3%)      0.1%
 TRAVEL (Ang.)       0.2518         C  1 -- C 10         +10.8% ( 34.6%)      0.0%
 REDUCED MASS        0.9846         C  1 -- H  2          +4.6% ( 22.6%)      0.7%
 EFFECTIVE MASS      3.8633
 FORCE CONSTANT      0.6772

 VIBRATION         38   38A           ATOM PAIR      ENERGY CONTRIBUTION    RADIAL
 FREQUENCY          1105.24         C  7 -- H  9         +50.1% ( 79.1%)      2.6%
 TRANSITION DIPOLE   0.6313         N  3 -- C  7         +11.1% ( 37.3%)     16.2%
 TRAVEL (Ang.)       0.3155         C  1 -- C  7          +8.7% ( 32.9%)      2.7%
 REDUCED MASS        0.6131         C  7 -- H  8          +7.5% ( 30.6%)     25.8%
 EFFECTIVE MASS      3.9653
 FORCE CONSTANT      0.4413

 VIBRATION         39   39A           ATOM PAIR      ENERGY CONTRIBUTION    RADIAL
 FREQUENCY          1144.24         C 13 -- H 19         +19.6% ( 64.9%)      0.5%
 TRANSITION DIPOLE   0.6209         C 16 -- H 21         +12.9% ( 52.7%)      0.3%
 TRAVEL (Ang.)       0.3546         C 12 -- N 17         +12.7% ( 52.3%)     91.2%
 REDUCED MASS        0.4686         C 14 -- C 15         +11.0% ( 48.6%)     92.3%
 EFFECTIVE MASS      5.7878
 FORCE CONSTANT      0.3615

 VIBRATION         40   40A           ATOM PAIR      ENERGY CONTRIBUTION    RADIAL
 FREQUENCY          1159.87         C 15 -- H 20         +29.4% ( 68.2%)      1.7%
 TRANSITION DIPOLE   0.5950         C 13 -- H 19         +12.7% ( 44.7%)     23.4%
 TRAVEL (Ang.)       0.3966         C 12 -- H 18         +11.4% ( 42.4%)      5.8%
 REDUCED MASS        0.3697         C 13 -- C 14         +10.8% ( 41.4%)     97.2%
 EFFECTIVE MASS      4.3557
 FORCE CONSTANT      0.2930

 VIBRATION         41   41A           ATOM PAIR      ENERGY CONTRIBUTION    RADIAL
 FREQUENCY          1180.81         C 14 -- H 22         +35.9% ( 81.3%)      0.0%
 TRANSITION DIPOLE   0.1555         C 12 -- C 13         +13.4% ( 49.7%)     99.6%
 TRAVEL (Ang.)       0.2843         C 15 -- C 16         +13.3% ( 49.5%)     99.5%
 REDUCED MASS        0.7066         C 12 -- H 18          +6.6% ( 34.9%)     74.6%
 EFFECTIVE MASS      5.0236
 FORCE CONSTANT      0.5805

 VIBRATION         42   42A           ATOM PAIR      ENERGY CONTRIBUTION    RADIAL
 FREQUENCY          1222.47         C  1 -- C  7         +32.5% ( 84.9%)     90.2%
 TRANSITION DIPOLE   0.9041         C  7 -- H  9         +13.5% ( 54.6%)     44.9%
 TRAVEL (Ang.)       0.1368         N  3 -- C  7         +13.1% ( 53.8%)     12.9%
 REDUCED MASS        2.9488         C  1 -- C 10         +12.7% ( 53.0%)      0.9%
 EFFECTIVE MASS      9.4536         C  7 -- H  8         +12.4% ( 52.4%)      3.3%
 FORCE CONSTANT      2.5963

 VIBRATION         43   43A           ATOM PAIR      ENERGY CONTRIBUTION    RADIAL
 FREQUENCY          1227.19         C 14 -- C 15         +14.1% ( 55.0%)    100.0%
 TRANSITION DIPOLE   0.2785         C 13 -- C 14         +13.7% ( 54.4%)    100.0%
 TRAVEL (Ang.)       0.2044         C 12 -- C 13         +13.0% ( 53.0%)     99.0%
 REDUCED MASS        1.3147         C 15 -- C 16         +12.7% ( 52.3%)     99.4%
 EFFECTIVE MASS     11.1655
 FORCE CONSTANT      1.1665

 VIBRATION         44   44A           ATOM PAIR      ENERGY CONTRIBUTION    RADIAL
 FREQUENCY          1253.71         C 16 -- H 21         +28.6% ( 60.3%)     14.6%
 TRANSITION DIPOLE   0.1937         C 12 -- H 18         +23.5% ( 54.6%)     22.0%
 TRAVEL (Ang.)       0.3878         C 13 -- H 19          +9.4% ( 34.5%)      4.2%
 REDUCED MASS        0.3577         C 12 -- N 17          +7.7% ( 31.3%)     91.5%
 EFFECTIVE MASS      3.5181
 FORCE CONSTANT      0.3312

 VIBRATION         45   45A           ATOM PAIR      ENERGY CONTRIBUTION    RADIAL
 FREQUENCY          1285.29         C 15 -- H 20         +13.0% ( 48.1%)      1.8%
 TRANSITION DIPOLE   0.2761         C 15 -- C 16         +11.2% ( 44.6%)     97.1%
 TRAVEL (Ang.)       0.2976         C 13 -- H 19         +10.9% ( 44.0%)      2.0%
 REDUCED MASS        0.5922         C 12 -- C 13         +10.5% ( 43.2%)     95.7%
 EFFECTIVE MASS      5.2233
 FORCE CONSTANT      0.5764

 VIBRATION         46   46A           ATOM PAIR      ENERGY CONTRIBUTION    RADIAL
 FREQUENCY          1295.42         C  7 -- H  9         +58.3% ( 91.0%)      0.2%
 TRANSITION DIPOLE   0.6806         C  7 -- H  8         +10.2% ( 38.1%)      0.0%
 TRAVEL (Ang.)       0.2447         C  1 -- C  7          +9.5% ( 36.7%)     84.7%
 REDUCED MASS        0.8690         N  3 -- C  7          +9.4% ( 36.5%)     75.9%
 EFFECTIVE MASS      3.5311
 FORCE CONSTANT      0.8592

 VIBRATION         47   47A           ATOM PAIR      ENERGY CONTRIBUTION    RADIAL
 FREQUENCY          1316.43         C  1 -- H  2         +72.9% ( 88.0%)      0.8%
 TRANSITION DIPOLE   0.1623         H  6 -- C 10          +6.4% ( 26.0%)     27.0%
 TRAVEL (Ang.)       0.2770         C  7 -- H  9          +5.7% ( 24.7%)      9.4%
 REDUCED MASS        0.6676         C  1 -- C 10          +4.9% ( 22.9%)      0.5%
 EFFECTIVE MASS      1.9664
 FORCE CONSTANT      0.6816

 VIBRATION         48   48A           ATOM PAIR      ENERGY CONTRIBUTION    RADIAL
 FREQUENCY          1345.35         C 12 -- H 18         +18.2% ( 48.4%)      0.5%
 TRANSITION DIPOLE   0.3264         C 16 -- H 21         +14.3% ( 42.9%)      0.2%
 TRAVEL (Ang.)       0.3114         C 14 -- H 22         +10.2% ( 36.1%)      0.0%
 REDUCED MASS        0.5169         C 15 -- H 20          +9.3% ( 34.6%)      0.1%
 EFFECTIVE MASS      3.6255
 FORCE CONSTANT      0.5512

 VIBRATION         49   49A           ATOM PAIR      ENERGY CONTRIBUTION    RADIAL
 FREQUENCY          1370.36         C 10 -- H 11         +37.9% ( 60.9%)      0.5%
 TRANSITION DIPOLE   0.4062         H  6 -- C 10         +34.4% ( 58.1%)      1.8%
 TRAVEL (Ang.)       0.3450         C  1 -- H  2          +8.2% ( 28.4%)      0.2%
 REDUCED MASS        0.4134         C  1 -- C  7          +7.9% ( 27.8%)     86.1%
 EFFECTIVE MASS      2.1149
 FORCE CONSTANT      0.4574

 VIBRATION         50   50A           ATOM PAIR      ENERGY CONTRIBUTION    RADIAL
 FREQUENCY          1403.32         H 24 -- O 25         +55.7% ( 60.2%)      7.2%
 TRANSITION DIPOLE   1.2031         H 23 -- O 25         +43.7% ( 53.4%)      9.4%
 TRAVEL (Ang.)       0.3015         C 12 -- H 18          +0.1% (  3.1%)     20.3%
 REDUCED MASS        0.5285
 EFFECTIVE MASS      1.6326
 FORCE CONSTANT      0.6133

 VIBRATION         51   51A           ATOM PAIR      ENERGY CONTRIBUTION    RADIAL
 FREQUENCY          1499.37         C 12 -- N 17         +12.4% ( 46.6%)     44.9%
 TRANSITION DIPOLE   1.1958         C 14 -- H 22         +11.9% ( 45.8%)      0.0%
 TRAVEL (Ang.)       0.1787         C 14 -- C 15         +11.9% ( 45.7%)     26.2%
 REDUCED MASS        1.4086         C 13 -- C 14         +11.8% ( 45.6%)     17.5%
 EFFECTIVE MASS      9.7188         C 16 -- N 17         +11.8% ( 45.6%)     35.4%
 FORCE CONSTANT      1.8657         C 12 -- C 13         +11.0% ( 44.0%)     95.7%
                            C 15 -- C 16         +10.7% ( 43.4%)     99.1%

 VIBRATION         52   52A           ATOM PAIR      ENERGY CONTRIBUTION    RADIAL
 FREQUENCY          1505.59         N  3 -- O  5         +35.4% ( 81.0%)     73.3%
 TRANSITION DIPOLE   4.4068         N  3 -- O  4         +28.4% ( 72.6%)     57.0%
 TRAVEL (Ang.)       0.0941         O  4 -- O  5         +18.3% ( 58.2%)     99.7%
 REDUCED MASS        5.0627         N  3 -- C  7         +15.8% ( 54.1%)     99.5%
 EFFECTIVE MASS     14.7279
 FORCE CONSTANT      6.7616

 VIBRATION         53   53A           ATOM PAIR      ENERGY CONTRIBUTION    RADIAL
 FREQUENCY          1541.46         C 13 -- C 14         +12.5% ( 47.6%)     78.1%
 TRANSITION DIPOLE   0.3287         C 14 -- C 15         +12.2% ( 47.0%)     68.2%
 TRAVEL (Ang.)       0.1813         C 15 -- C 16         +10.9% ( 44.4%)      0.5%
 REDUCED MASS        1.3301         C 12 -- C 13         +10.7% ( 44.1%)      0.0%
 EFFECTIVE MASS      9.5845
 FORCE CONSTANT      1.8621

 VIBRATION         54   54A           ATOM PAIR      ENERGY CONTRIBUTION    RADIAL
 FREQUENCY          1668.23         N  3 -- O  4         +37.7% ( 86.2%)     92.3%
 TRANSITION DIPOLE  10.1040         N  3 -- O  5         +33.1% ( 80.8%)     84.5%
 TRAVEL (Ang.)       0.0785         N  3 -- C  7         +21.6% ( 65.3%)      0.6%
 REDUCED MASS        6.5637         O  4 -- O  5          +6.3% ( 35.2%)      2.6%
 EFFECTIVE MASS     14.1629
 FORCE CONSTANT     10.7624

 VIBRATION         55   55A           ATOM PAIR      ENERGY CONTRIBUTION    RADIAL
 FREQUENCY          1674.75         C 12 -- C 13         +17.9% ( 58.4%)    100.0%
 TRANSITION DIPOLE   2.7636         C 15 -- C 16         +17.4% ( 57.6%)    100.0%
 TRAVEL (Ang.)       0.1275         C 16 -- N 17          +9.6% ( 42.8%)     50.4%
 REDUCED MASS        2.4773         C 12 -- N 17          +9.5% ( 42.6%)     47.5%
 EFFECTIVE MASS     12.0072
 FORCE CONSTANT      4.0938

 VIBRATION         56   56A           ATOM PAIR      ENERGY CONTRIBUTION    RADIAL
 FREQUENCY          1689.23         C 14 -- C 15         +19.3% ( 59.4%)     87.4%
 TRANSITION DIPOLE   1.7167         C 13 -- C 14         +18.7% ( 58.5%)     85.6%
 TRAVEL (Ang.)       0.1227         C 12 -- N 17         +12.5% ( 47.7%)     89.7%
 REDUCED MASS        2.6529         C 16 -- N 17         +12.4% ( 47.6%)     89.1%
 EFFECTIVE MASS     12.3927         C 14 -- H 22         +10.9% ( 44.7%)      0.0%
 FORCE CONSTANT      4.4601

 VIBRATION         57   57A           ATOM PAIR      ENERGY CONTRIBUTION    RADIAL
 FREQUENCY          1834.39         C  1 -- C 10         +35.6% ( 80.0%)     99.9%
 TRANSITION DIPOLE   1.5831         C  7 -- H  8         +20.6% ( 60.9%)     99.8%
 TRAVEL (Ang.)       0.1218         C  1 -- C  7         +13.1% ( 48.5%)     39.1%
 REDUCED MASS        2.4769         C  1 -- H  2         +11.3% ( 45.1%)     11.7%
 EFFECTIVE MASS      8.6889
 FORCE CONSTANT      4.9108

 VIBRATION         58   58A           ATOM PAIR      ENERGY CONTRIBUTION    RADIAL
 FREQUENCY          1869.67         C  7 -- H  8         +42.6% ( 78.0%)    100.0%
 TRANSITION DIPOLE   1.5498         C  1 -- C 10         +24.9% ( 59.6%)     99.3%
 TRAVEL (Ang.)       0.1581         C  1 -- C  7          +9.2% ( 36.2%)     27.5%
 REDUCED MASS        1.4426         C  1 -- H  2          +8.5% ( 34.7%)      8.5%
 EFFECTIVE MASS      6.0980
 FORCE CONSTANT      2.9712

 VIBRATION         59   59A           ATOM PAIR      ENERGY CONTRIBUTION    RADIAL
 FREQUENCY          2638.24         C  7 -- H  9         +96.4% ( 98.9%)     99.9%
 TRANSITION DIPOLE   0.8519         C  1 -- H  2          +1.2% ( 11.0%)     93.1%
 TRAVEL (Ang.)       0.1682         C  7 -- H  8          +0.8% (  8.8%)      0.3%
 REDUCED MASS        0.9036         C  1 -- C  7          +0.7% (  8.6%)     11.4%
 EFFECTIVE MASS      1.3300
 FORCE CONSTANT      3.7055

 VIBRATION         60   60A           ATOM PAIR      ENERGY CONTRIBUTION    RADIAL
 FREQUENCY          2671.78         H 24 -- O 25         +79.2% ( 90.9%)     98.2%
 TRANSITION DIPOLE   2.3708         H 23 -- O 25         +20.2% ( 45.9%)     92.9%
 TRAVEL (Ang.)       0.1928         C 16 -- H 21          +0.3% (  5.5%)    100.0%
 REDUCED MASS        0.6787         C 12 -- H 18          +0.3% (  5.1%)     99.9%
 EFFECTIVE MASS      1.4620
 FORCE CONSTANT      2.8544

 VIBRATION         61   61A           ATOM PAIR      ENERGY CONTRIBUTION    RADIAL
 FREQUENCY          2687.33         H  6 -- C 10         +49.4% ( 72.5%)     98.9%
 TRANSITION DIPOLE   0.6574         C 10 -- H 11         +41.5% ( 66.5%)     98.2%
 TRAVEL (Ang.)       0.2404         C  1 -- H  2          +7.7% ( 28.6%)     99.7%
 REDUCED MASS        0.4342         C  1 -- C 10          +1.0% ( 10.5%)      4.0%
 EFFECTIVE MASS      1.4653
 FORCE CONSTANT      1.8474

 VIBRATION         62   62A           ATOM PAIR      ENERGY CONTRIBUTION    RADIAL
 FREQUENCY          2707.53         C 12 -- H 18         +94.1% ( 98.0%)    100.0%
 TRANSITION DIPOLE   1.3582         C 16 -- H 21          +2.3% ( 15.3%)     99.9%
 TRAVEL (Ang.)       0.1700         C 12 -- C 13          +1.1% ( 10.4%)     20.9%
 REDUCED MASS        0.8620         C 12 -- N 17          +1.1% ( 10.4%)     11.3%
 EFFECTIVE MASS      1.3821
 FORCE CONSTANT      3.7233

 VIBRATION         63   63A           ATOM PAIR      ENERGY CONTRIBUTION    RADIAL
 FREQUENCY          2715.85         C 16 -- H 21         +90.7% ( 96.3%)    100.0%
 TRANSITION DIPOLE   1.3585         C 15 -- H 20          +3.8% ( 19.6%)     99.6%
 TRAVEL (Ang.)       0.1758         C 12 -- H 18          +1.6% ( 12.9%)     99.8%
 REDUCED MASS        0.8035         C 16 -- N 17          +1.0% ( 10.3%)     12.5%
 EFFECTIVE MASS      1.3892
 FORCE CONSTANT      3.4918

 VIBRATION         64   64A           ATOM PAIR      ENERGY CONTRIBUTION    RADIAL
 FREQUENCY          2724.75         C 14 -- H 22         +85.3% ( 93.4%)    100.0%
 TRANSITION DIPOLE   0.8477         C 15 -- H 20          +9.5% ( 31.2%)     99.8%
 TRAVEL (Ang.)       0.1857         C 13 -- H 19          +3.0% ( 17.6%)     99.3%
 REDUCED MASS        0.7180         C 14 -- C 15          +1.0% ( 10.1%)      6.6%
 EFFECTIVE MASS      1.3853
 FORCE CONSTANT      3.1405

 VIBRATION         65   65A           ATOM PAIR      ENERGY CONTRIBUTION    RADIAL
 FREQUENCY          2731.55         C  1 -- H  2         +88.7% ( 95.1%)    100.0%
 TRANSITION DIPOLE   1.2762         H  6 -- C 10          +4.2% ( 20.8%)     98.9%
 TRAVEL (Ang.)       0.1788         C 10 -- H 11          +3.9% ( 20.1%)     97.6%
 REDUCED MASS        0.7722         C  1 -- C 10          +1.1% ( 10.6%)     62.8%
 EFFECTIVE MASS      1.4284
 FORCE CONSTANT      3.3945

 VIBRATION         66   66A           ATOM PAIR      ENERGY CONTRIBUTION    RADIAL
 FREQUENCY          2741.46         C 15 -- H 20         +74.2% ( 87.0%)    100.0%
 TRANSITION DIPOLE   1.5954         C 13 -- H 19         +16.6% ( 41.2%)    100.0%
 TRAVEL (Ang.)       0.2086         C 14 -- H 22          +4.3% ( 21.0%)     98.9%
 REDUCED MASS        0.5654         C 16 -- H 21          +2.5% ( 15.9%)     98.7%
 EFFECTIVE MASS      1.3907
 FORCE CONSTANT      2.5036

 VIBRATION         67   67A           ATOM PAIR      ENERGY CONTRIBUTION    RADIAL
 FREQUENCY          2754.47         C 13 -- H 19         +76.9% ( 88.5%)    100.0%
 TRANSITION DIPOLE   1.0618         C 15 -- H 20         +10.1% ( 32.1%)    100.0%
 TRAVEL (Ang.)       0.2035         C 14 -- H 22          +6.9% ( 26.6%)     99.8%
 REDUCED MASS        0.5910         C 16 -- H 21          +1.8% ( 13.6%)     99.7%
 EFFECTIVE MASS      1.4354
 FORCE CONSTANT      2.6419

 VIBRATION         68   68A           ATOM PAIR      ENERGY CONTRIBUTION    RADIAL
 FREQUENCY          2768.73         C 10 -- H 11         +53.8% ( 72.6%)     95.5%
 TRANSITION DIPOLE   1.1892         H  6 -- C 10         +44.9% ( 66.3%)     94.0%
 TRAVEL (Ang.)       0.2234         C  1 -- C 10          +1.3% ( 11.5%)     99.7%
 REDUCED MASS        0.4880
 EFFECTIVE MASS      1.3386
 FORCE CONSTANT      2.2042

 VIBRATION         69   69A           ATOM PAIR      ENERGY CONTRIBUTION    RADIAL
 FREQUENCY          2840.54         H 23 -- O 25         +82.9% ( 88.2%)     99.6%
 TRANSITION DIPOLE   1.0852         H 24 -- O 25         +17.1% ( 40.0%)     98.6%
 TRAVEL (Ang.)       0.1891
 REDUCED MASS        0.6637
 EFFECTIVE MASS      1.2027
 FORCE CONSTANT      3.1550

      SYMMETRY NUMBER FOR POINT-GROUP C1  =  1


          SYSTEM IS A GROUND STATE



 Title: ASE calculation


          MOLECULE IS NOT LINEAR

          THERE ARE 69 GENUINE VIBRATIONS IN THIS SYSTEM
          THIS THERMODYNAMICS CALCULATION IS LIMITED TO
          MOLECULES WHICH HAVE NO INTERNAL ROTATIONS




                    CALCULATED THERMODYNAMIC PROPERTIES
                                          *
   TEMP. (K)   PARTITION FUNCTION   H.O.F.    ENTHALPY  HEAT CAPACITY ENTROPY
                                   KCAL/MOL   CAL/MOLE    CAL/K/MOL  CAL/K/MOL


 298.00  VIB.     0.3162D+09                  8449.6344    47.8670    67.2477
         ROT.     0.3872D+07                   888.2803     2.9808    33.1255
         INT.     0.1224D+16                  9337.9147    50.8478   100.3732
         TRA.     0.2437D+28                  1480.4672     4.9680    41.5528
         TOT.                      -49.220   10818.3819    55.8158   141.9259

   *: NOTE: HEATS OF FORMATION ARE RELATIVE TO THE
            ELEMENTS IN THEIR STANDARD STATE AT 298K
              (=  Standard Enthalpy of Formation).

            Hvib:  Zero-point energy is not included.
                   frequencies of less than zero cm-1 are not included.
            Hrot = (3/2)RT
            Htra = (3/2)RT + pV = (5/2)RT

            Heat capacity is Cp, not Cv

          For more information, see: HTTP://OpenMOPAC.net/Manual/thermochemistry.html


           FORCE CONSTANT IN CARTESIAN COORDINATES (Millidynes/A)

    ATOM   CHEMICAL       X               Y               Z
   NUMBER   SYMBOL  FORCE CONSTANT  FORCE CONSTANT  FORCE CONSTANT

      1       C        9.317288       11.705626        3.844875
      2       H        4.162100        0.867891        0.446142
      3       N       12.847368       11.695157        4.873757
      4       O       10.581097        1.562813        1.955100
      5       O        4.267951        9.002150        0.568398
      6       H        4.124596        0.721315        0.415427
      7       C        6.962168        7.654589        5.756380
      8       H        0.550480        0.767513        3.658413
      9       H        3.810429        0.913772        0.637149
     10       C        8.712577       10.876546        3.398675
     11       H        1.203536        3.289637        0.768460
     12       C        3.056584        9.922175       10.606900
     13       C        2.842732        9.902705       10.555555
     14       C        3.010837       10.834392        9.879058
     15       C        2.889344        9.845542       10.695228
     16       C        3.006223       10.010359       10.433651
     17       N        1.832963       11.212127        7.791398
     18       H        0.507295        3.193866        1.723703
     19       H        0.629410        3.130042        1.714779
     20       H        0.513855        3.398003        1.540054
     21       H        0.607508        2.918074        1.902629
     22       H        0.452205        0.868725        4.128751
     23       H       -0.013501        4.410232        0.563547
     24       H        0.165044        1.088783        3.521712
     25       O        0.035536        4.513941        3.890280

 **********************
 *                    *
 * JOB ENDED NORMALLY *
 *                    *
 **********************



 TOTAL JOB TIME:             7.78 SECONDS

 == MOPAC DONE ==
