 *******************************************************************************
 **                                                                           **
 **                              MOPAC v22.0.6                                **
 **                                                                           **
 *******************************************************************************
 **          Digital Object Identifier (DOI): 10.5281/zenodo.6511958          **
 **    Visit the DOI location for information on how to cite this program.    **
 *******************************************************************************

                              PM7 CALCULATION RESULTS

 *******************************************************************************
 *  CALCULATION DONE:                                Tue Mar 26 11:50:54 2024  *
 *  PM7        - The PM7 Hamiltonian to be used
 *  SINGLET    - SPIN STATE DEFINED AS A SINGLET
 *
 *
 *
 *                 CHARGE ON SYSTEM = 0
 *
 *
 *
 *  EPS=78.4   - USE ANDREAS KLAMT'S COSMO IMPLICIT SOLVATION MODEL
 *  LET        - OVERRIDE SOME SAFETY CHECKS
 *  THREADS    - USE A MAXIMUM OF 30 THREADS
 *  T=         - A TIME OF 14.0 DAYS REQUESTED
 *  DUMP=N     - RESTART FILE WRITTEN EVERY 30.0 MINUTES REQUESTED
 *  RELSCF     - DEFAULT SCF CRITERION MULTIPLIED BY 1.0000
 *              (DEFAULT SCF CRITERION = 0.00010)
 *  ITRY=      - DO A MAXIMUM OF 15000 ITERATIONS FOR SCF
 *  AUX        - OUTPUT AUXILIARY INFORMATION
 *  ISOTOPE    - SAVE THE FORCE MATRIX FOR USE LATER
 *  BONDS      - FINAL BOND-ORDER MATRIX TO BE PRINTED
 *  LARGE      - EXPANDED OUTPUT TO BE PRINTED
 *  THERMO     - THERMODYNAMIC QUANTITIES TO BE CALCULATED
 *******************************************************************************
PM7 AUX LARGE THERMO(298,298) LET ISOTOPE BONDS DUMP=30M ITRY=15000 T=14D THREADS=30 CHARGE=0 SINGLET eps=78.4 RELSCF=1
 Title: ASE calculation

   ATOM   CHEMICAL          X               Y               Z
  NUMBER   SYMBOL      (ANGSTROMS)     (ANGSTROMS)     (ANGSTROMS)

     1       C          0.40510879  *  -0.43817912  *   0.11839409  *
     2       H          0.87387269  *  -0.95530424  *  -0.72513367  *
     3       N          0.76429964  *  -2.38742270  *   1.52227906  *
     4       O          0.98511137  *  -3.06097150  *   0.51560303  *
     5       O          0.59174917  *  -2.95027938  *   2.60588513  *
     6       H         -0.91309981  *   1.12660977  *   0.72667634  *
     7       C          0.73292793  *  -0.96897192  *   1.45442175  *
     8       D          1.94945191  *  -0.49978937  *   1.79371745  *
     9       H          0.19496347  *  -0.50794386  *   2.30261053  *
    10       C         -0.41044949  *   0.59958760  *  -0.06790924  *
    11       H         -0.64129296  *   1.00474457  *  -1.04353642  *
    12       C          5.96289963  *   0.71729285  *   3.86301300  *
    13       C          7.02625386  *   1.46547039  *   4.37268277  *
    14       C          7.04626155  *   2.84668961  *   4.17751216  *
    15       C          5.99915968  *   3.44250765  *   3.47761839  *
    16       C          4.95949779  *   2.64736588  *   2.98913017  *
    17       N          4.94387197  *   1.30608867  *   3.18399386  *
    18       H          5.91703603  *  -0.37609094  *   3.99673707  *
    19       H          7.83581009  *   0.97119858  *   4.92009445  *
    20       H          5.98699777  *   4.52275864  *   3.30690938  *
    21       H          4.11633983  *   3.08367645  *   2.43136747  *
    22       H          7.87272163  *   3.45157887  *   4.56952656  *
    23       H          3.47314421  *  -1.06377267  *   2.55942243  *
    24       H          4.03109895  *   0.61780049  *   2.71967263  *
    25       O          3.20380366  *  -0.23944197  *   2.18624610  *


                                Isotopes Used

              Atom:    8  H  Default mass  1.0079,  mass used:  2.0140 amu


          CARTESIAN COORDINATES 

    NO.       ATOM           X           Y           Z

     1         C          0.4051     -0.4382      0.1184
     2         H          0.8739     -0.9553     -0.7251
     3         N          0.7643     -2.3874      1.5223
     4         O          0.9851     -3.0610      0.5156
     5         O          0.5917     -2.9503      2.6059
     6         H         -0.9131      1.1266      0.7267
     7         C          0.7329     -0.9690      1.4544
     8         H          1.9495     -0.4998      1.7937
     9         H          0.1950     -0.5079      2.3026
    10         C         -0.4104      0.5996     -0.0679
    11         H         -0.6413      1.0047     -1.0435
    12         C          5.9629      0.7173      3.8630
    13         C          7.0263      1.4655      4.3727
    14         C          7.0463      2.8467      4.1775
    15         C          5.9992      3.4425      3.4776
    16         C          4.9595      2.6474      2.9891
    17         N          4.9439      1.3061      3.1840
    18         H          5.9170     -0.3761      3.9967
    19         H          7.8358      0.9712      4.9201
    20         H          5.9870      4.5228      3.3069
    21         H          4.1163      3.0837      2.4314
    22         H          7.8727      3.4516      4.5695
    23         H          3.4731     -1.0638      2.5594
    24         H          4.0311      0.6178      2.7197
    25         O          3.2038     -0.2394      2.1862

 General Reference for PM7:
 "Optimization of Parameters for Semiempirical Methods VI: More Modifications to the 
 NDDO Approximations and Re-optimization of Parameters", J. J. P. Stewart, J. Mol. Mod., 1:32, 19 (2013)
 https://link.springer.com/article/10.1007/s00894-012-1667-x

           Empirical Formula: C8 H12 N2 O3  =    25 atoms



      MOLECULAR POINT GROUP   :   C1  


 SINGLET STATE CALCULATION


      RHF CALCULATION, NO. OF DOUBLY OCCUPIED LEVELS = 36

  SCF CRITERION =    0.1000E-03


          HEAT OF FORMATION =     -30.811528 KCALS/MOLE


          CARTESIAN COORDINATE DERIVATIVES

   NUMBER  ATOM         X            Y            Z

     1       C     -0.602553    -0.551587     1.497948
     2       H      0.043215    -0.130029     0.996083
     3       N     -1.126808    -1.740279     1.941331
     4       O      1.005305    -0.425037     0.883656
     5       O      0.583909     1.285123     1.301680
     6       H      0.930811     0.246436     0.748547
     7       C      0.350404     1.357940     7.700856
     8       H     -0.182647     1.636866   -11.716486
     9       H      0.831382     0.148892    -0.630999
    10       C      0.251455     1.233900     0.001043
    11       H      0.420439    -0.536423     0.393258
    12       C      0.486399     1.180035    -0.314368
    13       C     -0.107572     0.010393    -0.990821
    14       C     -0.273454    -1.042102    -0.746135
    15       C     -0.174006     0.672521    -0.894983
    16       C      0.234534    -0.282535    -0.489821
    17       N     -0.566162    -1.960873     1.673579
    18       H      0.114517     0.482005    -0.991314
    19       H     -0.158385     0.483269    -1.432959
    20       H     -0.106296    -0.210707    -0.524071
    21       H     -0.033829     0.350461    -0.854259
    22       H     -0.258704    -0.009755    -1.279002
    23       H     -0.171213    -0.083457     0.762232
    24       H     -2.309697    -0.252136    -6.753658
    25       O      0.819043    -1.862715     9.717091

 DIPOLE           X         Y         Z       TOTAL
 POINT-CHG.    -5.382    -5.295   -16.711    18.337
 HYBRID         0.061     0.662     0.317     0.736
 SUM           -5.321    -4.634   -16.394    17.848


          GRADIENT NORM =  19.83409



 ** GRADIENT IS VERY LARGE, BUT SINCE "LET" IS USED, CALCULATION WILL CONTINUE


                              **** WARNING ****

           GRADIENT IS VERY LARGE FOR A THERMO CALCULATION
           RESULTS ARE LIKELY TO BE INACCURATE IF THERE ARE
           ANY LOW-LYING VIBRATIONS (LESS THAN ABOUT 400CM-1)
           GRADIENT NORM SHOULD BE LESS THAN ABOUT 1.0 FOR THERMO
           TO GIVE ACCURATE RESULTS


          TIME FOR SCF CALCULATION =    0.08

          TIME FOR DERIVATIVES     =    0.04

          MOLECULAR WEIGHT =  185.20



          ROTATIONAL CONSTANTS IN CM(-1)

          A =    0.04862844   B =    0.00758617   C =    0.00678176



           PRINCIPAL MOMENTS OF INERTIA IN UNITS OF 10**(-40)*GRAM-CM**2

          A =      575.6457   B =     3689.9728   C =     4127.6559


          ORIENTATION OF MOLECULE IN FORCE CALCULATION

    NO.       ATOM         X         Y         Z

     1          C       0.7666   -1.2232    3.2253
     2          H       1.8615   -1.2232    3.2253
     3          N       0.7595    1.2056    3.2253
     4          O       1.9477    1.2005    3.5475
     5          O       0.1166    2.2563    3.2859
     6          H      -1.0055   -2.3276    3.6682
     7          C       0.1283    0.0216    2.7592
     8          H       0.1662    0.0212    1.4124
     9          H      -0.9732    0.0590    2.8399
    10          C       0.0708   -2.2864    3.6281
    11          H       0.5323   -3.2083    3.9546
    12          C      -0.2846    0.8327   -3.1712
    13          C      -0.5754    0.6832   -4.5289
    14          C      -1.0688   -0.5366   -4.9925
    15          C      -1.2593   -1.5747   -4.0829
    16          C      -0.9525   -1.3717   -2.7351
    17          N      -0.4758   -0.1836   -2.2898
    18          H       0.1092    1.7818   -2.7717
    19          H      -0.4171    1.5165   -5.2217
    20          H      -1.6432   -2.5432   -4.4157
    21          H      -1.0899   -2.1694   -1.9886
    22          H      -1.3027   -0.6739   -6.0550
    23          H       0.4950    1.1426    0.0485
    24          H      -0.1838   -0.0337   -1.1004
    25          O       0.2778    0.2249    0.0929


    FIRST DERIVATIVES WILL BE USED IN THE CALCULATION OF SECOND DERIVATIVES

          ESTIMATED TIME TO COMPLETE CALCULATION =       17.58 SECONDS

    FOR POINT-GROUP C1   THERE ARE   1 UNIQUE SYMMETRY FUNCTIONS.

 STEP:   1 TIME =     0.06 SECS, INTEGRAL =      0.06 TIME LEFT:1209599.82
 STEP:   2 TIME =     0.06 SECS, INTEGRAL =      0.12 TIME LEFT:1209599.76
 STEP:   3 TIME =     0.06 SECS, INTEGRAL =      0.18 TIME LEFT:1209599.70
 STEP:   4 TIME =     0.06 SECS, INTEGRAL =      0.24 TIME LEFT:1209599.64
 STEP:   5 TIME =     0.06 SECS, INTEGRAL =      0.30 TIME LEFT:1209599.59
 STEP:   6 TIME =     0.06 SECS, INTEGRAL =      0.36 TIME LEFT:1209599.53
 STEP:   7 TIME =     0.05 SECS, INTEGRAL =      0.40 TIME LEFT:1209599.48
 STEP:   8 TIME =     0.04 SECS, INTEGRAL =      0.45 TIME LEFT:1209599.44
 STEP:   9 TIME =     0.04 SECS, INTEGRAL =      0.49 TIME LEFT:1209599.39
 STEP:  10 TIME =     0.04 SECS, INTEGRAL =      0.53 TIME LEFT:1209599.35
 STEP:  11 TIME =     0.04 SECS, INTEGRAL =      0.57 TIME LEFT:1209599.31
 STEP:  12 TIME =     0.04 SECS, INTEGRAL =      0.62 TIME LEFT:1209599.27
 STEP:  13 TIME =     0.05 SECS, INTEGRAL =      0.66 TIME LEFT:1209599.22
 STEP:  14 TIME =     0.04 SECS, INTEGRAL =      0.71 TIME LEFT:1209599.18
 STEP:  15 TIME =     0.04 SECS, INTEGRAL =      0.75 TIME LEFT:1209599.13
 STEP:  16 TIME =     0.04 SECS, INTEGRAL =      0.79 TIME LEFT:1209599.09
 STEP:  17 TIME =     0.04 SECS, INTEGRAL =      0.84 TIME LEFT:1209599.05
 STEP:  18 TIME =     0.04 SECS, INTEGRAL =      0.88 TIME LEFT:1209599.00
 STEP:  19 TIME =     0.04 SECS, INTEGRAL =      0.92 TIME LEFT:1209598.96
 STEP:  20 TIME =     0.04 SECS, INTEGRAL =      0.96 TIME LEFT:1209598.92
 STEP:  21 TIME =     0.04 SECS, INTEGRAL =      1.01 TIME LEFT:1209598.88
 STEP:  22 TIME =     0.04 SECS, INTEGRAL =      1.05 TIME LEFT:1209598.83
 STEP:  23 TIME =     0.04 SECS, INTEGRAL =      1.09 TIME LEFT:1209598.79
 STEP:  24 TIME =     0.04 SECS, INTEGRAL =      1.14 TIME LEFT:1209598.75
 STEP:  25 TIME =     0.04 SECS, INTEGRAL =      1.18 TIME LEFT:1209598.70
 STEP:  26 TIME =     0.04 SECS, INTEGRAL =      1.22 TIME LEFT:1209598.66
 STEP:  27 TIME =     0.05 SECS, INTEGRAL =      1.27 TIME LEFT:1209598.61
 STEP:  28 TIME =     0.04 SECS, INTEGRAL =      1.31 TIME LEFT:1209598.57
 STEP:  29 TIME =     0.04 SECS, INTEGRAL =      1.36 TIME LEFT:1209598.53
 STEP:  30 TIME =     0.04 SECS, INTEGRAL =      1.40 TIME LEFT:1209598.48
 STEP:  31 TIME =     0.04 SECS, INTEGRAL =      1.44 TIME LEFT:1209598.44
 STEP:  32 TIME =     0.04 SECS, INTEGRAL =      1.48 TIME LEFT:1209598.40
 STEP:  33 TIME =     0.05 SECS, INTEGRAL =      1.53 TIME LEFT:1209598.35
 STEP:  34 TIME =     0.04 SECS, INTEGRAL =      1.57 TIME LEFT:1209598.31
 STEP:  35 TIME =     0.04 SECS, INTEGRAL =      1.62 TIME LEFT:1209598.27
 STEP:  36 TIME =     0.04 SECS, INTEGRAL =      1.66 TIME LEFT:1209598.22
 STEP:  37 TIME =     0.04 SECS, INTEGRAL =      1.70 TIME LEFT:1209598.18
 STEP:  38 TIME =     0.04 SECS, INTEGRAL =      1.75 TIME LEFT:1209598.14
 STEP:  39 TIME =     0.04 SECS, INTEGRAL =      1.79 TIME LEFT:1209598.09
 STEP:  40 TIME =     0.04 SECS, INTEGRAL =      1.83 TIME LEFT:1209598.05
 STEP:  41 TIME =     0.04 SECS, INTEGRAL =      1.87 TIME LEFT:1209598.01
 STEP:  42 TIME =     0.04 SECS, INTEGRAL =      1.91 TIME LEFT:1209597.97
 STEP:  43 TIME =     0.04 SECS, INTEGRAL =      1.96 TIME LEFT:1209597.93
 STEP:  44 TIME =     0.04 SECS, INTEGRAL =      2.00 TIME LEFT:1209597.89
 STEP:  45 TIME =     0.04 SECS, INTEGRAL =      2.04 TIME LEFT:1209597.84
 STEP:  46 TIME =     0.04 SECS, INTEGRAL =      2.08 TIME LEFT:1209597.80
 STEP:  47 TIME =     0.04 SECS, INTEGRAL =      2.12 TIME LEFT:1209597.76
 STEP:  48 TIME =     0.04 SECS, INTEGRAL =      2.16 TIME LEFT:1209597.72
 STEP:  49 TIME =     0.04 SECS, INTEGRAL =      2.21 TIME LEFT:1209597.68
 STEP:  50 TIME =     0.04 SECS, INTEGRAL =      2.25 TIME LEFT:1209597.63
 STEP:  51 TIME =     0.20 SECS, INTEGRAL =      2.45 TIME LEFT:1209597.43
 STEP:  52 TIME =     0.08 SECS, INTEGRAL =      2.54 TIME LEFT:1209597.35
 STEP:  53 TIME =     0.06 SECS, INTEGRAL =      2.60 TIME LEFT:1209597.29
 STEP:  54 TIME =     0.05 SECS, INTEGRAL =      2.65 TIME LEFT:1209597.23
 STEP:  55 TIME =     0.05 SECS, INTEGRAL =      2.71 TIME LEFT:1209597.18
 STEP:  56 TIME =     0.22 SECS, INTEGRAL =      2.93 TIME LEFT:1209596.95
 STEP:  57 TIME =     0.15 SECS, INTEGRAL =      3.08 TIME LEFT:1209596.80
 STEP:  58 TIME =     0.10 SECS, INTEGRAL =      3.18 TIME LEFT:1209596.70
 STEP:  59 TIME =     0.18 SECS, INTEGRAL =      3.37 TIME LEFT:1209596.52
 STEP:  60 TIME =     0.06 SECS, INTEGRAL =      3.43 TIME LEFT:1209596.45
 STEP:  61 TIME =     0.09 SECS, INTEGRAL =      3.52 TIME LEFT:1209596.37
 STEP:  62 TIME =     0.05 SECS, INTEGRAL =      3.57 TIME LEFT:1209596.31
 STEP:  63 TIME =     0.16 SECS, INTEGRAL =      3.73 TIME LEFT:1209596.15
 STEP:  64 TIME =     0.18 SECS, INTEGRAL =      3.91 TIME LEFT:1209595.97
 STEP:  65 TIME =     0.10 SECS, INTEGRAL =      4.01 TIME LEFT:1209595.87
 STEP:  66 TIME =     0.10 SECS, INTEGRAL =      4.11 TIME LEFT:1209595.77
 STEP:  67 TIME =     0.06 SECS, INTEGRAL =      4.17 TIME LEFT:1209595.71
 STEP:  68 TIME =     0.08 SECS, INTEGRAL =      4.25 TIME LEFT:1209595.63
 STEP:  69 TIME =     0.12 SECS, INTEGRAL =      4.38 TIME LEFT:1209595.51
 STEP:  70 TIME =     0.10 SECS, INTEGRAL =      4.47 TIME LEFT:1209595.41
 STEP:  71 TIME =     0.05 SECS, INTEGRAL =      4.52 TIME LEFT:1209595.36
 STEP:  72 TIME =     0.05 SECS, INTEGRAL =      4.58 TIME LEFT:1209595.30
 STEP:  73 TIME =     0.05 SECS, INTEGRAL =      4.63 TIME LEFT:1209595.25
 STEP:  74 TIME =     0.07 SECS, INTEGRAL =      4.70 TIME LEFT:1209595.18
 STEP:  75 TIME =     0.05 SECS, INTEGRAL =      4.76 TIME LEFT:1209595.12

(To convert to Hartree/Bohr^2, multiply by (10^(-21) x N x a0^2)/(4.184 x 627.51) =  0.0642)


           FORCE MATRIX IN MILLIDYNES/ANGSTROM


                  C  1       H  2       N  3       O  4       O  5       H  6
 ------------------------------------------------------------------------------
     C    1  17.012568
     H    2   3.385321   4.290676
     N    3   1.083738   0.089589  18.744053
     O    4   0.089576   0.040476   8.825712  11.648259
     O    5   0.107251   0.021425   8.716143   2.654395  11.515805
     H    6   0.817176   0.137890   0.038514   0.013233   0.018867   4.277415
     C    7   3.986629   0.695943   3.734608   1.540369   1.555232   0.071294
     H    8   0.686582   0.030380   1.484436   0.315990   0.308303   0.034005
     H    9   0.675242   0.040555   0.950671   0.109000   0.046506   0.017042
     C   10  10.355099   0.817782   0.121488   0.035459   0.053954   3.525637
     H   11   0.825368   0.066137   0.042409   0.011698   0.014121   0.464710
     C   12   0.003725   0.001068   0.006832   0.002827   0.001541   0.001632
     C   13   0.002156   0.000646   0.010230   0.003022   0.003763   0.000436
     C   14   0.000782   0.000339   0.002714   0.001419   0.001615   0.000350
     C   15   0.002224   0.000566   0.005262   0.002082   0.001663   0.000710
     C   16   0.002236   0.000329   0.010698   0.002879   0.004213   0.000621
     N   17   0.027913   0.002191   0.104450   0.032066   0.026859   0.003166
     H   18   0.000973   0.000523   0.005906   0.001813   0.002795   0.000503
     H   19   0.000524   0.000273   0.003042   0.001398   0.001353   0.000117
     H   20   0.001052   0.000196   0.002121   0.001012   0.000745   0.000375
     H   21   0.002659   0.000411   0.005301   0.001851   0.001132   0.000715
     H   22   0.000471   0.000198   0.002034   0.001129   0.000905   0.000181
     H   23   0.017544   0.001809   0.060942   0.019204   0.016733   0.001392
     H   24   0.073861   0.006436   0.266485   0.071231   0.072755   0.007697
     O   25   0.207278   0.017841   0.731734   0.198308   0.194915   0.021489


                  C  7       H  8       H  9       C 10       H 11       C 12
 ------------------------------------------------------------------------------
     C    7  12.019761
     H    8   1.006039   0.879688
     H    9   3.191858   0.442368   4.162547
     C   10   1.018275   0.107349   0.024745  15.853050
     H   11   0.124396   0.030188   0.006066   3.501266   4.256907
     C   12   0.022372   0.029871   0.003319   0.002374   0.000805  15.086136
     C   13   0.017607   0.024895   0.002096   0.000892   0.000463   5.811550
     C   14   0.001300   0.003448   0.000604   0.000703   0.000427   2.148876
     C   15   0.013240   0.021008   0.002150   0.001410   0.000648   1.384952
     C   16   0.018657   0.022319   0.002751   0.000879   0.000544   2.404125
     N   17   0.205586   0.284026   0.025413   0.009895   0.002789   5.675260
     H   18   0.008399   0.017140   0.001051   0.000385   0.000442   3.242387
     H   19   0.004046   0.003752   0.000500   0.000462   0.000299   0.728249
     H   20   0.004539   0.005284   0.000752   0.000674   0.000543   0.009293
     H   21   0.013243   0.020314   0.001914   0.001408   0.000821   0.138201
     H   22   0.003047   0.004057   0.000460   0.000503   0.000428   0.101373
     H   23   0.140598   0.457274   0.013838   0.005787   0.000663   0.022255
     H   24   0.543754   0.776744   0.067780   0.025519   0.004935   1.064720
     O   25   1.796159   0.978951   0.156040   0.068881   0.017096   0.115793


                  C 13       C 14       C 15       C 16       N 17       H 18
 ------------------------------------------------------------------------------
     C   13  14.908786
     C   14   6.072405  15.049901
     C   15   1.977902   6.168274  15.027766
     C   16   1.348618   2.136158   5.791893  15.272838
     N   17   2.308572   1.440142   2.318843   5.872446  14.640040
     H   18   0.672238   0.092460   0.036911   0.139896   0.865787   4.157912
     H   19   3.336302   0.742584   0.088494   0.008982   0.108812   0.037780
     H   20   0.091410   0.742211   3.381093   0.736116   0.108424   0.014938
     H   21   0.033194   0.092727   0.661113   3.283753   0.877472   0.015940
     H   22   0.708938   3.381062   0.709004   0.104100   0.034068   0.012101
     H   23   0.013328   0.004340   0.008582   0.011568   0.083069   0.012645
     H   24   0.139522   0.017040   0.132894   1.221559   1.855695   0.075118
     O   25   0.077013   0.010476   0.066330   0.106411   1.517480   0.037858


                  H 19       H 20       H 21       H 22       H 23       H 24
 ------------------------------------------------------------------------------
     H   19   4.228757
     H   20   0.012109   4.264462
     H   21   0.015837   0.028481   4.169821
     H   22   0.033019   0.032069   0.012481   4.242016
     H   23   0.003074   0.001620   0.004493   0.001595   4.332859
     H   24   0.033638   0.035629   0.074792   0.020200   0.404345   2.611009
     O   25   0.018554   0.019874   0.040563   0.010283   4.027557   0.821371


                  O 25
 ------------------
     O   25   4.712001


          HEAT OF FORMATION =     -30.811528 KCALS/MOLE


          TRIVIAL VIBRATIONS, SHOULD BE ZERO

  16.4440=TX  19.7832=TY  34.7090=TZ  13.5252=RX  -4.2473=RY  19.7747=RZ


      MOLECULAR POINT GROUP   :   C1  


           EIGENVECTORS  


   Root No.       1         2         3         4         5         6         7         8

                 1 A       2 A       3 A       4 A       5 A       6 A       7 A       8 A   

                  -2.8      -0.4      -0.0      -0.0      -0.0      -0.0       0.0       0.0
  
           1    0.0065   -0.0213   -0.0163   -0.0777   -0.0217   -0.0002    0.0720   -0.0343
           2   -0.0110    0.0241   -0.0669   -0.0281    0.0731   -0.0256    0.0425    0.0349
           3    0.0065   -0.0698   -0.1549    0.0007    0.0795   -0.0465    0.0098   -0.1413
           4    0.0045   -0.0182   -0.0190   -0.0777   -0.0218   -0.0012    0.0721   -0.0338
           5    0.0026    0.0081   -0.1738   -0.1240    0.1126   -0.0049    0.0195    0.0242
           6    0.0063   -0.0618   -0.5678    0.0278    0.1070   -0.0745   -0.0182   -0.2595
           7    0.0309   -0.0332   -0.0265    0.1114   -0.0792   -0.1824    0.0240    0.0199
           8    0.0538   -0.0424   -0.0663   -0.0276    0.0719   -0.0277    0.0376    0.0411
           9   -0.0101   -0.0409   -0.0103    0.0273   -0.0843    0.1132    0.1425    0.0933
          10   -0.0166   -0.0049   -0.0191    0.0719   -0.0459   -0.2600   -0.1166    0.0128
          11   -0.0166    0.0145   -0.0894   -0.1415    0.1440    0.0069   -0.0503   -0.0505
          12    0.0171   -0.0253   -0.0402    0.1732   -0.2092    0.3995    0.6718    0.1155
          13   -0.0075    0.0056   -0.0135    0.2150   -0.1364   -0.2390    0.1120    0.0975
          14   -0.0170    0.0185   -0.0600    0.0412    0.0339   -0.0562    0.1145    0.0893
          15    0.0128   -0.0591    0.0416   -0.0698   -0.0353   -0.0112   -0.2328    0.0917
          16   -0.0044    0.0056    0.0293   -0.1864    0.0063    0.0276    0.0615    0.0063
          17   -0.0007    0.0060    0.1829    0.1327    0.0364   -0.0410    0.0794   -0.0187
          18    0.0000   -0.0091    0.6534   -0.0403    0.0965    0.0305    0.0548   -0.1068
          19   -0.0030   -0.0038   -0.0567    0.0425   -0.0573   -0.0291    0.0992   -0.0648
          20   -0.0348    0.0428   -0.0395    0.0275    0.0251   -0.0436    0.0573    0.0977
          21   -0.2508    0.1189   -0.0362   -0.0171   -0.0019   -0.0642    0.0198    0.0651
          22   -0.0153   -0.1081   -0.0949    0.0807   -0.0415    0.1209    0.1293   -0.1866
          23   -0.0576   -0.0175    0.0186    0.0306   -0.0688    0.0458    0.0701    0.1775
          24    0.4655   -0.6072   -0.0311   -0.0151    0.0025   -0.0328   -0.0047    0.0678
          25   -0.0213    0.0118   -0.0490    0.0398   -0.0558   -0.0454    0.0851   -0.0534
          26   -0.0015    0.0153   -0.0467    0.1154    0.0036   -0.1279    0.0451    0.1194
          27    0.0574   -0.2032    0.0473   -0.0744    0.0130   -0.2138   -0.1382    0.2067
          28   -0.0006   -0.0008    0.0197   -0.1817    0.0057    0.0266    0.0607    0.0021
          29    0.0077    0.0068    0.0557    0.0342    0.0687   -0.0251    0.0556   -0.0116
          30    0.0079   -0.0510    0.2318   -0.0147    0.1151   -0.0001    0.0241   -0.2023
          31    0.0011    0.0089    0.0390   -0.2728    0.0297    0.0488    0.0520    0.0347
          32    0.0013    0.0148    0.0356   -0.0070    0.0986   -0.0110    0.0454   -0.0501
          33    0.0122   -0.0574    0.1480   -0.0018    0.1648    0.0100    0.0077   -0.3570
          34   -0.0136   -0.0121   -0.0048   -0.1241   -0.0043    0.0858   -0.0341   -0.1096
          35    0.0020   -0.0251    0.0241    0.0421   -0.0336    0.0252   -0.0682    0.0128
          36   -0.0728    0.0136   -0.0112    0.0058    0.0770   -0.0959    0.0475    0.0465
          37   -0.0056   -0.0039    0.0184   -0.2123   -0.0561   -0.0374    0.0214    0.0028
          38    0.0130   -0.0067    0.0208    0.0462    0.0861   -0.0267    0.0104   -0.0345
          39   -0.0660    0.0009   -0.0148    0.0250    0.0713   -0.0623    0.0239    0.0282
          40   -0.0059   -0.0017    0.0416   -0.0850   -0.0631   -0.1330    0.0318    0.0982
          41   -0.0021   -0.0040    0.0139   -0.0054    0.1270   -0.0276    0.0429   -0.0705
          42   -0.0228   -0.0020   -0.0235    0.0216   -0.0162    0.0368   -0.0616    0.0190
          43   -0.0160   -0.0085    0.0500    0.1395   -0.0294   -0.0939   -0.0368    0.0502
          44   -0.0236   -0.0101    0.0070   -0.0641    0.0449    0.0243   -0.0003   -0.0481
          45   -0.0463   -0.0066   -0.0307   -0.0006   -0.0968    0.1024   -0.1207    0.0333
          46   -0.0176   -0.0238    0.0391    0.2487    0.0143    0.0198   -0.1104   -0.0664
          47   -0.0113   -0.0005    0.0064   -0.0739   -0.0729    0.0777   -0.0735    0.0007
          48   -0.0531   -0.0023   -0.0275   -0.0224   -0.0930    0.0692   -0.0953    0.0533
          49   -0.0534   -0.0242    0.0003    0.0821    0.0327    0.1114   -0.0880   -0.1330
          50   -0.0054   -0.0089    0.0153   -0.0154   -0.1039    0.0770   -0.1049    0.0237
          51   -0.1961   -0.0099   -0.0171   -0.0119   -0.0067   -0.0274   -0.0158    0.0569
          52   -0.0081   -0.0125   -0.0283   -0.2102    0.0132    0.1625   -0.0347   -0.1820
          53   -0.0230   -0.0261    0.0286    0.0760   -0.0662    0.0269   -0.0937    0.0398
          54   -0.0075    0.0154    0.0001    0.0066    0.1386   -0.1734    0.1095    0.0523
          55   -0.0041   -0.0032    0.0145   -0.3507   -0.0808   -0.0515    0.0557    0.0160
          56    0.0069   -0.0063    0.0239    0.0805    0.1485   -0.0698    0.0497   -0.0430
          57   -0.0316    0.0074   -0.0115    0.0340    0.1400   -0.1170    0.0789    0.0203
          58   -0.0071   -0.0029    0.0632    0.2225   -0.0367   -0.1461   -0.0345    0.1046
          59   -0.0097   -0.0047    0.0036   -0.1002    0.0731    0.0187    0.0234   -0.0688
          60   -0.0235   -0.0127   -0.0356    0.0079   -0.1710    0.1779   -0.1935    0.0310
          61    0.0055   -0.0192    0.0490    0.4225    0.0415    0.0451   -0.1697   -0.1051
          62    0.0253    0.0122   -0.0003   -0.1245   -0.1324    0.1177   -0.1029    0.0176
          63   -0.0105    0.0078   -0.0320   -0.0439   -0.1534    0.1170   -0.1389    0.0644
          64   -0.0027    0.0030    0.0485   -0.1468   -0.0875   -0.2160    0.0847    0.1924
          65   -0.0031   -0.0028    0.0163   -0.0009    0.2061   -0.0701    0.0955   -0.1063
          66   -0.0119   -0.0016   -0.0253    0.0349   -0.0206    0.0608   -0.0802    0.0027
          67   -0.0095   -0.0076   -0.0266    0.0601    0.4336    0.3716   -0.1682    0.5124
          68    0.0046    0.0717    0.0277    0.0364   -0.3566   -0.0044   -0.0422   -0.1857
          69   -0.0714    0.2340   -0.0082   -0.0156   -0.0946   -0.0540   -0.1060   -0.0799
          70    0.1981    0.0838   -0.0250    0.1009    0.0729    0.1880   -0.1012   -0.1491
          71    0.0952    0.0046    0.0340    0.0202   -0.2308    0.1071   -0.1898    0.0533
          72    0.6678    0.6147   -0.0223   -0.0196   -0.0034   -0.0841    0.0256    0.0615
          73   -0.0343    0.1912   -0.0330    0.0878    0.1676    0.2270   -0.0672   -0.0319
          74    0.0050   -0.0842    0.0285    0.0298   -0.2884    0.0343   -0.0632   -0.0443
          75   -0.3792    0.2071   -0.0218   -0.0177   -0.0188   -0.0600   -0.0099    0.0375


   Root No.       9        10        11        12        13        14        15        16

                 9 A      10 A      11 A      12 A      13 A      14 A      15 A      16 A   

                   0.0       0.0       0.1       0.1       0.1       0.1       0.2       0.2
  
           1    0.0375    0.0591    0.0333    0.0587    0.2009   -0.0225   -0.0219    0.1492
           2   -0.0579   -0.0061    0.0308   -0.0256   -0.0437   -0.0250    0.0271   -0.0225
           3    0.1201   -0.0740    0.1128   -0.0202    0.0263   -0.0298   -0.0221   -0.1604
           4    0.0379    0.0547    0.0346    0.0560    0.1889   -0.0200   -0.0213    0.1424
           5   -0.0585   -0.0808    0.0262   -0.0459   -0.1468   -0.0100    0.0378   -0.0036
           6    0.2449   -0.0750    0.1605   -0.0115   -0.0501    0.0198   -0.0431   -0.1985
           7    0.0322   -0.0198    0.0465   -0.0215   -0.0360    0.0057    0.0045   -0.0039
           8   -0.0672    0.0022   -0.0127    0.0002    0.0731   -0.0493    0.0168   -0.0759
           9   -0.0879    0.1390    0.2408   -0.0592   -0.0585   -0.0489    0.0070    0.0177
          10    0.0127    0.0464    0.0921   -0.0305   -0.0544    0.0095   -0.0029   -0.0281
          11   -0.0306    0.1304    0.0089    0.0713    0.3049   -0.0707   -0.0268   -0.1048
          12   -0.0122   -0.1157    0.1052   -0.0276    0.0012   -0.0561    0.0216    0.1125
          13    0.0115   -0.2171    0.0109   -0.0788   -0.2141    0.0269    0.0207   -0.0050
          14   -0.0751   -0.1433   -0.0389   -0.0301   -0.0193   -0.0362    0.0189   -0.0785
          15   -0.1757    0.5648    0.4849   -0.1210   -0.2373   -0.0455    0.0524    0.0623
          16   -0.0088   -0.0642    0.0239    0.0026   -0.0236    0.0073   -0.0065    0.0290
          17   -0.0069    0.2131    0.0317    0.0738    0.4099   -0.1047    0.0051    0.1822
          18    0.0611   -0.0797    0.0707   -0.0516   -0.0024   -0.0549   -0.0099   -0.4871
          19    0.0838    0.1102    0.0559    0.0500    0.1457   -0.0015   -0.0195    0.0077
          20   -0.1036    0.0202    0.0516   -0.0389   -0.0556   -0.0319    0.0273   -0.0469
          21   -0.0628   -0.0884    0.1805   -0.0417    0.0737   -0.0677   -0.0443   -0.0541
          22    0.1418    0.3180   -0.0319    0.0317    0.0355   -0.0164    0.0500   -0.3130
          23   -0.1507    0.1126    0.0395   -0.0015   -0.1614    0.0974   -0.0632    0.0633
          24   -0.0683   -0.0407   -0.0413   -0.0225    0.0741   -0.0733    0.0364   -0.0696
          25    0.0735    0.0940    0.0586    0.0419    0.1365   -0.0065   -0.0188    0.0211
          26   -0.1036   -0.0417    0.0492   -0.0895   -0.1914   -0.0298    0.0599   -0.1655
          27   -0.1897   -0.2718    0.0437   -0.0926    0.1249   -0.1674   -0.0036    0.2797
          28   -0.0048   -0.0544    0.0230    0.0088   -0.0018    0.0051   -0.0077    0.0565
          29   -0.0132    0.0722    0.0219    0.0054    0.0488   -0.0235    0.0220    0.0882
          30    0.1661   -0.0625    0.0783   -0.0212   -0.0679    0.0224   -0.0183   -0.0343
          31   -0.0406   -0.1777    0.0136   -0.0595   -0.2911    0.0493    0.0170   -0.1198
          32    0.0221    0.0214    0.0156   -0.0176   -0.1499    0.0455    0.0294    0.2143
          33    0.3178   -0.0401    0.0692    0.0023   -0.2611    0.1636   -0.0306    0.5254
          34   -0.1940   -0.0587    0.0043   -0.0655    0.0538    0.1026   -0.0422    0.0055
          35    0.1205   -0.0409   -0.0098    0.0044    0.0016   -0.0674    0.0438    0.0054
          36   -0.0341    0.0774   -0.1850    0.0703   -0.0118    0.0471    0.0061   -0.0002
          37   -0.0364   -0.0125   -0.0082    0.1748   -0.0307   -0.0218    0.0698    0.0001
          38    0.0263   -0.0143   -0.0301   -0.0500    0.0167    0.0103   -0.0125    0.0039
          39   -0.0569    0.0647   -0.1846    0.0314    0.0035    0.0692   -0.0084    0.0012
          40    0.1219    0.0479   -0.0730   -0.0380   -0.0152   -0.0627   -0.1190    0.0052
          41   -0.0417   -0.0200   -0.0138    0.0233    0.0074    0.0327    0.0413    0.0009
          42   -0.0500    0.0218   -0.1612    0.0469    0.0116    0.0503    0.0382    0.0034
          43    0.0514   -0.0064   -0.0092   -0.0798    0.0487    0.1022    0.0927   -0.0026
          44    0.0083   -0.0315   -0.0090    0.0215   -0.0072   -0.0500   -0.0213    0.0039
          45   -0.0100    0.0006   -0.1469    0.0296    0.0085   -0.0094    0.0071    0.0055
          46   -0.1193   -0.0799    0.0399    0.1155   -0.0077   -0.0215   -0.0487    0.0039
          47    0.1077   -0.0507    0.0071   -0.0670    0.0260   -0.0415    0.0444    0.0040
          48    0.0149    0.0187   -0.1559    0.0038    0.0155    0.0207    0.0293    0.0030
          49   -0.2080   -0.0667   -0.0064   -0.0682    0.0103   -0.0539   -0.1850    0.0072
          50    0.1440   -0.0612    0.0206   -0.0243    0.0221   -0.0444    0.0899    0.0041
          51   -0.0025    0.0454   -0.1487    0.0475    0.0020    0.0413    0.0401   -0.0014
          52   -0.3078   -0.0867    0.0190   -0.2973    0.1699    0.3595   -0.0581    0.0114
          53    0.1691   -0.0448    0.0008    0.0668   -0.0344   -0.1792    0.0544    0.0039
          54   -0.0403    0.1160   -0.2301    0.1494   -0.0418    0.0537   -0.0020   -0.0012
          55   -0.0248   -0.0151    0.0264    0.4905   -0.1053   -0.0846    0.3710   -0.0099
          56    0.0010    0.0119   -0.0634   -0.1415    0.0331    0.0511   -0.1214    0.0058
          57   -0.0849    0.0956   -0.2162   -0.0030    0.0057    0.1062   -0.0711    0.0011
          58    0.1335    0.0123   -0.0072   -0.2683    0.1448    0.3335    0.4579   -0.0161
          59   -0.0281   -0.0268   -0.0170    0.0886   -0.0423   -0.1178   -0.1497    0.0075
          60    0.0030   -0.0356   -0.1279    0.0518    0.0021   -0.0789   -0.0381    0.0114
          61   -0.1838   -0.1358    0.0974    0.3965   -0.0694   -0.1251   -0.0992    0.0126
          62    0.1516   -0.0522   -0.0104   -0.1822    0.0583   -0.0289    0.0778    0.0061
          63    0.0511    0.0067   -0.1662   -0.0650    0.0384    0.0178    0.0578    0.0073
          64    0.2774    0.1266   -0.1590   -0.1677   -0.0512   -0.2177   -0.4515    0.0169
          65   -0.1214   -0.0147   -0.0040    0.0865    0.0094    0.1136    0.1382   -0.0050
          66   -0.0743    0.0040   -0.1456    0.0686    0.0195    0.0753    0.0997    0.0019
          67    0.2471   -0.0347    0.1166    0.1532    0.0196    0.2607   -0.1872   -0.0426
          68   -0.0647    0.1007   -0.1331    0.0530   -0.1287    0.1602   -0.1354   -0.0272
          69    0.0310   -0.1991    0.1791   -0.0594    0.1927   -0.1789    0.0404    0.0180
          70   -0.1572   -0.0002   -0.1079   -0.2059   -0.0559   -0.2804   -0.0986    0.0084
          71    0.1900   -0.1218    0.1016    0.0730    0.0518    0.0827    0.0535   -0.0026
          72   -0.0148    0.0136    0.0534    0.0839    0.0381    0.1149   -0.0530   -0.0203
          73    0.0232    0.1605   -0.2932   -0.1991   -0.1982   -0.3277    0.3044    0.0640
          74   -0.0175    0.0661   -0.0631    0.1462   -0.0824    0.3168   -0.2575   -0.0609
          75   -0.0456   -0.0859    0.1303    0.0108    0.0932    0.0086   -0.0914   -0.0234


   Root No.      17        18        19        20        21        22        23        24

                17 A      18 A      19 A      20 A      21 A      22 A      23 A      24 A   

                   0.3       0.4       0.4       0.5       0.6       0.7       0.7       0.8
  
           1    0.0358    0.0938    0.0602    0.0061    0.0087   -0.0231    0.0300    0.0058
           2   -0.0645    0.0557    0.0427    0.0609    0.0018    0.0356   -0.0152   -0.0002
           3    0.0969    0.0252   -0.0011   -0.0173    0.0188    0.0429    0.0610    0.0124
           4    0.0327    0.0946    0.0612    0.0030    0.0081   -0.0329    0.0288    0.0076
           5   -0.0819    0.2724    0.1814    0.2366    0.0278    0.2556    0.0038    0.0163
           6    0.2310    0.3235    0.0958   -0.0794   -0.0482   -0.1328   -0.0820   -0.0220
           7   -0.0153   -0.0212   -0.0117   -0.0552   -0.0129   -0.1152   -0.0503    0.0093
           8   -0.0224   -0.1160   -0.0765   -0.0280   -0.0099   -0.0446    0.0165   -0.0044
           9    0.0268   -0.0188   -0.0202   -0.0324    0.0117    0.0336    0.0749   -0.0080
          10   -0.0053   -0.0246   -0.0068   -0.0633    0.0045   -0.0662    0.0313    0.0001
          11    0.0755   -0.2942   -0.2110   -0.2143   -0.0326   -0.2039   -0.0622    0.0141
          12    0.0027    0.0138   -0.0174   -0.0183   -0.0369   -0.0920   -0.2045    0.0221
          13   -0.0510    0.0962    0.0876    0.0626    0.0330    0.0922    0.1332   -0.0208
          14   -0.0274   -0.0625   -0.0269    0.0206    0.0217    0.0876    0.1361   -0.0233
          15   -0.0969    0.0973    0.0531    0.0332   -0.0189   -0.0371   -0.1364    0.0125
          16   -0.0083    0.0685    0.0459    0.0210    0.0106    0.0076    0.0312    0.0113
          17    0.0168    0.3273    0.2141    0.1540    0.0222    0.0772   -0.0011    0.0108
          18    0.1399    0.1805    0.0330   -0.0562   -0.0304   -0.0745   -0.0563   -0.0125
          19    0.0119   -0.0667   -0.0503   -0.1232   -0.0239   -0.1666   -0.0544    0.0039
          20   -0.0586   -0.0603   -0.0316   -0.0173   -0.0038   -0.0127    0.0030   -0.0067
          21    0.1382   -0.0936   -0.0433   -0.0894    0.0600    0.1358    0.1573    0.0030
          22   -0.0916   -0.2885   -0.1975    0.2135    0.0121    0.6130    0.0116   -0.0474
          23    0.2512    0.0062   -0.0796   -0.2456    0.0016   -0.0700    0.5920   -0.1335
          24   -0.0804   -0.0913   -0.0150    0.1384    0.0196   -0.1310    0.3150    0.0053
          25    0.0326   -0.0697   -0.0614   -0.1251   -0.0285   -0.1470   -0.0961    0.0048
          26   -0.1618   -0.1887   -0.0934   -0.0260   -0.0391   -0.1793   -0.3548    0.0864
          27    0.4543   -0.0691   -0.2067    0.0480   -0.0505    0.3105   -0.3533   -0.0131
          28   -0.0068    0.0755    0.0530    0.0319    0.0141    0.0218    0.0382    0.0123
          29   -0.0620    0.0633    0.0509    0.0542   -0.0047    0.0013   -0.0340   -0.0051
          30    0.0548   -0.0051   -0.0103   -0.0251    0.0096    0.0190    0.0319    0.0079
          31   -0.0907   -0.0309   -0.0141    0.0069   -0.0168   -0.0595   -0.0757   -0.0055
          32   -0.1396   -0.0576    0.0014    0.0409   -0.0138   -0.0199   -0.0856   -0.0151
          33   -0.0440   -0.2364   -0.0882   -0.0585    0.0206    0.0379    0.0567    0.0055
          34   -0.0437   -0.0140    0.0669   -0.0454   -0.2252    0.0374    0.0084   -0.0054
          35   -0.0464    0.0308   -0.0147   -0.0669    0.0658    0.0124   -0.0169   -0.0044
          36   -0.0379    0.0155   -0.0009    0.0053    0.0372   -0.0086   -0.0019    0.0166
          37   -0.0036   -0.0273    0.0780   -0.0281   -0.2583    0.0312    0.0129   -0.0190
          38   -0.0345    0.0230   -0.0150   -0.0321    0.0776   -0.0058   -0.0263   -0.0528
          39   -0.0510    0.0219   -0.0038    0.0054    0.0337   -0.0140   -0.0048    0.0369
          40   -0.0383   -0.0036    0.0397   -0.0240   -0.2548    0.0294    0.0137   -0.0289
          41   -0.0053    0.0069   -0.0057   -0.0149    0.0867   -0.0041   -0.0132   -0.0268
          42   -0.0810    0.0305    0.0175   -0.0405    0.0374   -0.0119   -0.0359   -0.0780
          43   -0.0009   -0.0294    0.0734   -0.0267   -0.2536    0.0311    0.0243    0.0010
          44   -0.0143    0.0132   -0.0230   -0.0176    0.0886    0.0026    0.0080    0.0124
          45   -0.0846    0.0307    0.0110   -0.0495    0.0524   -0.0030   -0.0171   -0.0439
          46   -0.0404   -0.0169    0.0628   -0.0360   -0.2500    0.0320    0.0204    0.0206
          47   -0.0248    0.0205   -0.0235   -0.0585    0.0835    0.0257    0.0128    0.0717
          48   -0.0659    0.0240    0.0088   -0.0251    0.0435   -0.0124   -0.0122   -0.0425
          49   -0.0119   -0.1217    0.2490   -0.0603   -0.1886    0.0339    0.0084    0.0111
          50   -0.0398    0.0525   -0.0715   -0.0595    0.0825    0.0211    0.0049    0.0159
          51   -0.0189    0.0235   -0.0453    0.0273    0.0400   -0.0056    0.0351    0.0558
          52   -0.1384    0.2099   -0.3395    0.0171    0.1715   -0.0216   -0.0134   -0.0019
          53   -0.0068   -0.0500    0.1233   -0.1203   -0.0386    0.0739    0.0307    0.0974
          54   -0.0453   -0.0130    0.0812    0.0587   -0.1016   -0.0953   -0.1010   -0.2377
          55    0.0806   -0.0378    0.0595    0.0068    0.2783   -0.0455   -0.0214    0.0416
          56   -0.0500    0.0208   -0.0068   -0.0123   -0.0717   -0.0017   -0.0021    0.0235
          57   -0.0520    0.0162    0.0036    0.0418   -0.0260   -0.0295    0.0175    0.1519
          58    0.0741   -0.0461    0.0763   -0.0271    0.2534   -0.0184   -0.0143    0.0364
          59   -0.0308    0.0135   -0.0212   -0.0047   -0.0724    0.0137    0.0031   -0.2478
          60   -0.1371    0.0533    0.0091   -0.1117   -0.0653    0.0336    0.0415    0.6679
          61   -0.1614    0.2100   -0.3113   -0.0802    0.2375    0.0309   -0.0466   -0.1367
          62   -0.0456   -0.0291    0.1305   -0.1791   -0.0467    0.0912   -0.0526   -0.1864
          63   -0.1132    0.0157    0.1041   -0.1600   -0.0115    0.0531   -0.1000   -0.3627
          64   -0.1126    0.1148   -0.1789    0.0116    0.2308   -0.0269   -0.0209    0.0905
          65    0.0371   -0.0354    0.0590    0.0006   -0.0888    0.0222    0.0117    0.3389
          66   -0.0752    0.0122    0.0588   -0.0547   -0.0460   -0.0036   -0.0356   -0.1571
          67    0.1084   -0.0860    0.0657    0.1842    0.0377   -0.0494   -0.0537    0.0008
          68    0.3338   -0.0330   -0.0074    0.2430    0.0163   -0.0887   -0.0759    0.0155
          69   -0.1934   -0.2221   -0.0145    0.5909   -0.0220   -0.3033    0.1687   -0.0824
          70    0.1232   -0.2304    0.4022   -0.0519    0.3977   -0.0546   -0.0424    0.0037
          71   -0.0744    0.1046   -0.1887    0.0704   -0.2298   -0.0306    0.0218   -0.0196
          72    0.0207   -0.0064   -0.0656   -0.1027   -0.0298    0.1724    0.0497    0.0376
          73    0.3209    0.1516   -0.3098    0.1818   -0.1853   -0.1334    0.0970    0.0047
          74    0.2763   -0.0835    0.0931    0.2158    0.0759   -0.0589   -0.1044    0.0232
          75    0.0116   -0.1280    0.0564   -0.0282    0.1026    0.1160    0.1316    0.0248


   Root No.      25        26        27        28        29        30        31        32

                25 A      26 A      27 A      28 A      29 A      30 A      31 A      32 A   

                   0.9       0.9       1.0       1.0       1.1       1.2       1.3       1.5
  
           1   -0.0070   -0.0484   -0.0022   -0.0154   -0.0119    0.0092    0.0044   -0.0206
           2    0.0032    0.0500   -0.0177   -0.0777   -0.0732   -0.0414    0.0069   -0.0142
           3   -0.0205   -0.1312   -0.0269   -0.2020   -0.1514    0.0875    0.0270   -0.0075
           4   -0.0089   -0.0605   -0.0019   -0.0139   -0.0105    0.0130    0.0052   -0.0278
           5   -0.0271   -0.3737    0.1246    0.3297    0.0212   -0.2572   -0.0304    0.1116
           6    0.0328    0.2430   -0.0069    0.0910    0.1345    0.0543   -0.0091   -0.0329
           7   -0.0074   -0.0337    0.0080    0.0589    0.0197   -0.0697   -0.0128    0.0581
           8    0.0035    0.0138   -0.0112   -0.0697   -0.1410   -0.1273    0.0088   -0.0405
           9   -0.0013   -0.0453    0.0006   -0.0601   -0.0492    0.0386    0.0045    0.0043
          10   -0.0040   -0.0434    0.0081    0.0234   -0.0048   -0.0433   -0.0095    0.0533
          11   -0.0113   -0.0952    0.0162    0.0200   -0.0784   -0.1250   -0.0056    0.0362
          12   -0.0114   -0.0092    0.0051    0.0349   -0.0112   -0.0896   -0.0083    0.0234
          13    0.0099    0.0269   -0.0107   -0.1006   -0.1647   -0.1231    0.0055   -0.0254
          14    0.0138    0.0412   -0.0195   -0.1718   -0.2562   -0.1483    0.0201   -0.0941
          15   -0.0068    0.0192   -0.0099   -0.0555   -0.1087   -0.1184    0.0057   -0.0310
          16   -0.0158   -0.1587    0.0238    0.0382    0.0090    0.0750    0.0156   -0.0756
          17   -0.0061    0.0641   -0.0493   -0.1091    0.1794    0.3819    0.0141   -0.0084
          18    0.0155    0.0537    0.0369    0.1650    0.0244   -0.1727   -0.0196    0.0094
          19    0.0003    0.0142    0.0074    0.0507   -0.0202   -0.1253   -0.0106    0.0318
          20    0.0064    0.0334   -0.0017   -0.0338   -0.0849   -0.0919    0.0021   -0.0215
          21   -0.0182   -0.1513   -0.0126   -0.2103   -0.1048    0.1541    0.0125    0.0022
          22    0.0399    0.1504    0.0565    0.1372    0.1087    0.0617    0.0061   -0.0214
          23    0.0934    0.1693    0.0946    0.3895    0.2279    0.1109   -0.0126   -0.0190
          24   -0.0227   -0.1106   -0.0842   -0.1428    0.0242    0.0982    0.0044    0.0637
          25    0.0012    0.0157    0.0188    0.0842   -0.0151   -0.1557   -0.0139    0.0361
          26   -0.0698   -0.3301    0.0189    0.1341    0.3245    0.4304    0.0140   -0.0485
          27    0.0272    0.1730    0.0470    0.1452    0.0613   -0.0465   -0.0041   -0.0117
          28   -0.0173   -0.1675    0.0223    0.0300    0.0137    0.0903    0.0152   -0.0590
          29    0.0123    0.1454   -0.0295   -0.0691   -0.0522   -0.0898   -0.0032    0.0128
          30   -0.0129   -0.1001   -0.0062   -0.0873   -0.0754    0.0719    0.0198   -0.0121
          31    0.0250    0.3692   -0.1003   -0.2163    0.1206    0.2690    0.0080    0.0429
          32    0.0350    0.4136   -0.0781   -0.1368    0.0293   -0.0542   -0.0191    0.0703
          33   -0.0120   -0.1530    0.0364    0.0809    0.0207    0.0088   -0.0031   -0.0240
          34    0.0170   -0.0091    0.0081   -0.0220    0.0421   -0.0234    0.0928    0.0943
          35    0.0737   -0.0021    0.0972   -0.0427    0.0477   -0.0293   -0.0365    0.2187
          36    0.0107   -0.0117   -0.0491   -0.0369    0.0958   -0.0578   -0.0261    0.1617
          37   -0.0083   -0.0172    0.0014   -0.0343    0.0255   -0.0105   -0.3114   -0.0347
          38    0.0084    0.0155    0.1440   -0.0242    0.0193   -0.0206    0.0907   -0.1456
          39    0.0456   -0.0127   -0.0801   -0.0248    0.1066   -0.0758    0.0533    0.2150
          40   -0.0202   -0.0200   -0.0080   -0.0388    0.0278   -0.0146   -0.3968   -0.0475
          41   -0.0156    0.0094    0.0848   -0.0267    0.0342   -0.0201    0.1190   -0.0878
          42    0.0640   -0.0128   -0.0226   -0.0389    0.1595   -0.1387    0.0780   -0.0183
          43   -0.0488   -0.0126    0.0210   -0.0401    0.0099    0.0015   -0.1994   -0.0768
          44   -0.0628    0.0094    0.1328   -0.0653    0.0430   -0.0024    0.0478   -0.1630
          45   -0.0268   -0.0009    0.0052   -0.0388    0.1093   -0.0838    0.0418   -0.1601
          46   -0.0160   -0.0030    0.0234   -0.0157    0.0094   -0.0075    0.1914    0.0456
          47    0.0083    0.0048    0.0949   -0.0433    0.0070    0.0260   -0.0759    0.1876
          48   -0.0239   -0.0075   -0.0180   -0.0391    0.1004   -0.0781   -0.0214   -0.2475
          49   -0.0147    0.0133    0.0220    0.0028    0.0444   -0.0295    0.5111    0.0512
          50   -0.0015   -0.0053    0.0554   -0.0415    0.0155    0.0062   -0.1809    0.1037
          51   -0.0480   -0.0273   -0.0497   -0.0849    0.1070   -0.0415   -0.1004    0.0015
          52    0.0414   -0.0055    0.0497   -0.0302    0.0236   -0.0139   -0.1073    0.1386
          53   -0.0834   -0.0145   -0.1354   -0.0726    0.2358   -0.1582    0.0210    0.3188
          54    0.3903    0.0119    0.5177    0.0044   -0.2682    0.1974    0.0207    0.1612
          55   -0.1999    0.0725    0.0163    0.1060   -0.0958    0.0354    0.2101   -0.0268
          56   -0.4105    0.1076    0.0780    0.1502   -0.2038    0.0973   -0.0591   -0.2469
          57   -0.4970    0.1151   -0.2068    0.2228   -0.1691    0.0604    0.0005    0.2360
          58   -0.0084    0.0212    0.0846   -0.0209    0.0377   -0.0165    0.1145   -0.1125
          59   -0.1244   -0.0480    0.0394   -0.1386    0.1515   -0.0702   -0.0506   -0.2455
          60    0.0748    0.1295    0.2841    0.0964   -0.1730    0.1060   -0.0564   -0.1413
          61    0.0460   -0.0138   -0.1264    0.0797   -0.1288    0.0966   -0.1646    0.0494
          62    0.0800   -0.0091   -0.1626    0.1637   -0.2843    0.2135    0.0319    0.3340
          63    0.0656   -0.0281   -0.3562    0.2054   -0.2204    0.1166    0.0383   -0.2604
          64    0.1803   -0.0079   -0.1133    0.0373    0.0402   -0.0526    0.2638   -0.0609
          65    0.5105   -0.0639   -0.4600    0.1151   -0.0119   -0.0366   -0.0523   -0.2037
          66   -0.0401   -0.0073    0.0658   -0.0834    0.2080   -0.1699   -0.0408   -0.0158
          67    0.0069   -0.0041   -0.0280    0.0029   -0.0281   -0.0032   -0.0258    0.0131
          68   -0.0079   -0.0716   -0.0586   -0.0781   -0.0784    0.0186   -0.0168    0.0283
          69    0.0700    0.1477   -0.0233    0.2638    0.0460   -0.0311   -0.0375    0.0064
          70    0.0320    0.0422    0.0867    0.0206    0.0146   -0.0177   -0.2658   -0.0563
          71   -0.0186   -0.0056    0.0974   -0.0249   -0.0146   -0.0196    0.2047   -0.1109
          72   -0.0306   -0.0178   -0.0198   -0.0588    0.0776    0.0123    0.0473    0.0296
          73   -0.0230   -0.1200   -0.0674   -0.1237   -0.0670    0.0548    0.0744    0.0310
          74   -0.0096   -0.0586   -0.0547   -0.0765   -0.0574    0.0075   -0.0379    0.0277
          75   -0.0243   -0.0662   -0.0265   -0.1464    0.0559    0.0978   -0.0274    0.0482


   Root No.      33        34        35        36        37        38        39        40

                33 A      34 A      35 A      36 A      37 A      38 A      39 A      40 A   

                   1.5       1.5       1.7       1.8       1.9       1.9       2.7       2.8
  
           1   -0.0928   -0.0284   -0.0714    0.1654   -0.0242    0.1580    0.0340   -0.1318
           2   -0.0473   -0.0122    0.0570    0.2076    0.0051    0.0179   -0.1550    0.1351
           3    0.0615    0.0293    0.3530    0.2867    0.0327   -0.1263    0.0341   -0.1398
           4   -0.1266   -0.0398   -0.1040    0.2538   -0.0375    0.2527    0.0630   -0.2976
           5    0.3791    0.1100    0.0359   -0.0952    0.0016    0.0055    0.1457   -0.0981
           6   -0.1519   -0.0498   -0.1766   -0.1102   -0.0118    0.0510   -0.0532    0.0632
           7    0.2025    0.0522    0.0494   -0.0268   -0.0037   -0.0299   -0.1959    0.1555
           8   -0.1655   -0.0505   -0.0440   -0.0726    0.0078   -0.1014    0.1665    0.0224
           9    0.0521    0.0219    0.0172   -0.1147   -0.0046    0.1157   -0.1942   -0.2476
          10    0.2038    0.0562    0.0513   -0.0652   -0.0055    0.0262   -0.2647    0.0589
          11    0.1351    0.0441    0.0354   -0.2564    0.0127   -0.0860   -0.3233    0.0380
          12    0.0698    0.0179    0.0239   -0.0209    0.0081   -0.0673   -0.0865    0.1253
          13   -0.0872   -0.0313   -0.0134   -0.1435    0.0042   -0.0744   -0.0931   -0.0338
          14   -0.3440   -0.1000   -0.0830   -0.1657    0.0143   -0.1144    0.2355   -0.1280
          15   -0.1302   -0.0398   -0.0151   -0.0252    0.0128   -0.1116    0.1002    0.0605
          16   -0.2747   -0.0738   -0.0624    0.0221    0.0052   -0.0238   -0.2542    0.2887
          17    0.0392    0.0203    0.0900   -0.3399    0.0310   -0.1976    0.0218    0.0138
          18   -0.0277   -0.0202   -0.2105   -0.0671   -0.0325    0.1574   -0.0017   -0.0670
          19    0.0949    0.0229    0.0127    0.0124    0.0029   -0.0456    0.2120   -0.0184
          20   -0.0833   -0.0245   -0.0303   -0.0362    0.0076   -0.0270   -0.0370    0.0915
          21    0.0874    0.0402    0.0374   -0.1054   -0.0103    0.2400   -0.1083   -0.2394
          22   -0.0482   -0.0070   -0.0097    0.0083    0.0166    0.0237   -0.0488    0.0239
          23   -0.0282    0.0034    0.1171    0.1329    0.0304   -0.0777    0.0436   -0.0105
          24    0.1431    0.0138   -0.1760   -0.0291   -0.0914    0.1403    0.0922    0.1144
          25    0.1097    0.0277    0.0249    0.0237    0.0117   -0.0843    0.5032   -0.0591
          26   -0.1561   -0.0452   -0.0446    0.1406   -0.0110    0.1017    0.1023   -0.1159
          27   -0.0337   -0.0065    0.0293    0.0460    0.0183   -0.0509    0.0268    0.0231
          28   -0.2031   -0.0513   -0.0148   -0.0148    0.0105   -0.0587   -0.1110    0.1313
          29    0.0251    0.0017    0.0196    0.3526   -0.0140    0.1258   -0.1023    0.1114
          30    0.0328    0.0194    0.3624    0.3085    0.0516   -0.2675    0.0440    0.1557
          31    0.2056    0.0755    0.1407   -0.2242    0.0264   -0.1568    0.1523   -0.1091
          32    0.2085    0.0516   -0.1208    0.1671   -0.0456    0.3102   -0.0900   -0.0520
          33   -0.0944   -0.0305   -0.1263   -0.2542   -0.0059   -0.0020    0.0241   -0.0520
          34    0.0736   -0.3904    0.0342   -0.0076    0.0125   -0.0025   -0.0190   -0.0427
          35   -0.1252    0.1013    0.0864   -0.0272   -0.0377    0.0375   -0.0297   -0.1059
          36   -0.0536    0.0523   -0.0729    0.0471   -0.0383   -0.1210   -0.0279   -0.0385
          37    0.0788   -0.3720    0.0719   -0.0226    0.0079    0.0339    0.0003    0.0017
          38   -0.0219    0.1162    0.0908   -0.0375   -0.2658    0.0536    0.0197    0.0212
          39   -0.0817    0.0534   -0.0434    0.0363    0.0505   -0.1003   -0.0377   -0.0448
          40   -0.0356    0.0471    0.0481   -0.0115   -0.0598    0.0137    0.0079    0.0142
          41    0.0357   -0.0213   -0.0183    0.0130   -0.1700   -0.0519   -0.0136   -0.0135
          42   -0.0926   -0.0147    0.2225   -0.0790   -0.0968    0.1258    0.0277    0.0774
          43   -0.0779    0.4191   -0.0956    0.0422   -0.0434   -0.0840   -0.0162   -0.0203
          44    0.1427   -0.1273   -0.1928    0.0854    0.0236   -0.1770   -0.0413   -0.0483
          45    0.0362   -0.0585    0.0099    0.0028    0.0956   -0.0080   -0.0045    0.0027
          46   -0.0888    0.3623   -0.0658    0.0223    0.0050   -0.0351    0.0045    0.0293
          47    0.0172   -0.1327   -0.0703    0.0263    0.1062   -0.0276    0.0387    0.1154
          48    0.0611   -0.0349   -0.0154    0.0095    0.1494   -0.0104   -0.0126   -0.0395
          49    0.0458   -0.0934   -0.0525    0.0192   -0.0003   -0.0331    0.0154    0.0320
          50   -0.0358    0.0186    0.0018   -0.0046    0.1133    0.0331    0.0196    0.0371
          51    0.0475    0.0308   -0.1856    0.0716    0.0958   -0.1096    0.0477    0.1260
          52   -0.1118    0.1993    0.0222   -0.0030   -0.0316   -0.0082   -0.0336   -0.1084
          53   -0.1178   -0.1236    0.0963   -0.0089   -0.1210   -0.0446   -0.0931   -0.2779
          54    0.0097   -0.0413   -0.0082   -0.0140    0.1406    0.0572   -0.0133   -0.0743
          55   -0.0597    0.2223    0.0417   -0.0247   -0.0549    0.0524    0.0161    0.0165
          56    0.0403   -0.0713    0.2034   -0.1021   -0.1945    0.2174    0.0754    0.0883
          57   -0.0683   -0.0412    0.0151    0.0021    0.3442   -0.0044   -0.0507   -0.0700
          58    0.1251   -0.2419   -0.0874    0.0454    0.0346   -0.1019   -0.0353   -0.0436
          59    0.0992    0.1170   -0.2712    0.1265    0.1153   -0.2672   -0.0851   -0.0978
          60    0.0575    0.0190   -0.0697    0.0396   -0.2084   -0.1170   -0.0436   -0.0648
          61    0.0695   -0.2068   -0.0307    0.0117   -0.0370   -0.0190    0.0123    0.0374
          62   -0.0119    0.0358   -0.1300    0.0413   -0.1227   -0.0667    0.0607    0.2125
          63    0.0832    0.0585   -0.0426    0.0122   -0.0999   -0.0357   -0.0587   -0.1923
          64   -0.0036   -0.0185    0.0715   -0.0298   -0.0016    0.0543    0.0130    0.0422
          65    0.0050    0.0425    0.0782   -0.0375    0.1371    0.0896    0.0180    0.0383
          66   -0.1326   -0.0106    0.3081   -0.1080   -0.2175    0.1665    0.0538    0.1773
          67   -0.0062   -0.0160    0.0051   -0.0017   -0.0616   -0.0231   -0.0164   -0.0223
          68    0.0155   -0.0154   -0.0038   -0.0166   -0.1019    0.0035   -0.0161   -0.0287
          69   -0.0585   -0.0440    0.0539    0.0378   -0.1058   -0.1218   -0.0474   -0.0648
          70   -0.0630    0.1019    0.0836   -0.0311    0.3050    0.1027    0.0085    0.0058
          71   -0.0214    0.0710    0.1252   -0.0838    0.5580    0.2471    0.0369    0.0430
          72    0.0404   -0.0093   -0.0844    0.0327   -0.0674   -0.0248    0.0236    0.0265
          73    0.0699   -0.0158   -0.0496   -0.0199   -0.0815    0.0631    0.0457    0.0498
          74    0.0155   -0.0095   -0.0281   -0.0092   -0.0797   -0.0039    0.0021    0.0085
          75    0.1430    0.0449   -0.2060   -0.0048   -0.0090    0.2248    0.2662    0.3825


   Root No.      41        42        43        44        45        46        47        48

                41 A      42 A      43 A      44 A      45 A      46 A      47 A      48 A   

                   3.0       3.0       3.4       3.5       3.6       4.5       4.5       4.9
  
           1   -0.0436   -0.0558    0.1041    0.0003   -0.0600   -0.0003   -0.0008    0.0168
           2    0.0359    0.0468   -0.2620   -0.0031   -0.0892    0.0044    0.0315   -0.0532
           3   -0.0459   -0.0599   -0.3749   -0.0063   -0.4244    0.0083    0.1068    0.2072
           4   -0.1055   -0.1394    0.3232    0.0015   -0.2440    0.0002   -0.0199   -0.1791
           5   -0.0212   -0.0246    0.0680   -0.0001    0.0257    0.0018   -0.0078    0.0106
           6    0.0173    0.0211    0.0973    0.0008    0.1116   -0.0021   -0.0237   -0.0459
           7    0.0358    0.0425   -0.0319    0.0011   -0.1387   -0.0081   -0.0831   -0.2258
           8    0.0235    0.0322   -0.0661   -0.0003   -0.0252   -0.0052   -0.0814   -0.2824
           9   -0.0986   -0.1266   -0.0406   -0.0038    0.4798    0.0160    0.2477    0.1329
          10   -0.0013   -0.0047   -0.0424    0.0003    0.0284   -0.0033   -0.0061   -0.2078
          11   -0.0303   -0.0482    0.2951    0.0014   -0.1406    0.0076    0.0631    0.2862
          12    0.0301    0.0355    0.0500   -0.0004   -0.1861   -0.0023   -0.0684   -0.0671
          13   -0.0305   -0.0464    0.2392    0.0031   -0.0978    0.0023    0.0726    0.3508
          14   -0.0275   -0.0346    0.1056    0.0007    0.0477    0.0017    0.0188    0.0479
          15    0.0235    0.0279    0.0876    0.0006   -0.1893   -0.0015   -0.0605    0.0383
          16    0.0835    0.1106   -0.2650   -0.0021    0.1783    0.0014    0.0301    0.2244
          17    0.0067    0.0079   -0.0649   -0.0003   -0.0284   -0.0000    0.0067    0.0200
          18   -0.0181   -0.0246   -0.1001   -0.0011   -0.1048   -0.0005    0.0144    0.0131
          19    0.0148    0.0240   -0.0895   -0.0004    0.0783   -0.0015    0.0043   -0.0142
          20    0.0325    0.0440   -0.1330   -0.0011    0.0695   -0.0021   -0.0531   -0.3451
          21   -0.0703   -0.0834   -0.1396   -0.0023    0.1452   -0.0076   -0.1345   -0.2522
          22    0.0049    0.0048    0.0264   -0.0007   -0.0278    0.0005   -0.0216   -0.0173
          23   -0.0047   -0.0031    0.0037   -0.0007   -0.1041    0.0039   -0.0056    0.0376
          24    0.0600    0.0706    0.0044    0.0024    0.0303   -0.0172   -0.0523    0.0139
          25    0.0356    0.0593   -0.2781   -0.0018    0.3013    0.0000    0.0367    0.1700
          26   -0.0304   -0.0391    0.0636    0.0006    0.0052    0.0016    0.0228    0.0904
          27    0.0081    0.0096   -0.0050    0.0001   -0.0058    0.0017    0.0161    0.0253
          28    0.0348    0.0462   -0.0690   -0.0008    0.0498    0.0006    0.0012   -0.0138
          29    0.0298    0.0377    0.1048    0.0022    0.1732   -0.0013   -0.0173   -0.0504
          30    0.0448    0.0546    0.4448    0.0069    0.3535   -0.0064   -0.0581   -0.0739
          31   -0.0300   -0.0364    0.0909   -0.0001   -0.0739    0.0011   -0.0123   -0.1020
          32   -0.0155   -0.0182   -0.1029   -0.0014    0.0428    0.0019    0.0294    0.2522
          33   -0.0125   -0.0171   -0.1051   -0.0014   -0.1201   -0.0014   -0.0001   -0.0793
          34   -0.1630    0.1880   -0.0035    0.5265   -0.0014    0.0880    0.0136   -0.1054
          35    0.1760    0.0847    0.0048   -0.1613    0.0022   -0.1519   -0.0792    0.0542
          36    0.0342   -0.0184    0.0017   -0.1309   -0.0038    0.2821    0.1652   -0.0304
          37   -0.2135    0.1756    0.0075   -0.3812   -0.0017    0.0588    0.0014    0.1093
          38    0.0703   -0.0200    0.0067    0.0973   -0.0055    0.2458    0.0321   -0.0438
          39   -0.0024   -0.0536   -0.0148    0.0331    0.0105    0.3076    0.0429   -0.0420
          40    0.3867   -0.3423   -0.0069   -0.1282    0.0064    0.1456   -0.0118   -0.1166
          41   -0.1537    0.0914   -0.0070    0.0075    0.0086    0.3616   -0.0737    0.0560
          42   -0.1501   -0.0424   -0.0082    0.0300    0.0044   -0.0759    0.0072    0.0120
          43   -0.0507    0.0208   -0.0098    0.4744    0.0016   -0.0182    0.0032    0.1117
          44   -0.0220   -0.0426   -0.0153   -0.1738    0.0149    0.1176   -0.0622   -0.0278
          45    0.0115   -0.0376    0.0019   -0.0471   -0.0072   -0.3259    0.1659   -0.0704
          46   -0.3649    0.2327    0.0094   -0.3590   -0.0077   -0.1300    0.1013   -0.1172
          47    0.0156   -0.2076    0.0025    0.1369   -0.0116   -0.1189    0.1723   -0.0107
          48    0.1129    0.0137    0.0113    0.0883   -0.0153   -0.1556    0.1975   -0.0357
          49    0.3520   -0.2995    0.0063   -0.0930   -0.0085   -0.0641    0.1113    0.0530
          50   -0.1007    0.0747    0.0103    0.0795   -0.0127   -0.1914    0.0856   -0.0409
          51   -0.1234   -0.0007    0.0344    0.0006   -0.0421    0.1214    0.4433   -0.1118
          52    0.1557    0.1040    0.0091   -0.1500   -0.0026   -0.0753   -0.0169    0.0213
          53    0.2426    0.3472    0.0143    0.0531   -0.0043   -0.0699   -0.0328    0.0033
          54    0.1083    0.1278    0.0105    0.0503   -0.0065   -0.1610   -0.0179    0.0061
          55    0.0957   -0.0396    0.0074    0.1024   -0.0084   -0.0452    0.0572   -0.0309
          56    0.0459    0.1242    0.0469   -0.0272   -0.0431   -0.1419    0.3095   -0.0617
          57   -0.0457   -0.0588   -0.0376    0.0077    0.0360   -0.0743   -0.2978    0.0697
          58   -0.0133   -0.0611   -0.0217   -0.1354    0.0205   -0.0691   -0.1344    0.0065
          59   -0.0921   -0.1098   -0.0516    0.0597    0.0456   -0.2368   -0.3009    0.0671
          60   -0.0289   -0.0232   -0.0255    0.0081    0.0246    0.0541   -0.1879    0.0431
          61    0.0529   -0.1249   -0.0062    0.1019    0.0026    0.0398   -0.0041    0.0132
          62   -0.2631   -0.2618   -0.0167   -0.0552    0.0079    0.0042    0.0387   -0.0188
          63    0.1693    0.2723    0.0126   -0.0377   -0.0028    0.1398   -0.0887    0.0248
          64   -0.1996    0.0577   -0.0067    0.0405    0.0049   -0.0640   -0.0627    0.0378
          65    0.0350   -0.0810   -0.0015    0.0069    0.0005   -0.1510   -0.0124   -0.0033
          66   -0.1970   -0.2988   -0.0384    0.0002    0.0334   -0.0365   -0.3173    0.0768
          67   -0.0093   -0.0069   -0.0075    0.0025    0.0091   -0.0187   -0.0070   -0.0060
          68   -0.0069   -0.0037   -0.0156    0.0044    0.0218   -0.0332   -0.0398   -0.0129
          69   -0.0302   -0.0347   -0.0162    0.0026    0.0059   -0.0227    0.0244   -0.0105
          70   -0.0709    0.0629    0.0018    0.0004   -0.0025    0.1727   -0.0059   -0.0068
          71    0.0547   -0.0062    0.0085   -0.0271   -0.0043    0.3599   -0.0546    0.0192
          72    0.0343    0.0143    0.0137   -0.0042   -0.0128   -0.0486    0.0605   -0.0124
          73    0.0438    0.0279    0.0130   -0.0024   -0.0061   -0.0134   -0.0462    0.0283
          74   -0.0006    0.0095    0.0020    0.0014    0.0035   -0.0083    0.0103    0.0063
          75    0.1687    0.2325    0.1357    0.0034   -0.1142    0.0084   -0.1847    0.1685


   Root No.      49        50        51        52        53        54        55        56

                49 A      50 A      51 A      52 A      53 A      54 A      55 A      56 A   

                   4.9       5.4       6.4       7.3       7.5       8.3       8.3       8.4
  
           1   -0.0061    0.0452   -0.0004    0.0494    0.0141   -0.0315    0.5525   -0.0112
           2    0.0188   -0.2641    0.0046    0.3703    0.0509    0.0018   -0.0318    0.0108
           3   -0.0559   -0.0987   -0.0003   -0.1428   -0.0258   -0.0005    0.0169   -0.0105
           4    0.0530   -0.1599    0.0002   -0.0784   -0.0183    0.0297   -0.5191    0.0104
           5   -0.0050    0.0532    0.0007   -0.0651   -0.0093    0.0002    0.0063   -0.0030
           6    0.0122    0.0209    0.0001    0.0306    0.0055    0.0002   -0.0027    0.0028
           7    0.0641    0.0431   -0.0026   -0.0952   -0.0097    0.0003   -0.0171    0.0052
           8    0.0797    0.0361   -0.0018   -0.2720   -0.0355   -0.0026    0.0519   -0.0001
           9   -0.0259   -0.4815    0.0022   -0.1568   -0.0331   -0.0004    0.0217   -0.0106
          10    0.0632   -0.1269   -0.0021   -0.1926   -0.0290   -0.0013    0.0142    0.0001
          11   -0.0831    0.0230    0.0021    0.1445    0.0202    0.0036   -0.0540    0.0037
          12    0.0162    0.1049    0.0004    0.0025    0.0037    0.0009   -0.0140    0.0045
          13   -0.0992    0.0483   -0.0006    0.2156    0.0302    0.0014   -0.0340    0.0024
          14   -0.0134    0.0226   -0.0006   -0.1813   -0.0279   -0.0039    0.0742   -0.0073
          15   -0.0147    0.1618    0.0007    0.0376    0.0079   -0.0001    0.0053    0.0020
          16   -0.0683    0.2201   -0.0019   -0.2617   -0.0405    0.0170   -0.2896   -0.0044
          17   -0.0047    0.0094   -0.0005   -0.0434   -0.0071    0.0033   -0.0597    0.0004
          18   -0.0024   -0.0310   -0.0005    0.0189    0.0025   -0.0018    0.0285   -0.0005
          19    0.0048   -0.0281   -0.0013   -0.2605   -0.0476   -0.0170    0.3206   -0.0432
          20    0.1015   -0.1985    0.0023    0.0441    0.0028    0.0096   -0.1667    0.0004
          21    0.0641    0.5099   -0.0020    0.2117    0.0613   -0.0024    0.0051    0.0534
          22    0.0044    0.0305    0.0005    0.0239    0.0028    0.0007   -0.0096   -0.0022
          23   -0.0119    0.0500    0.0014   -0.0032    0.0004   -0.0001    0.0102    0.0004
          24   -0.0058    0.0421   -0.0048    0.0882    0.0059    0.0033   -0.0271   -0.0547
          25   -0.0497    0.0689    0.0008    0.3427    0.0560    0.0154   -0.2927    0.0345
          26   -0.0251    0.0274    0.0000   -0.0043   -0.0006   -0.0032    0.0564   -0.0028
          27   -0.0058   -0.0519    0.0006   -0.0229   -0.0065   -0.0003    0.0102   -0.0052
          28    0.0031   -0.0407    0.0014    0.1671    0.0286   -0.0149    0.2612    0.0056
          29    0.0147   -0.0599    0.0024    0.2977    0.0460   -0.0090    0.1527    0.0046
          30    0.0187    0.1038   -0.0018   -0.1050   -0.0148    0.0037   -0.0649    0.0014
          31    0.0286   -0.1050    0.0017    0.0893    0.0120   -0.0003    0.0117    0.0000
          32   -0.0758    0.2920   -0.0028   -0.2958   -0.0401    0.0024   -0.0367   -0.0028
          33    0.0246   -0.1087    0.0003    0.1077    0.0148   -0.0010    0.0138    0.0018
          34   -0.3489    0.0009   -0.0517    0.0127   -0.0767    0.1315    0.0082    0.0145
          35    0.1044   -0.0164   -0.2757    0.0287   -0.1978    0.2891    0.0189    0.0458
          36    0.1026    0.0555    0.1538    0.0169   -0.0481    0.1746    0.0088   -0.0141
          37    0.3955    0.0117   -0.0499    0.0176   -0.1039   -0.0116    0.0002    0.0093
          38   -0.1110    0.0079   -0.1643    0.0351   -0.2278   -0.2026   -0.0092    0.0274
          39   -0.0393    0.0361    0.0505    0.0334   -0.1595    0.3386    0.0194    0.0054
          40   -0.4020   -0.0022   -0.0589    0.0140   -0.0898   -0.0674   -0.0028    0.0087
          41    0.1577   -0.0041   -0.1816    0.0089   -0.0542   -0.2287   -0.0126   -0.0026
          42    0.0715    0.0185    0.0359    0.0657   -0.4165    0.0376    0.0060    0.0535
          43    0.4035    0.0106   -0.0470    0.0000    0.0156   -0.1322   -0.0081   -0.0120
          44   -0.1316   -0.0081   -0.1702   -0.0242    0.1755   -0.2624   -0.0173   -0.0388
          45   -0.0777    0.0459    0.0169    0.0480   -0.2573   -0.2428   -0.0129    0.0060
          46   -0.3199    0.0141   -0.1366   -0.0008    0.0276    0.0167    0.0004   -0.0062
          47    0.1163    0.0302   -0.3001   -0.0196    0.1679    0.2225    0.0109   -0.0143
          48    0.0702    0.0487   -0.0323    0.0277   -0.1233   -0.2636   -0.0153   -0.0125
          49    0.2803    0.0203   -0.1036   -0.0101    0.0775    0.0298    0.0009   -0.0105
          50   -0.0915    0.0030   -0.3314   -0.0043    0.0333    0.0861    0.0049    0.0041
          51   -0.0043    0.0656    0.0464   -0.0487    0.3364   -0.0262   -0.0046   -0.0428
          52    0.0451   -0.0070    0.1245   -0.0146    0.0847   -0.1048   -0.0068   -0.0120
          53   -0.0377   -0.0144    0.3353   -0.0331    0.1896   -0.2486   -0.0158   -0.0293
          54   -0.0250   -0.0153    0.0857   -0.0211    0.1174   -0.1050   -0.0068   -0.0134
          55   -0.0661    0.0067    0.0484   -0.0016    0.0142    0.0511    0.0027   -0.0016
          56    0.0304    0.0452    0.2570   -0.0072    0.0728    0.2533    0.0130   -0.0127
          57   -0.0146   -0.0499   -0.2108    0.0035   -0.0542   -0.1975   -0.0100    0.0135
          58   -0.0868   -0.0199    0.1196    0.0017   -0.0300    0.1133    0.0072    0.0111
          59   -0.0173   -0.0422    0.3008    0.0061   -0.0786    0.2896    0.0179    0.0284
          60   -0.0018   -0.0272    0.1054   -0.0003   -0.0210    0.0860    0.0055    0.0105
          61    0.0488    0.0021    0.0682    0.0022   -0.0155   -0.0343   -0.0019   -0.0005
          62   -0.0069    0.0196    0.3081    0.0236   -0.1434   -0.2087   -0.0113    0.0017
          63   -0.0135   -0.0299   -0.2224   -0.0320    0.1832    0.1929    0.0102   -0.0054
          64    0.0657   -0.0153    0.0086   -0.0181    0.1037   -0.0038   -0.0008   -0.0097
          65   -0.0369   -0.0077    0.0299   -0.0100    0.0588   -0.0139   -0.0013   -0.0059
          66   -0.0440   -0.0758   -0.0062   -0.0831    0.4807    0.0081   -0.0029   -0.0436
          67   -0.0003    0.0100   -0.0096    0.0126   -0.0172    0.0060   -0.0056   -0.1630
          68   -0.0023    0.0223   -0.0192    0.0446   -0.0696    0.0253   -0.0211   -0.6737
          69    0.0009    0.0179   -0.0101   -0.0001    0.0080   -0.0019    0.0016    0.0572
          70   -0.0076    0.0101    0.0898    0.0010    0.0170    0.0134    0.0006    0.0002
          71    0.0335   -0.0054    0.1983   -0.0029    0.0165    0.0214    0.0008   -0.0116
          72    0.0043    0.0150   -0.0330    0.0004    0.0341   -0.0039    0.0002    0.0368
          73   -0.0051   -0.0375    0.0024   -0.0162   -0.0059   -0.0072    0.0077    0.1745
          74   -0.0029   -0.0213    0.0052   -0.0374    0.0571   -0.0248    0.0193    0.6770
          75   -0.0546   -0.2769    0.0254   -0.0799   -0.1014    0.0016    0.0080   -0.0356


   Root No.      57        58        59        60        61        62        63        64

                57 A      58 A      59 A      60 A      61 A      62 A      63 A      64 A   

                   9.5      10.8      10.9      12.2      12.6      14.3      16.2      16.6
  
           1   -0.0862   -0.0121   -0.2213   -0.0009    0.4488   -0.0006   -0.0001   -0.0002
           2    0.0343    0.0031    0.0541   -0.0004   -0.3709    0.0003    0.0000   -0.0005
           3   -0.0064   -0.0007   -0.0237   -0.0005    0.1397   -0.0003   -0.0001    0.0002
           4    0.0354    0.0048    0.0842    0.0002   -0.1309    0.0000   -0.0000    0.0001
           5   -0.0475    0.0005    0.0132   -0.0012    0.0032   -0.0001   -0.0002   -0.0009
           6    0.0162   -0.0001   -0.0025   -0.0003    0.0027   -0.0000   -0.0001    0.0001
           7    0.0579   -0.0087   -0.1624    0.0001   -0.0201    0.0004    0.0001    0.0007
           8    0.0663   -0.0134   -0.2579   -0.0010   -0.1117    0.0005   -0.0001   -0.0017
           9    0.0277   -0.0026   -0.0798   -0.0002   -0.0171   -0.0005   -0.0005   -0.0006
          10    0.0774   -0.0142   -0.3017   -0.0001   -0.0496   -0.0011    0.0002    0.0018
          11    0.0020    0.0008    0.0261   -0.0011    0.0399    0.0001   -0.0001   -0.0010
          12    0.0240   -0.0051   -0.0862   -0.0005   -0.0082    0.0004    0.0003   -0.0002
          13   -0.0443    0.0088    0.1821    0.0010    0.0525    0.0007    0.0001    0.0002
          14    0.0170   -0.0082   -0.1824   -0.0012   -0.1333   -0.0009   -0.0001    0.0009
          15   -0.0087    0.0001    0.0048   -0.0000   -0.0236    0.0002   -0.0001   -0.0004
          16   -0.3745   -0.0032   -0.0537   -0.0004    0.0454   -0.0001   -0.0001   -0.0002
          17    0.0080    0.0008    0.0149   -0.0006   -0.0087   -0.0000   -0.0000    0.0001
          18    0.0060   -0.0000   -0.0047    0.0000    0.0016   -0.0001   -0.0000    0.0005
          19   -0.2570    0.0319    0.5988    0.0013   -0.3258    0.0008    0.0002    0.0003
          20    0.0062    0.0205    0.4246   -0.0008    0.6509   -0.0001   -0.0001   -0.0007
          21   -0.0608    0.0013    0.0967    0.0005   -0.1107    0.0013   -0.0001   -0.0004
          22    0.0045   -0.0000   -0.0083   -0.0002    0.0061   -0.0009   -0.0007    0.0002
          23   -0.0012   -0.0007   -0.0145   -0.0008   -0.0130   -0.0006   -0.0007   -0.0008
          24   -0.0098    0.0006    0.0588    0.0004   -0.0009    0.0031    0.0027    0.0005
          25    0.1426   -0.0121   -0.2187   -0.0003    0.1000   -0.0003   -0.0001    0.0005
          26   -0.0155   -0.0002   -0.0047   -0.0006   -0.0117   -0.0001   -0.0001   -0.0001
          27   -0.0147    0.0026    0.0404    0.0001   -0.0108   -0.0001   -0.0001    0.0001
          28    0.6332    0.0086    0.1500    0.0000   -0.1289    0.0002   -0.0001   -0.0001
          29   -0.4011   -0.0096   -0.1670   -0.0008   -0.0995    0.0001   -0.0001   -0.0002
          30    0.1310    0.0037    0.0624   -0.0000    0.0378   -0.0001   -0.0001    0.0004
          31   -0.1868   -0.0031   -0.0537   -0.0005    0.0044   -0.0001   -0.0001   -0.0005
          32    0.3327    0.0048    0.0863   -0.0009    0.0525   -0.0001   -0.0001   -0.0003
          33   -0.1179   -0.0016   -0.0297   -0.0002   -0.0194   -0.0001    0.0000    0.0006
          34   -0.0000    0.1194   -0.0065    0.0119    0.0005    0.1727    0.0178   -0.1342
          35    0.0002    0.2541   -0.0147   -0.1734    0.0011    0.4504    0.2203   -0.2339
          36   -0.0007    0.1796   -0.0086    0.3896    0.0003    0.1054   -0.3143   -0.2806
          37    0.0001   -0.0564    0.0029   -0.1092   -0.0002    0.0171   -0.1423    0.0310
          38    0.0008   -0.3163    0.0156   -0.2391   -0.0005    0.2070   -0.4300   -0.1095
          39   -0.0007    0.2690   -0.0122   -0.2587   -0.0001   -0.2964   -0.0071    0.3682
          40    0.0002   -0.0697    0.0033    0.0979   -0.0000   -0.0595    0.1277    0.0805
          41    0.0001   -0.0176    0.0003    0.3444    0.0007   -0.0250    0.1405    0.3288
          42    0.0011   -0.3534    0.0174   -0.0254   -0.0004   -0.2946    0.4635   -0.1651
          43   -0.0003    0.1578   -0.0077   -0.0018   -0.0001   -0.1179    0.0551   -0.1552
          44   -0.0010    0.3649   -0.0172   -0.1759   -0.0001   -0.2739    0.2963   -0.3301
          45   -0.0002    0.2005   -0.0103    0.3291    0.0004   -0.1306   -0.2443   -0.2357
          46   -0.0005   -0.0292    0.0027   -0.0974   -0.0005   -0.0996   -0.1184    0.0600
          47   -0.0009   -0.2201    0.0142   -0.1783   -0.0012   -0.4144   -0.3205   -0.0949
          48   -0.0007    0.2247   -0.0101   -0.3612    0.0001    0.2027   -0.0828    0.4278
          49   -0.0000   -0.0699    0.0033    0.1241    0.0001    0.0773    0.0801    0.0982
          50   -0.0001   -0.0123    0.0000    0.4598    0.0008    0.0557    0.0859    0.3547
          51   -0.0000   -0.3326    0.0167   -0.0818   -0.0002    0.3436    0.2894   -0.1078
          52   -0.0002   -0.0557    0.0034   -0.0092   -0.0001   -0.0518   -0.0035    0.0234
          53    0.0001   -0.1291    0.0073   -0.0281   -0.0005   -0.1258   -0.0200    0.0450
          54    0.0000   -0.0628    0.0034    0.0135   -0.0001   -0.0489    0.0201    0.0362
          55   -0.0002    0.0272   -0.0012   -0.0036    0.0001   -0.0147    0.0168    0.0035
          56   -0.0005    0.1517   -0.0071    0.0042    0.0001   -0.0839    0.0670    0.0344
          57    0.0005   -0.1331    0.0062   -0.0227    0.0001    0.0771   -0.0276   -0.0490
          58    0.0003   -0.0779    0.0035    0.0083   -0.0002    0.0389   -0.0149    0.0288
          59    0.0007   -0.1947    0.0091    0.0187    0.0001    0.0951   -0.0510    0.0695
          60    0.0003   -0.0691    0.0031    0.0212    0.0001    0.0398    0.0108    0.0327
          61    0.0001    0.0140   -0.0008   -0.0188   -0.0001    0.0177    0.0108   -0.0006
          62    0.0002    0.1006   -0.0055   -0.0609    0.0003    0.1009    0.0378    0.0336
          63   -0.0001   -0.1083    0.0057    0.0270   -0.0001   -0.0890   -0.0088   -0.0615
          64   -0.0002    0.0358   -0.0018    0.0005   -0.0000    0.0222   -0.0241   -0.0026
          65   -0.0001    0.0218   -0.0010    0.0094    0.0001    0.0139   -0.0174   -0.0254
          66   -0.0007    0.1625   -0.0077   -0.0176    0.0002    0.0987   -0.1022    0.0272
          67    0.0026   -0.0038   -0.0027   -0.0007    0.0002    0.0016    0.0011    0.0008
          68    0.0115   -0.0170   -0.0135   -0.0020    0.0005    0.0083    0.0046   -0.0021
          69   -0.0014    0.0016    0.0014   -0.0014   -0.0004   -0.0003   -0.0000    0.0016
          70   -0.0013   -0.0079    0.0034   -0.0021   -0.0010    0.0109    0.0045   -0.0390
          71   -0.0001   -0.0087    0.0011    0.0293   -0.0001    0.0080   -0.0023   -0.0692
          72   -0.0025   -0.0135    0.0064   -0.0090   -0.0017    0.0304    0.0331    0.0051
          73   -0.0030    0.0158    0.0027   -0.0001   -0.0006   -0.0139   -0.0100    0.0025
          74   -0.0123    0.0244    0.0186    0.0009    0.0014   -0.0154   -0.0099    0.0044
          75    0.0185    0.0365   -0.0478   -0.0019    0.0108   -0.0417   -0.0317   -0.0001


   Root No.      65        66        67        68        69

                65 A      66 A      67 A      68 A      69 A   

                  19.7      19.8      19.9      22.1      25.1
  
           1    0.0001    0.0465    0.0001   -0.0217    0.3571
           2   -0.0003    0.0194    0.0004   -0.0372    0.5803
           3   -0.0000   -0.0220   -0.0002    0.0207   -0.2099
           4   -0.0000   -0.0056   -0.0000    0.0021   -0.0395
           5   -0.0004    0.0002    0.0005    0.0028   -0.0012
           6   -0.0001   -0.0005   -0.0001    0.0007    0.0000
           7    0.0011    0.2545    0.0017    0.6937    0.0328
           8    0.0009    0.5945    0.0040   -0.3451   -0.0838
[...]
 TRANSITION DIPOLE   0.5105         C  7 -- H  9          +7.3% ( 33.3%)      0.1%
 TRAVEL (Ang.)       0.4582         C 10 -- H 11          +6.6% ( 31.6%)     19.4%
 REDUCED MASS        0.3235         H  6 -- C 10          +6.4% ( 31.1%)      5.6%
 EFFECTIVE MASS      5.7047
 FORCE CONSTANT      0.1878

 VIBRATION         36   36A           ATOM PAIR      ENERGY CONTRIBUTION    RADIAL
 FREQUENCY           995.97         C 16 -- H 21         +11.6% ( 40.8%)      2.1%
 TRANSITION DIPOLE   0.6285         C 12 -- H 18          +9.9% ( 37.5%)      3.4%
 TRAVEL (Ang.)       0.4365         C 13 -- H 19          +8.6% ( 35.0%)      1.8%
 REDUCED MASS        0.3553         C 15 -- H 20          +8.5% ( 35.0%)      2.8%
 EFFECTIVE MASS      5.3873
 FORCE CONSTANT      0.2076

 VIBRATION         37   37A           ATOM PAIR      ENERGY CONTRIBUTION    RADIAL
 FREQUENCY          1031.73         C 14 -- H 22         +33.0% ( 62.4%)      0.0%
 TRANSITION DIPOLE   0.2459         C 15 -- H 20         +16.0% ( 43.5%)      0.0%
 TRAVEL (Ang.)       0.2752         C 13 -- H 19         +13.7% ( 40.1%)      0.0%
 REDUCED MASS        0.8629         C 14 -- C 15         +11.8% ( 37.3%)      0.1%
 EFFECTIVE MASS      4.8414         C 13 -- C 14         +11.2% ( 36.3%)      0.1%
 FORCE CONSTANT      0.5412

 VIBRATION         38   38A           ATOM PAIR      ENERGY CONTRIBUTION    RADIAL
 FREQUENCY          1045.52         N 17 -- H 24         +39.0% ( 83.8%)      0.0%
 TRANSITION DIPOLE   1.1136         H 24 -- O 25         +36.0% ( 80.5%)      5.4%
 TRAVEL (Ang.)       0.3421         C 12 -- N 17          +4.5% ( 28.6%)     32.5%
 REDUCED MASS        0.5511         H 23 -- O 25          +3.9% ( 26.5%)      0.3%
 EFFECTIVE MASS      2.6386
 FORCE CONSTANT      0.3550

 VIBRATION         39   39A           ATOM PAIR      ENERGY CONTRIBUTION    RADIAL
 FREQUENCY          1055.64         C 10 -- H 11         +41.4% ( 65.5%)      0.0%
 TRANSITION DIPOLE   0.7663         H  6 -- C 10         +34.5% ( 59.8%)      0.0%
 TRAVEL (Ang.)       0.2486         C  1 -- C 10         +11.7% ( 34.8%)      0.0%
 REDUCED MASS        1.0333         C  1 -- H  2          +5.8% ( 24.5%)      0.0%
 EFFECTIVE MASS      3.4923
 FORCE CONSTANT      0.6784

 VIBRATION         40   40A           ATOM PAIR      ENERGY CONTRIBUTION    RADIAL
 FREQUENCY          1130.25         C 15 -- H 20         +25.6% ( 68.6%)      0.3%
 TRANSITION DIPOLE   0.8135         C 12 -- H 18         +14.3% ( 51.2%)      2.0%
 TRAVEL (Ang.)       0.3853         C 16 -- N 17         +10.4% ( 43.8%)     92.3%
 REDUCED MASS        0.4018         C 13 -- C 14         +10.0% ( 42.9%)     94.3%
 EFFECTIVE MASS      4.5627
 FORCE CONSTANT      0.3024

 VIBRATION         41   41A           ATOM PAIR      ENERGY CONTRIBUTION    RADIAL
 FREQUENCY          1147.53         N  3 -- C  7         +18.3% ( 63.8%)     90.1%
 TRANSITION DIPOLE   1.0556         O  4 -- O  5         +16.0% ( 59.7%)     98.0%
 TRAVEL (Ang.)       0.1553         C  1 -- C  7         +15.1% ( 57.9%)      3.5%
 REDUCED MASS        2.4353         C  7 -- H  9         +14.9% ( 57.5%)     95.3%
 EFFECTIVE MASS     11.3744         C  7 -- H  8         +14.0% ( 55.7%)      0.0%
 FORCE CONSTANT      1.8894

 VIBRATION         42   42A           ATOM PAIR      ENERGY CONTRIBUTION    RADIAL
 FREQUENCY          1160.32         C 13 -- H 19         +22.8% ( 60.1%)      1.2%
 TRANSITION DIPOLE   0.4176         C 16 -- H 21         +15.3% ( 49.3%)      0.1%
 TRAVEL (Ang.)       0.4137         C 14 -- C 15         +12.4% ( 44.4%)     99.3%
 REDUCED MASS        0.3396         C 15 -- H 20         +10.9% ( 41.5%)     37.1%
 EFFECTIVE MASS      4.3807
 FORCE CONSTANT      0.2694

 VIBRATION         43   43A           ATOM PAIR      ENERGY CONTRIBUTION    RADIAL
 FREQUENCY          1183.65         C 14 -- H 22         +40.9% ( 82.2%)      0.2%
 TRANSITION DIPOLE   0.1877         C 12 -- C 13          +9.5% ( 39.6%)     96.0%
 TRAVEL (Ang.)       0.3225         C 15 -- C 16          +9.2% ( 39.1%)     95.4%
 REDUCED MASS        0.5478         C 13 -- H 19          +8.5% ( 37.4%)      5.0%
 EFFECTIVE MASS      3.7581
 FORCE CONSTANT      0.4522

 VIBRATION         44   44A           ATOM PAIR      ENERGY CONTRIBUTION    RADIAL
 FREQUENCY          1223.67         C 13 -- C 14         +12.6% ( 50.8%)     99.6%
 TRANSITION DIPOLE   0.1153         C 15 -- C 16         +12.3% ( 50.2%)     97.4%
 TRAVEL (Ang.)       0.2250         C 14 -- C 15         +11.6% ( 48.7%)    100.0%
 REDUCED MASS        1.0884         C 12 -- C 13         +10.4% ( 46.1%)     99.0%
 EFFECTIVE MASS      9.9375
 FORCE CONSTANT      0.9602

 VIBRATION         45   45A           ATOM PAIR      ENERGY CONTRIBUTION    RADIAL
 FREQUENCY          1248.73         C 12 -- H 18         +27.7% ( 63.0%)     12.8%
 TRANSITION DIPOLE   0.0574         C 16 -- H 21         +17.9% ( 50.6%)     41.3%
 TRAVEL (Ang.)       0.3464         C 16 -- N 17         +10.9% ( 39.5%)     98.1%
 REDUCED MASS        0.4499         C 15 -- C 16          +8.0% ( 33.9%)      6.6%
 EFFECTIVE MASS      4.7172
 FORCE CONSTANT      0.4134

 VIBRATION         46   46A           ATOM PAIR      ENERGY CONTRIBUTION    RADIAL
 FREQUENCY          1252.52         C  1 -- C  7         +27.1% ( 66.2%)     83.1%
 TRANSITION DIPOLE   0.6679         C  7 -- H  9         +26.2% ( 65.1%)     20.4%
 TRAVEL (Ang.)       0.1973         C  1 -- C 10         +13.7% ( 47.0%)      0.9%
 REDUCED MASS        1.3831         C  1 -- H  2         +10.4% ( 41.0%)     94.8%
 EFFECTIVE MASS      6.3532
 FORCE CONSTANT      1.2785

 VIBRATION         47   47A           ATOM PAIR      ENERGY CONTRIBUTION    RADIAL
 FREQUENCY          1303.36         C 16 -- H 21         +15.7% ( 52.3%)      0.5%
 TRANSITION DIPOLE   0.1820         C 13 -- H 19         +15.7% ( 52.3%)      1.2%
 TRAVEL (Ang.)       0.2911         C 12 -- C 13         +10.1% ( 42.0%)     89.3%
 REDUCED MASS        0.6107         C 12 -- H 18          +9.5% ( 40.7%)      0.2%
 EFFECTIVE MASS      4.6666
 FORCE CONSTANT      0.6112

 VIBRATION         48   48A           ATOM PAIR      ENERGY CONTRIBUTION    RADIAL
 FREQUENCY          1306.16         C  7 -- H  9         +36.9% ( 86.1%)      0.7%
 TRANSITION DIPOLE   1.3641         C  1 -- C  7         +19.2% ( 62.1%)     93.1%
 TRAVEL (Ang.)       0.1465         C  7 -- H  8         +16.7% ( 57.9%)      1.0%
 REDUCED MASS        2.4043         N  3 -- C  7         +16.7% ( 57.9%)     62.0%
 EFFECTIVE MASS      6.5333
 FORCE CONSTANT      2.4167

 VIBRATION         49   49A           ATOM PAIR      ENERGY CONTRIBUTION    RADIAL
 FREQUENCY          1332.90         C  1 -- H  2         +75.7% ( 86.6%)      0.8%
 TRANSITION DIPOLE   0.1794         H  6 -- C 10         +10.7% ( 32.5%)     13.0%
 TRAVEL (Ang.)       0.2817         C  1 -- C 10          +4.2% ( 20.3%)      1.3%
 REDUCED MASS        0.6375         C 10 -- H 11          +2.8% ( 16.8%)     98.6%
 EFFECTIVE MASS      1.7173
 FORCE CONSTANT      0.6673

 VIBRATION         50   50A           ATOM PAIR      ENERGY CONTRIBUTION    RADIAL
 FREQUENCY          1351.95         C 16 -- N 17         +11.7% ( 45.4%)     94.3%
 TRANSITION DIPOLE   0.6099         C 12 -- N 17         +10.6% ( 43.2%)     92.2%
 TRAVEL (Ang.)       0.2377         C 16 -- H 21         +10.0% ( 42.0%)      3.0%
 REDUCED MASS        0.8829         C 12 -- C 13          +9.0% ( 39.9%)     97.8%
 EFFECTIVE MASS      6.1394
 FORCE CONSTANT      0.9508

 VIBRATION         51   51A           ATOM PAIR      ENERGY CONTRIBUTION    RADIAL
 FREQUENCY          1376.98         C 10 -- H 11         +31.2% ( 60.7%)      0.4%
 TRANSITION DIPOLE   0.1975         H  6 -- C 10         +24.2% ( 53.5%)      3.6%
 TRAVEL (Ang.)       0.3340         C  1 -- C  7         +12.4% ( 38.2%)     91.8%
 REDUCED MASS        0.4389         C  1 -- H  2         +11.8% ( 37.2%)      1.6%
 EFFECTIVE MASS      3.0950
 FORCE CONSTANT      0.4903

 VIBRATION         52   52A           ATOM PAIR      ENERGY CONTRIBUTION    RADIAL
 FREQUENCY          1472.40         C 15 -- C 16         +12.1% ( 48.2%)     93.9%
 TRANSITION DIPOLE   1.2000         C 16 -- N 17         +10.9% ( 45.7%)     40.3%
 TRAVEL (Ang.)       0.1972         C 12 -- C 13         +10.6% ( 45.1%)     95.2%
 REDUCED MASS        1.1780         C 12 -- N 17         +10.2% ( 44.2%)     39.4%
 EFFECTIVE MASS      9.2380
 FORCE CONSTANT      1.5047

 VIBRATION         53   53A           ATOM PAIR      ENERGY CONTRIBUTION    RADIAL
 FREQUENCY          1527.67         N  3 -- O  5         +34.0% ( 80.0%)     70.9%
 TRANSITION DIPOLE   6.4740         N  3 -- O  4         +26.4% ( 70.5%)     46.9%
 TRAVEL (Ang.)       0.0934         N  3 -- C  7         +21.0% ( 62.9%)     98.5%
 REDUCED MASS        5.0586         O  4 -- O  5         +12.0% ( 47.5%)     99.4%
 EFFECTIVE MASS     13.9102
 FORCE CONSTANT      6.9557

 VIBRATION         54   54A           ATOM PAIR      ENERGY CONTRIBUTION    RADIAL
 FREQUENCY          1528.33         C 13 -- C 14         +12.8% ( 48.7%)     74.9%
 TRANSITION DIPOLE   1.1530         C 14 -- C 15         +11.8% ( 46.9%)     71.0%
 TRAVEL (Ang.)       0.1855         C 12 -- C 13         +10.7% ( 44.6%)      0.2%
 REDUCED MASS        1.2827         C 12 -- N 17          +9.7% ( 42.5%)     77.5%
 EFFECTIVE MASS      9.7073
 FORCE CONSTANT      1.7653

 VIBRATION         55   55A           ATOM PAIR      ENERGY CONTRIBUTION    RADIAL
 FREQUENCY          1606.17         N  3 -- O  4         +38.2% ( 87.3%)     92.8%
 TRANSITION DIPOLE  10.3753         N  3 -- O  5         +32.4% ( 80.4%)     80.9%
 TRAVEL (Ang.)       0.0793         N  3 -- C  7         +21.8% ( 66.0%)      1.4%
 REDUCED MASS        6.6697         O  4 -- O  5          +6.2% ( 35.3%)      3.9%
 EFFECTIVE MASS     14.2126
 FORCE CONSTANT     10.1377

 VIBRATION         56   56A           ATOM PAIR      ENERGY CONTRIBUTION    RADIAL
 FREQUENCY          1640.70         C 13 -- C 14         +22.2% ( 66.9%)     91.3%
 TRANSITION DIPOLE   1.5953         C 14 -- C 15         +19.5% ( 62.7%)     77.5%
 TRAVEL (Ang.)       0.1192         C 14 -- H 22         +12.0% ( 49.3%)      0.1%
 REDUCED MASS        2.8944         C 16 -- N 17         +10.3% ( 45.7%)     98.2%
 EFFECTIVE MASS     12.2136
 FORCE CONSTANT      4.5906

 VIBRATION         57   57A           ATOM PAIR      ENERGY CONTRIBUTION    RADIAL
 FREQUENCY          1667.68         C 12 -- C 13         +18.4% ( 60.6%)     98.6%
 TRANSITION DIPOLE   1.8009         C 15 -- C 16         +16.4% ( 57.3%)     98.9%
 TRAVEL (Ang.)       0.1276         C 12 -- N 17         +11.5% ( 47.9%)     57.9%
 REDUCED MASS        2.4835         C 14 -- C 15         +10.6% ( 45.9%)     67.8%
 EFFECTIVE MASS     11.9729
 FORCE CONSTANT      4.0696

 VIBRATION         58   58A           ATOM PAIR      ENERGY CONTRIBUTION    RADIAL
 FREQUENCY          1846.47         C  1 -- C 10         +46.0% ( 99.3%)     99.6%
 TRANSITION DIPOLE   0.8577         C  1 -- C  7         +16.3% ( 59.1%)     46.3%
 TRAVEL (Ang.)       0.0805         C  1 -- H  2         +15.5% ( 57.6%)      9.0%
 REDUCED MASS        5.6395         H  6 -- C 10         +10.9% ( 48.2%)     18.4%
 EFFECTIVE MASS     11.8658         C 10 -- H 11         +10.8% ( 48.1%)     19.4%
 FORCE CONSTANT     11.3286

 VIBRATION         59   59A           ATOM PAIR      ENERGY CONTRIBUTION    RADIAL
 FREQUENCY          2127.54         N 17 -- H 24         +48.9% ( 93.7%)      0.1%
 TRANSITION DIPOLE   1.2099         H 24 -- O 25         +46.1% ( 91.0%)      2.7%
 TRAVEL (Ang.)       0.1951         C 16 -- N 17          +1.1% ( 14.2%)      0.2%
 REDUCED MASS        0.8327         C 15 -- C 16          +0.9% ( 12.4%)     95.9%
 EFFECTIVE MASS      1.6628
 FORCE CONSTANT      2.2206

 VIBRATION         60   60A           ATOM PAIR      ENERGY CONTRIBUTION    RADIAL
 FREQUENCY          2678.36         C 12 -- H 18         +90.4% ( 96.2%)    100.0%
 TRANSITION DIPOLE   1.4261         C 13 -- H 19          +4.9% ( 22.3%)     99.6%
 TRAVEL (Ang.)       0.1775         C 16 -- H 21          +2.4% ( 15.6%)     99.9%
 REDUCED MASS        0.7993         C 12 -- N 17          +1.0% ( 10.3%)      9.8%
 EFFECTIVE MASS      1.3797
 FORCE CONSTANT      3.3782

 VIBRATION         61   61A           ATOM PAIR      ENERGY CONTRIBUTION    RADIAL
 FREQUENCY          2684.89         C  7 -- H  9         +88.2% ( 94.8%)     99.9%
 TRANSITION DIPOLE   0.9918         C  1 -- H  2          +7.1% ( 26.9%)     98.8%
 TRAVEL (Ang.)       0.1809         C 10 -- H 11          +1.6% ( 13.0%)     99.8%
 REDUCED MASS        0.7673         C  1 -- C  7          +0.8% (  9.2%)     13.0%
 EFFECTIVE MASS      1.3391
 FORCE CONSTANT      3.2587

 VIBRATION         62   62A           ATOM PAIR      ENERGY CONTRIBUTION    RADIAL
 FREQUENCY          2693.43         C 16 -- H 21         +92.1% ( 97.1%)    100.0%
 TRANSITION DIPOLE   1.7201         C 13 -- H 19          +2.6% ( 16.4%)     99.9%
 TRAVEL (Ang.)       0.1737         C 12 -- H 18          +1.3% ( 11.5%)     99.9%
 REDUCED MASS        0.8300         C 16 -- N 17          +1.1% ( 10.6%)     14.1%
 EFFECTIVE MASS      1.3976
 FORCE CONSTANT      3.5475

 VIBRATION         63   63A           ATOM PAIR      ENERGY CONTRIBUTION    RADIAL
 FREQUENCY          2698.29         C 10 -- H 11         +45.1% ( 69.2%)     98.9%
 TRANSITION DIPOLE   0.4966         H  6 -- C 10         +38.0% ( 63.4%)     98.1%
 TRAVEL (Ang.)       0.2604         C  1 -- H  2         +10.6% ( 33.6%)     99.9%
 REDUCED MASS        0.3686         C  7 -- H  9          +5.0% ( 23.1%)     99.8%
 EFFECTIVE MASS      1.4526
 FORCE CONSTANT      1.5811

 VIBRATION         64   64A           ATOM PAIR      ENERGY CONTRIBUTION    RADIAL
 FREQUENCY          2707.20         C 14 -- H 22         +77.5% ( 89.1%)    100.0%
 TRANSITION DIPOLE   0.9013         C 13 -- H 19         +16.8% ( 41.5%)     99.9%
 TRAVEL (Ang.)       0.2016         C 15 -- H 20          +2.9% ( 17.2%)     99.3%
 REDUCED MASS        0.6128         C 13 -- C 14          +0.9% (  9.9%)      3.2%
 EFFECTIVE MASS      1.3762
 FORCE CONSTANT      2.6462

 VIBRATION         65   65A           ATOM PAIR      ENERGY CONTRIBUTION    RADIAL
 FREQUENCY          2720.38         C 13 -- H 19         +61.6% ( 79.2%)    100.0%
 TRANSITION DIPOLE   1.8396         C 15 -- H 20         +23.8% ( 49.2%)    100.0%
 TRAVEL (Ang.)       0.2393         C 14 -- H 22          +8.4% ( 29.3%)     99.2%
 REDUCED MASS        0.4328         C 12 -- H 18          +3.3% ( 18.2%)     99.2%
 EFFECTIVE MASS      1.3825
 FORCE CONSTANT      1.8873

 VIBRATION         66   66A           ATOM PAIR      ENERGY CONTRIBUTION    RADIAL
 FREQUENCY          2733.88         C  1 -- H  2         +79.5% ( 90.0%)    100.0%
 TRANSITION DIPOLE   1.2670         C 10 -- H 11         +10.5% ( 32.8%)     99.3%
 TRAVEL (Ang.)       0.1974         H  6 -- C 10          +4.3% ( 20.8%)     96.4%
 REDUCED MASS        0.6329         C  7 -- H  9          +3.5% ( 18.8%)     99.4%
 EFFECTIVE MASS      1.4373
 FORCE CONSTANT      2.7870

 VIBRATION         67   67A           ATOM PAIR      ENERGY CONTRIBUTION    RADIAL
 FREQUENCY          2736.49         C 15 -- H 20         +70.2% ( 84.5%)    100.0%
 TRANSITION DIPOLE   1.1917         C 13 -- H 19         +11.9% ( 34.7%)    100.0%
 TRAVEL (Ang.)       0.2206         C 14 -- H 22         +11.1% ( 33.6%)    100.0%
 REDUCED MASS        0.5065         C 16 -- H 21          +2.3% ( 15.3%)     98.8%
 EFFECTIVE MASS      1.4380
 FORCE CONSTANT      2.2347

 VIBRATION         68   68A           ATOM PAIR      ENERGY CONTRIBUTION    RADIAL
 FREQUENCY          2774.02         H 23 -- O 25         +98.9% ( 98.8%)     99.9%
 TRANSITION DIPOLE   1.1190         H 24 -- O 25          +0.5% (  6.7%)      0.3%
 TRAVEL (Ang.)       0.1622         H  8 -- O 25          +0.3% (  5.7%)      1.1%
 REDUCED MASS        0.9238         N 17 -- H 24          +0.2% (  4.2%)     38.3%
 EFFECTIVE MASS      1.3487
 FORCE CONSTANT      4.1883

 VIBRATION         69   69A           ATOM PAIR      ENERGY CONTRIBUTION    RADIAL
 FREQUENCY          2778.62         H  6 -- C 10         +56.8% ( 74.6%)     96.1%
 TRANSITION DIPOLE   1.2125         C 10 -- H 11         +41.5% ( 63.7%)     93.5%
 TRAVEL (Ang.)       0.2227         C  1 -- C 10          +1.2% ( 10.8%)     99.7%
 REDUCED MASS        0.4893         C  1 -- H  2          +0.3% (  5.5%)     97.1%
 EFFECTIVE MASS      1.3227
 FORCE CONSTANT      2.2258

      SYMMETRY NUMBER FOR POINT-GROUP C1  =  1


          SYSTEM IS A GROUND STATE



 Title: ASE calculation


          MOLECULE IS NOT LINEAR

          THERE ARE 69 GENUINE VIBRATIONS IN THIS SYSTEM
          THIS THERMODYNAMICS CALCULATION IS LIMITED TO
          MOLECULES WHICH HAVE NO INTERNAL ROTATIONS




                    CALCULATED THERMODYNAMIC PROPERTIES
                                          *
   TEMP. (K)   PARTITION FUNCTION   H.O.F.    ENTHALPY  HEAT CAPACITY ENTROPY
                                   KCAL/MOL   CAL/MOLE    CAL/K/MOL  CAL/K/MOL


 298.00  VIB.     0.1759D+07                  7437.9022    45.9144    53.5361
         ROT.     0.3340D+07                   888.2803     2.9808    32.8317
         INT.     0.5876D+13                  8326.1825    48.8952    86.3679
         TRA.     0.2437D+28                  1480.4672     4.9680    41.5528
         TOT.                      -30.812    9806.6497    53.8632   127.9206

   *: NOTE: HEATS OF FORMATION ARE RELATIVE TO THE
            ELEMENTS IN THEIR STANDARD STATE AT 298K
              (=  Standard Enthalpy of Formation).

            Hvib:  Zero-point energy is not included.
                   frequencies of less than zero cm-1 are not included.
            Hrot = (3/2)RT
            Htra = (3/2)RT + pV = (5/2)RT

            Heat capacity is Cp, not Cv

          For more information, see: HTTP://OpenMOPAC.net/Manual/thermochemistry.html


           FORCE CONSTANT IN CARTESIAN COORDINATES (Millidynes/A)

    ATOM   CHEMICAL       X               Y               Z
   NUMBER   SYMBOL  FORCE CONSTANT  FORCE CONSTANT  FORCE CONSTANT

      1       C        9.218664       12.198869        3.592728
      2       H        4.164603        0.901599        0.415847
      3       N       12.989752       11.986129        4.193087
      4       O       10.757165        1.618910        1.144973
      5       O        4.314628        8.504662        0.525388
      6       H        4.175729        0.720395        0.392347
      7       C        7.611084        8.814213        3.081238
      8       H        0.459183        0.737080       -0.184901
      9       H        4.040092        0.894616        0.362987
     10       C        8.595333       10.938955        3.241479
     11       H        1.249884        3.290538        0.725384
     12       C        3.409376        9.141987       11.156914
     13       C        3.307525        9.492527       10.315848
     14       C        3.350537       10.314115        9.610625
     15       C        3.179755        9.277033       10.694902
     16       C        3.379363        9.583430       10.754889
     17       N        2.600261       10.469187        7.960804
     18       H        0.822911        3.185465        1.270962
     19       H        0.490182        2.745373        2.155835
     20       H        0.842687        3.422785        1.110645
     21       H        0.488693        2.571476        2.281199
     22       H        0.586234        0.876662        3.907852
     23       H        0.304893        4.006481        0.474502
     24       H        0.767297        2.172130       -1.372928
     25       O        0.572760        4.060829        1.923788

 **********************
 *                    *
 * JOB ENDED NORMALLY *
 *                    *
 **********************



 TOTAL JOB TIME:             4.96 SECONDS

 == MOPAC DONE ==
