 *******************************************************************************
 **                                                                           **
 **                              MOPAC v22.0.6                                **
 **                                                                           **
 *******************************************************************************
 **          Digital Object Identifier (DOI): 10.5281/zenodo.6511958          **
 **    Visit the DOI location for information on how to cite this program.    **
 *******************************************************************************

                              PM7 CALCULATION RESULTS

 *******************************************************************************
 *  CALCULATION DONE:                                Tue Mar 26 12:01:51 2024  *
 *  PM7        - The PM7 Hamiltonian to be used
 *  SINGLET    - SPIN STATE DEFINED AS A SINGLET
 *
 *
 *
 *                 CHARGE ON SYSTEM = -1
 *
 *
 *
 *  EPS=78.4   - USE ANDREAS KLAMT'S COSMO IMPLICIT SOLVATION MODEL
 *  LET        - OVERRIDE SOME SAFETY CHECKS
 *  THREADS    - USE A MAXIMUM OF 30 THREADS
 *  T=         - A TIME OF 14.0 DAYS REQUESTED
 *  DUMP=N     - RESTART FILE WRITTEN EVERY 30.0 MINUTES REQUESTED
 *  RELSCF     - DEFAULT SCF CRITERION MULTIPLIED BY 1.0000
 *              (DEFAULT SCF CRITERION = 0.00010)
 *  ITRY=      - DO A MAXIMUM OF 15000 ITERATIONS FOR SCF
 *  AUX        - OUTPUT AUXILIARY INFORMATION
 *  ISOTOPE    - SAVE THE FORCE MATRIX FOR USE LATER
 *  BONDS      - FINAL BOND-ORDER MATRIX TO BE PRINTED
 *  LARGE      - EXPANDED OUTPUT TO BE PRINTED
 *  THERMO     - THERMODYNAMIC QUANTITIES TO BE CALCULATED
 *******************************************************************************
PM7 AUX LARGE THERMO(298,298) LET ISOTOPE BONDS DUMP=30M ITRY=15000 T=14D THREADS=30 CHARGE=-1 SINGLET eps=78.4 RELSCF=1
 Title: ASE calculation

   ATOM   CHEMICAL          X               Y               Z
  NUMBER   SYMBOL      (ANGSTROMS)     (ANGSTROMS)     (ANGSTROMS)

     1       C          0.78615000  *  -0.72800000  *   0.06421000  *
     2       D          1.90845000  *  -0.87424000  *   0.11243000  *
     3       N          0.19976000  *  -1.38625000  *   1.28212000  *
     4       O          0.94573000  *  -2.00572000  *   2.02647000  *
     5       O         -0.99858000  *  -1.29890000  *   1.49836000  *
     6       C          6.41874000  *  -2.51612000  *   0.96451000  *
     7       O          5.73762000  *  -1.99401000  *   1.87324000  *
     8       O          5.89607000  *  -3.02358000  *  -0.05138000  *
     9       C          7.91763000  *  -2.56401000  *   1.11232000  *
    10       H          8.41393000  *  -2.81652000  *   0.16866000  *
    11       H          8.18405000  *  -3.32802000  *   1.85494000  *
    12       H          8.34146000  *  -1.61535000  *   1.46296000  *
    13       C          0.44612000  *   0.75537000  *   0.10484000  *
    14       H          0.85044000  *   1.25959000  *   0.99396000  *
    15       H         -0.63630000  *   0.94147000  *   0.09015000  *
    16       H          0.86071000  *   1.27269000  *  -0.77471000  *
    17       C          0.20419000  *  -1.41783000  *  -1.16280000  *
    18       H         -0.88603000  *  -1.29784000  *  -1.23293000  *
    19       H          0.41569000  *  -2.49639000  *  -1.18698000  *
    20       H          0.62056000  *  -0.98908000  *  -2.08746000  *
    21       H          4.30399000  *  -1.65729000  *   0.45323000  *
    22       O          4.08553000  *  -0.73282000  *   0.22917000  *
    23       H          4.82569000  *  -0.27261000  *   0.64781000  *


                                Isotopes Used

              Atom:    2  H  Default mass  1.0079,  mass used:  2.0140 amu


          CARTESIAN COORDINATES 

    NO.       ATOM           X           Y           Z

     1         C          0.7862     -0.7280      0.0642
     2         H          1.9084     -0.8742      0.1124
     3         N          0.1998     -1.3862      1.2821
     4         O          0.9457     -2.0057      2.0265
     5         O         -0.9986     -1.2989      1.4984
     6         C          6.4187     -2.5161      0.9645
     7         O          5.7376     -1.9940      1.8732
     8         O          5.8961     -3.0236     -0.0514
     9         C          7.9176     -2.5640      1.1123
    10         H          8.4139     -2.8165      0.1687
    11         H          8.1840     -3.3280      1.8549
    12         H          8.3415     -1.6154      1.4630
    13         C          0.4461      0.7554      0.1048
    14         H          0.8504      1.2596      0.9940
    15         H         -0.6363      0.9415      0.0901
    16         H          0.8607      1.2727     -0.7747
    17         C          0.2042     -1.4178     -1.1628
    18         H         -0.8860     -1.2978     -1.2329
    19         H          0.4157     -2.4964     -1.1870
    20         H          0.6206     -0.9891     -2.0875
    21         H          4.3040     -1.6573      0.4532
    22         O          4.0855     -0.7328      0.2292
    23         H          4.8257     -0.2726      0.6478

 General Reference for PM7:
 "Optimization of Parameters for Semiempirical Methods VI: More Modifications to the 
 NDDO Approximations and Re-optimization of Parameters", J. J. P. Stewart, J. Mol. Mod., 1:32, 19 (2013)
 https://link.springer.com/article/10.1007/s00894-012-1667-x

           Empirical Formula: C5 H12 N O5  =    23 atoms



      MOLECULAR POINT GROUP   :   C1  


 SINGLET STATE CALCULATION


      RHF CALCULATION, NO. OF DOUBLY OCCUPIED LEVELS = 34

  SCF CRITERION =    0.1000E-03


          HEAT OF FORMATION =    -309.029720 KCALS/MOLE


          CARTESIAN COORDINATE DERIVATIVES

   NUMBER  ATOM         X            Y            Z

     1       C      0.186186     0.077703     0.032250
     2       H      0.370996     0.061862    -0.024538
     3       N      0.269419     0.035456     0.000224
     4       O      0.230203    -0.026961     0.066479
     5       O      0.005529    -0.148161     0.235075
     6       C     -0.958629    -0.629075    -0.686499
     7       O     -2.060476    -0.124263     0.613224
     8       O     -0.383701     0.220051     0.123106
     9       C     -0.775040    -0.633180    -0.902386
    10       H     -0.235798    -0.267524    -0.496762
    11       H     -2.096497    -0.224824    -0.283557
    12       H      2.268894    -0.145651     0.236030
    13       C      0.023613    -0.026644     0.021326
    14       H     -0.246219     0.193782    -0.205879
    15       H      0.286292    -0.143145    -0.041801
    16       H     -0.263281    -0.298828     0.180242
    17       C      0.033239    -0.192431    -0.208831
    18       H      0.185965    -0.016509    -0.161214
    19       H     -0.332384     0.107331     0.289683
    20       H     -0.460348    -0.054350     0.244398
    21       H      0.878638     0.776115     0.114712
    22       O      1.067100     1.024752    -0.245815
    23       H      2.006331     0.434504     1.100426

 DIPOLE           X         Y         Z       TOTAL
 POINT-CHG.   -18.685    -9.831    -3.365    21.380
 HYBRID        -0.214     0.648    -0.019     0.683
 SUM          -18.899    -9.183    -3.384    21.283


          GRADIENT NORM =   5.39355


                              **** WARNING ****

           GRADIENT IS VERY LARGE FOR A THERMO CALCULATION
           RESULTS ARE LIKELY TO BE INACCURATE IF THERE ARE
           ANY LOW-LYING VIBRATIONS (LESS THAN ABOUT 400CM-1)
           GRADIENT NORM SHOULD BE LESS THAN ABOUT 1.0 FOR THERMO
           TO GIVE ACCURATE RESULTS


          TIME FOR SCF CALCULATION =    0.51

          TIME FOR DERIVATIVES     =    0.18

          MOLECULAR WEIGHT =  167.16



          ROTATIONAL CONSTANTS IN CM(-1)

          A =    0.06521261   B =    0.01005986   C =    0.00964666



           PRINCIPAL MOMENTS OF INERTIA IN UNITS OF 10**(-40)*GRAM-CM**2

          A =      429.2537   B =     2782.6196   C =     2901.8081


          ORIENTATION OF MOLECULE IN FORCE CALCULATION

    NO.       ATOM         X         Y         Z

     1          C      -2.2106   -0.7499   -0.1606
     2          H      -1.0778   -0.7499   -0.1606
     3          N      -2.6547    0.6865   -0.1606
     4          O      -1.8040    1.5600   -0.0737
     5          O      -3.8440    0.9513   -0.2372
     6          C       3.6389    0.3421    0.4097
     7          O       2.9354    0.9339   -0.4371
     8          O       3.1433   -0.2266    1.4066
     9          C       5.1363    0.3405    0.2410
    10          H       5.6205   -0.3968    0.8911
    11          H       5.5305    1.3334    0.4959
    12          H       5.4487    0.1266   -0.7881
    13          C      -2.7372   -1.4192   -1.4224
    14          H      -2.3639   -0.9461   -2.3416
    15          H      -3.8342   -1.4143   -1.4772
    16          H      -2.4307   -2.4766   -1.4576
    17          C      -2.7503   -1.4034    1.1050
    18          H      -3.8489   -1.4125    1.1357
    19          H      -2.4026   -0.9085    2.0230
    20          H      -2.4325   -2.4557    1.1685
    21          H       1.4111   -0.3105    0.1226
    22          O       1.0658   -0.9417   -0.5368
    23          H       1.7575   -0.8859   -1.2101


    FIRST DERIVATIVES WILL BE USED IN THE CALCULATION OF SECOND DERIVATIVES

          ESTIMATED TIME TO COMPLETE CALCULATION =       95.41 SECONDS

    FOR POINT-GROUP C1   THERE ARE   1 UNIQUE SYMMETRY FUNCTIONS.

 STEP:   1 TIME =     0.10 SECS, INTEGRAL =      0.10 TIME LEFT:1209599.21
 STEP:   2 TIME =     0.50 SECS, INTEGRAL =      0.60 TIME LEFT:1209598.71
 STEP:   3 TIME =     0.51 SECS, INTEGRAL =      1.11 TIME LEFT:1209598.20
 STEP:   4 TIME =     0.53 SECS, INTEGRAL =      1.63 TIME LEFT:1209597.68
 STEP:   5 TIME =     0.20 SECS, INTEGRAL =      1.84 TIME LEFT:1209597.47
 STEP:   6 TIME =     0.20 SECS, INTEGRAL =      2.03 TIME LEFT:1209597.28
 STEP:   7 TIME =     0.28 SECS, INTEGRAL =      2.31 TIME LEFT:1209597.00
 STEP:   8 TIME =     0.17 SECS, INTEGRAL =      2.48 TIME LEFT:1209596.82
 STEP:   9 TIME =     0.55 SECS, INTEGRAL =      3.04 TIME LEFT:1209596.27
 STEP:  10 TIME =     0.84 SECS, INTEGRAL =      3.87 TIME LEFT:1209595.44
 STEP:  11 TIME =     0.26 SECS, INTEGRAL =      4.13 TIME LEFT:1209595.18
 STEP:  12 TIME =     0.34 SECS, INTEGRAL =      4.46 TIME LEFT:1209594.84
 STEP:  13 TIME =     0.14 SECS, INTEGRAL =      4.61 TIME LEFT:1209594.70
 STEP:  14 TIME =     0.04 SECS, INTEGRAL =      4.65 TIME LEFT:1209594.66
 STEP:  15 TIME =     0.05 SECS, INTEGRAL =      4.70 TIME LEFT:1209594.61
 STEP:  16 TIME =     0.04 SECS, INTEGRAL =      4.73 TIME LEFT:1209594.58
 STEP:  17 TIME =     0.03 SECS, INTEGRAL =      4.76 TIME LEFT:1209594.55
 STEP:  18 TIME =     0.03 SECS, INTEGRAL =      4.79 TIME LEFT:1209594.52
 STEP:  19 TIME =     0.03 SECS, INTEGRAL =      4.82 TIME LEFT:1209594.48
 STEP:  20 TIME =     0.03 SECS, INTEGRAL =      4.86 TIME LEFT:1209594.45
 STEP:  21 TIME =     0.03 SECS, INTEGRAL =      4.89 TIME LEFT:1209594.42
 STEP:  22 TIME =     0.03 SECS, INTEGRAL =      4.92 TIME LEFT:1209594.39
 STEP:  23 TIME =     0.04 SECS, INTEGRAL =      4.95 TIME LEFT:1209594.36
 STEP:  24 TIME =     0.03 SECS, INTEGRAL =      4.98 TIME LEFT:1209594.32
 STEP:  25 TIME =     0.03 SECS, INTEGRAL =      5.02 TIME LEFT:1209594.29
 STEP:  26 TIME =     0.03 SECS, INTEGRAL =      5.05 TIME LEFT:1209594.26
 STEP:  27 TIME =     0.04 SECS, INTEGRAL =      5.08 TIME LEFT:1209594.23
 STEP:  28 TIME =     0.03 SECS, INTEGRAL =      5.11 TIME LEFT:1209594.20
 STEP:  29 TIME =     0.03 SECS, INTEGRAL =      5.14 TIME LEFT:1209594.16
 STEP:  30 TIME =     0.03 SECS, INTEGRAL =      5.18 TIME LEFT:1209594.13
 STEP:  31 TIME =     0.04 SECS, INTEGRAL =      5.21 TIME LEFT:1209594.10
 STEP:  32 TIME =     0.03 SECS, INTEGRAL =      5.24 TIME LEFT:1209594.07
 STEP:  33 TIME =     0.03 SECS, INTEGRAL =      5.27 TIME LEFT:1209594.04
 STEP:  34 TIME =     0.04 SECS, INTEGRAL =      5.31 TIME LEFT:1209594.00
 STEP:  35 TIME =     0.03 SECS, INTEGRAL =      5.34 TIME LEFT:1209593.97
 STEP:  36 TIME =     0.03 SECS, INTEGRAL =      5.37 TIME LEFT:1209593.94
 STEP:  37 TIME =     0.03 SECS, INTEGRAL =      5.40 TIME LEFT:1209593.91
 STEP:  38 TIME =     0.03 SECS, INTEGRAL =      5.43 TIME LEFT:1209593.88
 STEP:  39 TIME =     0.04 SECS, INTEGRAL =      5.47 TIME LEFT:1209593.84
 STEP:  40 TIME =     0.03 SECS, INTEGRAL =      5.50 TIME LEFT:1209593.81
 STEP:  41 TIME =     0.03 SECS, INTEGRAL =      5.53 TIME LEFT:1209593.78
 STEP:  42 TIME =     0.04 SECS, INTEGRAL =      5.57 TIME LEFT:1209593.74
 STEP:  43 TIME =     0.03 SECS, INTEGRAL =      5.60 TIME LEFT:1209593.71
 STEP:  44 TIME =     0.03 SECS, INTEGRAL =      5.63 TIME LEFT:1209593.68
 STEP:  45 TIME =     0.04 SECS, INTEGRAL =      5.66 TIME LEFT:1209593.64
 STEP:  46 TIME =     0.03 SECS, INTEGRAL =      5.70 TIME LEFT:1209593.61
 STEP:  47 TIME =     0.04 SECS, INTEGRAL =      5.73 TIME LEFT:1209593.58
 STEP:  48 TIME =     0.03 SECS, INTEGRAL =      5.76 TIME LEFT:1209593.55
 STEP:  49 TIME =     0.03 SECS, INTEGRAL =      5.79 TIME LEFT:1209593.52
 STEP:  50 TIME =     0.04 SECS, INTEGRAL =      5.83 TIME LEFT:1209593.48
 STEP:  51 TIME =     0.03 SECS, INTEGRAL =      5.86 TIME LEFT:1209593.45
 STEP:  52 TIME =     0.03 SECS, INTEGRAL =      5.89 TIME LEFT:1209593.42
 STEP:  53 TIME =     0.04 SECS, INTEGRAL =      5.93 TIME LEFT:1209593.38
 STEP:  54 TIME =     0.04 SECS, INTEGRAL =      5.96 TIME LEFT:1209593.35
 STEP:  55 TIME =     0.04 SECS, INTEGRAL =      6.00 TIME LEFT:1209593.31
 STEP:  56 TIME =     0.04 SECS, INTEGRAL =      6.03 TIME LEFT:1209593.28
 STEP:  57 TIME =     0.03 SECS, INTEGRAL =      6.06 TIME LEFT:1209593.25
 STEP:  58 TIME =     0.04 SECS, INTEGRAL =      6.10 TIME LEFT:1209593.21
 STEP:  59 TIME =     0.04 SECS, INTEGRAL =      6.13 TIME LEFT:1209593.18
 STEP:  60 TIME =     0.04 SECS, INTEGRAL =      6.17 TIME LEFT:1209593.14
 STEP:  61 TIME =     0.04 SECS, INTEGRAL =      6.20 TIME LEFT:1209593.11
 STEP:  62 TIME =     0.03 SECS, INTEGRAL =      6.23 TIME LEFT:1209593.07
 STEP:  63 TIME =     0.04 SECS, INTEGRAL =      6.27 TIME LEFT:1209593.04
 STEP:  64 TIME =     0.04 SECS, INTEGRAL =      6.30 TIME LEFT:1209593.00
 STEP:  65 TIME =     0.04 SECS, INTEGRAL =      6.34 TIME LEFT:1209592.97
 STEP:  66 TIME =     0.04 SECS, INTEGRAL =      6.38 TIME LEFT:1209592.93
 STEP:  67 TIME =     0.03 SECS, INTEGRAL =      6.41 TIME LEFT:1209592.90
 STEP:  68 TIME =     0.04 SECS, INTEGRAL =      6.44 TIME LEFT:1209592.87
 STEP:  69 TIME =     0.04 SECS, INTEGRAL =      6.48 TIME LEFT:1209592.83

(To convert to Hartree/Bohr^2, multiply by (10^(-21) x N x a0^2)/(4.184 x 627.51) =  0.0642)


           FORCE MATRIX IN MILLIDYNES/ANGSTROM


                  C  1       H  2       N  3       O  4       O  5       C  6
 ------------------------------------------------------------------------------
     C    1  11.972445
     H    2   3.001609   4.071951
     N    3   2.521206   0.845279  18.767982
     O    4   0.976171   0.072353   9.527785  12.111735
     O    5   0.990541   0.091334   9.646149   2.707067  12.236897
     C    6   0.012269   0.008752   0.012929   0.007138   0.008462  17.838809
     O    7   0.014852   0.025651   0.015118   0.009692   0.006322   8.775741
     O    8   0.014311   0.003776   0.004256   0.002138   0.002412   9.161360
     C    9   0.002092   0.003104   0.003200   0.001716   0.001307   3.033334
     H   10   0.000495   0.000369   0.002778   0.001768   0.001410   0.766873
     H   11   0.000670   0.000591   0.002518   0.001456   0.001426   0.808864
     H   12   0.000973   0.002154   0.003377   0.001794   0.001800   0.745849
     C   13   2.937720   0.633147   0.758147   0.110917   0.075173   0.003958
     H   14   0.677574   0.020040   0.056437   0.017896   0.013494   0.002102
     H   15   0.695673   0.044659   0.074986   0.022842   0.017571   0.002844
     H   16   0.699863   0.021294   0.074077   0.017447   0.015378   0.002753
     C   17   2.959858   0.627267   0.782996   0.106290   0.072115   0.004906
     H   18   0.692033   0.043842   0.076733   0.020376   0.020807   0.002317
     H   19   0.660612   0.018786   0.061155   0.018599   0.015328   0.003121
     H   20   0.696397   0.020510   0.073903   0.017330   0.015962   0.003539
     H   21   0.041749   0.028116   0.018613   0.013743   0.008472   0.430842
     O   22   0.074922   0.040564   0.040360   0.027281   0.019244   0.158169
     H   23   0.018076   0.042732   0.019278   0.012173   0.007202   0.270711


                  O  7       O  8       C  9       H 10       H 11       H 12
 ------------------------------------------------------------------------------
     O    7  11.206660
     O    8   2.273610  11.656121
     C    9   1.273598   1.282277  11.201501
     H   10   0.070897   0.042410   3.386814   4.202331
     H   11   0.059245   0.062098   3.327508   0.440361   4.140907
     H   12   0.178606   0.160369   3.321521   0.453558   0.472043   4.152024
     C   13   0.008379   0.002246   0.002321   0.000724   0.000696   0.001064
     H   14   0.004490   0.001532   0.001013   0.000324   0.000163   0.000566
     H   15   0.001373   0.001332   0.000983   0.000275   0.000399   0.000186
     H   16   0.003027   0.001575   0.001157   0.000327   0.000265   0.000496
     C   17   0.006168   0.003086   0.002041   0.000624   0.000736   0.001136
     H   18   0.000950   0.000850   0.000941   0.000243   0.000385   0.000279
     H   19   0.001791   0.001943   0.001096   0.000261   0.000213   0.000455
     H   20   0.001971   0.002040   0.001319   0.000400   0.000300   0.000371
     H   21   0.169081   0.168866   0.064047   0.009120   0.010322   0.029917
     O   22   0.288544   0.113913   0.038400   0.004184   0.004706   0.036446
     H   23   0.181394   0.113318   0.082977   0.008722   0.008092   0.074080


                  C 13       H 14       H 15       H 16       C 17       H 18
 ------------------------------------------------------------------------------
     C   13  11.052278
     H   14   3.351769   4.148974
     H   15   3.360375   0.454852   4.162988
     H   16   3.320922   0.453097   0.456903   4.137205
     C   17   0.718208   0.041690   0.011777   0.007978  11.054101
     H   18   0.022983   0.002499   0.013532   0.005886   3.358861   4.156882
     H   19   0.036222   0.007382   0.003768   0.005418   3.351917   0.454965
     H   20   0.009665   0.003291   0.006238   0.016933   3.327419   0.457123
     H   21   0.009479   0.005146   0.001228   0.002384   0.012637   0.001713
     O   22   0.040873   0.028056   0.001653   0.004487   0.009942   0.001124
     H   23   0.036326   0.025152   0.001795   0.003656   0.005879   0.001851


                  H 19       H 20       H 21       O 22       H 23
 ------------------------------------------------------------------
     H   19   4.143373
     H   20   0.459323   4.138895
     H   21   0.011335   0.004595   4.211661
     O   22   0.003514   0.004246   3.713811   6.094551
     H   23   0.001349   0.001903   0.891828   3.922993   4.330680


          HEAT OF FORMATION =    -309.029720 KCALS/MOLE


          TRIVIAL VIBRATIONS, SHOULD BE ZERO

  47.3966=TX  -2.3406=TY   0.3036=TZ  25.1202=RX -10.2096=RY  39.7237=RZ


      MOLECULAR POINT GROUP   :   C1  


           EIGENVECTORS  


   Root No.       1         2         3         4         5         6         7         8

                 1 A       2 A       3 A       4 A       5 A       6 A       7 A       8 A   

                  -0.3      -0.1      -0.1      -0.0      -0.0      -0.0      -0.0       0.0
  
           1    0.0108    0.0127    0.0079   -0.0053    0.0067    0.0452    0.0090   -0.0007
           2   -0.0071   -0.0016   -0.0078    0.0123   -0.0026   -0.0868   -0.0639    0.0335
           3   -0.0054    0.0019    0.0294    0.0025   -0.0976    0.0523   -0.0779   -0.0265
           4    0.0197    0.0131    0.0042   -0.0052    0.0065    0.0441    0.0098   -0.0007
           5   -0.0096   -0.0033   -0.0071    0.0318    0.0208   -0.2346   -0.1730    0.0605
           6   -0.0290   -0.0010    0.0536    0.0159   -0.2682    0.0665   -0.1351   -0.1083
           7    0.0112    0.0125    0.0070   -0.0317   -0.0247    0.2395    0.1504   -0.0383
           8   -0.0076   -0.0012   -0.0069    0.0034   -0.0121   -0.0246   -0.0188    0.0215
           9   -0.0336   -0.0260   -0.0135    0.0055   -0.0700    0.0431   -0.0287    0.0546
          10    0.0104    0.0121    0.0050   -0.0982   -0.0424    0.3549    0.2337   -0.0609
          11   -0.0031    0.0004   -0.0076    0.0007    0.0040   -0.1412   -0.1075    0.0376
          12   -0.0554   -0.0355    0.0059    0.7018   -0.0591    0.0795    0.0364    0.1157
          13    0.0110    0.0131    0.0109    0.0127   -0.0312    0.2784    0.1786   -0.0445
          14   -0.0074   -0.0025   -0.0093    0.0005   -0.0364    0.1346    0.0998   -0.0044
          15   -0.0329   -0.0387   -0.0765   -0.6881   -0.0484   -0.0190   -0.0660    0.0656
          16    0.0353   -0.0378   -0.0876    0.0159   -0.0288   -0.0827    0.0021   -0.0058
          17   -0.0647    0.0265    0.0230   -0.0162    0.0254    0.0524    0.0318   -0.0746
          18    0.0664    0.2374   -0.0595   -0.0133    0.0237   -0.0378    0.0619   -0.0290
          19    0.0200   -0.1636   -0.0088    0.0046    0.0607   -0.0465   -0.0884    0.0196
          20   -0.1309    0.2992    0.2435   -0.0277    0.0848   -0.0234    0.0033   -0.0842
          21    0.0474    0.5431    0.0321   -0.0124   -0.0081   -0.1172    0.1162   -0.0573
          22    0.0897    0.1196   -0.1651    0.0292   -0.1310   -0.1254    0.1057   -0.0458
          23    0.0111   -0.1817   -0.1176   -0.0142    0.0223    0.1190    0.0243   -0.1559
          24    0.1305    0.1986   -0.1758   -0.0061   -0.0273   -0.0174    0.1079   -0.0953
          25    0.0343   -0.0586   -0.0787    0.0145   -0.0178   -0.0713   -0.0130    0.0069
          26   -0.0203   -0.0213   -0.0637   -0.0049   -0.0519    0.0691    0.0798    0.0457
          27    0.0143   -0.0218   -0.0274   -0.0261    0.1269    0.0615   -0.0737    0.0871
          28    0.0623    0.0247   -0.1123    0.0236   -0.1022   -0.1197    0.0812    0.0459
          29   -0.0009    0.0200   -0.0356   -0.0154   -0.1207   -0.0266    0.1991    0.3069
          30    0.0085   -0.0392    0.0262   -0.0446    0.1120   -0.0103   -0.0095    0.3540
          31    0.0022    0.0173   -0.0255    0.0111    0.0212   -0.0886   -0.0331   -0.1273
          32   -0.0013   -0.0142   -0.0652   -0.0078   -0.0921    0.0295    0.1383    0.1753
          33   -0.0104   -0.1864   -0.1150   -0.0084    0.2235    0.2481   -0.2728   -0.2083
          34    0.0188   -0.2981   -0.1260    0.0112    0.0413    0.0115   -0.1090    0.1063
          35   -0.0065   -0.1614   -0.1812    0.0196   -0.0007    0.2279   -0.0683   -0.2488
          36    0.0096   -0.0726   -0.0233   -0.0319    0.1338    0.0550   -0.0727    0.1781
          37   -0.0025    0.0109    0.0338    0.0102   -0.1636   -0.0271   -0.1192   -0.0777
          38   -0.0308   -0.0249   -0.0273   -0.0185   -0.0605   -0.0156    0.0087    0.0593
          39    0.0128    0.0144    0.0272    0.0155    0.0065    0.0446   -0.0612   -0.0077
          40    0.0262    0.0069    0.0846   -0.0092   -0.3581    0.1132   -0.1000    0.0739
          41   -0.0585   -0.0399   -0.0595   -0.0134   -0.0449   -0.1135   -0.0250   -0.0812
          42    0.0068    0.0055    0.0290    0.0107   -0.0651    0.0510   -0.0713   -0.0181
          43   -0.0002    0.0106    0.0359    0.0092   -0.1731   -0.0235   -0.1210   -0.0748
          44   -0.0179   -0.0280   -0.0026   -0.0410   -0.1420    0.2049    0.1406    0.2950
          45    0.0055    0.0165   -0.0143    0.0207    0.1997   -0.0082   -0.0166   -0.0657
          46   -0.0110    0.0136    0.0078    0.0345   -0.0898   -0.2384   -0.2465   -0.3113
          47   -0.0341   -0.0245   -0.0359   -0.0103   -0.0375   -0.0776   -0.0266   -0.0104
          48    0.0360    0.0325    0.0593    0.0236   -0.0367    0.0883   -0.0864    0.0834
          49    0.0086    0.0067   -0.0174    0.0050    0.2094   -0.0570    0.0141    0.1093
          50    0.0193    0.0248    0.0105    0.0217    0.0351   -0.0148   -0.0305   -0.0205
          51    0.0070    0.0135    0.0245    0.0154    0.0097    0.0444   -0.0590   -0.0060
          52    0.0077    0.0058   -0.0178    0.0063    0.2147   -0.0589    0.0156    0.1115
          53    0.0212    0.0238    0.0151    0.0109    0.1527    0.0872    0.1803   -0.2365
          54    0.0046    0.0066    0.0041    0.0278    0.2534    0.0066    0.0588   -0.0234
          55    0.0044   -0.0047   -0.0262    0.0163    0.4655   -0.0457    0.2137   -0.0040
          56    0.0364    0.0483    0.0164    0.0244   -0.0166   -0.0309   -0.1555    0.0871
          57   -0.0015    0.0049    0.0245    0.0099   -0.0585    0.0488   -0.0662   -0.0213
          58    0.0046    0.0066   -0.0211    0.0113    0.1075   -0.1540   -0.1847    0.3189
          59    0.0195    0.0265    0.0094    0.0225   -0.0002   -0.0428   -0.0961    0.0456
          60    0.0267    0.0382    0.0400    0.0174   -0.0758    0.0731   -0.1528    0.0439
          61   -0.1318    0.0680   -0.1354    0.0111   -0.0153   -0.0685    0.0035    0.0184
          62    0.0068    0.2014   -0.2773    0.0174    0.0854    0.0011   -0.0605   -0.1068
          63   -0.0536   -0.3403    0.2900   -0.0189   -0.0873   -0.2702    0.3003   -0.0928
          64    0.1757    0.1201    0.1678   -0.0289    0.0005    0.0342    0.0127   -0.0118
          65   -0.3720   -0.0318    0.0907    0.0167    0.1074   -0.0588   -0.0638   -0.0691
          66    0.1669   -0.1517   -0.2225    0.0022   -0.1149   -0.2699    0.2988   -0.1136
          67   -0.4074    0.0884    0.4570   -0.0480    0.0442    0.0863   -0.0154   -0.0071
          68    0.6583   -0.1345    0.4960   -0.0126    0.0804   -0.0345   -0.0165   -0.0757
          69   -0.3212   -0.1997    0.0822   -0.0188   -0.0722   -0.2129    0.2697   -0.1090


   Root No.       9        10        11        12        13        14        15        16

                 9 A      10 A      11 A      12 A      13 A      14 A      15 A      16 A   

                   0.0       0.0       0.0       0.0       0.0       0.0       0.2       0.2
  
           1    0.0502   -0.1272   -0.0461   -0.0464   -0.0527    0.0303   -0.0065   -0.0567
           2    0.0305   -0.0789    0.0420    0.0397    0.0270   -0.0065    0.0174   -0.1793
           3    0.0574    0.0195    0.0276   -0.0263    0.0029   -0.0022    0.0065   -0.0107
           4    0.0498   -0.1270   -0.0466   -0.0477   -0.0525    0.0327   -0.0052   -0.0533
           5    0.0260   -0.1491    0.1386    0.0324    0.0490   -0.0211    0.0254   -0.2375
           6    0.1164    0.0434    0.0690   -0.0606   -0.0067    0.0156   -0.0084   -0.0118
           7    0.0581   -0.0355   -0.1799   -0.0394   -0.0931    0.0484   -0.0307   -0.0592
           8    0.0325   -0.0484   -0.0004    0.0426    0.0160   -0.0011    0.0109   -0.1674
           9    0.0359    0.0049   -0.0035   -0.0640    0.0401   -0.0253    0.0249    0.0123
          10    0.0639    0.0170   -0.2665   -0.0316   -0.1168    0.0571   -0.0428   -0.0812
          11    0.0288   -0.1005    0.0864    0.0380    0.0351   -0.0092    0.0218   -0.1552
          12    0.0234    0.0042   -0.0360   -0.0964    0.0789   -0.0341    0.0477    0.0381
          13    0.0605   -0.0193   -0.2081   -0.0380   -0.0991    0.0510   -0.0332   -0.0712
          14    0.0390    0.0239   -0.1179    0.0468   -0.0163    0.0118   -0.0089   -0.2062
          15    0.0219   -0.0023    0.0182   -0.0623    0.0319   -0.0310    0.0143    0.0395
          16   -0.0854    0.2081    0.0646    0.0456   -0.0018   -0.0408   -0.0342    0.0008
          17   -0.0704    0.0219   -0.0406   -0.1484    0.2065    0.0674   -0.0496    0.0011
          18   -0.0491   -0.0277    0.0010    0.0635    0.0044   -0.0972   -0.1221   -0.0033
          19   -0.0757    0.2545    0.0452   -0.0661    0.0493    0.0772    0.0127    0.0021
          20   -0.1105    0.1142   -0.0388   -0.1680    0.1430    0.4478    0.0327    0.0041
          21   -0.0844   -0.0016    0.0158    0.1330   -0.0725    0.0712   -0.0972   -0.0020
          22   -0.1029    0.1472    0.0836    0.1720   -0.0585   -0.2016   -0.0807   -0.0002
          23   -0.1159   -0.0885   -0.0983   -0.3585    0.4379   -0.3565   -0.1533   -0.0013
          24   -0.0838   -0.1188   -0.0246   -0.0050    0.1153   -0.4178   -0.2013   -0.0051
          25   -0.0747    0.2153    0.0651    0.0410    0.0006   -0.0346   -0.0257    0.0013
          26    0.0499    0.0257    0.0247    0.1358    0.0098    0.0300   -0.0104    0.0006
          27    0.0428    0.0491    0.0048    0.0054    0.0090    0.0216   -0.0227   -0.0011
          28   -0.0355    0.1994    0.0926    0.1903   -0.1066   -0.1020   -0.0551   -0.0001
          29    0.2438    0.1178    0.0199    0.0776   -0.0503   -0.0335   -0.0000    0.0012
          30    0.2329    0.1658   -0.0209   -0.1739    0.0196   -0.0018    0.0107    0.0005
          31   -0.1964    0.1880    0.0240   -0.1197    0.1416   -0.0111   -0.0977    0.0011
          32    0.1507    0.0654    0.0311    0.1494   -0.0436   -0.0019    0.0045    0.0007
          33   -0.1599   -0.0612    0.0468    0.2108   -0.0142    0.1133    0.0408   -0.0010
          34    0.0085    0.2685    0.0800    0.0324   -0.0426    0.0082    0.0770    0.0035
          35   -0.1472   -0.1024    0.0775    0.4130   -0.0535    0.0839    0.0221   -0.0001
          36    0.1091    0.0907   -0.0017   -0.0560    0.0092    0.0176    0.0019   -0.0002
          37    0.1183   -0.1498    0.0619   -0.0908   -0.0612    0.0336   -0.0145    0.0129
          38    0.0379   -0.0501   -0.0172    0.0015    0.0517   -0.0225    0.0290    0.0281
          39    0.0239    0.0143    0.0121    0.0121   -0.0075    0.0061    0.0039   -0.1438
          40   -0.0812   -0.2452    0.3383   -0.1800   -0.0828    0.0670   -0.0234    0.1438
          41    0.2362    0.0252   -0.2055    0.0186    0.0808   -0.0639    0.0482    0.2552
          42    0.0445    0.0150    0.0271   -0.0160   -0.0017   -0.0006    0.0090    0.0037
          43    0.1140   -0.1540    0.0740   -0.0952   -0.0633    0.0345   -0.0154    0.0261
          44   -0.2439   -0.1293    0.1896   -0.0619    0.0401    0.0196    0.0153    0.0955
          45    0.1159    0.0814   -0.2045    0.0853    0.0090   -0.0164    0.0186   -0.3148
          46    0.4005   -0.0727   -0.1418   -0.0331   -0.0530   -0.0097   -0.0008   -0.0041
          47    0.1235   -0.0256   -0.0826    0.0190    0.0557   -0.0362    0.0336    0.0416
          48   -0.1250   -0.0606    0.2088   -0.0059   -0.0413    0.0472   -0.0157   -0.4105
          49   -0.0198   -0.2046   -0.0325   -0.0159   -0.0362    0.0047   -0.0080    0.0042
          50    0.0258   -0.0342    0.0085    0.0849   -0.0151    0.0262   -0.0091    0.0469
          51    0.0234    0.0097    0.0157    0.0091   -0.0119    0.0058   -0.0075    0.1290
          52   -0.0208   -0.2072   -0.0306   -0.0161   -0.0367    0.0041   -0.0095    0.0113
          53    0.2475    0.0215    0.3129    0.0244   -0.0151    0.0425   -0.0084    0.1234
          54    0.0805   -0.0324    0.1942    0.0017    0.0016   -0.0084   -0.0144    0.2889
          55    0.1298   -0.2210    0.2628   -0.0518   -0.0251   -0.0004   -0.0182    0.1401
          56   -0.1278   -0.0363   -0.2251    0.1597   -0.0467    0.0405   -0.0301    0.2903
          57    0.0496    0.0169    0.0306   -0.0178    0.0008    0.0002    0.0066   -0.0313
          58   -0.2348   -0.2609   -0.3263    0.0455   -0.0407   -0.0102   -0.0151   -0.0253
          59   -0.0461   -0.0491   -0.0929    0.1075   -0.0189    0.0241   -0.0129    0.0673
          60   -0.0929    0.0390   -0.1922    0.0752   -0.0532    0.0359   -0.0348    0.4208
          61   -0.0354    0.1621    0.0309    0.0299    0.3490    0.3293   -0.2633   -0.0116
          62   -0.1717    0.1507   -0.0099   -0.3657   -0.3418   -0.0818    0.4707    0.0064
          63   -0.1047   -0.0819   -0.0609    0.0894    0.0001    0.1152   -0.1876   -0.0057
          64   -0.0338    0.0839    0.0113    0.1069    0.3501   -0.0006    0.3925    0.0093
          65   -0.1466    0.1950    0.0171   -0.2070   -0.3877   -0.0616   -0.3820   -0.0151
          66   -0.1299   -0.0805   -0.0786   -0.1035    0.0470    0.2749    0.2942    0.0049
          67   -0.0574    0.0803    0.0440    0.2083    0.1322   -0.3672    0.2977    0.0064
          68   -0.0917    0.1310   -0.0192   -0.0813   -0.1636   -0.0978   -0.0667   -0.0004
          69   -0.1478   -0.0871   -0.0488    0.0023   -0.1608   -0.0895    0.2326    0.0035


   Root No.      17        18        19        20        21        22        23        24

                17 A      18 A      19 A      20 A      21 A      22 A      23 A      24 A   

                   0.2       0.3       0.3       0.6       0.7       0.7       0.8       0.8
  
           1    0.0152    0.2189   -0.1994    0.0005   -0.0006   -0.0024   -0.0100    0.0007
           2    0.0130   -0.0487    0.0336   -0.0000    0.0002   -0.0018   -0.0505    0.0068
           3   -0.1546    0.0091    0.0051    0.0016    0.0008   -0.0526    0.0029    0.0005
           4    0.0152    0.2040   -0.1819    0.0006    0.0009   -0.0052   -0.0054   -0.0008
           5    0.0154   -0.0408    0.0291   -0.0021   -0.0002    0.0332    0.5987   -0.0580
           6   -0.2588    0.0254    0.0207   -0.0055   -0.0049    0.5816   -0.0438   -0.0007
           7    0.0095    0.0448   -0.0453    0.0001   -0.0002   -0.0096   -0.0995    0.0088
           8    0.0102   -0.0963    0.0770   -0.0004    0.0002    0.0022    0.0038    0.0036
           9    0.1691   -0.0155   -0.0077    0.0043    0.0018   -0.0241    0.0020    0.0280
          10    0.0099   -0.1536    0.1292   -0.0006   -0.0009    0.0053    0.0955   -0.0114
          11   -0.0182    0.0865   -0.0814    0.0005    0.0010   -0.0192   -0.1686    0.0290
          12    0.4561   -0.0294   -0.0306    0.0060    0.0013    0.0567   -0.0178   -0.0459
          13   -0.0071   -0.0216    0.0142    0.0001   -0.0003   -0.0093   -0.0270    0.0060
          14    0.0236   -0.3710    0.3204   -0.0012    0.0004    0.0273    0.2667   -0.0265
          15    0.4858   -0.0292   -0.0206    0.0036    0.0012    0.0730   -0.0167   -0.0522
          16   -0.0123   -0.0676   -0.0698    0.0281   -0.0048    0.0002    0.0001    0.0001
          17   -0.0130   -0.1269   -0.1371   -0.0701    0.0473   -0.0004   -0.0002   -0.0003
          18   -0.0007   -0.0005   -0.0029    0.1254    0.0298    0.0010   -0.0000    0.0001
          19   -0.0132   -0.0757   -0.0732    0.4092   -0.0588    0.0016    0.0004    0.0009
          20   -0.0303   -0.2293   -0.2404    0.0649   -0.2904   -0.0014   -0.0003   -0.0003
          21   -0.0128   -0.0754   -0.0831   -0.1117   -0.1584   -0.0013   -0.0005   -0.0004
          22   -0.0128   -0.0739   -0.0818   -0.4024   -0.0239    0.0003   -0.0005    0.0004
          23    0.0033   -0.0308   -0.0331    0.0900   -0.2114   -0.0019   -0.0001   -0.0005
          24    0.0089    0.0552    0.0551   -0.0142   -0.1194   -0.0001   -0.0003    0.0001
          25   -0.0145   -0.0871   -0.0912    0.0395    0.0008    0.0010    0.0001    0.0005
          26   -0.0023   -0.0424   -0.0472   -0.0863    0.1724    0.0007   -0.0003    0.0002
          27   -0.0035   -0.0054   -0.0050    0.1507    0.1105    0.0017    0.0002    0.0008
          28   -0.0043   -0.0129   -0.0098    0.5956   -0.1628    0.0060    0.0013    0.0009
          29    0.0028   -0.0028   -0.0038    0.0760    0.1296    0.0032    0.0004    0.0010
          30   -0.0062   -0.0202   -0.0217   -0.1216    0.1904    0.0006    0.0001    0.0012
          31   -0.0277   -0.2184   -0.2406   -0.1002    0.6587    0.0058    0.0008    0.0021
          32    0.0040    0.0115    0.0135    0.0075   -0.0726   -0.0016   -0.0006   -0.0007
          33   -0.0065   -0.0001    0.0034    0.0265   -0.0285    0.0022    0.0003    0.0011
          34   -0.0205   -0.0976   -0.1023   -0.4374   -0.4829   -0.0075   -0.0003   -0.0016
          35    0.0013   -0.0023   -0.0024    0.0027    0.1454    0.0001   -0.0002    0.0002
          36   -0.0063   -0.0181   -0.0191   -0.0246   -0.0325   -0.0006    0.0001    0.0001
          37    0.0202    0.0440   -0.0418   -0.0005   -0.0014    0.0854    0.0358   -0.0163
          38   -0.1138    0.0218   -0.0181    0.0042    0.0014   -0.0067   -0.0654    0.1021
          39   -0.0800    0.0397   -0.0276    0.0001    0.0013   -0.0694    0.0086   -0.0215
          40    0.0061   -0.0886    0.0756    0.0029    0.0028   -0.0958    0.1290   -0.2850
          41   -0.2704    0.0432   -0.0256    0.0096    0.0074   -0.2905   -0.0351    0.0045
          42   -0.1631    0.0025    0.0124    0.0041    0.0060   -0.2882    0.0625   -0.1821
          43    0.0272    0.0218   -0.0239   -0.0001   -0.0012    0.0578    0.0224   -0.0078
          44   -0.2282    0.1984   -0.1556    0.0042   -0.0014    0.1780   -0.0552    0.2309
          45   -0.1066    0.2866   -0.2521    0.0004   -0.0006    0.2665    0.1735   -0.1873
          46    0.0965   -0.1246    0.0893    0.0012    0.0003    0.0271   -0.1580    0.2842
          47   -0.1136   -0.0119    0.0086    0.0049    0.0019   -0.0189   -0.1121    0.1752
          48    0.0856   -0.0760    0.0683   -0.0032    0.0005   -0.2236   -0.3066    0.4533
          49   -0.0164    0.0416   -0.0472    0.0002    0.0005   -0.0841    0.0436    0.0032
          50    0.1127    0.0135   -0.0227   -0.0038   -0.0018   -0.0007   -0.0854   -0.0892
          51   -0.1068   -0.0273    0.0390   -0.0003    0.0010   -0.0732   -0.0023   -0.0256
          52   -0.0279    0.0248   -0.0313    0.0000    0.0004   -0.0644    0.0315    0.0019
          53    0.2305    0.1697   -0.1734   -0.0030   -0.0026   -0.1751   -0.0796   -0.2394
          54   -0.1790   -0.2616    0.2626   -0.0021    0.0031    0.2246   -0.2157   -0.1676
          55   -0.0333   -0.0887    0.0695   -0.0028   -0.0025    0.1271    0.1528    0.2852
          56    0.2291    0.0200   -0.0335   -0.0090   -0.0037    0.2614   -0.0733    0.0117
          57   -0.1629    0.0138    0.0056    0.0035    0.0030   -0.2940   -0.0508   -0.1887
          58   -0.1019   -0.1129    0.0938   -0.0006   -0.0002   -0.0315   -0.2122   -0.2705
          59    0.1117   -0.0185    0.0058   -0.0043   -0.0022    0.0106   -0.1406   -0.1499
          60    0.0297    0.0776   -0.0533   -0.0045   -0.0013   -0.1761    0.4065    0.3890
          61    0.0379    0.4035    0.4723   -0.0842    0.0435   -0.0132    0.0010   -0.0076
          62    0.0018    0.1421    0.1698   -0.0005    0.0479    0.0047    0.0018    0.0004
          63    0.0094    0.0288    0.0152   -0.0415   -0.0342   -0.0066   -0.0032    0.0010
          64    0.0265    0.1619    0.2176   -0.0324    0.0153    0.0065   -0.0012    0.0049
          65    0.0144    0.2123    0.2030   -0.0441   -0.0013   -0.0145   -0.0018   -0.0038
          66    0.0025    0.0692    0.0953   -0.0111    0.0145    0.0039    0.0001   -0.0001
          67    0.0277    0.0581    0.0779   -0.0168    0.0171   -0.0012   -0.0001    0.0012
          68    0.0162    0.1025    0.1134   -0.0395    0.0324    0.0114   -0.0020    0.0031
          69    0.0006   -0.0494   -0.0589    0.0142    0.0146   -0.0019    0.0010   -0.0030


   Root No.      25        26        27        28        29        30        31        32

                25 A      26 A      27 A      28 A      29 A      30 A      31 A      32 A   

                   0.9       0.9       1.0       1.1       1.2       1.3       1.3       1.5
  
           1    0.0110   -0.0017   -0.0001    0.1184    0.1072    0.0001    0.0004    0.0002
           2    0.0081   -0.0027    0.0003   -0.0705    0.0940    0.0003   -0.0007    0.0016
           3   -0.0033   -0.0136   -0.0000   -0.0021    0.0011    0.0005    0.0003   -0.0970
           4    0.0185   -0.0058   -0.0005    0.1630    0.1110   -0.0007    0.0004    0.0011
           5   -0.1032    0.0303   -0.0007    0.4653   -0.0654   -0.0007    0.0015   -0.0082
           6    0.1097    0.5480   -0.0130    0.0122    0.0047   -0.0019    0.0018   -0.0632
           7    0.0239   -0.0070   -0.0002    0.0556    0.1950    0.0003    0.0014   -0.0084
           8    0.0124   -0.0032    0.0001   -0.1321    0.2058    0.0007   -0.0001   -0.0063
           9   -0.0014   -0.0109    0.0010    0.0006    0.0155    0.0002    0.0011   -0.0083
          10   -0.0183    0.0055   -0.0003    0.1267   -0.1111   -0.0001   -0.0002    0.0022
          11    0.0489   -0.0174   -0.0000   -0.1976    0.5198    0.0009    0.0011   -0.0181
          12    0.0099    0.0231    0.0006    0.0017    0.0096    0.0009    0.0037   -0.0092
          13    0.0088   -0.0048   -0.0003    0.0624    0.1347    0.0002    0.0010   -0.0068
          14   -0.0478    0.0156   -0.0005   -0.1674   -0.0406   -0.0002   -0.0010    0.0004
          15    0.0126    0.0296    0.0000   -0.0025    0.0126    0.0003    0.0021   -0.0141
          16    0.0001   -0.0004    0.0030   -0.0007   -0.0007    0.0735    0.1920   -0.0002
          17    0.0007    0.0001    0.0933    0.0002    0.0006   -0.1415    0.0653    0.0003
          18    0.0003   -0.0018   -0.2053   -0.0004   -0.0003   -0.0900    0.0129    0.0004
          19   -0.0008   -0.0025   -0.2062   -0.0000   -0.0014    0.2004    0.3826    0.0002
          20    0.0009   -0.0014    0.0338    0.0010    0.0005    0.1374    0.0075    0.0005
          21    0.0010   -0.0015   -0.0606   -0.0001    0.0004    0.0123   -0.1457    0.0002
          22    0.0000    0.0041    0.2710    0.0000   -0.0015    0.1788    0.3577    0.0009
          23    0.0006   -0.0001    0.0480    0.0004    0.0004    0.0716   -0.0756    0.0007
          24    0.0002    0.0001   -0.0923    0.0000   -0.0007    0.0710    0.0007    0.0009
          25   -0.0001    0.0005    0.0116   -0.0004   -0.0007    0.0360    0.1400    0.0001
          26    0.0002    0.0005    0.0857   -0.0008    0.0008   -0.2846    0.1311   -0.0001
          27   -0.0002   -0.0002   -0.1410   -0.0006   -0.0001   -0.1655    0.1024   -0.0010
          28    0.0011    0.0065    0.1775    0.0016    0.0007   -0.1116   -0.3557   -0.0002
          29    0.0000    0.0064    0.2980    0.0010    0.0008    0.2014   -0.3181    0.0008
          30   -0.0012    0.0020   -0.0319   -0.0002   -0.0012    0.5354   -0.0159    0.0000
          31   -0.0020    0.0023   -0.0417    0.0006    0.0004   -0.2000   -0.2799    0.0001
          32    0.0007   -0.0032   -0.0970   -0.0015    0.0002   -0.2899    0.3739   -0.0004
          33    0.0012    0.0099    0.6209   -0.0000    0.0009    0.0295    0.0273   -0.0003
          34    0.0010   -0.0060   -0.1989    0.0002    0.0006   -0.1376   -0.3726    0.0006
          35   -0.0010   -0.0065   -0.4700   -0.0002   -0.0009    0.3372   -0.1441   -0.0010
          36    0.0003   -0.0006   -0.1018   -0.0004    0.0006   -0.3937    0.0200   -0.0006
          37   -0.0142   -0.0112   -0.0007    0.0824    0.0470    0.0010   -0.0001    0.1328
          38   -0.0065   -0.0134    0.0009   -0.0473    0.0684   -0.0000    0.0004    0.1828
          39    0.0708   -0.0383    0.0001   -0.0108   -0.0479   -0.0004   -0.0004   -0.2101
          40    0.1883   -0.2467    0.0040   -0.3219   -0.0433    0.0005   -0.0015    0.1674
          41    0.3814    0.0742   -0.0003    0.2027   -0.1064    0.0005    0.0024    0.1936
          42    0.3650   -0.0868    0.0013   -0.0493   -0.1866   -0.0001    0.0002   -0.2842
          43   -0.0187   -0.0083   -0.0008    0.1026    0.0678    0.0012    0.0001    0.1297
          44   -0.2995   -0.2022    0.0034    0.0149   -0.3196   -0.0001    0.0011   -0.1892
          45    0.0369   -0.3468    0.0043   -0.2933   -0.1675    0.0002   -0.0012    0.3003
          46   -0.2758   -0.2371    0.0040   -0.1181   -0.2903   -0.0014   -0.0010   -0.2086
          47   -0.0881   -0.0787    0.0022   -0.1148   -0.0131   -0.0007    0.0000    0.0963
          48    0.1930    0.0429   -0.0018    0.1911   -0.1774   -0.0015   -0.0018    0.2816
          49   -0.0182    0.0200    0.0008    0.0798    0.0468   -0.0004   -0.0002   -0.1211
          50    0.0034    0.0105   -0.0002   -0.0447    0.0618    0.0004   -0.0022   -0.1698
          51   -0.0844   -0.0089   -0.0002    0.0090    0.0392   -0.0001   -0.0005   -0.1990
          52   -0.0189    0.0215    0.0007    0.0933    0.0715   -0.0004   -0.0000   -0.1354
          53   -0.1927    0.2923   -0.0030    0.0052   -0.2977   -0.0018   -0.0016    0.1854
          54   -0.1482   -0.3275    0.0029    0.3049    0.1731   -0.0009    0.0003    0.2908
          55    0.2618    0.1620   -0.0026   -0.3084   -0.0477    0.0013    0.0004   -0.1549
          56    0.3242   -0.2106    0.0019    0.2088   -0.0842   -0.0004   -0.0032   -0.2016
          57   -0.3738    0.0643   -0.0001    0.0192    0.1654    0.0000   -0.0003   -0.2571
          58   -0.1460    0.3151   -0.0034   -0.1256   -0.2798   -0.0005    0.0005    0.2017
          59   -0.0430    0.1055   -0.0016   -0.1209   -0.0202    0.0005   -0.0023   -0.0655
          60   -0.1876    0.1245   -0.0031   -0.1835    0.1585   -0.0015   -0.0007    0.2707
          61    0.0048   -0.0103    0.0038   -0.0116   -0.0080   -0.0312   -0.0319   -0.0036
          62    0.0001    0.0073   -0.0020   -0.0035   -0.0012   -0.0170   -0.0179   -0.0016
          63   -0.0023   -0.0064    0.0170    0.0053    0.0029    0.0240   -0.0220   -0.0002
          64   -0.0051    0.0072   -0.0049    0.0005    0.0013    0.0013   -0.0279    0.0008
          65    0.0021   -0.0113   -0.0033   -0.0006   -0.0011    0.0142   -0.0073   -0.0020
          66   -0.0009    0.0036    0.0150   -0.0003   -0.0011   -0.0019   -0.0029   -0.0003
          67   -0.0010   -0.0030   -0.0158   -0.0007    0.0005   -0.0106   -0.0053    0.0013
          68   -0.0016    0.0078    0.0112    0.0021   -0.0026   -0.0281   -0.0103    0.0014
          69    0.0024   -0.0046   -0.0118   -0.0005   -0.0019   -0.0169    0.0185   -0.0004


   Root No.      33        34        35        36        37        38        39        40

                33 A      34 A      35 A      36 A      37 A      38 A      39 A      40 A   

                   1.6       1.7       1.7       2.1       2.3       2.4       2.6       3.1
  
           1    0.0040    0.0061   -0.0108   -0.0008   -0.0369    0.0036    0.2464    0.0010
           2    0.0054   -0.0288    0.0328    0.0010   -0.0088   -0.0006    0.0408    0.0043
           3   -0.0365   -0.0050   -0.0121   -0.0240    0.2994    0.0013    0.0380    0.0000
           4    0.0079   -0.0112   -0.0035   -0.0069   -0.0694    0.0112    0.5869   -0.0023
           5   -0.0227   -0.2653   -0.2356   -0.0011    0.0028   -0.0020   -0.1317   -0.0030
           6   -0.1615    0.0026    0.0298    0.0119   -0.2319    0.0026   -0.0253   -0.0009
           7   -0.0127   -0.1201   -0.2418    0.0052   -0.0120   -0.0042   -0.2087   -0.0022
           8   -0.0020    0.1443   -0.0856    0.0015   -0.0066   -0.0023   -0.0727    0.0017
           9   -0.1034   -0.0099   -0.0282   -0.0234    0.3396    0.0010   -0.0015    0.0032
          10   -0.0051   -0.1877   -0.0106    0.0001    0.0140   -0.0023   -0.0899    0.0031
          11   -0.0258    0.2194   -0.3296    0.0036    0.0151   -0.0040   -0.2065   -0.0033
          12    0.0542   -0.0057   -0.0071    0.0089   -0.1213    0.0014   -0.0179   -0.0009
          13   -0.0192   -0.0775   -0.1881    0.0022    0.0179   -0.0028   -0.1610   -0.0023
          14    0.0248    0.4331    0.2134   -0.0022   -0.0160    0.0057    0.2553   -0.0031
          15    0.0671    0.0085   -0.0056    0.0093   -0.1276    0.0011   -0.0116   -0.0011
          16   -0.0011   -0.0004    0.0000    0.0331    0.0025    0.0224    0.0031   -0.2031
          17   -0.0005    0.0003   -0.0008    0.0210    0.0002   -0.2018    0.0054    0.0245
          18   -0.0003   -0.0003   -0.0002    0.0549    0.0033    0.2575   -0.0034    0.0338
          19   -0.0006   -0.0004    0.0004    0.0243    0.0020    0.3918   -0.0081    0.2867
          20   -0.0012   -0.0000   -0.0009    0.0123   -0.0011   -0.0745    0.0007    0.1552
          21   -0.0007   -0.0003   -0.0010    0.0389    0.0018    0.0890    0.0017   -0.2692
          22    0.0001    0.0002    0.0023   -0.0631   -0.0047   -0.3204    0.0016    0.3461
          23   -0.0002    0.0002   -0.0013    0.0070   -0.0004   -0.0727    0.0032   -0.1549
          24    0.0007    0.0002    0.0007   -0.0123   -0.0013    0.1881   -0.0065    0.1860
          25   -0.0004   -0.0004    0.0001    0.0068    0.0010   -0.0175    0.0031   -0.3639
          26    0.0013   -0.0003    0.0005   -0.0020    0.0002    0.1754   -0.0028   -0.0095
          27    0.0005   -0.0002    0.0014   -0.0539   -0.0024   -0.2520    0.0026    0.0317
          28   -0.0001    0.0003    0.0001   -0.0457   -0.0025   -0.3740    0.0051   -0.0563
          29    0.0001    0.0001   -0.0014    0.0338    0.0011    0.3121   -0.0065    0.2872
          30   -0.0017   -0.0003   -0.0003    0.0084    0.0003   -0.1955    0.0057   -0.2675
          31    0.0018   -0.0001    0.0001   -0.0254   -0.0007    0.1176   -0.0033   -0.0232
          32    0.0007   -0.0003    0.0011   -0.0087    0.0003    0.0651    0.0011   -0.3668
          33   -0.0001   -0.0004   -0.0006    0.0327    0.0021    0.1851   -0.0013   -0.1032
          34   -0.0001   -0.0001   -0.0018    0.0448    0.0023    0.1905   -0.0020   -0.0049
          35   -0.0016   -0.0002    0.0003   -0.0197   -0.0012   -0.1946    0.0025    0.0721
          36    0.0018    0.0000    0.0016   -0.0786   -0.0044   -0.2664   -0.0002    0.3908
          37    0.2465    0.1435    0.1439   -0.0032    0.1809   -0.0014   -0.0129    0.0019
          38   -0.1989   -0.2032    0.1490   -0.0131    0.1448    0.0028    0.1116    0.0019
          39   -0.0252    0.0506   -0.1394   -0.0138    0.1581    0.0025    0.2185    0.0055
          40   -0.2019   -0.1811    0.0485   -0.0014   -0.1600   -0.0001   -0.0977   -0.0026
          41    0.2305    0.1024    0.0905    0.0228   -0.1625   -0.0022   -0.1877   -0.0044
          42   -0.0000    0.1108   -0.3148   -0.0043   -0.1040    0.0034    0.2009    0.0060
          43    0.3189    0.2034    0.1753   -0.0064    0.3429   -0.0021    0.0083    0.0050
          44    0.1953    0.1801   -0.1148    0.0122   -0.0799   -0.0011   -0.0750   -0.0006
          45    0.0671   -0.0176    0.1529    0.0080   -0.0595   -0.0033   -0.1571   -0.0018
          46   -0.0472    0.0334   -0.1740    0.0096   -0.1731   -0.0007   -0.0621   -0.0020
          47   -0.3659   -0.3269    0.0904   -0.0187    0.1276    0.0053    0.2330    0.0033
          48    0.0268   -0.0489    0.1280    0.0097   -0.1046   -0.0023   -0.0793   -0.0022
          49   -0.2197    0.1456    0.2063    0.0109   -0.1540   -0.0013   -0.0518    0.0013
          50    0.2259   -0.2033    0.1394    0.0142   -0.1571   -0.0011    0.0569    0.0019
          51   -0.0083   -0.0557    0.1435   -0.0097    0.2240   -0.0015   -0.1512   -0.0048
          52   -0.2792    0.1983    0.2738    0.0199   -0.3017   -0.0021   -0.0856    0.0039
          53   -0.2283    0.1861   -0.1041   -0.0088    0.0937   -0.0017   -0.0513   -0.0006
          54    0.0404    0.0322   -0.1612    0.0053   -0.1249    0.0011    0.1297    0.0015
          55    0.2036   -0.1873   -0.0021   -0.0088    0.1747   -0.0005   -0.0463   -0.0028
          56   -0.2218    0.0870    0.1255   -0.0161    0.2234   -0.0024   -0.1365   -0.0041
          57    0.0802   -0.1307    0.3434    0.0121   -0.0168   -0.0022   -0.1900   -0.0050
          58    0.0059    0.0361   -0.2151   -0.0155    0.1723    0.0003   -0.0178   -0.0025
          59    0.3837   -0.3246    0.0254    0.0144   -0.1761   -0.0002    0.1621    0.0040
          60    0.0035    0.0680   -0.1292    0.0085   -0.1320   -0.0011    0.0483    0.0020
          61   -0.0125   -0.0044   -0.0047    0.3460    0.0252   -0.0496    0.0058    0.0224
          62    0.0027   -0.0012    0.0009   -0.1275   -0.0055    0.0088   -0.0039   -0.0250
          63    0.0095    0.0036    0.0047   -0.4966   -0.0307    0.0517   -0.0088   -0.0499
          64    0.0116    0.0042    0.0047   -0.4053   -0.0227    0.0495   -0.0168   -0.0060
          65    0.0026   -0.0000    0.0039   -0.2384   -0.0137    0.0352   -0.0006    0.0077
          66   -0.0007    0.0012   -0.0001   -0.0012    0.0010   -0.0098   -0.0050    0.0121
          67   -0.0006   -0.0005   -0.0031    0.0795    0.0021   -0.0079    0.0039    0.0027
          68   -0.0042    0.0012    0.0010    0.3126    0.0197   -0.0492    0.0027    0.0117
          69   -0.0132   -0.0028   -0.0062    0.5094    0.0320   -0.0514    0.0138    0.0338


   Root No.      41        42        43        44        45        46        47        48

                41 A      42 A      43 A      44 A      45 A      46 A      47 A      48 A   

                   3.3       3.7       4.3       5.0       5.6       6.4       7.4       7.5
  
           1    0.1254    0.0100   -0.0017   -0.0165   -0.0037   -0.0088    0.0284    0.1022
           2   -0.2387   -0.0102    0.0016    0.4668    0.0032    0.0070   -0.0118    0.5545
           3    0.0038    0.0385    0.0004   -0.0112    0.0046    0.4959    0.0026   -0.0060
           4    0.4000    0.0442   -0.0012    0.2335    0.0009    0.0062   -0.0199   -0.1856
           5    0.0693   -0.0112   -0.0000   -0.0987   -0.0000   -0.0002   -0.0005   -0.0237
           6    0.0004    0.0378    0.0008    0.0027    0.0004   -0.0784   -0.0005   -0.0001
           7    0.0112   -0.0646    0.0001   -0.1430   -0.0001    0.0119   -0.0039    0.1020
           8   -0.1037   -0.0236    0.0009    0.3854    0.0016    0.0108    0.0043   -0.4313
           9   -0.0245    0.7885    0.0015    0.0084   -0.0004   -0.2423   -0.0005    0.0075
          10   -0.2123    0.0057    0.0014    0.3823    0.0024    0.0027    0.0003   -0.2858
          11    0.1276    0.0093   -0.0006   -0.1010   -0.0005   -0.0107   -0.0008   -0.1458
          12   -0.0039   -0.2198    0.0015    0.0212    0.0001    0.0616    0.0004   -0.0272
          13    0.0732    0.0099   -0.0006   -0.3123   -0.0013   -0.0133   -0.0029    0.2761
          14    0.2616    0.0182   -0.0016   -0.2495   -0.0019   -0.0026    0.0037    0.0911
          15    0.0192   -0.2134    0.0006   -0.0320   -0.0006    0.0539   -0.0003    0.0197
          16   -0.0023   -0.0000    0.0492   -0.0017    0.4955   -0.0034    0.0036    0.0000
          17    0.0041   -0.0006    0.7101   -0.0011   -0.0038   -0.0000    0.0043    0.0002
          18    0.0003    0.0007    0.4625   -0.0003   -0.0543    0.0009    0.0008    0.0003
          19    0.0032    0.0008   -0.0014    0.0002   -0.0122    0.0004   -0.0287    0.0000
          20    0.0030   -0.0003   -0.2155    0.0009   -0.1982    0.0012   -0.0246    0.0001
          21   -0.0041    0.0000   -0.1304   -0.0008    0.3264   -0.0031    0.0307   -0.0002
          22    0.0063   -0.0002   -0.0282    0.0002   -0.0817    0.0004   -0.0117   -0.0003
          23   -0.0018   -0.0002   -0.2061   -0.0005    0.2030   -0.0020    0.0177    0.0001
          24    0.0004    0.0004   -0.1091    0.0015   -0.3113    0.0021   -0.0311    0.0001
          25   -0.0063    0.0019    0.0292    0.0004    0.1591   -0.0034    0.0421    0.0011
          26   -0.0010   -0.0002   -0.0340   -0.0000    0.0005   -0.0001    0.0052    0.0005
          27    0.0008    0.0001   -0.0336   -0.0000   -0.0148    0.0001   -0.0153    0.0003
          28   -0.0002    0.0008    0.0476    0.0009   -0.2141    0.0015   -0.0055   -0.0004
          29    0.0045   -0.0016   -0.0043   -0.0014    0.2430   -0.0016    0.0031    0.0005
          30   -0.0039    0.0015    0.0534    0.0009   -0.2086    0.0013   -0.0013   -0.0002
          31   -0.0023    0.0010   -0.2159    0.0014   -0.1804    0.0014   -0.0093   -0.0005
          32   -0.0078    0.0017   -0.2182    0.0019   -0.3147    0.0026   -0.0144   -0.0004
          33   -0.0022    0.0006   -0.0273    0.0005   -0.0771    0.0008   -0.0018   -0.0002
          34   -0.0003    0.0007    0.1111    0.0006   -0.1482    0.0011   -0.0139   -0.0001
          35    0.0022   -0.0008   -0.0342   -0.0006    0.0743   -0.0003    0.0000    0.0002
          36    0.0073   -0.0017   -0.1972   -0.0015    0.3415   -0.0026    0.0168    0.0001
          37   -0.1029   -0.0426    0.0007    0.0012   -0.0006    0.0835    0.0180    0.1158
          38   -0.0723   -0.0632    0.0005    0.0040    0.0001    0.0862    0.0054    0.1734
          39   -0.1989   -0.1097   -0.0000   -0.0023    0.0008    0.2884    0.0047    0.1605
          40    0.1449    0.0594    0.0005    0.0376    0.0004    0.0886    0.0009    0.0063
          41    0.1543    0.0747    0.0004    0.0550    0.0012    0.1133   -0.0019    0.0122
          42   -0.2310   -0.1116    0.0008   -0.0815   -0.0033   -0.3482    0.0021   -0.0373
          43   -0.3376   -0.1626    0.0014   -0.1569   -0.0003   -0.2348   -0.0195   -0.1540
          44    0.0024    0.0137    0.0004    0.0032    0.0000   -0.0180   -0.0013   -0.0116
          45    0.0215    0.0124    0.0000   -0.0206    0.0003   -0.0475   -0.0031   -0.0358
          46    0.0980    0.0738    0.0006    0.0497    0.0005    0.0355   -0.0001    0.0286
          47   -0.1391   -0.2446    0.0010   -0.2635   -0.0031   -0.1952    0.0003   -0.1956
          48    0.0909   -0.0030   -0.0009   -0.0627   -0.0004   -0.0410    0.0007   -0.0546
          49   -0.1048    0.0435    0.0002    0.0005   -0.0008   -0.0962    0.0122    0.1186
          50   -0.0728    0.0665   -0.0007    0.0035   -0.0002   -0.0784    0.0036    0.1603
          51    0.2003   -0.1127    0.0002    0.0019    0.0017    0.2918   -0.0088   -0.1450
          52   -0.3332    0.1534    0.0010   -0.1652    0.0035    0.2437   -0.0144   -0.1544
          53   -0.0005   -0.0129   -0.0008    0.0004    0.0007    0.0201   -0.0012   -0.0129
          54   -0.0288    0.0191   -0.0006    0.0181   -0.0005   -0.0438    0.0025    0.0319
          55    0.1375   -0.0557   -0.0000    0.0374   -0.0007   -0.0800    0.0008    0.0031
          56    0.1639   -0.0807   -0.0010    0.0590   -0.0005   -0.1226    0.0003    0.0101
          57    0.2352   -0.1127    0.0003    0.0897   -0.0030   -0.3474    0.0020    0.0294
          58    0.1030   -0.0795    0.0002    0.0533   -0.0001   -0.0381   -0.0002    0.0273
          59   -0.1514    0.2655   -0.0007   -0.2658    0.0014    0.1887    0.0010   -0.1821
          60   -0.0841   -0.0145   -0.0004    0.0685    0.0003   -0.0436   -0.0002    0.0571
          61    0.0004    0.0008   -0.0250    0.0003   -0.0054    0.0050   -0.1914    0.0009
          62   -0.0020    0.0004    0.0168   -0.0010    0.0290    0.0042   -0.3766    0.0035
          63   -0.0006   -0.0007    0.0333   -0.0014    0.0431    0.0020   -0.3918    0.0029
          64   -0.0058   -0.0002    0.0347   -0.0009   -0.0163    0.0018    0.5290   -0.0049
          65   -0.0002   -0.0004    0.0012    0.0027   -0.0286   -0.0014    0.4097   -0.0038
          66   -0.0017   -0.0004   -0.0226   -0.0022   -0.0320   -0.0074    0.0630    0.0021
          67    0.0051   -0.0002   -0.0037   -0.0030    0.0036   -0.0060   -0.3141    0.0038
          68   -0.0016    0.0003   -0.0151    0.0003   -0.0062   -0.0010   -0.0256    0.0006
          69    0.0036    0.0006   -0.0333    0.0029   -0.0128    0.0064    0.3284   -0.0052


   Root No.      49        50        51        52        53        54        55        56

                49 A      50 A      51 A      52 A      53 A      54 A      55 A      56 A   

                   8.1       8.6       8.8       8.8       8.8       9.0       9.3       9.3
  
           1    0.4743    0.0137    0.0081   -0.0017    0.0117   -0.0073    0.0000   -0.0744
           2   -0.3419   -0.0091   -0.0156   -0.0030    0.0024   -0.3166   -0.0007    0.1107
           3    0.0057   -0.0090   -0.0365    0.0018    0.0675    0.0107    0.0009   -0.0253
           4   -0.3691   -0.0114   -0.0048    0.0027   -0.0083    0.0026   -0.0006    0.0320
           5   -0.0203   -0.0018    0.0011    0.0008   -0.0012    0.0242    0.0002   -0.0094
           6   -0.0023   -0.0016   -0.0297   -0.0013   -0.0398    0.0010    0.0000    0.0009
           7   -0.0876   -0.0026    0.0028    0.0005   -0.0046   -0.0107   -0.0002    0.0127
           8    0.1847    0.0084    0.0057   -0.0011   -0.0023    0.0409    0.0003   -0.0271
           9    0.0010   -0.0016   -0.0625   -0.0030    0.0523    0.0043    0.0003    0.0004
          10    0.1045    0.0069    0.0001   -0.0017    0.0009    0.0087    0.0002   -0.0133
          11    0.0109    0.0008   -0.0011   -0.0003   -0.0004    0.0053    0.0001   -0.0007
          12    0.0063   -0.0001    0.0094    0.0005   -0.0073    0.0009   -0.0000   -0.0017
          13   -0.1529   -0.0072   -0.0050    0.0012    0.0009   -0.0274   -0.0003    0.0286
          14    0.0199   -0.0004   -0.0001    0.0003    0.0015   -0.0097   -0.0001   -0.0061
          15   -0.0119   -0.0010    0.0066    0.0008   -0.0039   -0.0023   -0.0001    0.0013
          16    0.0020   -0.0559    0.0056   -0.0850   -0.0005    0.0005    0.1471    0.0007
          17   -0.0005   -0.0274    0.0063   -0.1342   -0.0003    0.0026    0.0262    0.0003
          18    0.0009   -0.0195    0.0045   -0.0979    0.0003    0.0019   -0.0608   -0.0004
          19    0.0011   -0.0248    0.0014   -0.0154   -0.0002   -0.0006   -0.0157   -0.0003
          20    0.0002    0.0083   -0.0029    0.0638    0.0001   -0.0015   -0.0334   -0.0004
          21   -0.0012   -0.0052    0.0010   -0.0166   -0.0003    0.0003    0.0520    0.0004
          22    0.0001   -0.0221    0.0008   -0.0038   -0.0003   -0.0004    0.0936    0.0005
          23   -0.0010   -0.0017   -0.0003    0.0104   -0.0002   -0.0004    0.0581    0.0005
          24    0.0014    0.0207   -0.0036    0.0708    0.0003   -0.0012   -0.1027   -0.0008
          25   -0.0005    0.1659   -0.0132    0.1847    0.0018   -0.0002   -0.2765   -0.0013
          26   -0.0014    0.1679   -0.0297    0.6103    0.0005   -0.0101   -0.3549   -0.0026
          27   -0.0006    0.1301   -0.0198    0.4050   -0.0006   -0.0048    0.6827    0.0039
          28   -0.0005   -0.0178   -0.0001    0.0159   -0.0001   -0.0009   -0.1169   -0.0008
          29    0.0005    0.0050    0.0029   -0.0734   -0.0000    0.0021    0.2176    0.0015
          30   -0.0003   -0.0202    0.0000    0.0116    0.0000   -0.0010   -0.2092   -0.0014
          31    0.0003   -0.0634    0.0084   -0.1596   -0.0003    0.0020    0.0612    0.0005
          32    0.0010   -0.1436    0.0208   -0.4065   -0.0006    0.0057    0.1411    0.0011
          33    0.0002   -0.0432    0.0061   -0.1215   -0.0001    0.0017    0.0045    0.0001
          34   -0.0003    0.0168   -0.0031    0.0677   -0.0002   -0.0010    0.1112    0.0006
          35   -0.0000   -0.0146    0.0033   -0.0710    0.0001    0.0012   -0.0543   -0.0004
          36    0.0004   -0.0636    0.0120   -0.2580    0.0007    0.0036   -0.3657   -0.0020
          37    0.2918    0.0329    0.2472   -0.0038    0.4789   -0.3126    0.0029   -0.1076
          38    0.0550    0.0130    0.4959    0.0256   -0.2945    0.3695    0.0011   -0.3564
          39    0.2187    0.0080   -0.1682   -0.0067   -0.0837    0.2878   -0.0033    0.4486
          40    0.0067   -0.0020   -0.1015   -0.0038   -0.0447    0.0515   -0.0008    0.1117
          41    0.0153   -0.0029   -0.1366   -0.0052   -0.0143    0.0279   -0.0009    0.1530
          42   -0.0640    0.0036    0.2290    0.0081    0.0522   -0.1166    0.0018   -0.2797
          43   -0.2733   -0.0241   -0.1608    0.0023   -0.3123    0.1869   -0.0016    0.0486
          44   -0.0197   -0.0009   -0.0233   -0.0011    0.0141   -0.0205   -0.0001    0.0174
          45   -0.0536   -0.0029   -0.0008    0.0007   -0.0107   -0.0050    0.0002   -0.0187
          46   -0.0083   -0.0006    0.0563    0.0038   -0.0889    0.0868    0.0001   -0.0412
          47    0.0247   -0.0030   -0.2596   -0.0157    0.2488   -0.2523   -0.0000    0.1603
          48    0.0070   -0.0007   -0.0010    0.0001    0.0107   -0.0085    0.0002   -0.0227
          49    0.3067    0.0115   -0.2612   -0.0210   -0.4769   -0.2829    0.0021   -0.1117
          50    0.0480   -0.0217   -0.4617   -0.0112    0.2898    0.3993    0.0033   -0.3916
          51   -0.1981    0.0106   -0.1692   -0.0163   -0.1107   -0.3018    0.0015   -0.4201
          52   -0.2809   -0.0079    0.1762    0.0137    0.3067    0.1685   -0.0011    0.0581
          53   -0.0227    0.0005    0.0249    0.0010   -0.0100   -0.0196   -0.0002    0.0189
          54    0.0454   -0.0002    0.0043    0.0007   -0.0007    0.0103   -0.0001    0.0189
          55    0.0021   -0.0007    0.0932    0.0055    0.0430    0.0414   -0.0005    0.1027
          56    0.0133   -0.0004    0.1390    0.0075    0.0169    0.0218   -0.0011    0.1603
          57    0.0546   -0.0019    0.2265    0.0133    0.0558    0.1025   -0.0018    0.2814
          58   -0.0112   -0.0047   -0.0501    0.0000    0.0937    0.0951    0.0006   -0.0465
          59    0.0327    0.0162    0.2315    0.0031   -0.2506   -0.2698   -0.0012    0.1707
          60   -0.0098   -0.0023   -0.0075    0.0005    0.0187    0.0168   -0.0000    0.0174
          61    0.0154   -0.1326    0.0023    0.0495    0.0011   -0.0048   -0.0127   -0.0024
          62    0.0299   -0.2383    0.0049    0.0810    0.0016   -0.0093   -0.0158   -0.0040
          63    0.0299   -0.2553    0.0050    0.0826    0.0000   -0.0100   -0.0139   -0.0038
          64   -0.0169   -0.2278    0.0005    0.0669   -0.0036   -0.0054    0.0093    0.0023
          65   -0.0303    0.2198   -0.0065   -0.0743   -0.0033    0.0104    0.0155    0.0058
          66   -0.0287    0.6199   -0.0091   -0.1993    0.0009    0.0208    0.0152    0.0044
          67   -0.0036    0.3580   -0.0031   -0.1186    0.0024    0.0102   -0.0013    0.0003
          68    0.0018    0.0258    0.0012   -0.0068    0.0019   -0.0010   -0.0007   -0.0019
          69   -0.0010   -0.3648    0.0036    0.1241   -0.0016   -0.0113   -0.0017   -0.0011


   Root No.      57        58        59        60        61        62        63

                57 A      58 A      59 A      60 A      61 A      62 A      63 A   

                   9.5      10.2      10.3      18.7      20.2      22.7      24.0
  
           1    0.0034   -0.2040    0.6687    0.0002    0.0157   -0.0000   -0.0209
           2    0.0028   -0.0408    0.2062    0.0002   -0.0339   -0.0003   -0.0007
           3    0.0001    0.6953    0.2135   -0.0001    0.0017   -0.0006   -0.0021
           4    0.0007    0.0747   -0.2551    0.0007    0.0176    0.0003   -0.0057
           5   -0.0000   -0.0007   -0.0024    0.0003   -0.0082   -0.0007    0.0182
           6   -0.0005   -0.0158   -0.0055   -0.0004   -0.0000    0.0002    0.0003
           7    0.0001    0.0197   -0.0443   -0.0002   -0.1483   -0.0040    0.7575
           8   -0.0008   -0.0037    0.0056    0.0026    0.6036   -0.0026    0.1982
           9   -0.0007   -0.1032   -0.0260    0.0001    0.0059    0.0003    0.0614
          10   -0.0010   -0.0043    0.0062   -0.0019   -0.3928    0.0033   -0.2892
          11   -0.0003    0.0062   -0.0525   -0.0017   -0.4121    0.0023   -0.2968
          12    0.0001    0.0311    0.0061   -0.0005   -0.0399    0.0013   -0.0294
          13    0.0004    0.0153   -0.0634    0.0023    0.5191    0.0025   -0.4462
          14    0.0007   -0.0143    0.0526   -0.0004   -0.1211   -0.0004    0.0976
          15    0.0004    0.0274    0.0028   -0.0004    0.0331    0.0007   -0.0296
          16   -0.3057   -0.0022    0.0028    0.6373   -0.0024    0.0188   -0.0003
          17    0.0192   -0.0003    0.0005   -0.0399   -0.0007   -0.4144   -0.0029
          18    0.0236    0.0012    0.0007   -0.0094    0.0014    0.6612    0.0042
          19   -0.1442   -0.0007    0.0011   -0.3251    0.0010   -0.2141   -0.0010
          20    0.1042    0.0003   -0.0017    0.2753   -0.0012    0.1877    0.0012
          21   -0.1617   -0.0017    0.0015   -0.3885    0.0014   -0.2646   -0.0016
          22   -0.0376   -0.0007    0.0001   -0.2037    0.0011    0.1933    0.0012
          23   -0.0936   -0.0009    0.0007   -0.2292    0.0014    0.2246    0.0015
          24    0.1451    0.0006   -0.0018    0.4011   -0.0026   -0.3877   -0.0025
          25    0.7332    0.0030   -0.0053   -0.0472    0.0001   -0.0005   -0.0002
          26   -0.3371   -0.0004    0.0005    0.0053    0.0000    0.0246    0.0001
          27    0.1212   -0.0008   -0.0009   -0.0040   -0.0000   -0.0045   -0.0000
          28   -0.1761   -0.0003    0.0010   -0.0186   -0.0000   -0.0138   -0.0001
          29    0.2355    0.0003   -0.0009    0.0112   -0.0000   -0.0031    0.0000
          30   -0.2004   -0.0003    0.0009   -0.0075   -0.0000    0.0042   -0.0001
          31   -0.0223   -0.0002    0.0005   -0.0174    0.0001    0.0055    0.0001
          32    0.0316   -0.0001    0.0008   -0.0176    0.0001   -0.0036   -0.0001
          33   -0.0043    0.0000    0.0003   -0.0014    0.0000    0.0045    0.0000
          34   -0.0527   -0.0003    0.0004   -0.0145    0.0000    0.0055    0.0001
          35    0.0361    0.0003    0.0000    0.0009   -0.0001   -0.0137   -0.0002
          36    0.0716    0.0007   -0.0003    0.0157   -0.0001   -0.0123    0.0001
          37   -0.0054   -0.0377   -0.3847   -0.0002   -0.0044   -0.0001    0.0029
          38   -0.0009   -0.0592   -0.1445   -0.0003   -0.0154    0.0001   -0.0081
          39   -0.0030   -0.3475   -0.2840   -0.0002   -0.0140    0.0005   -0.0015
          40   -0.0000   -0.0412    0.0166    0.0002    0.0007    0.0003    0.0003
          41   -0.0001   -0.0518    0.0009   -0.0002    0.0001    0.0001    0.0001
          42    0.0005    0.0579    0.0236    0.0001   -0.0015    0.0005   -0.0006
          43    0.0032    0.0140    0.1617    0.0001   -0.0010    0.0002   -0.0007
          44   -0.0000    0.0000   -0.0126   -0.0002   -0.0007    0.0004   -0.0017
          45    0.0001    0.0179   -0.0127    0.0001   -0.0006   -0.0000   -0.0008
          46    0.0001   -0.0068    0.0147    0.0004    0.0001   -0.0001   -0.0007
          47   -0.0002    0.0059    0.0098   -0.0001    0.0017   -0.0001    0.0010
          48    0.0000    0.0084    0.0054    0.0003    0.0006   -0.0002   -0.0009
          49   -0.0043    0.2568   -0.2864   -0.0002   -0.0048   -0.0004    0.0026
          50   -0.0024    0.0942   -0.0958    0.0002   -0.0148   -0.0008   -0.0057
          51    0.0023   -0.4723    0.0376    0.0003    0.0143    0.0006    0.0015
          52    0.0025   -0.1068    0.1188    0.0002   -0.0010   -0.0003   -0.0000
          53   -0.0000    0.0064   -0.0078    0.0002   -0.0007   -0.0003   -0.0018
          54    0.0001    0.0080    0.0246    0.0001    0.0003   -0.0000    0.0008
          55    0.0002    0.0285    0.0340    0.0002    0.0006   -0.0003    0.0004
          56    0.0001    0.0545    0.0299    0.0005   -0.0001   -0.0008    0.0001
          57   -0.0001    0.0782    0.0127   -0.0001    0.0014    0.0004    0.0003
          58   -0.0003   -0.0078    0.0141    0.0003    0.0001   -0.0005   -0.0006
          59    0.0006    0.0029    0.0093    0.0003    0.0016   -0.0008    0.0007
          60   -0.0001    0.0139    0.0008    0.0002   -0.0010   -0.0002    0.0008
          61    0.0311    0.0001   -0.0003   -0.0179    0.0001   -0.0025   -0.0008
          62    0.0382   -0.0034   -0.0014   -0.0140    0.0006    0.0054    0.0001
          63    0.0339   -0.0061   -0.0028   -0.0119   -0.0000    0.0049   -0.0005
          64    0.0118   -0.0062   -0.0070    0.0103   -0.0016    0.0042    0.0013
          65   -0.0351    0.0034    0.0019    0.0059   -0.0005   -0.0012   -0.0009
          66   -0.0713    0.0129    0.0110    0.0099    0.0008    0.0016   -0.0001
          67   -0.0369    0.0072    0.0059   -0.0053    0.0001    0.0026   -0.0002
          68    0.0014    0.0013    0.0009    0.0008    0.0004   -0.0025   -0.0001
          69    0.0429   -0.0058   -0.0075   -0.0036   -0.0010   -0.0107    0.0003


          FORCE CONSTANTS IN MILLIDYNES/ANGSTROM (= 10**5 DYNES/CM)

  -0.26428  -0.13931  -0.08261  -0.04303  -0.00782  -0.00663  -0.00487   0.00524
   0.00612   0.00748   0.01182   0.01724   0.03708   0.04502   0.15587   0.16528
   0.19452   0.26008   0.27785   0.56620   0.66832   0.72922   0.76996   0.80901
   0.87317   0.90657   0.98293   1.05403   1.16629   1.27700   1.32066   1.45336
   1.59291   1.68576   1.69557   2.10360   2.30489   2.35929   2.60163   3.07720
   3.32415   3.68732   4.27656   5.00833   5.60772   6.40621   7.44155   7.53041
   8.09785   8.55106   8.78933   8.83489   8.84759   9.01847   9.28186   9.29552
   9.45287  10.22315  10.30793  18.67511  20.19418  22.70802  23.95179


           ASSOCIATED EIGENVECTORS




    ROOT NO.    1           2           3           4           5           6

            -0.26428    -0.13931    -0.08261    -0.04303    -0.00782    -0.00663
  
         1   0.01083     0.01265     0.00789    -0.00527     0.00668     0.04523
         2  -0.00715    -0.00163    -0.00779     0.01229    -0.00258    -0.08675
         3  -0.00539     0.00190     0.02936     0.00255    -0.09761     0.05235
         4   0.01969     0.01307     0.00421    -0.00519     0.00649     0.04406
         5  -0.00964    -0.00335    -0.00714     0.03180     0.02082    -0.23465
         6  -0.02903    -0.00095     0.05356     0.01588    -0.26821     0.06647
         7   0.01124     0.01253     0.00699    -0.03174    -0.02470     0.23951
         8  -0.00756    -0.00119    -0.00693     0.00335    -0.01214    -0.02456
         9  -0.03358    -0.02604    -0.01350     0.00548    -0.07005     0.04308
        10   0.01042     0.01214     0.00504    -0.09821    -0.04244     0.35490
        11  -0.00308     0.00041    -0.00760     0.00065     0.00403    -0.14121
        12  -0.05537    -0.03554     0.00594     0.70181    -0.05912     0.07948
        13   0.01099     0.01315     0.01094     0.01270    -0.03123     0.27839
        14  -0.00736    -0.00251    -0.00929     0.00050    -0.03637     0.13455
        15  -0.03287    -0.03870    -0.07650    -0.68814    -0.04841    -0.01902
        16   0.03526    -0.03783    -0.08756     0.01591    -0.02879    -0.08270
        17  -0.06470     0.02646     0.02303    -0.01618     0.02535     0.05239
        18   0.06643     0.23740    -0.05948    -0.01331     0.02369    -0.03775
        19   0.01997    -0.16356    -0.00883     0.00460     0.06070    -0.04646
        20  -0.13093     0.29917     0.24348    -0.02770     0.08482    -0.02344
        21   0.04742     0.54310     0.03208    -0.01238    -0.00807    -0.11716
        22   0.08967     0.11960    -0.16508     0.02916    -0.13102    -0.12542
        23   0.01106    -0.18170    -0.11757    -0.01418     0.02227     0.11905
        24   0.13048     0.19860    -0.17584    -0.00615    -0.02729    -0.01742
        25   0.03434    -0.05864    -0.07868     0.01449    -0.01784    -0.07126
        26  -0.02033    -0.02132    -0.06366    -0.00486    -0.05193     0.06907
        27   0.01431    -0.02183    -0.02737    -0.02614     0.12691     0.06152
        28   0.06227     0.02472    -0.11233     0.02356    -0.10221    -0.11971
        29  -0.00085     0.02004    -0.03560    -0.01535    -0.12067    -0.02657
        30   0.00846    -0.03923     0.02624    -0.04463     0.11202    -0.01032
        31   0.00217     0.01734    -0.02554     0.01113     0.02121    -0.08865
        32  -0.00128    -0.01424    -0.06518    -0.00782    -0.09210     0.02950
        33  -0.01037    -0.18641    -0.11503    -0.00840     0.22354     0.24811
        34   0.01878    -0.29806    -0.12605     0.01120     0.04128     0.01145
        35  -0.00646    -0.16137    -0.18118     0.01962    -0.00068     0.22790
        36   0.00960    -0.07259    -0.02334    -0.03195     0.13383     0.05498
        37  -0.00251     0.01086     0.03378     0.01021    -0.16362    -0.02707
        38  -0.03077    -0.02490    -0.02731    -0.01850    -0.06047    -0.01561
        39   0.01278     0.01441     0.02723     0.01553     0.00647     0.04464
        40   0.02620     0.00690     0.08463    -0.00923    -0.35809     0.11324
        41  -0.05849    -0.03993    -0.05952    -0.01340    -0.04493    -0.11346
        42   0.00676     0.00549     0.02898     0.01069    -0.06507     0.05104
        43  -0.00020     0.01063     0.03594     0.00915    -0.17314    -0.02354
        44  -0.01793    -0.02797    -0.00262    -0.04096    -0.14202     0.20486
        45   0.00550     0.01647    -0.01427     0.02070     0.19968    -0.00823
        46  -0.01096     0.01362     0.00775     0.03447    -0.08981    -0.23841
        47  -0.03405    -0.02454    -0.03590    -0.01027    -0.03750    -0.07764
        48   0.03599     0.03246     0.05927     0.02357    -0.03668     0.08833
        49   0.00864     0.00667    -0.01738     0.00498     0.20942    -0.05700
        50   0.01930     0.02481     0.01054     0.02173     0.03507    -0.01476
        51   0.00703     0.01345     0.02446     0.01541     0.00973     0.04437
        52   0.00774     0.00580    -0.01782     0.00627     0.21469    -0.05893
        53   0.02119     0.02383     0.01508     0.01090     0.15271     0.08716
        54   0.00460     0.00664     0.00409     0.02778     0.25339     0.00663
        55   0.00436    -0.00466    -0.02617     0.01629     0.46553    -0.04569
        56   0.03643     0.04826     0.01640     0.02442    -0.01661    -0.03089
        57  -0.00150     0.00485     0.02449     0.00991    -0.05848     0.04876
        58   0.00465     0.00660    -0.02110     0.01132     0.10746    -0.15395
        59   0.01945     0.02652     0.00943     0.02246    -0.00024    -0.04276
        60   0.02670     0.03824     0.04000     0.01737    -0.07582     0.07307
        61  -0.13184     0.06795    -0.13541     0.01109    -0.01529    -0.06849
        62   0.00683     0.20142    -0.27730     0.01741     0.08541     0.00112
        63  -0.05359    -0.34031     0.28998    -0.01894    -0.08730    -0.27016
        64   0.17567     0.12014     0.16782    -0.02889     0.00050     0.03418
        65  -0.37197    -0.03179     0.09066     0.01666     0.10735    -0.05875
        66   0.16689    -0.15174    -0.22252     0.00218    -0.11493    -0.26990
        67  -0.40737     0.08837     0.45696    -0.04801     0.04424     0.08631
        68   0.65831    -0.13450     0.49595    -0.01259     0.08039    -0.03453
        69  -0.32122    -0.19969     0.08218    -0.01883    -0.07223    -0.21286




    ROOT NO.    7           8           9          10          11          12

            -0.00487     0.00524     0.00612     0.00748     0.01182     0.01724
  
         1   0.00904    -0.00071     0.05019    -0.12719    -0.04611    -0.04636
         2  -0.06392     0.03354     0.03049    -0.07887     0.04202     0.03967
         3  -0.07793    -0.02651     0.05736     0.01950     0.02758    -0.02626
         4   0.00982    -0.00075     0.04981    -0.12697    -0.04663    -0.04773
         5  -0.17300     0.06049     0.02597    -0.14913     0.13862     0.03245
         6  -0.13509    -0.10831     0.11638     0.04343     0.06901    -0.06061
         7   0.15039    -0.03833     0.05810    -0.03546    -0.17986    -0.03942
         8  -0.01885     0.02148     0.03247    -0.04842    -0.00042     0.04256
         9  -0.02869     0.05456     0.03594     0.00494    -0.00346    -0.06405
        10   0.23371    -0.06085     0.06386     0.01705    -0.26655    -0.03163
        11  -0.10754     0.03757     0.02875    -0.10050     0.08636     0.03801
[...]
 TRANSITION DIPOLE   0.4658         C 17 -- H 19         +13.4% ( 59.9%)     65.4%
 TRAVEL (Ang.)       0.2443         C  1 -- C 17         +12.9% ( 58.8%)     99.5%
 REDUCED MASS        1.1627         C 13 -- H 14         +11.3% ( 55.2%)     86.2%
 EFFECTIVE MASS      7.5640
 FORCE CONSTANT      0.6469

 VIBRATION         30   30A           ATOM PAIR      ENERGY CONTRIBUTION    RADIAL
 FREQUENCY           989.39         C 13 -- H 14         +18.4% ( 62.6%)      4.8%
 TRANSITION DIPOLE   0.3387         C 17 -- H 19         +15.8% ( 57.9%)      3.0%
 TRAVEL (Ang.)       0.3391         C 13 -- H 16         +14.2% ( 54.9%)     27.1%
 REDUCED MASS        0.5927         C 17 -- H 20         +13.7% ( 53.9%)     33.3%
 EFFECTIVE MASS      4.6882
 FORCE CONSTANT      0.3418

 VIBRATION         31   31A           ATOM PAIR      ENERGY CONTRIBUTION    RADIAL
 FREQUENCY          1002.11         C  9 -- H 12         +36.0% ( 81.3%)     22.0%
 TRANSITION DIPOLE   1.2833         C  9 -- H 10         +22.9% ( 64.8%)      5.1%
 TRAVEL (Ang.)       0.2615         C  6 -- C  9         +16.5% ( 55.0%)     11.3%
 REDUCED MASS        0.9837         C  9 -- H 11         +12.9% ( 48.7%)      2.8%
 EFFECTIVE MASS      5.1479
 FORCE CONSTANT      0.5820

 VIBRATION         32   32A           ATOM PAIR      ENERGY CONTRIBUTION    RADIAL
 FREQUENCY          1027.57         C  6 -- C  9         +26.6% ( 83.9%)     91.7%
 TRANSITION DIPOLE   1.5547         O  7 -- O  8         +17.1% ( 67.2%)     99.8%
 TRAVEL (Ang.)       0.1494         C  9 -- H 12         +13.1% ( 58.8%)      1.9%
 REDUCED MASS        2.9404         C  9 -- H 11         +12.2% ( 56.7%)     44.0%
 EFFECTIVE MASS     12.4315         C  9 -- H 10         +12.1% ( 56.7%)     16.7%
 FORCE CONSTANT      1.8293

 VIBRATION         33   33A           ATOM PAIR      ENERGY CONTRIBUTION    RADIAL
 FREQUENCY          1028.68         C 17 -- H 18         +18.6% ( 56.8%)     24.5%
 TRANSITION DIPOLE   0.0852         C 13 -- H 15         +18.3% ( 56.5%)     24.3%
 TRAVEL (Ang.)       0.3812         C 17 -- H 20         +14.3% ( 49.9%)      5.9%
 REDUCED MASS        0.4510         C 13 -- H 16         +14.0% ( 49.3%)      6.0%
 EFFECTIVE MASS      3.7318
 FORCE CONSTANT      0.2812

 VIBRATION         34   34A           ATOM PAIR      ENERGY CONTRIBUTION    RADIAL
 FREQUENCY          1038.65         C  9 -- H 10         +29.3% ( 71.5%)     18.1%
 TRANSITION DIPOLE   1.0362         C  9 -- H 11         +27.4% ( 69.2%)     13.5%
 TRAVEL (Ang.)       0.2582         C  6 -- C  9         +16.2% ( 53.2%)      3.2%
 REDUCED MASS        0.9735         C  9 -- H 12         +15.1% ( 51.3%)      0.4%
 EFFECTIVE MASS      5.1924
 FORCE CONSTANT      0.6188

 VIBRATION         35   35A           ATOM PAIR      ENERGY CONTRIBUTION    RADIAL
 FREQUENCY          1146.18         C  1 -- C 13         +15.5% ( 53.8%)      2.2%
 TRANSITION DIPOLE   1.3462         C  1 -- C 17         +15.0% ( 52.9%)      0.9%
 TRAVEL (Ang.)       0.2290         C  1 -- N  3         +10.9% ( 45.2%)     66.1%
 REDUCED MASS        1.1217         C 13 -- H 15          +9.2% ( 41.4%)     27.8%
 EFFECTIVE MASS      6.1222
 FORCE CONSTANT      0.8682

 VIBRATION         36   36A           ATOM PAIR      ENERGY CONTRIBUTION    RADIAL
 FREQUENCY          1177.65         C  1 -- C 17         +19.4% ( 66.1%)     42.0%
 TRANSITION DIPOLE   1.4736         C  1 -- C 13         +18.9% ( 65.2%)     32.0%
 TRAVEL (Ang.)       0.1547         C  1 -- N  3         +12.9% ( 53.9%)     54.9%
 REDUCED MASS        2.3914         C  1 -- H  2         +12.5% ( 53.1%)      6.5%
 EFFECTIVE MASS      7.9975
 FORCE CONSTANT      1.9540

 VIBRATION         37   37A           ATOM PAIR      ENERGY CONTRIBUTION    RADIAL
 FREQUENCY          1205.70         C  1 -- C 13         +22.3% ( 77.9%)     79.1%
 TRANSITION DIPOLE   1.4731         C  1 -- C 17         +21.6% ( 76.7%)     72.6%
 TRAVEL (Ang.)       0.1194         C  1 -- H  2         +14.8% ( 63.5%)      0.0%
 REDUCED MASS        3.9253         C  1 -- N  3         +14.4% ( 62.6%)      0.3%
 EFFECTIVE MASS     10.2009
 FORCE CONSTANT      3.3621

 VIBRATION         38   38A           ATOM PAIR      ENERGY CONTRIBUTION    RADIAL
 FREQUENCY          1224.02         C  9 -- H 11         +51.2% ( 63.2%)      0.3%
 TRANSITION DIPOLE   0.6180         C  9 -- H 12         +30.1% ( 48.5%)      6.7%
 TRAVEL (Ang.)       0.3553         C  9 -- H 10         +10.7% ( 28.9%)     19.3%
 REDUCED MASS        0.4365         C  6 -- C  9          +5.7% ( 21.1%)     15.4%
 EFFECTIVE MASS      1.7198
 FORCE CONSTANT      0.3853

 VIBRATION         39   39A           ATOM PAIR      ENERGY CONTRIBUTION    RADIAL
 FREQUENCY          1242.00         C 13 -- H 16         +31.2% ( 49.8%)      0.3%
 TRANSITION DIPOLE   0.4968         C 13 -- H 14         +28.6% ( 47.7%)      0.5%
 TRAVEL (Ang.)       0.4343         C 13 -- H 15         +17.5% ( 37.2%)     13.1%
 REDUCED MASS        0.2879         C 17 -- H 19          +5.1% ( 20.2%)      1.4%
 EFFECTIVE MASS      1.6757
 FORCE CONSTANT      0.2616

 VIBRATION         40   40A           ATOM PAIR      ENERGY CONTRIBUTION    RADIAL
 FREQUENCY          1252.66         C  9 -- H 10         +26.7% ( 44.1%)      0.0%
 TRANSITION DIPOLE   0.7131         C 17 -- H 19         +17.9% ( 36.1%)      0.0%
 TRAVEL (Ang.)       0.5627         C  9 -- H 12         +14.9% ( 32.9%)      3.1%
 REDUCED MASS        0.1700         C  9 -- H 11         +11.6% ( 29.1%)     12.3%
 EFFECTIVE MASS      1.4044
 FORCE CONSTANT      0.1572

 VIBRATION         41   41A           ATOM PAIR      ENERGY CONTRIBUTION    RADIAL
 FREQUENCY          1252.85         C  9 -- H 10         +21.6% ( 39.7%)      0.1%
 TRANSITION DIPOLE   0.7237         C 17 -- H 19         +21.5% ( 39.6%)      0.0%
 TRAVEL (Ang.)       0.5868         C  9 -- H 12         +12.2% ( 29.8%)      3.0%
 REDUCED MASS        0.1563         C 17 -- H 18         +11.5% ( 29.0%)      7.0%
 EFFECTIVE MASS      1.4029         C 17 -- H 20         +10.5% ( 27.7%)      5.0%
 FORCE CONSTANT      0.1445

 VIBRATION         42   42A           ATOM PAIR      ENERGY CONTRIBUTION    RADIAL
 FREQUENCY          1255.52         C 13 -- H 15         +28.7% ( 45.8%)      0.0%
 TRANSITION DIPOLE   0.5303         C 17 -- H 18         +16.7% ( 35.0%)      1.6%
 TRAVEL (Ang.)       0.5196         C 13 -- H 14         +16.5% ( 34.8%)      2.9%
 REDUCED MASS        0.1989         C 17 -- H 20         +16.1% ( 34.4%)      1.7%
 EFFECTIVE MASS      1.4074         C 13 -- H 16         +12.5% ( 30.3%)     11.3%
 FORCE CONSTANT      0.1847

 VIBRATION         43   43A           ATOM PAIR      ENERGY CONTRIBUTION    RADIAL
 FREQUENCY          1260.65         C 17 -- H 18         +30.1% ( 47.1%)      0.0%
 TRANSITION DIPOLE   0.7614         C 17 -- H 20         +19.2% ( 37.6%)      2.9%
 TRAVEL (Ang.)       0.5106         C 13 -- H 15         +14.3% ( 32.4%)      0.6%
 REDUCED MASS        0.2052         C 17 -- H 19         +11.1% ( 28.6%)     10.7%
 EFFECTIVE MASS      1.4727
 FORCE CONSTANT      0.1921

 VIBRATION         44   44A           ATOM PAIR      ENERGY CONTRIBUTION    RADIAL
 FREQUENCY          1329.47         C  9 -- H 10         +34.1% ( 63.0%)      2.7%
 TRANSITION DIPOLE   1.5736         C  9 -- H 11         +24.9% ( 53.8%)      0.8%
 TRAVEL (Ang.)       0.2908         C  9 -- H 12         +23.3% ( 52.1%)      2.1%
 REDUCED MASS        0.5999         C  6 -- C  9         +11.4% ( 36.4%)     97.2%
 EFFECTIVE MASS      3.0572
 FORCE CONSTANT      0.6247

 VIBRATION         45   45A           ATOM PAIR      ENERGY CONTRIBUTION    RADIAL
 FREQUENCY          1369.60         C 17 -- H 19         +29.9% ( 52.1%)      0.8%
 TRANSITION DIPOLE   0.8936         C 17 -- H 18         +23.5% ( 46.2%)      0.7%
 TRAVEL (Ang.)       0.4046         C 17 -- H 20         +22.5% ( 45.2%)      1.1%
 REDUCED MASS        0.3007         C  1 -- C 17          +4.6% ( 20.4%)      4.4%
 EFFECTIVE MASS      1.8971
 FORCE CONSTANT      0.3324

 VIBRATION         46   46A           ATOM PAIR      ENERGY CONTRIBUTION    RADIAL
 FREQUENCY          1377.15         C 13 -- H 14         +26.1% ( 49.1%)      1.4%
 TRANSITION DIPOLE   0.7938         C 13 -- H 16         +26.0% ( 49.0%)      0.6%
 TRAVEL (Ang.)       0.4125         C 13 -- H 15         +24.9% ( 47.9%)      0.9%
 REDUCED MASS        0.2877         C 17 -- H 20          +4.6% ( 20.7%)      0.4%
 EFFECTIVE MASS      1.9724
 FORCE CONSTANT      0.3215

 VIBRATION         47   47A           ATOM PAIR      ENERGY CONTRIBUTION    RADIAL
 FREQUENCY          1433.89         H 21 -- O 22         +31.3% ( 52.3%)      8.9%
 TRANSITION DIPOLE   1.9855         O 22 -- H 23         +26.6% ( 48.2%)     10.9%
 TRAVEL (Ang.)       0.3084         C  6 -- O  7         +15.6% ( 36.9%)     80.2%
 REDUCED MASS        0.4943         C  6 -- O  8         +11.1% ( 31.2%)     51.4%
 EFFECTIVE MASS      3.8668
 FORCE CONSTANT      0.5988

 VIBRATION         48   48A           ATOM PAIR      ENERGY CONTRIBUTION    RADIAL
 FREQUENCY          1504.36         N  3 -- O  4         +34.0% ( 78.7%)     70.6%
 TRANSITION DIPOLE   3.5045         N  3 -- O  5         +30.5% ( 74.6%)     63.5%
 TRAVEL (Ang.)       0.0936         O  4 -- O  5         +20.0% ( 60.5%)     99.9%
 REDUCED MASS        5.1156         C  1 -- N  3         +14.5% ( 51.4%)     99.9%
 EFFECTIVE MASS     15.0190
 FORCE CONSTANT      6.8210

 VIBRATION         49   49A           ATOM PAIR      ENERGY CONTRIBUTION    RADIAL
 FREQUENCY          1536.93         C  6 -- O  8         +31.9% ( 71.6%)     60.1%
 TRANSITION DIPOLE   1.6669         C  6 -- O  7         +30.0% ( 69.4%)     57.9%
 TRAVEL (Ang.)       0.1156         C  6 -- C  9         +18.8% ( 55.0%)     99.9%
 REDUCED MASS        3.2819         O  7 -- O  8         +11.7% ( 43.3%)    100.0%
 EFFECTIVE MASS     10.7025
 FORCE CONSTANT      4.5675

 VIBRATION         50   50A           ATOM PAIR      ENERGY CONTRIBUTION    RADIAL
 FREQUENCY          1665.26         N  3 -- O  5         +37.0% ( 86.3%)     90.6%
 TRANSITION DIPOLE  11.4376         N  3 -- O  4         +34.8% ( 83.7%)     87.1%
 TRAVEL (Ang.)       0.0769         C  1 -- N  3         +21.5% ( 65.9%)      0.3%
 REDUCED MASS        6.8465         O  4 -- O  5          +6.4% ( 35.9%)      0.6%
 EFFECTIVE MASS     14.5807
 FORCE CONSTANT     11.1863

 VIBRATION         51   51A           ATOM PAIR      ENERGY CONTRIBUTION    RADIAL
 FREQUENCY          1708.50         C  6 -- O  8         +36.7% ( 86.7%)     89.5%
 TRANSITION DIPOLE   9.7441         C  6 -- O  7         +34.4% ( 83.9%)     86.9%
 TRAVEL (Ang.)       0.0795         C  6 -- C  9         +23.0% ( 68.7%)      0.1%
 REDUCED MASS        6.2433         O  7 -- O  8          +5.1% ( 32.2%)      0.8%
 EFFECTIVE MASS     12.9430
 FORCE CONSTANT     10.7372

 VIBRATION         52   52A           ATOM PAIR      ENERGY CONTRIBUTION    RADIAL
 FREQUENCY          1919.94         C  1 -- H  2         +89.8% ( 99.3%)    100.0%
 TRANSITION DIPOLE   1.0502         C  1 -- N  3          +3.2% ( 18.6%)      1.0%
 TRAVEL (Ang.)       0.1439         C  1 -- C 17          +3.1% ( 18.6%)      9.1%
 REDUCED MASS        1.6969         C  1 -- C 13          +3.1% ( 18.5%)      9.8%
 EFFECTIVE MASS      2.9360
 FORCE CONSTANT      3.6854

 VIBRATION         53   53A           ATOM PAIR      ENERGY CONTRIBUTION    RADIAL
 FREQUENCY          2644.15         H 21 -- O 22         +38.9% ( 64.6%)     97.1%
 TRANSITION DIPOLE   2.2262         O 22 -- H 23         +26.9% ( 53.7%)     94.6%
 TRAVEL (Ang.)       0.3098         C  9 -- H 12         +14.4% ( 39.3%)     99.4%
 REDUCED MASS        0.2658         C  9 -- H 11         +10.7% ( 33.9%)     96.1%
 EFFECTIVE MASS      1.4641
 FORCE CONSTANT      1.0947

 VIBRATION         54   54A           ATOM PAIR      ENERGY CONTRIBUTION    RADIAL
 FREQUENCY          2644.40         C 13 -- H 16         +45.8% ( 69.9%)     99.5%
 TRANSITION DIPOLE   0.9570         C 13 -- H 14         +18.4% ( 44.3%)     92.7%
 TRAVEL (Ang.)       0.3013         C 17 -- H 20         +14.8% ( 39.7%)     99.6%
 REDUCED MASS        0.2808         C 13 -- H 15          +5.5% ( 24.3%)     70.6%
 EFFECTIVE MASS      1.4427
 FORCE CONSTANT      1.1569

 VIBRATION         55   55A           ATOM PAIR      ENERGY CONTRIBUTION    RADIAL
 FREQUENCY          2646.95         C 17 -- H 20         +49.6% ( 72.7%)     99.5%
 TRANSITION DIPOLE   1.2590         C 17 -- H 18         +19.4% ( 45.4%)     92.0%
 TRAVEL (Ang.)       0.2805         C 13 -- H 16         +14.0% ( 38.6%)     99.3%
 REDUCED MASS        0.3237         C 17 -- H 19          +7.6% ( 28.4%)     76.4%
 EFFECTIVE MASS      1.4458
 FORCE CONSTANT      1.3364

 VIBRATION         56   56A           ATOM PAIR      ENERGY CONTRIBUTION    RADIAL
 FREQUENCY          2648.96         C 17 -- H 19         +53.8% ( 75.8%)     98.6%
 TRANSITION DIPOLE   0.7960         C 17 -- H 18         +40.6% ( 65.8%)     96.9%
 TRAVEL (Ang.)       0.2328         C 13 -- H 15          +1.4% ( 12.2%)     99.5%
 REDUCED MASS        0.4697         C 17 -- H 20          +1.2% ( 11.5%)     12.6%
 EFFECTIVE MASS      1.4502
 FORCE CONSTANT      1.9420

 VIBRATION         57   57A           ATOM PAIR      ENERGY CONTRIBUTION    RADIAL
 FREQUENCY          2651.15         C  9 -- H 12         +37.2% ( 63.0%)     98.5%
 TRANSITION DIPOLE   0.1112         C  9 -- H 11         +31.5% ( 58.0%)     96.9%
 TRAVEL (Ang.)       0.2971         H 21 -- O 22         +17.8% ( 43.6%)     96.9%
 REDUCED MASS        0.2881         O 22 -- H 23         +10.6% ( 33.7%)     94.8%
 EFFECTIVE MASS      1.4521
 FORCE CONSTANT      1.1929

 VIBRATION         58   58A           ATOM PAIR      ENERGY CONTRIBUTION    RADIAL
 FREQUENCY          2653.10         C 13 -- H 15         +54.1% ( 76.0%)     98.8%
 TRANSITION DIPOLE   1.0375         C 13 -- H 14         +39.4% ( 64.8%)     96.3%
 TRAVEL (Ang.)       0.2338         C 13 -- H 16          +3.5% ( 19.3%)     45.4%
 REDUCED MASS        0.4648         C 17 -- H 18          +0.9% (  9.7%)     97.9%
 EFFECTIVE MASS      1.4484
 FORCE CONSTANT      1.9276

 VIBRATION         59   59A           ATOM PAIR      ENERGY CONTRIBUTION    RADIAL
 FREQUENCY          2673.59         C  9 -- H 10         +64.6% ( 82.8%)     99.5%
 TRANSITION DIPOLE   0.9432         C  9 -- H 11         +23.7% ( 50.1%)     91.8%
 TRAVEL (Ang.)       0.2250         C  9 -- H 12         +10.6% ( 33.6%)     78.3%
 REDUCED MASS        0.4982         C  6 -- C  9          +0.9% (  9.8%)      0.1%
 EFFECTIVE MASS      1.4518
 FORCE CONSTANT      2.0982

 VIBRATION         60   60A           ATOM PAIR      ENERGY CONTRIBUTION    RADIAL
 FREQUENCY          2771.09         C 17 -- H 18         +23.5% ( 46.4%)     95.9%
 TRANSITION DIPOLE   0.6749         C 17 -- H 20         +21.8% ( 44.6%)     95.5%
 TRAVEL (Ang.)       0.3658         C 17 -- H 19         +21.3% ( 44.2%)     95.3%
 REDUCED MASS        0.1818         C 13 -- H 15         +12.3% ( 33.5%)     96.4%
 EFFECTIVE MASS      1.1372         C 13 -- H 14         +10.7% ( 31.4%)     95.2%
 FORCE CONSTANT      0.8226         C 13 -- H 16         +10.1% ( 30.4%)     95.2%

 VIBRATION         61   61A           ATOM PAIR      ENERGY CONTRIBUTION    RADIAL
 FREQUENCY          2775.67         C 13 -- H 15         +24.8% ( 47.6%)     96.0%
 TRANSITION DIPOLE   0.5885         C 13 -- H 14         +21.0% ( 43.8%)     95.0%
 TRAVEL (Ang.)       0.3649         C 13 -- H 16         +20.8% ( 43.6%)     94.8%
 REDUCED MASS        0.1824         C 17 -- H 18         +11.7% ( 32.7%)     95.5%
 EFFECTIVE MASS      1.1436         C 17 -- H 20         +11.1% ( 31.8%)     95.1%
 FORCE CONSTANT      0.8280         C 17 -- H 19         +10.3% ( 30.7%)     95.0%

 VIBRATION         62   62A           ATOM PAIR      ENERGY CONTRIBUTION    RADIAL
 FREQUENCY          2787.92         C  9 -- H 12         +35.1% ( 56.6%)     96.3%
 TRANSITION DIPOLE   0.6960         C  9 -- H 10         +32.8% ( 54.6%)     95.6%
 TRAVEL (Ang.)       0.2727         C  9 -- H 11         +31.6% ( 53.7%)     95.2%
 REDUCED MASS        0.3253         C  6 -- C  9          +0.3% (  4.9%)     98.9%
 EFFECTIVE MASS      1.1454
 FORCE CONSTANT      1.4897

 VIBRATION         63   63A           ATOM PAIR      ENERGY CONTRIBUTION    RADIAL
 FREQUENCY          2833.84         O 22 -- H 23         +61.7% ( 74.9%)     99.6%
 TRANSITION DIPOLE   1.4043         H 21 -- O 22         +38.1% ( 58.9%)     99.9%
 TRAVEL (Ang.)       0.2164
 REDUCED MASS        0.5081
 EFFECTIVE MASS      1.1992
 FORCE CONSTANT      2.4040

      SYMMETRY NUMBER FOR POINT-GROUP C1  =  1


          SYSTEM IS A GROUND STATE



 Title: ASE calculation


          MOLECULE IS NOT LINEAR

          THERE ARE 63 GENUINE VIBRATIONS IN THIS SYSTEM
          THIS THERMODYNAMICS CALCULATION IS LIMITED TO
          MOLECULES WHICH HAVE NO INTERNAL ROTATIONS




                    CALCULATED THERMODYNAMIC PROPERTIES
                                          *
   TEMP. (K)   PARTITION FUNCTION   H.O.F.    ENTHALPY  HEAT CAPACITY ENTROPY
                                   KCAL/MOL   CAL/MOLE    CAL/K/MOL  CAL/K/MOL


 298.00  VIB.     0.6489D+08                  8547.2913    47.1522    64.4286
         ROT.     0.2100D+07                   888.2803     2.9808    31.9096
         INT.     0.1363D+15                  9435.5716    50.1330    96.3382
         TRA.     0.2089D+28                  1480.4672     4.9680    41.2473
         TOT.                     -309.030   10916.0388    55.1010   137.5854

   *: NOTE: HEATS OF FORMATION ARE RELATIVE TO THE
            ELEMENTS IN THEIR STANDARD STATE AT 298K
              (=  Standard Enthalpy of Formation).

            Hvib:  Zero-point energy is not included.
                   frequencies of less than zero cm-1 are not included.
            Hrot = (3/2)RT
            Htra = (3/2)RT + pV = (5/2)RT

            Heat capacity is Cp, not Cv

          For more information, see: HTTP://OpenMOPAC.net/Manual/thermochemistry.html


           FORCE CONSTANT IN CARTESIAN COORDINATES (Millidynes/A)

    ATOM   CHEMICAL       X               Y               Z
   NUMBER   SYMBOL  FORCE CONSTANT  FORCE CONSTANT  FORCE CONSTANT

      1       C        7.293759        6.123197        7.288545
      2       H        3.903746        0.885709        0.816656
      3       N       14.766571       10.884406        3.254491
      4       O        6.868456        6.618538        0.310943
      5       O       11.696028        1.884279        0.336201
      6       C       10.488305        6.500422       11.193141
      7       O        4.216584        2.950072        5.589859
      8       O        2.713443        2.799072        7.628051
      9       C        6.893782        5.983917        6.288597
     10       H        1.483834        2.120874        1.764284
     11       H        1.218170        3.345576        0.690705
     12       H        0.978275        0.650418        3.605171
     13       C        6.236383        6.254899        6.564763
     14       H        0.947152        1.208779        3.150960
     15       H        4.048162        0.585877        0.714187
     16       H        0.796084        3.782939        0.702869
     17       C        6.195265        6.263790        6.618022
     18       H        4.039567        0.584551        0.706523
     19       H        0.893351        1.285051        3.132832
     20       H        0.829654        3.754821        0.693439
     21       H        0.792402        1.685275        2.345651
     22       O        3.058068        1.840190        3.730875
     23       H        1.889313        0.137212        2.635382

 **********************
 *                    *
 * JOB ENDED NORMALLY *
 *                    *
 **********************



 TOTAL JOB TIME:             7.84 SECONDS

 == MOPAC DONE ==
