 *******************************************************************************
 **                                                                           **
 **                              MOPAC v22.1.0                                **
 **                                                                           **
 *******************************************************************************
 **          Digital Object Identifier (DOI): 10.5281/zenodo.6511958          **
 **    Visit the DOI location for information on how to cite this program.    **
 *******************************************************************************

                              PM7 CALCULATION RESULTS

 *******************************************************************************
 *  CALCULATION DONE:                                Sun Mar 24 16:30:20 2024  *
 *  PM7        - The PM7 Hamiltonian to be used
 *  SINGLET    - SPIN STATE DEFINED AS A SINGLET
 *
 *
 *
 *                 CHARGE ON SYSTEM = 0
 *
 *
 *
 *  EPS=32.66  - USE ANDREAS KLAMT'S COSMO IMPLICIT SOLVATION MODEL
 *  THREADS    - USE A MAXIMUM OF 40 THREADS
 *  T=         - A TIME OF 14.0 DAYS REQUESTED
 *  DUMP=N     - RESTART FILE WRITTEN EVERY 30.0 MINUTES REQUESTED
 *  ITRY=      - DO A MAXIMUM OF 15000 ITERATIONS FOR SCF
 *  AUX        - OUTPUT AUXILIARY INFORMATION
 *  PL         - MONITOR CONVERGENCE IN DENSITY MATRIX
 *******************************************************************************
PM7 CHARGE=0 SINGLET AUX DUMP=30M ITRY=15000 eps=32.66 T=14D PL THREADS=40

 Mopac file generated by Gabedit
   ATOM   CHEMICAL          X               Y               Z
  NUMBER   SYMBOL      (ANGSTROMS)     (ANGSTROMS)     (ANGSTROMS)

     1       C         -1.74928000  *   0.54299000  *  -2.88639000  *
     2       C         -0.94544000  *   0.64221000  *  -1.73358000  *
     3       C         -1.18881000  *  -0.19847000  *  -0.60375000  *
     4       C         -2.22447000  *  -1.15199000  *  -0.61179000  *
     5       C         -2.99540000  *  -1.23165000  *  -1.75423000  *
     6       N         -4.08023000  *  -2.05474000  *  -2.03814000  *
     7       C         -4.52183000  *  -1.76905000  *  -3.33552000  *
     8       C         -3.76263000  *  -0.75663000  *  -3.88422000  *
     9       C         -2.76892000  *  -0.37982000  *  -2.91036000  *
    10       H         -3.86915000  *  -0.31275000  *  -4.85070000  *
    11       H         -5.35567000  *  -2.31007000  *  -3.75751000  *
    12       H         -2.39951000  *  -1.79369000  *   0.24763000  *
    13       H         -1.55791000  *   1.19261000  *  -3.74264000  *
    14       N         -0.41335000  *  -0.10104000  *   0.54174000  *
    15       C          0.57020000  *   0.77485000  *   0.58261000  *
    16       C          0.88388000  *   1.64544000  *  -0.50871000  *
    17       H          1.71232000  *   2.34302000  *  -0.40492000  *
    18       H          1.16264000  *   0.81973000  *   1.50916000  *
    19       C          0.13152000  *   1.57622000  *  -1.64620000  *
    20       H          0.33358000  *   2.22450000  *  -2.50368000  *
    21       H         -4.39009000  *  -2.81534000  *  -1.44332000  *
    22       C         -0.58690100  *  -0.77374100  *   2.61106000  *
    23       H         -0.11753100  *  -1.60184100  *   2.06822000  *
    24       H          0.16938900  *  -0.06355100  *   2.96237000  *
    25       H         -1.18353100  *  -1.14625100  *   3.45170000  *
    26       H         -1.03599100  *   0.31547900  *   1.00490000  *
    27       O         -1.51535100  *  -0.10941100  *   1.77093000  *
    28       C         -4.84974800  *  -3.43097900  *  -0.04759800  *
    29       H         -4.85564800  *  -4.25618900  *   0.67264200  *
    30       H         -5.61001800  *  -2.68564900  *   0.21014200  *
    31       H         -5.00745800  *  -3.81041900  *  -1.06469800  *
    32       H         -3.32720800  *  -2.45766900  *   0.81118200  *
    33       O         -3.56970800  *  -2.83146900  *  -0.08030800  *
    34       C         -2.50485700  *  -2.85830900  *   2.53677600  *
    35       H         -1.59902700  *  -3.40079900  *   2.24370600  *
    36       H         -2.46301700  *  -2.57395900  *   3.59375600  *
    37       H         -3.39946700  *  -3.46092900  *   2.33733600  *
    38       H         -1.88775700  *  -1.07999900  *   1.86684600  *
    39       O         -2.65951700  *  -1.70118900  *   1.73453600  *



          CARTESIAN COORDINATES 

    NO.       ATOM           X           Y           Z

     1         C         -1.7493      0.5430     -2.8864
     2         C         -0.9454      0.6422     -1.7336
     3         C         -1.1888     -0.1985     -0.6038
     4         C         -2.2245     -1.1520     -0.6118
     5         C         -2.9954     -1.2316     -1.7542
     6         N         -4.0802     -2.0547     -2.0381
     7         C         -4.5218     -1.7691     -3.3355
     8         C         -3.7626     -0.7566     -3.8842
     9         C         -2.7689     -0.3798     -2.9104
    10         H         -3.8692     -0.3128     -4.8507
    11         H         -5.3557     -2.3101     -3.7575
    12         H         -2.3995     -1.7937      0.2476
    13         H         -1.5579      1.1926     -3.7426
    14         N         -0.4134     -0.1010      0.5417
    15         C          0.5702      0.7749      0.5826
    16         C          0.8839      1.6454     -0.5087
    17         H          1.7123      2.3430     -0.4049
    18         H          1.1626      0.8197      1.5092
    19         C          0.1315      1.5762     -1.6462
    20         H          0.3336      2.2245     -2.5037
    21         H         -4.3901     -2.8153     -1.4433
    22         C         -0.5869     -0.7737      2.6111
    23         H         -0.1175     -1.6018      2.0682
    24         H          0.1694     -0.0636      2.9624
    25         H         -1.1835     -1.1463      3.4517
    26         H         -1.0360      0.3155      1.0049
    27         O         -1.5154     -0.1094      1.7709
    28         C         -4.8497     -3.4310     -0.0476
    29         H         -4.8556     -4.2562      0.6726
    30         H         -5.6100     -2.6856      0.2101
    31         H         -5.0075     -3.8104     -1.0647
    32         H         -3.3272     -2.4577      0.8112
    33         O         -3.5697     -2.8315     -0.0803
    34         C         -2.5049     -2.8583      2.5368
    35         H         -1.5990     -3.4008      2.2437
    36         H         -2.4630     -2.5740      3.5938
    37         H         -3.3995     -3.4609      2.3373
    38         H         -1.8878     -1.0800      1.8668
    39         O         -2.6595     -1.7012      1.7345

 General Reference for PM7:
 "Optimization of Parameters for Semiempirical Methods VI: More Modifications to the 
 NDDO Approximations and Re-optimization of Parameters", J. J. P. Stewart, J. Mol. Mod., 1:32, 19 (2013)
 https://link.springer.com/article/10.1007/s00894-012-1667-x

           Empirical Formula: C14 H20 N2 O3  =    39 atoms



      MOLECULAR POINT GROUP   :   C1  


 SINGLET STATE CALCULATION


      RHF CALCULATION, NO. OF DOUBLY OCCUPIED LEVELS = 52


          Geometry optimization using L-BFGS
 ITERATION   1 PLS= 0.100E+01 0.000E+00 ENERGY    18503.313031 DELTAE    0.0000000
 ITERATION   2 PLS= 0.113E+01 0.000E+00 ENERGY      376.093748 DELTAE    0.0000000
 ITERATION   3 PLS= 0.689E-01 0.000E+00 ENERGY      308.119804 DELTAE  -67.9739437
 ITERATION   4 PLS= 0.433E-01 0.000E+00 ENERGY      212.129905 DELTAE  -95.9898995
 ITERATION   5 PLS= 0.888E-02 0.000E+00 ENERGY      265.758663 DELTAE   53.6287587
 ITERATION   6 PLS= 0.159E-01 0.000E+00 ENERGY      264.000858 DELTAE   -1.7578055
 ITERATION   7 PLS= 0.120E-01 0.000E+00 ENERGY      262.446649 DELTAE   -1.5542084
 ITERATION   8 PLS= 0.178E-02 0.000E+00 ENERGY      263.289360 DELTAE    0.8427103
 ITERATION   9 PLS= 0.112E-02 0.000E+00 ENERGY      263.280516 DELTAE   -0.0088441
 ITERATION  10 PLS= 0.577E-03 0.000E+00 ENERGY      263.271013 DELTAE   -0.0095024
 ITERATION  11 PLS= 0.460E-03 0.000E+00 ENERGY      263.273705 DELTAE    0.0026923
 ITERATION  12 PLS= 0.268E-03 0.000E+00 ENERGY      263.273142 DELTAE   -0.0005634
 ITERATION  13 PLS= 0.230E-03 0.000E+00 ENERGY      263.269651 DELTAE   -0.0034909
 ITERATION  14 PLS= 0.647E-04 0.000E+00 ENERGY      263.272257 DELTAE    0.0026057
 ITERATION  15 PLS= 0.532E-04 0.000E+00 ENERGY      263.272249 DELTAE   -0.0000083
 ITERATION   1 PLS= 0.344E-04 0.000E+00 ENERGY      249.941876 DELTAE  149.9418760
 ITERATION   2 PLS= 0.244E-01 0.000E+00 ENERGY      247.582181 DELTAE   -2.3596948
 ITERATION   3 PLS= 0.905E-02 0.000E+00 ENERGY      247.258731 DELTAE   -0.3234500
 ITERATION   4 PLS= 0.438E-02 0.000E+00 ENERGY      247.107992 DELTAE   -0.1507394
 ITERATION   5 PLS= 0.180E-02 0.000E+00 ENERGY      247.152927 DELTAE    0.0449354
 ITERATION   6 PLS= 0.132E-02 0.000E+00 ENERGY      247.148201 DELTAE   -0.0047263
 ITERATION   7 PLS= 0.995E-03 0.000E+00 ENERGY      247.124626 DELTAE   -0.0235749
 ITERATION   8 PLS= 0.178E-03 0.000E+00 ENERGY      247.141803 DELTAE    0.0171770
 ITERATION   9 PLS= 0.140E-03 0.000E+00 ENERGY      247.141674 DELTAE   -0.0001291
 ITERATION  10 PLS= 0.113E-03 0.000E+00 ENERGY      247.140895 DELTAE   -0.0007786
 ITERATION  11 PLS= 0.476E-04 0.000E+00 ENERGY      247.141465 DELTAE    0.0005703
 CYCLE:     1 TIME:   0.246 TIME LEFT:  2.00W  GRAD.:   644.318 HEAT:  247.1415
 ITERATION   1 PLS= 0.332E-04 0.000E+00 ENERGY      243.008767 DELTAE  143.0087668
 ITERATION   2 PLS= 0.960E-03 0.000E+00 ENERGY      242.994080 DELTAE   -0.0146870
 ITERATION   3 PLS= 0.579E-03 0.000E+00 ENERGY      242.991544 DELTAE   -0.0025355
 ITERATION   4 PLS= 0.329E-03 0.000E+00 ENERGY      242.989250 DELTAE   -0.0022946
 CYCLE:     2 TIME:   0.059 TIME LEFT:  2.00W  GRAD.:   635.057 HEAT:  242.9906
 ITERATION   1 PLS= 0.446E-04 0.000E+00 ENERGY      128.365591 DELTAE   28.3655911
 ITERATION   2 PLS= 0.519E-01 0.000E+00 ENERGY       65.458341 DELTAE  -62.9072505
 ITERATION   3 PLS= 0.348E-01 0.000E+00 ENERGY       54.012413 DELTAE  -11.4459280
 ITERATION   4 PLS= 0.139E-01 0.000E+00 ENERGY       48.644664 DELTAE   -5.3677485
 ITERATION   5 PLS= 0.382E-02 0.000E+00 ENERGY       50.914229 DELTAE    2.2695647
 ITERATION   6 PLS= 0.252E-02 0.000E+00 ENERGY       50.880529 DELTAE   -0.0337002
 ITERATION   7 PLS= 0.161E-02 0.000E+00 ENERGY       50.775663 DELTAE   -0.1048659
 ITERATION   8 PLS= 0.442E-03 0.000E+00 ENERGY       50.850032 DELTAE    0.0743697
 CYCLE:     3 TIME:   0.070 TIME LEFT:  2.00W  GRAD.:   227.959 HEAT:  50.84918
 ITERATION   1 PLS= 0.316E-03 0.000E+00 ENERGY      320.189204 DELTAE  220.1892038
 ITERATION   2 PLS= 0.518E-01 0.000E+00 ENERGY      258.227795 DELTAE  -61.9614085
 ITERATION   3 PLS= 0.289E-01 0.000E+00 ENERGY      246.548006 DELTAE  -11.6797888
 ITERATION   4 PLS= 0.136E-01 0.000E+00 ENERGY      240.240320 DELTAE   -6.3076862
 ITERATION   5 PLS= 0.560E-02 0.000E+00 ENERGY      243.073707 DELTAE    2.8333867
 ITERATION   6 PLS= 0.378E-02 0.000E+00 ENERGY      243.029296 DELTAE   -0.0444110
 ITERATION   7 PLS= 0.247E-02 0.000E+00 ENERGY      242.897398 DELTAE   -0.1318985
 ITERATION   8 PLS= 0.414E-03 0.000E+00 ENERGY      242.988757 DELTAE    0.0913589
 CYCLE:     4 TIME:   0.125 TIME LEFT:  2.00W  GRAD.:   634.858 HEAT:  242.9881
 ITERATION   1 PLS= 0.307E-03 0.000E+00 ENERGY      208.843400 DELTAE  108.8433999
 ITERATION   2 PLS= 0.588E-02 0.000E+00 ENERGY      207.507528 DELTAE   -1.3358723
 ITERATION   3 PLS= 0.279E-02 0.000E+00 ENERGY      207.261694 DELTAE   -0.2458332
 ITERATION   4 PLS= 0.145E-02 0.000E+00 ENERGY      207.120439 DELTAE   -0.1412557
 ITERATION   5 PLS= 0.602E-03 0.000E+00 ENERGY      207.189416 DELTAE    0.0689772
 CYCLE:     5 TIME:   0.156 TIME LEFT:  2.00W  GRAD.:   583.948 HEAT:  207.1886
 ITERATION   1 PLS= 0.354E-03 0.000E+00 ENERGY     1227.211709 DELTAE 1127.2117089
 ITERATION   2 PLS= 0.945E-01 0.000E+00 ENERGY      874.279806 DELTAE -352.9319025
 ITERATION   3 PLS= 0.414E-01 0.000E+00 ENERGY      824.497290 DELTAE  -49.7825166
 ITERATION   4 PLS= 0.205E-01 0.000E+00 ENERGY      793.578853 DELTAE  -30.9184370
 ITERATION   5 PLS= 0.117E-01 0.000E+00 ENERGY      804.991186 DELTAE   11.4123328
 ITERATION   6 PLS= 0.914E-02 0.000E+00 ENERGY      804.037455 DELTAE   -0.9537307
 ITERATION   7 PLS= 0.793E-02 0.000E+00 ENERGY      796.013154 DELTAE   -8.0243010
 ITERATION   8 PLS= 0.472E-02 0.000E+00 ENERGY      803.197303 DELTAE    7.1841493
 ITERATION   9 PLS= 0.231E-02 0.000E+00 ENERGY      803.080532 DELTAE   -0.1167710
 ITERATION  10 PLS= 0.144E-02 0.000E+00 ENERGY      802.923373 DELTAE   -0.1571593
 ITERATION  11 PLS= 0.691E-03 0.000E+00 ENERGY      803.000580 DELTAE    0.0772070
 CYCLE:     6 TIME:   0.145 TIME LEFT:  2.00W  GRAD.:  3410.439 HEAT:  802.9989
 ITERATION   1 PLS= 0.508E-03 0.000E+00 ENERGY      395.168455 DELTAE  295.1684551
 ITERATION   2 PLS= 0.854E-01 0.000E+00 ENERGY      129.917307 DELTAE -265.2511482
 ITERATION   3 PLS= 0.498E-01 0.000E+00 ENERGY       88.447408 DELTAE  -41.4698989
 ITERATION   4 PLS= 0.215E-01 0.000E+00 ENERGY       70.271576 DELTAE  -18.1758323
 ITERATION   5 PLS= 0.730E-02 0.000E+00 ENERGY       76.940604 DELTAE    6.6690283
 ITERATION   6 PLS= 0.513E-02 0.000E+00 ENERGY       76.472932 DELTAE   -0.4676720
 ITERATION   7 PLS= 0.456E-02 0.000E+00 ENERGY       71.961675 DELTAE   -4.5112573
 ITERATION   8 PLS= 0.368E-02 0.000E+00 ENERGY       75.965642 DELTAE    4.0039669
 ITERATION   9 PLS= 0.187E-02 0.000E+00 ENERGY       75.915441 DELTAE   -0.0502009
 ITERATION  10 PLS= 0.113E-02 0.000E+00 ENERGY       75.812305 DELTAE   -0.1031357
 ITERATION  11 PLS= 0.383E-03 0.000E+00 ENERGY       75.874129 DELTAE    0.0618243
 CYCLE:     7 TIME:   0.086 TIME LEFT:  2.00W  GRAD.:   597.291 HEAT:  75.87358
 ITERATION   1 PLS= 0.281E-03 0.000E+00 ENERGY       53.041837 DELTAE  -46.9581633
 ITERATION   2 PLS= 0.121E-01 0.000E+00 ENERGY       48.274223 DELTAE   -4.7676141
 ITERATION   3 PLS= 0.653E-02 0.000E+00 ENERGY       47.738904 DELTAE   -0.5353188
 ITERATION   4 PLS= 0.405E-02 0.000E+00 ENERGY       47.420642 DELTAE   -0.3182614
 ITERATION   5 PLS= 0.622E-03 0.000E+00 ENERGY       47.589679 DELTAE    0.1690367
 ITERATION   6 PLS= 0.392E-03 0.000E+00 ENERGY       47.587746 DELTAE   -0.0019336
 CYCLE:     8 TIME:   0.066 TIME LEFT:  2.00W  GRAD.:   490.770 HEAT:  47.58371
 ITERATION   1 PLS= 0.277E-03 0.000E+00 ENERGY       58.603960 DELTAE  -41.3960398
 ITERATION   2 PLS= 0.590E-01 0.000E+00 ENERGY       25.089070 DELTAE  -33.5148906
 ITERATION   3 PLS= 0.223E-01 0.000E+00 ENERGY       19.436152 DELTAE   -5.6529180
 ITERATION   4 PLS= 0.112E-01 0.000E+00 ENERGY       14.678795 DELTAE   -4.7573566
 ITERATION   5 PLS= 0.370E-02 0.000E+00 ENERGY       17.207648 DELTAE    2.5288534
 ITERATION   6 PLS= 0.261E-02 0.000E+00 ENERGY       17.161796 DELTAE   -0.0458525
 ITERATION   7 PLS= 0.192E-02 0.000E+00 ENERGY       16.992523 DELTAE   -0.1692727
 ITERATION   8 PLS= 0.396E-03 0.000E+00 ENERGY       17.116735 DELTAE    0.1242116
 ITERATION   9 PLS= 0.211E-03 0.000E+00 ENERGY       17.116218 DELTAE   -0.0005170
 CYCLE:     9 TIME:   0.121 TIME LEFT:  2.00W  GRAD.:   464.872 HEAT:  17.11545
 ITERATION   1 PLS= 0.142E-03 0.000E+00 ENERGY        3.256764 DELTAE  -96.7432365
 ITERATION   2 PLS= 0.178E-01 0.000E+00 ENERGY       -1.497018 DELTAE   -4.7537816
 ITERATION   3 PLS= 0.681E-02 0.000E+00 ENERGY       -2.238912 DELTAE   -0.7418941
 ITERATION   4 PLS= 0.325E-02 0.000E+00 ENERGY       -2.776640 DELTAE   -0.5377279
 ITERATION   5 PLS= 0.124E-02 0.000E+00 ENERGY       -2.541336 DELTAE    0.2353042
 ITERATION   6 PLS= 0.947E-03 0.000E+00 ENERGY       -2.551036 DELTAE   -0.0097005
 ITERATION   7 PLS= 0.727E-03 0.000E+00 ENERGY       -2.596709 DELTAE   -0.0456723
 ITERATION   8 PLS= 0.137E-03 0.000E+00 ENERGY       -2.561709 DELTAE    0.0349994
 CYCLE:    10 TIME:   0.113 TIME LEFT:  2.00W  GRAD.:   353.148 HEAT: -2.561791
 ITERATION   1 PLS= 0.856E-04 0.000E+00 ENERGY      -12.017385 DELTAE -112.0173848
 ITERATION   2 PLS= 0.144E-01 0.000E+00 ENERGY      -16.348413 DELTAE   -4.3310283
 ITERATION   3 PLS= 0.797E-02 0.000E+00 ENERGY      -17.116626 DELTAE   -0.7682130
 ITERATION   4 PLS= 0.428E-02 0.000E+00 ENERGY      -17.706524 DELTAE   -0.5898977
 ITERATION   5 PLS= 0.106E-02 0.000E+00 ENERGY      -17.443901 DELTAE    0.2626229
 ITERATION   6 PLS= 0.787E-03 0.000E+00 ENERGY      -17.454023 DELTAE   -0.0101220
 ITERATION   7 PLS= 0.585E-03 0.000E+00 ENERGY      -17.510415 DELTAE   -0.0563919
 ITERATION   8 PLS= 0.970E-04 0.000E+00 ENERGY      -17.465369 DELTAE    0.0450455
 CYCLE:    11 TIME:   0.078 TIME LEFT:  2.00W  GRAD.:   334.679 HEAT: -17.46550
 ITERATION   1 PLS= 0.678E-04 0.000E+00 ENERGY      -18.950413 DELTAE -118.9504130
 ITERATION   2 PLS= 0.269E-01 0.000E+00 ENERGY      -31.081156 DELTAE  -12.1307432
 ITERATION   3 PLS= 0.146E-01 0.000E+00 ENERGY      -33.121583 DELTAE   -2.0404267
 ITERATION   4 PLS= 0.784E-02 0.000E+00 ENERGY      -34.358156 DELTAE   -1.2365732
 ITERATION   5 PLS= 0.101E-02 0.000E+00 ENERGY      -33.753382 DELTAE    0.6047740
 ITERATION   6 PLS= 0.792E-03 0.000E+00 ENERGY      -33.761717 DELTAE   -0.0083348
 ITERATION   7 PLS= 0.618E-03 0.000E+00 ENERGY      -33.790406 DELTAE   -0.0286891
 ITERATION   8 PLS= 0.175E-03 0.000E+00 ENERGY      -33.770191 DELTAE    0.0202152
 CYCLE:    12 TIME:   0.074 TIME LEFT:  2.00W  GRAD.:   300.216 HEAT: -33.77029
 ITERATION   1 PLS= 0.122E-03 0.000E+00 ENERGY      -37.850335 DELTAE -137.8503346
 ITERATION   2 PLS= 0.160E-01 0.000E+00 ENERGY      -44.769566 DELTAE   -6.9192314
 ITERATION   3 PLS= 0.867E-02 0.000E+00 ENERGY      -46.022074 DELTAE   -1.2525076
 ITERATION   4 PLS= 0.465E-02 0.000E+00 ENERGY      -46.936593 DELTAE   -0.9145195
 ITERATION   5 PLS= 0.933E-03 0.000E+00 ENERGY      -46.441790 DELTAE    0.4948033
 ITERATION   6 PLS= 0.468E-03 0.000E+00 ENERGY      -46.447586 DELTAE   -0.0057961
 ITERATION   7 PLS= 0.258E-03 0.000E+00 ENERGY      -46.458991 DELTAE   -0.0114053
 CYCLE:    13 TIME:   0.074 TIME LEFT:  2.00W  GRAD.:   293.405 HEAT: -46.45254
 ITERATION   1 PLS= 0.104E-03 0.000E+00 ENERGY      -49.160611 DELTAE -149.1606106
 ITERATION   2 PLS= 0.133E-01 0.000E+00 ENERGY      -53.499588 DELTAE   -4.3389770
 ITERATION   3 PLS= 0.775E-02 0.000E+00 ENERGY      -54.302571 DELTAE   -0.8029831
 ITERATION   4 PLS= 0.475E-02 0.000E+00 ENERGY      -54.937860 DELTAE   -0.6352893
 ITERATION   5 PLS= 0.916E-03 0.000E+00 ENERGY      -54.569577 DELTAE    0.3682830
 ITERATION   6 PLS= 0.507E-03 0.000E+00 ENERGY      -54.572522 DELTAE   -0.0029449
 CYCLE:    14 TIME:   0.070 TIME LEFT:  2.00W  GRAD.:   271.633 HEAT: -54.57886
 ITERATION   1 PLS= 0.326E-03 0.000E+00 ENERGY      -54.906909 DELTAE -154.9069091
 ITERATION   2 PLS= 0.102E-01 0.000E+00 ENERGY      -61.334947 DELTAE   -6.4280375
 ITERATION   3 PLS= 0.500E-02 0.000E+00 ENERGY      -62.515367 DELTAE   -1.1804208
 ITERATION   4 PLS= 0.326E-02 0.000E+00 ENERGY      -63.674738 DELTAE   -1.1593710
 ITERATION   5 PLS= 0.140E-02 0.000E+00 ENERGY      -63.044471 DELTAE    0.6302678
 ITERATION   6 PLS= 0.102E-02 0.000E+00 ENERGY      -63.057794 DELTAE   -0.0133231
 ITERATION   7 PLS= 0.800E-03 0.000E+00 ENERGY      -63.131492 DELTAE   -0.0736984
 ITERATION   8 PLS= 0.142E-03 0.000E+00 ENERGY      -63.072605 DELTAE    0.0588871
 CYCLE:    15 TIME:   0.078 TIME LEFT:  2.00W  GRAD.:   244.607 HEAT: -63.07287
 ITERATION   1 PLS= 0.861E-04 0.000E+00 ENERGY      -67.945189 DELTAE -167.9451887
 ITERATION   2 PLS= 0.833E-02 0.000E+00 ENERGY      -69.684889 DELTAE   -1.7397007
 ITERATION   3 PLS= 0.297E-02 0.000E+00 ENERGY      -69.949525 DELTAE   -0.2646357
 ITERATION   4 PLS= 0.196E-02 0.000E+00 ENERGY      -70.110513 DELTAE   -0.1609883
 ITERATION   5 PLS= 0.560E-03 0.000E+00 ENERGY      -70.025245 DELTAE    0.0852688
 CYCLE:    16 TIME:   0.098 TIME LEFT:  2.00W  GRAD.:   230.544 HEAT: -70.02622
 ITERATION   1 PLS= 0.390E-03 0.000E+00 ENERGY      -60.847452 DELTAE -160.8474523
 ITERATION   2 PLS= 0.203E-01 0.000E+00 ENERGY      -81.126027 DELTAE  -20.2785752
 ITERATION   3 PLS= 0.994E-02 0.000E+00 ENERGY      -86.042322 DELTAE   -4.9162945
 ITERATION   4 PLS= 0.661E-02 0.000E+00 ENERGY      -94.363976 DELTAE   -8.3216541
 ITERATION   5 PLS= 0.465E-02 0.000E+00 ENERGY      -89.931436 DELTAE    4.4325397
 ITERATION   6 PLS= 0.348E-02 0.000E+00 ENERGY      -90.075369 DELTAE   -0.1439325
 ITERATION   7 PLS= 0.272E-02 0.000E+00 ENERGY      -91.027989 DELTAE   -0.9526202
 ITERATION   8 PLS= 0.517E-03 0.000E+00 ENERGY      -90.272585 DELTAE    0.7554043
 ITERATION   9 PLS= 0.301E-03 0.000E+00 ENERGY      -90.274081 DELTAE   -0.0014967
 CYCLE:    17 TIME:   0.109 TIME LEFT:  2.00W  GRAD.:   125.564 HEAT: -90.27768
 ITERATION   1 PLS= 0.236E-03 0.000E+00 ENERGY      -91.463706 DELTAE -191.4637057
 ITERATION   2 PLS= 0.741E-02 0.000E+00 ENERGY      -94.101405 DELTAE   -2.6376993
 ITERATION   3 PLS= 0.252E-02 0.000E+00 ENERGY      -94.618723 DELTAE   -0.5173178
 ITERATION   4 PLS= 0.177E-02 0.000E+00 ENERGY      -95.142988 DELTAE   -0.5242652
 ITERATION   5 PLS= 0.116E-02 0.000E+00 ENERGY      -94.949947 DELTAE    0.1930414
 ITERATION   6 PLS= 0.981E-03 0.000E+00 ENERGY      -94.970858 DELTAE   -0.0209115
 ITERATION   7 PLS= 0.802E-03 0.000E+00 ENERGY      -95.135343 DELTAE   -0.1644847
 ITERATION   8 PLS= 0.142E-03 0.000E+00 ENERGY      -95.000229 DELTAE    0.1351140
 ITERATION   9 PLS= 0.826E-04 0.000E+00 ENERGY      -95.000474 DELTAE   -0.0002453
 CYCLE:    18 TIME:   0.160 TIME LEFT:  2.00W  GRAD.:    76.351 HEAT: -95.00106
 ITERATION   1 PLS= 0.610E-04 0.000E+00 ENERGY      -96.396731 DELTAE -196.3967309
 ITERATION   2 PLS= 0.490E-02 0.000E+00 ENERGY      -96.876821 DELTAE   -0.4800906
 ITERATION   3 PLS= 0.223E-02 0.000E+00 ENERGY      -96.956414 DELTAE   -0.0795928
 ITERATION   4 PLS= 0.126E-02 0.000E+00 ENERGY      -97.009724 DELTAE   -0.0533101
 ITERATION   5 PLS= 0.477E-03 0.000E+00 ENERGY      -96.984202 DELTAE    0.0255221
 CYCLE:    19 TIME:   0.066 TIME LEFT:  2.00W  GRAD.:    48.826 HEAT: -96.98497
 ITERATION   1 PLS= 0.392E-03 0.000E+00 ENERGY      -98.158224 DELTAE -198.1582244
 ITERATION   2 PLS= 0.787E-02 0.000E+00 ENERGY      -99.388359 DELTAE   -1.2301346
 ITERATION   3 PLS= 0.389E-02 0.000E+00 ENERGY      -99.609289 DELTAE   -0.2209295
 ITERATION   4 PLS= 0.213E-02 0.000E+00 ENERGY      -99.737846 DELTAE   -0.1285577
 ITERATION   5 PLS= 0.497E-03 0.000E+00 ENERGY      -99.678822 DELTAE    0.0590237
 CYCLE:    20 TIME:   0.066 TIME LEFT:  2.00W  GRAD.:    50.112 HEAT: -99.67952
 ITERATION   1 PLS= 0.323E-03 0.000E+00 ENERGY     -100.056519 DELTAE -200.0565186
 ITERATION   2 PLS= 0.624E-02 0.000E+00 ENERGY     -101.498599 DELTAE   -1.4420806
 ITERATION   3 PLS= 0.327E-02 0.000E+00 ENERGY     -101.773062 DELTAE   -0.2744630
 ITERATION   4 PLS= 0.173E-02 0.000E+00 ENERGY     -101.946297 DELTAE   -0.1732350
 ITERATION   5 PLS= 0.375E-03 0.000E+00 ENERGY     -101.858641 DELTAE    0.0876567
 CYCLE:    21 TIME:   0.066 TIME LEFT:  2.00W  GRAD.:    57.199 HEAT: -101.8590
 ITERATION   1 PLS= 0.204E-03 0.000E+00 ENERGY     -101.243903 DELTAE -201.2439033
 ITERATION   2 PLS= 0.789E-02 0.000E+00 ENERGY     -103.472643 DELTAE   -2.2287396
 ITERATION   3 PLS= 0.398E-02 0.000E+00 ENERGY     -103.901602 DELTAE   -0.4289589
 ITERATION   4 PLS= 0.204E-02 0.000E+00 ENERGY     -104.176923 DELTAE   -0.2753209
 ITERATION   5 PLS= 0.511E-03 0.000E+00 ENERGY     -104.042762 DELTAE    0.1341611
 ITERATION   6 PLS= 0.313E-03 0.000E+00 ENERGY     -104.043773 DELTAE   -0.0010118
 CYCLE:    22 TIME:   0.109 TIME LEFT:  2.00W  GRAD.:    55.008 HEAT: -104.0462
 ITERATION   1 PLS= 0.198E-03 0.000E+00 ENERGY     -104.247490 DELTAE -204.2474897
 ITERATION   2 PLS= 0.694E-02 0.000E+00 ENERGY     -105.243228 DELTAE   -0.9957384
 ITERATION   3 PLS= 0.346E-02 0.000E+00 ENERGY     -105.433181 DELTAE   -0.1899532
 ITERATION   4 PLS= 0.175E-02 0.000E+00 ENERGY     -105.572890 DELTAE   -0.1397091
 ITERATION   5 PLS= 0.541E-03 0.000E+00 ENERGY     -105.500940 DELTAE    0.0719508
 CYCLE:    23 TIME:   0.062 TIME LEFT:  2.00W  GRAD.:    37.692 HEAT: -105.5022
 ITERATION   1 PLS= 0.449E-03 0.000E+00 ENERGY     -105.969812 DELTAE -205.9698116
 ITERATION   2 PLS= 0.524E-02 0.000E+00 ENERGY     -106.372385 DELTAE   -0.4025730
 ITERATION   3 PLS= 0.270E-02 0.000E+00 ENERGY     -106.451769 DELTAE   -0.0793849
 ITERATION   4 PLS= 0.141E-02 0.000E+00 ENERGY     -106.507350 DELTAE   -0.0555808
 ITERATION   5 PLS= 0.237E-03 0.000E+00 ENERGY     -106.478841 DELTAE    0.0285093
 CYCLE:    24 TIME:   0.066 TIME LEFT:  2.00W  GRAD.:    32.142 HEAT: -106.4792
 ITERATION   1 PLS= 0.191E-03 0.000E+00 ENERGY     -106.357518 DELTAE -206.3575183
 ITERATION   2 PLS= 0.890E-02 0.000E+00 ENERGY     -107.116089 DELTAE   -0.7585708
 ITERATION   3 PLS= 0.464E-02 0.000E+00 ENERGY     -107.279349 DELTAE   -0.1632602
 ITERATION   4 PLS= 0.244E-02 0.000E+00 ENERGY     -107.393433 DELTAE   -0.1140841
 ITERATION   5 PLS= 0.242E-03 0.000E+00 ENERGY     -107.336265 DELTAE    0.0571685
 CYCLE:    25 TIME:   0.066 TIME LEFT:  2.00W  GRAD.:    34.391 HEAT: -107.3366
 ITERATION   1 PLS= 0.183E-03 0.000E+00 ENERGY     -105.423726 DELTAE -205.4237265
 ITERATION   2 PLS= 0.164E-01 0.000E+00 ENERGY     -107.577541 DELTAE   -2.1538143
 ITERATION   3 PLS= 0.867E-02 0.000E+00 ENERGY     -108.052363 DELTAE   -0.4748224
 ITERATION   4 PLS= 0.459E-02 0.000E+00 ENERGY     -108.392526 DELTAE   -0.3401632
 ITERATION   5 PLS= 0.549E-03 0.000E+00 ENERGY     -108.221477 DELTAE    0.1710491
 ITERATION   6 PLS= 0.319E-03 0.000E+00 ENERGY     -108.222742 DELTAE   -0.0012644
 CYCLE:    26 TIME:   0.066 TIME LEFT:  2.00W  GRAD.:    46.895 HEAT: -108.2274
 ITERATION   1 PLS= 0.228E-03 0.000E+00 ENERGY     -108.566233 DELTAE -208.5662331
 ITERATION   2 PLS= 0.614E-02 0.000E+00 ENERGY     -108.936731 DELTAE   -0.3704975
 ITERATION   3 PLS= 0.331E-02 0.000E+00 ENERGY     -109.012574 DELTAE   -0.0758434
 ITERATION   4 PLS= 0.177E-02 0.000E+00 ENERGY     -109.064359 DELTAE   -0.0517852
 ITERATION   5 PLS= 0.165E-03 0.000E+00 ENERGY     -109.037721 DELTAE    0.0266385
 CYCLE:    27 TIME:   0.066 TIME LEFT:  2.00W  GRAD.:    26.779 HEAT: -109.0378
 ITERATION   1 PLS= 0.103E-03 0.000E+00 ENERGY     -109.328547 DELTAE -209.3285469
 ITERATION   2 PLS= 0.542E-02 0.000E+00 ENERGY     -109.692217 DELTAE   -0.3636700
 ITERATION   3 PLS= 0.284E-02 0.000E+00 ENERGY     -109.767331 DELTAE   -0.0751139
 ITERATION   4 PLS= 0.149E-02 0.000E+00 ENERGY     -109.820331 DELTAE   -0.0530005
 ITERATION   5 PLS= 0.163E-03 0.000E+00 ENERGY     -109.792428 DELTAE    0.0279029
 CYCLE:    28 TIME:   0.082 TIME LEFT:  2.00W  GRAD.:    25.167 HEAT: -109.7925
 ITERATION   1 PLS= 0.966E-04 0.000E+00 ENERGY     -109.771011 DELTAE -209.7710112
 ITERATION   2 PLS= 0.555E-02 0.000E+00 ENERGY     -110.212233 DELTAE   -0.4412216
 ITERATION   3 PLS= 0.282E-02 0.000E+00 ENERGY     -110.309943 DELTAE   -0.0977103
 ITERATION   4 PLS= 0.147E-02 0.000E+00 ENERGY     -110.380544 DELTAE   -0.0706011
 ITERATION   5 PLS= 0.162E-03 0.000E+00 ENERGY     -110.344061 DELTAE    0.0364832
 CYCLE:    29 TIME:   0.066 TIME LEFT:  2.00W  GRAD.:    24.789 HEAT: -110.3442
 ITERATION   1 PLS= 0.902E-04 0.000E+00 ENERGY     -109.688240 DELTAE -209.6882395
 ITERATION   2 PLS= 0.801E-02 0.000E+00 ENERGY     -110.575937 DELTAE   -0.8876971
 ITERATION   3 PLS= 0.436E-02 0.000E+00 ENERGY     -110.775421 DELTAE   -0.1994841
 ITERATION   4 PLS= 0.243E-02 0.000E+00 ENERGY     -110.924523 DELTAE   -0.1491020
 ITERATION   5 PLS= 0.259E-03 0.000E+00 ENERGY     -110.844749 DELTAE    0.0797739
 CYCLE:    30 TIME:   0.062 TIME LEFT:  2.00W  GRAD.:    21.959 HEAT: -110.8449
 ITERATION   1 PLS= 0.114E-03 0.000E+00 ENERGY     -110.710996 DELTAE -210.7109956
 ITERATION   2 PLS= 0.691E-02 0.000E+00 ENERGY     -111.064421 DELTAE   -0.3534250
 ITERATION   3 PLS= 0.398E-02 0.000E+00 ENERGY     -111.138414 DELTAE   -0.0739932
 ITERATION   4 PLS= 0.227E-02 0.000E+00 ENERGY     -111.195620 DELTAE   -0.0572065
 ITERATION   5 PLS= 0.211E-03 0.000E+00 ENERGY     -111.163805 DELTAE    0.0318151
 CYCLE:    31 TIME:   0.066 TIME LEFT:  2.00W  GRAD.:    19.500 HEAT: -111.1639
 ITERATION   1 PLS= 0.111E-03 0.000E+00 ENERGY     -111.301558 DELTAE -211.3015583
 ITERATION   2 PLS= 0.383E-02 0.000E+00 ENERGY     -111.416715 DELTAE   -0.1151567
 ITERATION   3 PLS= 0.208E-02 0.000E+00 ENERGY     -111.441550 DELTAE   -0.0248349
 ITERATION   4 PLS= 0.115E-02 0.000E+00 ENERGY     -111.459978 DELTAE   -0.0184277
 CYCLE:    32 TIME:   0.059 TIME LEFT:  2.00W  GRAD.:    13.299 HEAT: -111.4501
 ITERATION   1 PLS= 0.715E-04 0.000E+00 ENERGY     -111.471732 DELTAE -211.4717325
 ITERATION   2 PLS= 0.424E-02 0.000E+00 ENERGY     -111.612403 DELTAE   -0.1406700
 ITERATION   3 PLS= 0.242E-02 0.000E+00 ENERGY     -111.644184 DELTAE   -0.0317813
 ITERATION   4 PLS= 0.136E-02 0.000E+00 ENERGY     -111.669824 DELTAE   -0.0256405
 ITERATION   5 PLS= 0.123E-03 0.000E+00 ENERGY     -111.655709 DELTAE    0.0141150
 CYCLE:    33 TIME:   0.066 TIME LEFT:  2.00W  GRAD.:    12.230 HEAT: -111.6558
 ITERATION   1 PLS= 0.718E-04 0.000E+00 ENERGY     -111.140625 DELTAE -211.1406249
 ITERATION   2 PLS= 0.737E-02 0.000E+00 ENERGY     -111.598644 DELTAE   -0.4580187
 ITERATION   3 PLS= 0.401E-02 0.000E+00 ENERGY     -111.706770 DELTAE   -0.1081265
 ITERATION   4 PLS= 0.220E-02 0.000E+00 ENERGY     -111.793352 DELTAE   -0.0865815
 ITERATION   5 PLS= 0.186E-03 0.000E+00 ENERGY     -111.745746 DELTAE    0.0476054
 CYCLE:    34 TIME:   0.066 TIME LEFT:  2.00W  GRAD.:    18.761 HEAT: -111.7459
 ITERATION   1 PLS= 0.107E-03 0.000E+00 ENERGY     -111.233781 DELTAE -211.2337810
 ITERATION   2 PLS= 0.822E-02 0.000E+00 ENERGY     -111.740283 DELTAE   -0.5065019
 ITERATION   3 PLS= 0.471E-02 0.000E+00 ENERGY     -111.859064 DELTAE   -0.1187808
 ITERATION   4 PLS= 0.269E-02 0.000E+00 ENERGY     -111.955331 DELTAE   -0.0962668
 ITERATION   5 PLS= 0.225E-03 0.000E+00 ENERGY     -111.901824 DELTAE    0.0535065
 CYCLE:    35 TIME:   0.066 TIME LEFT:  2.00W  GRAD.:    15.759 HEAT: -111.9020
 ITERATION   1 PLS= 0.130E-03 0.000E+00 ENERGY     -111.873596 DELTAE -211.8735964
 ITERATION   2 PLS= 0.418E-02 0.000E+00 ENERGY     -112.006231 DELTAE   -0.1326350
 ITERATION   3 PLS= 0.231E-02 0.000E+00 ENERGY     -112.033896 DELTAE   -0.0276644
 ITERATION   4 PLS= 0.129E-02 0.000E+00 ENERGY     -112.054165 DELTAE   -0.0202695
 ITERATION   5 PLS= 0.855E-04 0.000E+00 ENERGY     -112.043196 DELTAE    0.0109693
 CYCLE:    36 TIME:   0.062 TIME LEFT:  2.00W  GRAD.:    11.909 HEAT: -112.0432
 ITERATION   1 PLS= 0.529E-04 0.000E+00 ENERGY     -111.944430 DELTAE -211.9444302
 ITERATION   2 PLS= 0.520E-02 0.000E+00 ENERGY     -112.145557 DELTAE   -0.2011273
 ITERATION   3 PLS= 0.290E-02 0.000E+00 ENERGY     -112.188124 DELTAE   -0.0425665
 ITERATION   4 PLS= 0.162E-02 0.000E+00 ENERGY     -112.219079 DELTAE   -0.0309555
 ITERATION   5 PLS= 0.111E-03 0.000E+00 ENERGY     -112.202272 DELTAE    0.0168079
 CYCLE:    37 TIME:   0.066 TIME LEFT:  2.00W  GRAD.:    12.420 HEAT: -112.2023
 ITERATION   1 PLS= 0.665E-04 0.000E+00 ENERGY     -112.090960 DELTAE -212.0909596
 ITERATION   2 PLS= 0.516E-02 0.000E+00 ENERGY     -112.249770 DELTAE   -0.1588102
 ITERATION   3 PLS= 0.291E-02 0.000E+00 ENERGY     -112.283918 DELTAE   -0.0341486
 ITERATION   4 PLS= 0.163E-02 0.000E+00 ENERGY     -112.309081 DELTAE   -0.0251622
 ITERATION   5 PLS= 0.129E-03 0.000E+00 ENERGY     -112.295417 DELTAE    0.0136635
 CYCLE:    38 TIME:   0.066 TIME LEFT:  2.00W  GRAD.:    12.799 HEAT: -112.2955
 ITERATION   1 PLS= 0.759E-04 0.000E+00 ENERGY     -112.261410 DELTAE -212.2614101
 ITERATION   2 PLS= 0.434E-02 0.000E+00 ENERGY     -112.377065 DELTAE   -0.1156545
 ITERATION   3 PLS= 0.242E-02 0.000E+00 ENERGY     -112.402152 DELTAE   -0.0250877
 ITERATION   4 PLS= 0.135E-02 0.000E+00 ENERGY     -112.420514 DELTAE   -0.0183620
 CYCLE:    39 TIME:   0.059 TIME LEFT:  2.00W  GRAD.:     9.488 HEAT: -112.4105
 ITERATION   1 PLS= 0.952E-04 0.000E+00 ENERGY     -112.182427 DELTAE -212.1824271
 ITERATION   2 PLS= 0.660E-02 0.000E+00 ENERGY     -112.418410 DELTAE   -0.2359827
 ITERATION   3 PLS= 0.361E-02 0.000E+00 ENERGY     -112.470638 DELTAE   -0.0522286
 ITERATION   4 PLS= 0.198E-02 0.000E+00 ENERGY     -112.509039 DELTAE   -0.0384002
 ITERATION   5 PLS= 0.117E-03 0.000E+00 ENERGY     -112.488363 DELTAE    0.0206757
 CYCLE:    40 TIME:   0.066 TIME LEFT:  2.00W  GRAD.:    11.481 HEAT: -112.4884
 ITERATION   1 PLS= 0.761E-04 0.000E+00 ENERGY     -112.335204 DELTAE -212.3352041
 ITERATION   2 PLS= 0.549E-02 0.000E+00 ENERGY     -112.491317 DELTAE   -0.1561132
 ITERATION   3 PLS= 0.294E-02 0.000E+00 ENERGY     -112.525178 DELTAE   -0.0338603
 ITERATION   4 PLS= 0.159E-02 0.000E+00 ENERGY     -112.550167 DELTAE   -0.0249892
 ITERATION   5 PLS= 0.107E-03 0.000E+00 ENERGY     -112.536698 DELTAE    0.0134693
 CYCLE:    41 TIME:   0.062 TIME LEFT:  2.00W  GRAD.:    11.335 HEAT: -112.5368
 ITERATION   1 PLS= 0.703E-04 0.000E+00 ENERGY     -112.600874 DELTAE -212.6008745
 ITERATION   2 PLS= 0.384E-02 0.000E+00 ENERGY     -112.681570 DELTAE   -0.0806957
 ITERATION   3 PLS= 0.196E-02 0.000E+00 ENERGY     -112.699129 DELTAE   -0.0175586
 ITERATION   4 PLS= 0.103E-02 0.000E+00 ENERGY     -112.711687 DELTAE   -0.0125577
 CYCLE:    42 TIME:   0.062 TIME LEFT:  2.00W  GRAD.:    10.194 HEAT: -112.7050
 ITERATION   1 PLS= 0.965E-04 0.000E+00 ENERGY     -111.796095 DELTAE -211.7960946
 ITERATION   2 PLS= 0.138E-01 0.000E+00 ENERGY     -112.620847 DELTAE   -0.8247522
 ITERATION   3 PLS= 0.740E-02 0.000E+00 ENERGY     -112.802774 DELTAE   -0.1819271
 ITERATION   4 PLS= 0.399E-02 0.000E+00 ENERGY     -112.930036 DELTAE   -0.1272618
 ITERATION   5 PLS= 0.214E-03 0.000E+00 ENERGY     -112.862616 DELTAE    0.0674197
 CYCLE:    43 TIME:   0.066 TIME LEFT:  2.00W  GRAD.:    14.712 HEAT: -112.8628
 ITERATION   1 PLS= 0.142E-03 0.000E+00 ENERGY     -112.586351 DELTAE -212.5863511
 ITERATION   2 PLS= 0.519E-02 0.000E+00 ENERGY     -112.893020 DELTAE   -0.3066691
 ITERATION   3 PLS= 0.256E-02 0.000E+00 ENERGY     -112.954726 DELTAE   -0.0617055
 ITERATION   4 PLS= 0.145E-02 0.000E+00 ENERGY     -112.995814 DELTAE   -0.0410881
 ITERATION   5 PLS= 0.167E-03 0.000E+00 ENERGY     -112.974177 DELTAE    0.0216373
 CYCLE:    44 TIME:   0.082 TIME LEFT:  2.00W  GRAD.:    13.720 HEAT: -112.9743
 ITERATION   1 PLS= 0.110E-03 0.000E+00 ENERGY     -113.015292 DELTAE -213.0152923
 ITERATION   2 PLS= 0.502E-03 0.000E+00 ENERGY     -113.030627 DELTAE   -0.0153346
 ITERATION   3 PLS= 0.278E-03 0.000E+00 ENERGY     -113.033015 DELTAE   -0.0023884
 ITERATION   4 PLS= 0.159E-03 0.000E+00 ENERGY     -113.034467 DELTAE   -0.0014519
 CYCLE:    45 TIME:   0.059 TIME LEFT:  2.00W  GRAD.:     7.957 HEAT: -113.0337
 ITERATION   1 PLS= 0.186E-04 0.000E+00 ENERGY     -112.918142 DELTAE -212.9181424
 ITERATION   2 PLS= 0.374E-02 0.000E+00 ENERGY     -112.995272 DELTAE   -0.0771291
 ITERATION   3 PLS= 0.212E-02 0.000E+00 ENERGY     -113.010835 DELTAE   -0.0155634
 ITERATION   4 PLS= 0.118E-02 0.000E+00 ENERGY     -113.021395 DELTAE   -0.0105602
 CYCLE:    46 TIME:   0.059 TIME LEFT:  2.00W  GRAD.:     7.530 HEAT: -113.0157
 ITERATION   1 PLS= 0.913E-04 0.000E+00 ENERGY     -112.859506 DELTAE -212.8595063
 ITERATION   2 PLS= 0.332E-02 0.000E+00 ENERGY     -113.029827 DELTAE   -0.1703202
 ITERATION   3 PLS= 0.167E-02 0.000E+00 ENERGY     -113.064558 DELTAE   -0.0347314
 ITERATION   4 PLS= 0.848E-03 0.000E+00 ENERGY     -113.087065 DELTAE   -0.0225067
 ITERATION   5 PLS= 0.975E-04 0.000E+00 ENERGY     -113.075288 DELTAE    0.0117765
 CYCLE:    47 TIME:   0.066 TIME LEFT:  2.00W  GRAD.:    11.888 HEAT: -113.0753
 ITERATION   1 PLS= 0.654E-04 0.000E+00 ENERGY     -112.556497 DELTAE -212.5564965
 ITERATION   2 PLS= 0.818E-02 0.000E+00 ENERGY     -113.061215 DELTAE   -0.5047185
 ITERATION   3 PLS= 0.433E-02 0.000E+00 ENERGY     -113.165029 DELTAE   -0.1038136
 ITERATION   4 PLS= 0.229E-02 0.000E+00 ENERGY     -113.231046 DELTAE   -0.0660171
 ITERATION   5 PLS= 0.118E-03 0.000E+00 ENERGY     -113.196702 DELTAE    0.0343436
 CYCLE:    48 TIME:   0.066 TIME LEFT:  2.00W  GRAD.:    11.682 HEAT: -113.1968
 ITERATION   1 PLS= 0.840E-04 0.000E+00 ENERGY     -112.559340 DELTAE -212.5593401
 ITERATION   2 PLS= 0.637E-02 0.000E+00 ENERGY     -113.150654 DELTAE   -0.5913136
 ITERATION   3 PLS= 0.334E-02 0.000E+00 ENERGY     -113.268933 DELTAE   -0.1182791
 ITERATION   4 PLS= 0.176E-02 0.000E+00 ENERGY     -113.341944 DELTAE   -0.0730115
 ITERATION   5 PLS= 0.116E-03 0.000E+00 ENERGY     -113.304108 DELTAE    0.0378367
 CYCLE:    49 TIME:   0.066 TIME LEFT:  2.00W  GRAD.:    10.008 HEAT: -113.3042
 ITERATION   1 PLS= 0.736E-04 0.000E+00 ENERGY     -113.052130 DELTAE -213.0521301
 ITERATION   2 PLS= 0.503E-02 0.000E+00 ENERGY     -113.269735 DELTAE   -0.2176052
 ITERATION   3 PLS= 0.265E-02 0.000E+00 ENERGY     -113.314302 DELTAE   -0.0445663
 ITERATION   4 PLS= 0.143E-02 0.000E+00 ENERGY     -113.343762 DELTAE   -0.0294608
 ITERATION   5 PLS= 0.167E-03 0.000E+00 ENERGY     -113.328747 DELTAE    0.0150156
 CYCLE:    50 TIME:   0.062 TIME LEFT:  2.00W  GRAD.:    12.206 HEAT: -113.3288
 ITERATION   1 PLS= 0.102E-03 0.000E+00 ENERGY     -113.297009 DELTAE -213.2970087
 ITERATION   2 PLS= 0.417E-02 0.000E+00 ENERGY     -113.401455 DELTAE   -0.1044465
 ITERATION   3 PLS= 0.230E-02 0.000E+00 ENERGY     -113.421628 DELTAE   -0.0201728
 ITERATION   4 PLS= 0.125E-02 0.000E+00 ENERGY     -113.434165 DELTAE   -0.0125364
 CYCLE:    51 TIME:   0.062 TIME LEFT:  2.00W  GRAD.:     9.251 HEAT: -113.4275
 ITERATION   1 PLS= 0.993E-04 0.000E+00 ENERGY     -113.417096 DELTAE -213.4170957
 ITERATION   2 PLS= 0.389E-02 0.000E+00 ENERGY     -113.503035 DELTAE   -0.0859390
 ITERATION   3 PLS= 0.184E-02 0.000E+00 ENERGY     -113.519251 DELTAE   -0.0162162
 ITERATION   4 PLS= 0.888E-03 0.000E+00 ENERGY     -113.528980 DELTAE   -0.0097294
 CYCLE:    52 TIME:   0.059 TIME LEFT:  2.00W  GRAD.:     9.818 HEAT: -113.5240
 ITERATION   1 PLS= 0.828E-04 0.000E+00 ENERGY     -112.988368 DELTAE -212.9883682
 ITERATION   2 PLS= 0.796E-02 0.000E+00 ENERGY     -113.555632 DELTAE   -0.5672637
 ITERATION   3 PLS= 0.375E-02 0.000E+00 ENERGY     -113.662445 DELTAE   -0.1068133
 ITERATION   4 PLS= 0.182E-02 0.000E+00 ENERGY     -113.723755 DELTAE   -0.0613094
 ITERATION   5 PLS= 0.130E-03 0.000E+00 ENERGY     -113.692238 DELTAE    0.0315162
 CYCLE:    53 TIME:   0.082 TIME LEFT:  2.00W  GRAD.:    14.761 HEAT: -113.6924
 ITERATION   1 PLS= 0.887E-04 0.000E+00 ENERGY     -112.852290 DELTAE -212.8522905
 ITERATION   2 PLS= 0.738E-02 0.000E+00 ENERGY     -113.684054 DELTAE   -0.8317634
 ITERATION   3 PLS= 0.368E-02 0.000E+00 ENERGY     -113.843277 DELTAE   -0.1592227
 ITERATION   4 PLS= 0.186E-02 0.000E+00 ENERGY     -113.933910 DELTAE   -0.0906336
 ITERATION   5 PLS= 0.116E-03 0.000E+00 ENERGY     -113.887361 DELTAE    0.0465491
 CYCLE:    54 TIME:   0.062 TIME LEFT:  2.00W  GRAD.:    17.118 HEAT: -113.8875
 ITERATION   1 PLS= 0.666E-04 0.000E+00 ENERGY     -112.628613 DELTAE -212.6286130
 ITERATION   2 PLS= 0.819E-02 0.000E+00 ENERGY     -113.809768 DELTAE   -1.1811548
 ITERATION   3 PLS= 0.419E-02 0.000E+00 ENERGY     -114.037581 DELTAE   -0.2278128
 ITERATION   4 PLS= 0.214E-02 0.000E+00 ENERGY     -114.167900 DELTAE   -0.1303195
 ITERATION   5 PLS= 0.135E-03 0.000E+00 ENERGY     -114.101348 DELTAE    0.0665517
 CYCLE:    55 TIME:   0.066 TIME LEFT:  2.00W  GRAD.:    24.727 HEAT: -114.1015
 ITERATION   1 PLS= 0.781E-04 0.000E+00 ENERGY     -111.806746 DELTAE -211.8067460
 ITERATION   2 PLS= 0.740E-02 0.000E+00 ENERGY     -113.409938 DELTAE   -1.6031921
 ITERATION   3 PLS= 0.366E-02 0.000E+00 ENERGY     -113.716925 DELTAE   -0.3069871
 ITERATION   4 PLS= 0.191E-02 0.000E+00 ENERGY     -113.892022 DELTAE   -0.1750964
 ITERATION   5 PLS= 0.176E-03 0.000E+00 ENERGY     -113.802024 DELTAE    0.0899976
 CYCLE:    56 TIME:   0.062 TIME LEFT:  2.00W  GRAD.:    37.863 HEAT: -113.8023
 ITERATION   1 PLS= 0.106E-03 0.000E+00 ENERGY     -110.017996 DELTAE -210.0179957
 ITERATION   2 PLS= 0.131E-01 0.000E+00 ENERGY     -113.245803 DELTAE   -3.2278076
 ITERATION   3 PLS= 0.732E-02 0.000E+00 ENERGY     -113.893111 DELTAE   -0.6473080
 ITERATION   4 PLS= 0.399E-02 0.000E+00 ENERGY     -114.310440 DELTAE   -0.4173286
 ITERATION   5 PLS= 0.290E-03 0.000E+00 ENERGY     -114.085436 DELTAE    0.2250035
 ITERATION   6 PLS= 0.222E-03 0.000E+00 ENERGY     -114.086309 DELTAE   -0.0008723
 CYCLE:    57 TIME:   0.070 TIME LEFT:  2.00W  GRAD.:    32.569 HEAT: -114.0886
 ITERATION   1 PLS= 0.180E-03 0.000E+00 ENERGY      -91.425694 DELTAE -191.4256941
 ITERATION   2 PLS= 0.249E-01 0.000E+00 ENERGY     -101.614975 DELTAE  -10.1892812
 ITERATION   3 PLS= 0.112E-01 0.000E+00 ENERGY     -103.363017 DELTAE   -1.7480413
 ITERATION   4 PLS= 0.566E-02 0.000E+00 ENERGY     -104.550127 DELTAE   -1.1871100
 ITERATION   5 PLS= 0.140E-02 0.000E+00 ENERGY     -103.909191 DELTAE    0.6409359
 ITERATION   6 PLS= 0.114E-02 0.000E+00 ENERGY     -103.918024 DELTAE   -0.0088338
 ITERATION   7 PLS= 0.913E-03 0.000E+00 ENERGY     -103.988193 DELTAE   -0.0701681
 ITERATION   8 PLS= 0.226E-03 0.000E+00 ENERGY     -103.930606 DELTAE    0.0575867
 CYCLE:    58 TIME:   0.078 TIME LEFT:  2.00W  GRAD.:   239.670 HEAT: -103.9309
 ITERATION   1 PLS= 0.147E-03 0.000E+00 ENERGY     -103.842782 DELTAE -203.8427820
 ITERATION   2 PLS= 0.296E-01 0.000E+00 ENERGY     -112.251335 DELTAE   -8.4085527
 ITERATION   3 PLS= 0.136E-01 0.000E+00 ENERGY     -113.627383 DELTAE   -1.3760483
 ITERATION   4 PLS= 0.634E-02 0.000E+00 ENERGY     -114.525117 DELTAE   -0.8977337
 ITERATION   5 PLS= 0.164E-02 0.000E+00 ENERGY     -114.062996 DELTAE    0.4621205
 ITERATION   6 PLS= 0.126E-02 0.000E+00 ENERGY     -114.071496 DELTAE   -0.0084995
 ITERATION   7 PLS= 0.101E-02 0.000E+00 ENERGY     -114.141382 DELTAE   -0.0698864
 ITERATION   8 PLS= 0.287E-03 0.000E+00 ENERGY     -114.084980 DELTAE    0.0564018
 CYCLE:    59 TIME:   0.078 TIME LEFT:  2.00W  GRAD.:    50.255 HEAT: -114.0852
 ITERATION   1 PLS= 0.137E-03 0.000E+00 ENERGY     -108.029917 DELTAE -208.0299170
 ITERATION   2 PLS= 0.144E-01 0.000E+00 ENERGY     -112.977288 DELTAE   -4.9473707
 ITERATION   3 PLS= 0.821E-02 0.000E+00 ENERGY     -113.905146 DELTAE   -0.9278586
 ITERATION   4 PLS= 0.440E-02 0.000E+00 ENERGY     -114.472328 DELTAE   -0.5671819
 ITERATION   5 PLS= 0.428E-03 0.000E+00 ENERGY     -114.161084 DELTAE    0.3112445
 ITERATION   6 PLS= 0.272E-03 0.000E+00 ENERGY     -114.162210 DELTAE   -0.0011260
 CYCLE:    60 TIME:   0.066 TIME LEFT:  2.00W  GRAD.:    33.028 HEAT: -114.1634
 ITERATION   1 PLS= 0.171E-03 0.000E+00 ENERGY     -111.860098 DELTAE -211.8600976
 ITERATION   2 PLS= 0.108E-01 0.000E+00 ENERGY     -114.250492 DELTAE   -2.3903941
 ITERATION   3 PLS= 0.511E-02 0.000E+00 ENERGY     -114.668484 DELTAE   -0.4179928
 ITERATION   4 PLS= 0.255E-02 0.000E+00 ENERGY     -114.896134 DELTAE   -0.2276497
 ITERATION   5 PLS= 0.453E-03 0.000E+00 ENERGY     -114.780423 DELTAE    0.1157113
 ITERATION   6 PLS= 0.248E-03 0.000E+00 ENERGY     -114.781186 DELTAE   -0.0007631
 CYCLE:    61 TIME:   0.070 TIME LEFT:  2.00W  GRAD.:    44.102 HEAT: -114.7833
 ITERATION   1 PLS= 0.174E-03 0.000E+00 ENERGY     -107.291754 DELTAE -207.2917537
 ITERATION   2 PLS= 0.147E-01 0.000E+00 ENERGY     -112.385665 DELTAE   -5.0939114
 ITERATION   3 PLS= 0.743E-02 0.000E+00 ENERGY     -113.340033 DELTAE   -0.9543676
 ITERATION   4 PLS= 0.370E-02 0.000E+00 ENERGY     -113.848412 DELTAE   -0.5083795
 ITERATION   5 PLS= 0.343E-03 0.000E+00 ENERGY     -113.603813 DELTAE    0.2445992
 ITERATION   6 PLS= 0.201E-03 0.000E+00 ENERGY     -113.604475 DELTAE   -0.0006624
 CYCLE:    62 TIME:   0.070 TIME LEFT:  2.00W  GRAD.:    40.777 HEAT: -113.6057
 ITERATION   1 PLS= 0.132E-03 0.000E+00 ENERGY     -110.700723 DELTAE -210.7007232
 ITERATION   2 PLS= 0.109E-01 0.000E+00 ENERGY     -114.287190 DELTAE   -3.5864672
 ITERATION   3 PLS= 0.496E-02 0.000E+00 ENERGY     -114.979045 DELTAE   -0.6918543
 ITERATION   4 PLS= 0.262E-02 0.000E+00 ENERGY     -115.385956 DELTAE   -0.4069111
 ITERATION   5 PLS= 0.245E-03 0.000E+00 ENERGY     -115.177570 DELTAE    0.2083855
 ITERATION   6 PLS= 0.184E-03 0.000E+00 ENERGY     -115.178279 DELTAE   -0.0007081
 CYCLE:    63 TIME:   0.078 TIME LEFT:  2.00W  GRAD.:    27.365 HEAT: -115.1804
 ITERATION   1 PLS= 0.154E-03 0.000E+00 ENERGY     -113.494364 DELTAE -213.4943644
 ITERATION   2 PLS= 0.550E-02 0.000E+00 ENERGY     -114.515261 DELTAE   -1.0208962
 ITERATION   3 PLS= 0.299E-02 0.000E+00 ENERGY     -114.688660 DELTAE   -0.1733989
 ITERATION   4 PLS= 0.159E-02 0.000E+00 ENERGY     -114.797123 DELTAE   -0.1084631
 ITERATION   5 PLS= 0.278E-03 0.000E+00 ENERGY     -114.738103 DELTAE    0.0590201
 CYCLE:    64 TIME:   0.066 TIME LEFT:  2.00W  GRAD.:    50.529 HEAT: -114.7386
 ITERATION   1 PLS= 0.212E-03 0.000E+00 ENERGY     -114.550323 DELTAE -214.5503231
 ITERATION   2 PLS= 0.509E-02 0.000E+00 ENERGY     -115.262653 DELTAE   -0.7123303
 ITERATION   3 PLS= 0.239E-02 0.000E+00 ENERGY     -115.386468 DELTAE   -0.1238148
 ITERATION   4 PLS= 0.117E-02 0.000E+00 ENERGY     -115.454375 DELTAE   -0.0679070
 ITERATION   5 PLS= 0.175E-03 0.000E+00 ENERGY     -115.419306 DELTAE    0.0350695
 CYCLE:    65 TIME:   0.066 TIME LEFT:  2.00W  GRAD.:    13.445 HEAT: -115.4195
 ITERATION   1 PLS= 0.109E-03 0.000E+00 ENERGY     -115.462728 DELTAE -215.4627281
 ITERATION   2 PLS= 0.207E-02 0.000E+00 ENERGY     -115.493657 DELTAE   -0.0309286
 ITERATION   3 PLS= 0.111E-02 0.000E+00 ENERGY     -115.499852 DELTAE   -0.0061953
 ITERATION   4 PLS= 0.604E-03 0.000E+00 ENERGY     -115.504278 DELTAE   -0.0044261
 CYCLE:    66 TIME:   0.059 TIME LEFT:  2.00W  GRAD.:     9.342 HEAT: -115.5019
 ITERATION   1 PLS= 0.502E-04 0.000E+00 ENERGY     -115.234432 DELTAE -215.2344320
 ITERATION   2 PLS= 0.845E-02 0.000E+00 ENERGY     -115.607950 DELTAE   -0.3735177
 ITERATION   3 PLS= 0.451E-02 0.000E+00 ENERGY     -115.687754 DELTAE   -0.0798046
 ITERATION   4 PLS= 0.245E-02 0.000E+00 ENERGY     -115.742457 DELTAE   -0.0547031
 ITERATION   5 PLS= 0.127E-03 0.000E+00 ENERGY     -115.713663 DELTAE    0.0287949
 CYCLE:    67 TIME:   0.066 TIME LEFT:  2.00W  GRAD.:    14.340 HEAT: -115.7137
 ITERATION   1 PLS= 0.824E-04 0.000E+00 ENERGY     -114.995473 DELTAE -214.9954731
 ITERATION   2 PLS= 0.109E-01 0.000E+00 ENERGY     -115.662717 DELTAE   -0.6672443
 ITERATION   3 PLS= 0.576E-02 0.000E+00 ENERGY     -115.815341 DELTAE   -0.1526239
 ITERATION   4 PLS= 0.307E-02 0.000E+00 ENERGY     -115.924998 DELTAE   -0.1096571
 ITERATION   5 PLS= 0.218E-03 0.000E+00 ENERGY     -115.868348 DELTAE    0.0566502
 CYCLE:    68 TIME:   0.066 TIME LEFT:  2.00W  GRAD.:    19.210 HEAT: -115.8685
 ITERATION   1 PLS= 0.106E-03 0.000E+00 ENERGY     -115.528513 DELTAE -215.5285134
 ITERATION   2 PLS= 0.753E-02 0.000E+00 ENERGY     -115.896745 DELTAE   -0.3682317
 ITERATION   3 PLS= 0.399E-02 0.000E+00 ENERGY     -115.975800 DELTAE   -0.0790549
 ITERATION   4 PLS= 0.213E-02 0.000E+00 ENERGY     -116.032827 DELTAE   -0.0570273
 ITERATION   5 PLS= 0.250E-03 0.000E+00 ENERGY     -116.003615 DELTAE    0.0292124
 CYCLE:    69 TIME:   0.062 TIME LEFT:  2.00W  GRAD.:    19.408 HEAT: -116.0039
 ITERATION   1 PLS= 0.201E-03 0.000E+00 ENERGY     -115.986873 DELTAE -215.9868729
 ITERATION   2 PLS= 0.270E-02 0.000E+00 ENERGY     -116.041093 DELTAE   -0.0542202
 ITERATION   3 PLS= 0.139E-02 0.000E+00 ENERGY     -116.051767 DELTAE   -0.0106742
 ITERATION   4 PLS= 0.728E-03 0.000E+00 ENERGY     -116.059047 DELTAE   -0.0072797
 CYCLE:    70 TIME:   0.062 TIME LEFT:  2.00W  GRAD.:     8.865 HEAT: -116.0554
 ITERATION   1 PLS= 0.981E-04 0.000E+00 ENERGY     -116.069394 DELTAE -216.0693942
 ITERATION   2 PLS= 0.113E-02 0.000E+00 ENERGY     -116.093084 DELTAE   -0.0236895
 ITERATION   3 PLS= 0.571E-03 0.000E+00 ENERGY     -116.097503 DELTAE   -0.0044189
 ITERATION   4 PLS= 0.290E-03 0.000E+00 ENERGY     -116.100531 DELTAE   -0.0030283
 CYCLE:    71 TIME:   0.062 TIME LEFT:  2.00W  GRAD.:     8.244 HEAT: -116.0989
 ITERATION   1 PLS= 0.865E-04 0.000E+00 ENERGY     -116.128210 DELTAE -216.1282098
 ITERATION   2 PLS= 0.290E-02 0.000E+00 ENERGY     -116.206526 DELTAE   -0.0783163
 ITERATION   3 PLS= 0.141E-02 0.000E+00 ENERGY     -116.222262 DELTAE   -0.0157362
 ITERATION   4 PLS= 0.703E-03 0.000E+00 ENERGY     -116.232948 DELTAE   -0.0106861
 CYCLE:    72 TIME:   0.062 TIME LEFT:  2.00W  GRAD.:    10.468 HEAT: -116.2275
 ITERATION   1 PLS= 0.132E-03 0.000E+00 ENERGY     -116.076321 DELTAE -216.0763212
 ITERATION   2 PLS= 0.403E-02 0.000E+00 ENERGY     -116.243089 DELTAE   -0.1667682
 ITERATION   3 PLS= 0.200E-02 0.000E+00 ENERGY     -116.276638 DELTAE   -0.0335487
 ITERATION   4 PLS= 0.101E-02 0.000E+00 ENERGY     -116.297770 DELTAE   -0.0211324
 ITERATION   5 PLS= 0.899E-04 0.000E+00 ENERGY     -116.287175 DELTAE    0.0105951
 CYCLE:    73 TIME:   0.062 TIME LEFT:  2.00W  GRAD.:    14.264 HEAT: -116.2872
 ITERATION   1 PLS= 0.628E-04 0.000E+00 ENERGY     -116.257653 DELTAE -216.2576530
 ITERATION   2 PLS= 0.271E-02 0.000E+00 ENERGY     -116.338906 DELTAE   -0.0812530
 ITERATION   3 PLS= 0.138E-02 0.000E+00 ENERGY     -116.354637 DELTAE   -0.0157311
 ITERATION   4 PLS= 0.724E-03 0.000E+00 ENERGY     -116.364667 DELTAE   -0.0100301
 CYCLE:    74 TIME:   0.062 TIME LEFT:  2.00W  GRAD.:     8.968 HEAT: -116.3595
 ITERATION   1 PLS= 0.682E-04 0.000E+00 ENERGY     -116.356003 DELTAE -216.3560033
 ITERATION   2 PLS= 0.121E-02 0.000E+00 ENERGY     -116.384130 DELTAE   -0.0281269
 ITERATION   3 PLS= 0.629E-03 0.000E+00 ENERGY     -116.389152 DELTAE   -0.0050214
 ITERATION   4 PLS= 0.330E-03 0.000E+00 ENERGY     -116.392061 DELTAE   -0.0029093
 CYCLE:    75 TIME:   0.070 TIME LEFT:  2.00W  GRAD.:     9.718 HEAT: -116.3906
 ITERATION   1 PLS= 0.392E-04 0.000E+00 ENERGY     -116.377460 DELTAE -216.3774597
 ITERATION   2 PLS= 0.163E-02 0.000E+00 ENERGY     -116.461132 DELTAE   -0.0836723
 ITERATION   3 PLS= 0.837E-03 0.000E+00 ENERGY     -116.476101 DELTAE   -0.0149690
 ITERATION   4 PLS= 0.429E-03 0.000E+00 ENERGY     -116.484238 DELTAE   -0.0081365
 CYCLE:    76 TIME:   0.062 TIME LEFT:  2.00W  GRAD.:    13.082 HEAT: -116.4801
 ITERATION   1 PLS= 0.620E-04 0.000E+00 ENERGY     -116.177207 DELTAE -216.1772067
 ITERATION   2 PLS= 0.369E-02 0.000E+00 ENERGY     -116.498191 DELTAE   -0.3209846
 ITERATION   3 PLS= 0.177E-02 0.000E+00 ENERGY     -116.557438 DELTAE   -0.0592463
 ITERATION   4 PLS= 0.858E-03 0.000E+00 ENERGY     -116.589942 DELTAE   -0.0325047
 ITERATION   5 PLS= 0.819E-04 0.000E+00 ENERGY     -116.573798 DELTAE    0.0161447
 CYCLE:    77 TIME:   0.066 TIME LEFT:  2.00W  GRAD.:    18.311 HEAT: -116.5738
 ITERATION   1 PLS= 0.476E-04 0.000E+00 ENERGY     -116.418037 DELTAE -216.4180366
 ITERATION   2 PLS= 0.293E-02 0.000E+00 ENERGY     -116.641994 DELTAE   -0.2239575
 ITERATION   3 PLS= 0.145E-02 0.000E+00 ENERGY     -116.682741 DELTAE   -0.0407466
 ITERATION   4 PLS= 0.718E-03 0.000E+00 ENERGY     -116.704480 DELTAE   -0.0217396
 ITERATION   5 PLS= 0.945E-04 0.000E+00 ENERGY     -116.693686 DELTAE    0.0107945
 CYCLE:    78 TIME:   0.062 TIME LEFT:  2.00W  GRAD.:    11.611 HEAT: -116.6937
 ITERATION   1 PLS= 0.658E-04 0.000E+00 ENERGY     -116.619374 DELTAE -216.6193740
 ITERATION   2 PLS= 0.361E-02 0.000E+00 ENERGY     -116.812464 DELTAE   -0.1930897
 ITERATION   3 PLS= 0.184E-02 0.000E+00 ENERGY     -116.848997 DELTAE   -0.0365332
 ITERATION   4 PLS= 0.952E-03 0.000E+00 ENERGY     -116.870338 DELTAE   -0.0213414
 ITERATION   5 PLS= 0.953E-04 0.000E+00 ENERGY     -116.859190 DELTAE    0.0111487
 CYCLE:    79 TIME:   0.066 TIME LEFT:  2.00W  GRAD.:    10.176 HEAT: -116.8592
 ITERATION   1 PLS= 0.678E-04 0.000E+00 ENERGY     -116.550378 DELTAE -216.5503784
 ITERATION   2 PLS= 0.458E-02 0.000E+00 ENERGY     -116.939637 DELTAE   -0.3892587
 ITERATION   3 PLS= 0.230E-02 0.000E+00 ENERGY     -117.010889 DELTAE   -0.0712521
 ITERATION   4 PLS= 0.118E-02 0.000E+00 ENERGY     -117.051021 DELTAE   -0.0401322
 ITERATION   5 PLS= 0.115E-03 0.000E+00 ENERGY     -117.029809 DELTAE    0.0212127
 CYCLE:    80 TIME:   0.062 TIME LEFT:  2.00W  GRAD.:    13.967 HEAT: -117.0299
 ITERATION   1 PLS= 0.795E-04 0.000E+00 ENERGY     -116.506809 DELTAE -216.5068088
 ITERATION   2 PLS= 0.592E-02 0.000E+00 ENERGY     -117.099364 DELTAE   -0.5925555
 ITERATION   3 PLS= 0.322E-02 0.000E+00 ENERGY     -117.208528 DELTAE   -0.1091639
 ITERATION   4 PLS= 0.176E-02 0.000E+00 ENERGY     -117.272288 DELTAE   -0.0637593
 ITERATION   5 PLS= 0.141E-03 0.000E+00 ENERGY     -117.237747 DELTAE    0.0345407
 CYCLE:    81 TIME:   0.066 TIME LEFT:  2.00W  GRAD.:    19.177 HEAT: -117.2379
 ITERATION   1 PLS= 0.785E-04 0.000E+00 ENERGY     -116.520024 DELTAE -216.5200238
 ITERATION   2 PLS= 0.670E-02 0.000E+00 ENERGY     -117.307052 DELTAE   -0.7870283
 ITERATION   3 PLS= 0.365E-02 0.000E+00 ENERGY     -117.452710 DELTAE   -0.1456574
 ITERATION   4 PLS= 0.199E-02 0.000E+00 ENERGY     -117.537113 DELTAE   -0.0844032
 ITERATION   5 PLS= 0.117E-03 0.000E+00 ENERGY     -117.491501 DELTAE    0.0456115
 CYCLE:    82 TIME:   0.066 TIME LEFT:  2.00W  GRAD.:    16.064 HEAT: -117.4917
 ITERATION   1 PLS= 0.736E-04 0.000E+00 ENERGY     -116.473456 DELTAE -216.4734565
 ITERATION   2 PLS= 0.644E-02 0.000E+00 ENERGY     -117.486575 DELTAE   -1.0131187
 ITERATION   3 PLS= 0.349E-02 0.000E+00 ENERGY     -117.672463 DELTAE   -0.1858874
 ITERATION   4 PLS= 0.190E-02 0.000E+00 ENERGY     -117.778519 DELTAE   -0.1060567
 ITERATION   5 PLS= 0.123E-03 0.000E+00 ENERGY     -117.721580 DELTAE    0.0569394
 CYCLE:    83 TIME:   0.066 TIME LEFT:  2.00W  GRAD.:    18.813 HEAT: -117.7218
 ITERATION   1 PLS= 0.771E-04 0.000E+00 ENERGY     -116.188838 DELTAE -216.1888383
 ITERATION   2 PLS= 0.773E-02 0.000E+00 ENERGY     -117.563591 DELTAE   -1.3747529
 ITERATION   3 PLS= 0.416E-02 0.000E+00 ENERGY     -117.817078 DELTAE   -0.2534868
 ITERATION   4 PLS= 0.225E-02 0.000E+00 ENERGY     -117.961971 DELTAE   -0.1448929
 ITERATION   5 PLS= 0.146E-03 0.000E+00 ENERGY     -117.884176 DELTAE    0.0777949
 CYCLE:    84 TIME:   0.062 TIME LEFT:  2.00W  GRAD.:    17.708 HEAT: -117.8844
 ITERATION   1 PLS= 0.945E-04 0.000E+00 ENERGY     -115.569171 DELTAE -215.5691710
 ITERATION   2 PLS= 0.103E-01 0.000E+00 ENERGY     -117.609550 DELTAE   -2.0403785
 ITERATION   3 PLS= 0.544E-02 0.000E+00 ENERGY     -117.992068 DELTAE   -0.3825187
 ITERATION   4 PLS= 0.292E-02 0.000E+00 ENERGY     -118.215378 DELTAE   -0.2233101
 ITERATION   5 PLS= 0.246E-03 0.000E+00 ENERGY     -118.096624 DELTAE    0.1187541
 ITERATION   6 PLS= 0.173E-03 0.000E+00 ENERGY     -118.097089 DELTAE   -0.0004649
 CYCLE:    85 TIME:   0.070 TIME LEFT:  2.00W  GRAD.:    19.243 HEAT: -118.0983
 ITERATION   1 PLS= 0.128E-03 0.000E+00 ENERGY     -115.844687 DELTAE -215.8446874
 ITERATION   2 PLS= 0.836E-02 0.000E+00 ENERGY     -117.222564 DELTAE   -1.3778763
 ITERATION   3 PLS= 0.428E-02 0.000E+00 ENERGY     -117.489722 DELTAE   -0.2671585
 ITERATION   4 PLS= 0.217E-02 0.000E+00 ENERGY     -117.682149 DELTAE   -0.1924268
 ITERATION   5 PLS= 0.485E-03 0.000E+00 ENERGY     -117.585394 DELTAE    0.0967546
 CYCLE:    86 TIME:   0.062 TIME LEFT:  2.00W  GRAD.:    51.830 HEAT: -117.5866
 ITERATION   1 PLS= 0.364E-03 0.000E+00 ENERGY     -117.453462 DELTAE -217.4534619
 ITERATION   2 PLS= 0.528E-02 0.000E+00 ENERGY     -118.185302 DELTAE   -0.7318401
 ITERATION   3 PLS= 0.253E-02 0.000E+00 ENERGY     -118.318040 DELTAE   -0.1327379
 ITERATION   4 PLS= 0.126E-02 0.000E+00 ENERGY     -118.401447 DELTAE   -0.0834072
 ITERATION   5 PLS= 0.306E-03 0.000E+00 ENERGY     -118.363452 DELTAE    0.0379952
 CYCLE:    87 TIME:   0.062 TIME LEFT:  2.00W  GRAD.:    12.258 HEAT: -118.3641
 ITERATION   1 PLS= 0.224E-03 0.000E+00 ENERGY     -118.090781 DELTAE -218.0907807
 ITERATION   2 PLS= 0.250E-02 0.000E+00 ENERGY     -118.295848 DELTAE   -0.2050669
 ITERATION   3 PLS= 0.155E-02 0.000E+00 ENERGY     -118.330498 DELTAE   -0.0346499
 ITERATION   4 PLS= 0.900E-03 0.000E+00 ENERGY     -118.349732 DELTAE   -0.0192345
 CYCLE:    88 TIME:   0.062 TIME LEFT:  2.00W  GRAD.:    17.419 HEAT: -118.3398
 ITERATION   1 PLS= 0.120E-03 0.000E+00 ENERGY     -118.045297 DELTAE -218.0452975
 ITERATION   2 PLS= 0.366E-02 0.000E+00 ENERGY     -118.370454 DELTAE   -0.3251568
 ITERATION   3 PLS= 0.187E-02 0.000E+00 ENERGY     -118.427261 DELTAE   -0.0568066
 ITERATION   4 PLS= 0.929E-03 0.000E+00 ENERGY     -118.457058 DELTAE   -0.0297970
 ITERATION   5 PLS= 0.130E-03 0.000E+00 ENERGY     -118.441873 DELTAE    0.0151848
 CYCLE:    89 TIME:   0.062 TIME LEFT:  2.00W  GRAD.:     7.813 HEAT: -118.4419
 ITERATION   1 PLS= 0.871E-04 0.000E+00 ENERGY     -118.025256 DELTAE -218.0252563
 ITERATION   2 PLS= 0.419E-02 0.000E+00 ENERGY     -118.370240 DELTAE   -0.3449836
 ITERATION   3 PLS= 0.217E-02 0.000E+00 ENERGY     -118.435704 DELTAE   -0.0654645
 ITERATION   4 PLS= 0.115E-02 0.000E+00 ENERGY     -118.473943 DELTAE   -0.0382386
 ITERATION   5 PLS= 0.711E-04 0.000E+00 ENERGY     -118.453789 DELTAE    0.0201535
 CYCLE:    90 TIME:   0.078 TIME LEFT:  2.00W  GRAD.:     9.059 HEAT: -118.4539
 ITERATION   1 PLS= 0.504E-04 0.000E+00 ENERGY     -118.478522 DELTAE -218.4785220
 ITERATION   2 PLS= 0.999E-03 0.000E+00 ENERGY     -118.516556 DELTAE   -0.0380337
 ITERATION   3 PLS= 0.452E-03 0.000E+00 ENERGY     -118.524028 DELTAE   -0.0074724
 ITERATION   4 PLS= 0.212E-03 0.000E+00 ENERGY     -118.528847 DELTAE   -0.0048188
 CYCLE:    91 TIME:   0.059 TIME LEFT:  2.00W  GRAD.:     8.355 HEAT: -118.5264
 ITERATION   1 PLS= 0.503E-04 0.000E+00 ENERGY     -118.125515 DELTAE -218.1255151
 ITERATION   2 PLS= 0.506E-02 0.000E+00 ENERGY     -118.524637 DELTAE   -0.3991214
 ITERATION   3 PLS= 0.285E-02 0.000E+00 ENERGY     -118.602366 DELTAE   -0.0777291
 ITERATION   4 PLS= 0.158E-02 0.000E+00 ENERGY     -118.650068 DELTAE   -0.0477020
 ITERATION   5 PLS= 0.126E-03 0.000E+00 ENERGY     -118.624700 DELTAE    0.0253673
 CYCLE:    92 TIME:   0.062 TIME LEFT:  2.00W  GRAD.:    10.997 HEAT: -118.6248
 ITERATION   1 PLS= 0.776E-04 0.000E+00 ENERGY     -118.611660 DELTAE -218.6116601
 ITERATION   2 PLS= 0.794E-03 0.000E+00 ENERGY     -118.659457 DELTAE   -0.0477971
 ITERATION   3 PLS= 0.417E-03 0.000E+00 ENERGY     -118.667451 DELTAE   -0.0079942
 ITERATION   4 PLS= 0.219E-03 0.000E+00 ENERGY     -118.672642 DELTAE   -0.0051910
 CYCLE:    93 TIME:   0.062 TIME LEFT:  2.00W  GRAD.:    10.621 HEAT: -118.6698
 ITERATION   1 PLS= 0.113E-03 0.000E+00 ENERGY     -118.699163 DELTAE -218.6991630
 ITERATION   2 PLS= 0.415E-03 0.000E+00 ENERGY     -118.708450 DELTAE   -0.0092873
 ITERATION   3 PLS= 0.205E-03 0.000E+00 ENERGY     -118.709997 DELTAE   -0.0015470
 ITERATION   4 PLS= 0.104E-03 0.000E+00 ENERGY     -118.710884 DELTAE   -0.0008866
 CYCLE:    94 TIME:   0.062 TIME LEFT:  2.00W  GRAD.:     7.053 HEAT: -118.7104
 ITERATION   1 PLS= 0.188E-04 0.000E+00 ENERGY     -118.662043 DELTAE -218.6620427
 ITERATION   2 PLS= 0.170E-02 0.000E+00 ENERGY     -118.752509 DELTAE   -0.0904666
 ITERATION   3 PLS= 0.907E-03 0.000E+00 ENERGY     -118.768871 DELTAE   -0.0163619
 ITERATION   4 PLS= 0.459E-03 0.000E+00 ENERGY     -118.778009 DELTAE   -0.0091376
 CYCLE:    95 TIME:   0.059 TIME LEFT:  2.00W  GRAD.:     7.047 HEAT: -118.7734
 ITERATION   1 PLS= 0.883E-04 0.000E+00 ENERGY     -118.717554 DELTAE -218.7175545
 ITERATION   2 PLS= 0.175E-02 0.000E+00 ENERGY     -118.800150 DELTAE   -0.0825952
 ITERATION   3 PLS= 0.884E-03 0.000E+00 ENERGY     -118.815357 DELTAE   -0.0152077
 ITERATION   4 PLS= 0.446E-03 0.000E+00 ENERGY     -118.823595 DELTAE   -0.0082380
 CYCLE:    96 TIME:   0.059 TIME LEFT:  2.00W  GRAD.:     7.998 HEAT: -118.8195
 ITERATION   1 PLS= 0.611E-04 0.000E+00 ENERGY     -118.634091 DELTAE -218.6340910
 ITERATION   2 PLS= 0.376E-02 0.000E+00 ENERGY     -118.848735 DELTAE   -0.2146436
 ITERATION   3 PLS= 0.144E-02 0.000E+00 ENERGY     -118.891003 DELTAE   -0.0422680
 ITERATION   4 PLS= 0.650E-03 0.000E+00 ENERGY     -118.913999 DELTAE   -0.0229967
 ITERATION   5 PLS= 0.160E-03 0.000E+00 ENERGY     -118.903308 DELTAE    0.0106913
 CYCLE:    97 TIME:   0.066 TIME LEFT:  2.00W  GRAD.:     9.839 HEAT: -118.9034
 ITERATION   1 PLS= 0.844E-04 0.000E+00 ENERGY     -118.635666 DELTAE -218.6356662
 ITERATION   2 PLS= 0.309E-02 0.000E+00 ENERGY     -118.892517 DELTAE   -0.2568505
 ITERATION   3 PLS= 0.136E-02 0.000E+00 ENERGY     -118.940111 DELTAE   -0.0475939
 ITERATION   4 PLS= 0.722E-03 0.000E+00 ENERGY     -118.965413 DELTAE   -0.0253024
 ITERATION   5 PLS= 0.100E-03 0.000E+00 ENERGY     -118.953343 DELTAE    0.0120705
 CYCLE:    98 TIME:   0.066 TIME LEFT:  2.00W  GRAD.:    11.034 HEAT: -118.9534
 ITERATION   1 PLS= 0.662E-04 0.000E+00 ENERGY     -118.651296 DELTAE -218.6512959
 ITERATION   2 PLS= 0.335E-02 0.000E+00 ENERGY     -118.938069 DELTAE   -0.2867733
 ITERATION   3 PLS= 0.148E-02 0.000E+00 ENERGY     -118.992644 DELTAE   -0.0545752
 ITERATION   4 PLS= 0.767E-03 0.000E+00 ENERGY     -119.022112 DELTAE   -0.0294680
 ITERATION   5 PLS= 0.170E-03 0.000E+00 ENERGY     -119.008062 DELTAE    0.0140500
 CYCLE:    99 TIME:   0.082 TIME LEFT:  2.00W  GRAD.:     9.635 HEAT: -119.0081
 ITERATION   1 PLS= 0.868E-04 0.000E+00 ENERGY     -118.937702 DELTAE -218.9377016
 ITERATION   2 PLS= 0.325E-02 0.000E+00 ENERGY     -119.080398 DELTAE   -0.1426960
 ITERATION   3 PLS= 0.163E-02 0.000E+00 ENERGY     -119.108805 DELTAE   -0.0284070
 ITERATION   4 PLS= 0.847E-03 0.000E+00 ENERGY     -119.126179 DELTAE   -0.0173742
 CYCLE:   100 TIME:   0.062 TIME LEFT:  2.00W  GRAD.:    12.959 HEAT: -119.1175
 ITERATION   1 PLS= 0.117E-03 0.000E+00 ENERGY     -119.112934 DELTAE -219.1129343
 ITERATION   2 PLS= 0.200E-02 0.000E+00 ENERGY     -119.160829 DELTAE   -0.0478949
 ITERATION   3 PLS= 0.998E-03 0.000E+00 ENERGY     -119.169839 DELTAE   -0.0090101
 ITERATION   4 PLS= 0.517E-03 0.000E+00 ENERGY     -119.175425 DELTAE   -0.0055857
 CYCLE:   101 TIME:   0.062 TIME LEFT:  2.00W  GRAD.:     7.044 HEAT: -119.1726
 ITERATION   1 PLS= 0.589E-04 0.000E+00 ENERGY     -119.201251 DELTAE -219.2012508
 ITERATION   2 PLS= 0.463E-03 0.000E+00 ENERGY     -119.210020 DELTAE   -0.0087694
 ITERATION   3 PLS= 0.232E-03 0.000E+00 ENERGY     -119.211546 DELTAE   -0.0015259
 ITERATION   4 PLS= 0.135E-03 0.000E+00 ENERGY     -119.212517 DELTAE   -0.0009712
 CYCLE:   102 TIME:   0.059 TIME LEFT:  2.00W  GRAD.:     5.939 HEAT: -119.2120
 ITERATION   1 PLS= 0.222E-04 0.000E+00 ENERGY     -119.171137 DELTAE -219.1711371
 ITERATION   2 PLS= 0.101E-02 0.000E+00 ENERGY     -119.252610 DELTAE   -0.0814725
 ITERATION   3 PLS= 0.488E-03 0.000E+00 ENERGY     -119.266924 DELTAE   -0.0143145
 ITERATION   4 PLS= 0.252E-03 0.000E+00 ENERGY     -119.275866 DELTAE   -0.0089417
 CYCLE:   103 TIME:   0.062 TIME LEFT:  2.00W  GRAD.:     7.512 HEAT: -119.2709
 ITERATION   1 PLS= 0.733E-04 0.000E+00 ENERGY     -119.154445 DELTAE -219.1544450
 ITERATION   2 PLS= 0.158E-02 0.000E+00 ENERGY     -119.288963 DELTAE   -0.1345176
 ITERATION   3 PLS= 0.680E-03 0.000E+00 ENERGY     -119.312223 DELTAE   -0.0232607
 ITERATION   4 PLS= 0.382E-03 0.000E+00 ENERGY     -119.325512 DELTAE   -0.0132886
 CYCLE:   104 TIME:   0.059 TIME LEFT:  2.00W  GRAD.:    12.078 HEAT: -119.3186
 ITERATION   1 PLS= 0.101E-03 0.000E+00 ENERGY     -119.331008 DELTAE -219.3310085
 ITERATION   2 PLS= 0.576E-03 0.000E+00 ENERGY     -119.351518 DELTAE   -0.0205092
 ITERATION   3 PLS= 0.318E-03 0.000E+00 ENERGY     -119.355031 DELTAE   -0.0035138
 ITERATION   4 PLS= 0.168E-03 0.000E+00 ENERGY     -119.357040 DELTAE   -0.0020090
 CYCLE:   105 TIME:   0.062 TIME LEFT:  2.00W  GRAD.:     6.253 HEAT: -119.3560
 ITERATION   1 PLS= 0.374E-04 0.000E+00 ENERGY     -119.356984 DELTAE -219.3569842
 ITERATION   2 PLS= 0.676E-03 0.000E+00 ENERGY     -119.380247 DELTAE   -0.0232626
 ITERATION   3 PLS= 0.318E-03 0.000E+00 ENERGY     -119.384398 DELTAE   -0.0041513
 ITERATION   4 PLS= 0.163E-03 0.000E+00 ENERGY     -119.386838 DELTAE   -0.0024395
 CYCLE:   106 TIME:   0.074 TIME LEFT:  2.00W  GRAD.:     5.710 HEAT: -119.3856
 ITERATION   1 PLS= 0.406E-04 0.000E+00 ENERGY     -119.355029 DELTAE -219.3550293
 ITERATION   2 PLS= 0.950E-03 0.000E+00 ENERGY     -119.405110 DELTAE   -0.0500811
 ITERATION   3 PLS= 0.539E-03 0.000E+00 ENERGY     -119.414016 DELTAE   -0.0089058
 ITERATION   4 PLS= 0.285E-03 0.000E+00 ENERGY     -119.418943 DELTAE   -0.0049267
 CYCLE:   107 TIME:   0.059 TIME LEFT:  2.00W  GRAD.:     6.470 HEAT: -119.4164
 ITERATION   1 PLS= 0.443E-04 0.000E+00 ENERGY     -119.049179 DELTAE -219.0491791
 ITERATION   2 PLS= 0.228E-02 0.000E+00 ENERGY     -119.345451 DELTAE   -0.2962722
 ITERATION   3 PLS= 0.120E-02 0.000E+00 ENERGY     -119.398201 DELTAE   -0.0527496
 ITERATION   4 PLS= 0.653E-03 0.000E+00 ENERGY     -119.431656 DELTAE   -0.0334550
 ITERATION   5 PLS= 0.156E-03 0.000E+00 ENERGY     -119.412992 DELTAE    0.0186639
 CYCLE:   108 TIME:   0.066 TIME LEFT:  2.00W  GRAD.:    16.169 HEAT: -119.4131
 ITERATION   1 PLS= 0.115E-03 0.000E+00 ENERGY     -119.435532 DELTAE -219.4355322
 ITERATION   2 PLS= 0.793E-03 0.000E+00 ENERGY     -119.465790 DELTAE   -0.0302581
 ITERATION   3 PLS= 0.367E-03 0.000E+00 ENERGY     -119.470944 DELTAE   -0.0051537
 ITERATION   4 PLS= 0.190E-03 0.000E+00 ENERGY     -119.475098 DELTAE   -0.0041539
 CYCLE:   109 TIME:   0.059 TIME LEFT:  2.00W  GRAD.:     5.339 HEAT: -119.4728
 ITERATION   1 PLS= 0.115E-03 0.000E+00 ENERGY     -119.474668 DELTAE -219.4746682
 ITERATION   2 PLS= 0.449E-03 0.000E+00 ENERGY     -119.483880 DELTAE   -0.0092117
 ITERATION   3 PLS= 0.183E-03 0.000E+00 ENERGY     -119.485645 DELTAE   -0.0017645
 ITERATION   4 PLS= 0.939E-04 0.000E+00 ENERGY     -119.486736 DELTAE   -0.0010915
 CYCLE:   110 TIME:   0.062 TIME LEFT:  2.00W  GRAD.:     3.892 HEAT: -119.4862
 ITERATION   1 PLS= 0.484E-04 0.000E+00 ENERGY     -119.463104 DELTAE -219.4631044
 ITERATION   2 PLS= 0.964E-03 0.000E+00 ENERGY     -119.490167 DELTAE   -0.0270630
 ITERATION   3 PLS= 0.322E-03 0.000E+00 ENERGY     -119.495624 DELTAE   -0.0054565
 ITERATION   4 PLS= 0.185E-03 0.000E+00 ENERGY     -119.498749 DELTAE   -0.0031250
 CYCLE:   111 TIME:   0.059 TIME LEFT:  2.00W  GRAD.:     4.093 HEAT: -119.4973
 ITERATION   1 PLS= 0.809E-04 0.000E+00 ENERGY     -119.436891 DELTAE -219.4368910
 ITERATION   2 PLS= 0.817E-03 0.000E+00 ENERGY     -119.489705 DELTAE   -0.0528140
 ITERATION   3 PLS= 0.436E-03 0.000E+00 ENERGY     -119.500390 DELTAE   -0.0106846
 ITERATION   4 PLS= 0.284E-03 0.000E+00 ENERGY     -119.507843 DELTAE   -0.0074536
 CYCLE:   112 TIME:   0.062 TIME LEFT:  2.00W  GRAD.:     7.302 HEAT: -119.5040
 ITERATION   1 PLS= 0.784E-04 0.000E+00 ENERGY     -119.197903 DELTAE -219.1979033
 ITERATION   2 PLS= 0.200E-02 0.000E+00 ENERGY     -119.461381 DELTAE   -0.2634779
 ITERATION   3 PLS= 0.945E-03 0.000E+00 ENERGY     -119.514970 DELTAE   -0.0535892
 ITERATION   4 PLS= 0.576E-03 0.000E+00 ENERGY     -119.549220 DELTAE   -0.0342496
 ITERATION   5 PLS= 0.183E-03 0.000E+00 ENERGY     -119.531337 DELTAE    0.0178831
 CYCLE:   113 TIME:   0.066 TIME LEFT:  2.00W  GRAD.:     8.766 HEAT: -119.5314
 ITERATION   1 PLS= 0.798E-04 0.000E+00 ENERGY     -119.480958 DELTAE -219.4809576
 ITERATION   2 PLS= 0.130E-02 0.000E+00 ENERGY     -119.529163 DELTAE   -0.0482055
 ITERATION   3 PLS= 0.605E-03 0.000E+00 ENERGY     -119.538381 DELTAE   -0.0092175
 ITERATION   4 PLS= 0.329E-03 0.000E+00 ENERGY     -119.546850 DELTAE   -0.0084693
 CYCLE:   114 TIME:   0.062 TIME LEFT:  2.00W  GRAD.:     9.844 HEAT: -119.5429
 ITERATION   1 PLS= 0.144E-03 0.000E+00 ENERGY     -119.541405 DELTAE -219.5414054
 ITERATION   2 PLS= 0.503E-03 0.000E+00 ENERGY     -119.555894 DELTAE   -0.0144890
 ITERATION   3 PLS= 0.195E-03 0.000E+00 ENERGY     -119.558056 DELTAE   -0.0021616
 ITERATION   4 PLS= 0.113E-03 0.000E+00 ENERGY     -119.559475 DELTAE   -0.0014187
 CYCLE:   115 TIME:   0.059 TIME LEFT:  2.00W  GRAD.:     3.630 HEAT: -119.5588
 ITERATION   1 PLS= 0.651E-04 0.000E+00 ENERGY     -119.556193 DELTAE -219.5561927
 ITERATION   2 PLS= 0.210E-03 0.000E+00 ENERGY     -119.559890 DELTAE   -0.0036976
 ITERATION   3 PLS= 0.129E-03 0.000E+00 ENERGY     -119.560653 DELTAE   -0.0007624
 ITERATION   4 PLS= 0.786E-04 0.000E+00 ENERGY     -119.561154 DELTAE   -0.0005010
 CYCLE:   116 TIME:   0.062 TIME LEFT:  2.00W  GRAD.:     2.225 HEAT: -119.5609
 ITERATION   1 PLS= 0.314E-04 0.000E+00 ENERGY     -119.569222 DELTAE -219.5692216
 ITERATION   2 PLS= 0.278E-03 0.000E+00 ENERGY     -119.576683 DELTAE   -0.0074619
 ITERATION   3 PLS= 0.195E-03 0.000E+00 ENERGY     -119.578308 DELTAE   -0.0016245
 ITERATION   4 PLS= 0.119E-03 0.000E+00 ENERGY     -119.579509 DELTAE   -0.0012012
 CYCLE:   117 TIME:   0.059 TIME LEFT:  2.00W  GRAD.:     2.088 HEAT: -119.5788
 ITERATION   1 PLS= 0.505E-04 0.000E+00 ENERGY     -119.557691 DELTAE -219.5576909
 ITERATION   2 PLS= 0.404E-03 0.000E+00 ENERGY     -119.571713 DELTAE   -0.0140223
 ITERATION   3 PLS= 0.262E-03 0.000E+00 ENERGY     -119.574823 DELTAE   -0.0031097
 ITERATION   4 PLS= 0.154E-03 0.000E+00 ENERGY     -119.577204 DELTAE   -0.0023806
 ITERATION   5 PLS= 0.725E-04 0.000E+00 ENERGY     -119.575884 DELTAE    0.0013195
 CYCLE:   118 TIME:   0.066 TIME LEFT:  2.00W  GRAD.:     2.404 HEAT: -119.5759
 ITERATION   1 PLS= 0.361E-04 0.000E+00 ENERGY     -119.545562 DELTAE -219.5455623
 ITERATION   2 PLS= 0.578E-03 0.000E+00 ENERGY     -119.569701 DELTAE   -0.0241385
 ITERATION   3 PLS= 0.321E-03 0.000E+00 ENERGY     -119.574503 DELTAE   -0.0048019
 ITERATION   4 PLS= 0.207E-03 0.000E+00 ENERGY     -119.578133 DELTAE   -0.0036307
 ITERATION   5 PLS= 0.609E-04 0.000E+00 ENERGY     -119.576098 DELTAE    0.0020350
 CYCLE:   119 TIME:   0.066 TIME LEFT:  2.00W  GRAD.:     7.162 HEAT: -119.5761
 ITERATION   1 PLS= 0.487E-04 0.000E+00 ENERGY     -119.580278 DELTAE -219.5802777
 ITERATION   2 PLS= 0.286E-03 0.000E+00 ENERGY     -119.583818 DELTAE   -0.0035405
 ITERATION   3 PLS= 0.119E-03 0.000E+00 ENERGY     -119.584326 DELTAE   -0.0005075
 ITERATION   4 PLS= 0.738E-04 0.000E+00 ENERGY     -119.584621 DELTAE   -0.0002957
 CYCLE:   120 TIME:   0.059 TIME LEFT:  2.00W  GRAD.:     1.742 HEAT: -119.5845
 ITERATION   1 PLS= 0.295E-04 0.000E+00 ENERGY     -119.585605 DELTAE -219.5856045
 ITERATION   2 PLS= 0.101E-03 0.000E+00 ENERGY     -119.586114 DELTAE   -0.0005096
 ITERATION   3 PLS= 0.522E-04 0.000E+00 ENERGY     -119.586214 DELTAE   -0.0001000
 ITERATION   4 PLS= 0.280E-04 0.000E+00 ENERGY     -119.586310 DELTAE   -0.0000957
 CYCLE:   121 TIME:   0.062 TIME LEFT:  2.00W  GRAD.:     1.320 HEAT: -119.5863
 ITERATION   1 PLS= 0.151E-04 0.000E+00 ENERGY     -119.589829 DELTAE -219.5898289
 ITERATION   2 PLS= 0.343E-03 0.000E+00 ENERGY     -119.592003 DELTAE   -0.0021742
 ITERATION   3 PLS= 0.172E-03 0.000E+00 ENERGY     -119.592403 DELTAE   -0.0004000
 ITERATION   4 PLS= 0.868E-04 0.000E+00 ENERGY     -119.592652 DELTAE   -0.0002491
 CYCLE:   122 TIME:   0.082 TIME LEFT:  2.00W  GRAD.:     1.818 HEAT: -119.5925
 ITERATION   1 PLS= 0.195E-04 0.000E+00 ENERGY     -119.583327 DELTAE -219.5833274
 ITERATION   2 PLS= 0.467E-03 0.000E+00 ENERGY     -119.588889 DELTAE   -0.0055615
 ITERATION   3 PLS= 0.228E-03 0.000E+00 ENERGY     -119.589987 DELTAE   -0.0010981
 ITERATION   4 PLS= 0.112E-03 0.000E+00 ENERGY     -119.590641 DELTAE   -0.0006545
 CYCLE:   123 TIME:   0.062 TIME LEFT:  2.00W  GRAD.:     2.292 HEAT: -119.5903
 ITERATION   1 PLS= 0.145E-04 0.000E+00 ENERGY     -119.565122 DELTAE -219.5651220
 ITERATION   2 PLS= 0.854E-03 0.000E+00 ENERGY     -119.583807 DELTAE   -0.0186849
 ITERATION   3 PLS= 0.414E-03 0.000E+00 ENERGY     -119.587451 DELTAE   -0.0036439
 ITERATION   4 PLS= 0.202E-03 0.000E+00 ENERGY     -119.589693 DELTAE   -0.0022422
 CYCLE:   124 TIME:   0.059 TIME LEFT:  2.00W  GRAD.:     3.472 HEAT: -119.5885
 ITERATION   1 PLS= 0.432E-04 0.000E+00 ENERGY     -119.581506 DELTAE -219.5815057
 ITERATION   2 PLS= 0.727E-03 0.000E+00 ENERGY     -119.593069 DELTAE   -0.0115630
 ITERATION   3 PLS= 0.347E-03 0.000E+00 ENERGY     -119.595322 DELTAE   -0.0022533
 ITERATION   4 PLS= 0.167E-03 0.000E+00 ENERGY     -119.596632 DELTAE   -0.0013098
 CYCLE:   125 TIME:   0.062 TIME LEFT:  2.00W  GRAD.:     2.408 HEAT: -119.5960
 ITERATION   1 PLS= 0.258E-04 0.000E+00 ENERGY     -119.584645 DELTAE -219.5846446
 ITERATION   2 PLS= 0.577E-03 0.000E+00 ENERGY     -119.594468 DELTAE   -0.0098231
 ITERATION   3 PLS= 0.289E-03 0.000E+00 ENERGY     -119.596412 DELTAE   -0.0019442
 ITERATION   4 PLS= 0.149E-03 0.000E+00 ENERGY     -119.597648 DELTAE   -0.0012360
 CYCLE:   126 TIME:   0.059 TIME LEFT:  2.00W  GRAD.:     2.586 HEAT: -119.5970
 ITERATION   1 PLS= 0.312E-04 0.000E+00 ENERGY     -119.577081 DELTAE -219.5770811
 ITERATION   2 PLS= 0.955E-03 0.000E+00 ENERGY     -119.600688 DELTAE   -0.0236066
 ITERATION   3 PLS= 0.497E-03 0.000E+00 ENERGY     -119.605350 DELTAE   -0.0046626
 ITERATION   4 PLS= 0.260E-03 0.000E+00 ENERGY     -119.608149 DELTAE   -0.0027990
 CYCLE:   127 TIME:   0.062 TIME LEFT:  2.00W  GRAD.:     3.617 HEAT: -119.6067
 ITERATION   1 PLS= 0.273E-04 0.000E+00 ENERGY     -119.575266 DELTAE -219.5752663
 ITERATION   2 PLS= 0.130E-02 0.000E+00 ENERGY     -119.610482 DELTAE   -0.0352154
 ITERATION   3 PLS= 0.659E-03 0.000E+00 ENERGY     -119.617246 DELTAE   -0.0067642
 ITERATION   4 PLS= 0.339E-03 0.000E+00 ENERGY     -119.621324 DELTAE   -0.0040784
 CYCLE:   128 TIME:   0.062 TIME LEFT:  2.00W  GRAD.:     5.196 HEAT: -119.6192
 ITERATION   1 PLS= 0.433E-04 0.000E+00 ENERGY     -119.621704 DELTAE -219.6217043
 ITERATION   2 PLS= 0.337E-03 0.000E+00 ENERGY     -119.624986 DELTAE   -0.0032815
 ITERATION   3 PLS= 0.171E-03 0.000E+00 ENERGY     -119.625629 DELTAE   -0.0006430
 ITERATION   4 PLS= 0.888E-04 0.000E+00 ENERGY     -119.626030 DELTAE   -0.0004013
 CYCLE:   129 TIME:   0.059 TIME LEFT:  2.00W  GRAD.:     2.990 HEAT: -119.6258
 ITERATION   1 PLS= 0.253E-04 0.000E+00 ENERGY     -119.612912 DELTAE -219.6129115
 ITERATION   2 PLS= 0.761E-03 0.000E+00 ENERGY     -119.629040 DELTAE   -0.0161287
 ITERATION   3 PLS= 0.365E-03 0.000E+00 ENERGY     -119.632263 DELTAE   -0.0032232
 ITERATION   4 PLS= 0.179E-03 0.000E+00 ENERGY     -119.634250 DELTAE   -0.0019868
 CYCLE:   130 TIME:   0.062 TIME LEFT:  2.00W  GRAD.:     2.395 HEAT: -119.6332
 ITERATION   1 PLS= 0.529E-04 0.000E+00 ENERGY     -119.635972 DELTAE -219.6359723
 ITERATION   2 PLS= 0.991E-03 0.000E+00 ENERGY     -119.657753 DELTAE   -0.0217804
 ITERATION   3 PLS= 0.475E-03 0.000E+00 ENERGY     -119.661951 DELTAE   -0.0041988
 ITERATION   4 PLS= 0.233E-03 0.000E+00 ENERGY     -119.664301 DELTAE   -0.0023496
 CYCLE:   131 TIME:   0.062 TIME LEFT:  2.00W  GRAD.:     2.755 HEAT: -119.6631
 ITERATION   1 PLS= 0.241E-04 0.000E+00 ENERGY     -119.590398 DELTAE -219.5903976
 ITERATION   2 PLS= 0.157E-02 0.000E+00 ENERGY     -119.648600 DELTAE   -0.0582027
 ITERATION   3 PLS= 0.778E-03 0.000E+00 ENERGY     -119.659733 DELTAE   -0.0111331
 ITERATION   4 PLS= 0.393E-03 0.000E+00 ENERGY     -119.666032 DELTAE   -0.0062988
 ITERATION   5 PLS= 0.516E-04 0.000E+00 ENERGY     -119.662804 DELTAE    0.0032277
 CYCLE:   132 TIME:   0.086 TIME LEFT:  2.00W  GRAD.:     4.818 HEAT: -119.6628
 ITERATION   1 PLS= 0.368E-04 0.000E+00 ENERGY     -119.583013 DELTAE -219.5830134
 ITERATION   2 PLS= 0.174E-02 0.000E+00 ENERGY     -119.663350 DELTAE   -0.0803370
 ITERATION   3 PLS= 0.854E-03 0.000E+00 ENERGY     -119.678604 DELTAE   -0.0152538
 ITERATION   4 PLS= 0.426E-03 0.000E+00 ENERGY     -119.687076 DELTAE   -0.0084714
 CYCLE:   133 TIME:   0.062 TIME LEFT:  2.00W  GRAD.:     3.086 HEAT: -119.6827
 ITERATION   1 PLS= 0.425E-04 0.000E+00 ENERGY     -119.610794 DELTAE -219.6107937
 ITERATION   2 PLS= 0.138E-02 0.000E+00 ENERGY     -119.676901 DELTAE   -0.0661071
 ITERATION   3 PLS= 0.681E-03 0.000E+00 ENERGY     -119.689507 DELTAE   -0.0126060
 ITERATION   4 PLS= 0.341E-03 0.000E+00 ENERGY     -119.696572 DELTAE   -0.0070648
 ITERATION   5 PLS= 0.321E-04 0.000E+00 ENERGY     -119.692911 DELTAE    0.0036607
 CYCLE:   134 TIME:   0.062 TIME LEFT:  2.00W  GRAD.:     3.057 HEAT: -119.6929
 ITERATION   1 PLS= 0.208E-04 0.000E+00 ENERGY     -119.675546 DELTAE -219.6755459
 ITERATION   2 PLS= 0.731E-03 0.000E+00 ENERGY     -119.687002 DELTAE   -0.0114559
 ITERATION   3 PLS= 0.385E-03 0.000E+00 ENERGY     -119.689340 DELTAE   -0.0023385
 ITERATION   4 PLS= 0.206E-03 0.000E+00 ENERGY     -119.690969 DELTAE   -0.0016290
 CYCLE:   135 TIME:   0.059 TIME LEFT:  2.00W  GRAD.:     3.957 HEAT: -119.6901
 ITERATION   1 PLS= 0.317E-04 0.000E+00 ENERGY     -119.695952 DELTAE -219.6959522
 ITERATION   2 PLS= 0.264E-03 0.000E+00 ENERGY     -119.699344 DELTAE   -0.0033915
 ITERATION   3 PLS= 0.139E-03 0.000E+00 ENERGY     -119.700011 DELTAE   -0.0006674
 ITERATION   4 PLS= 0.726E-04 0.000E+00 ENERGY     -119.700500 DELTAE   -0.0004893
 CYCLE:   136 TIME:   0.062 TIME LEFT:  2.00W  GRAD.:     2.369 HEAT: -119.7002
 ITERATION   1 PLS= 0.272E-04 0.000E+00 ENERGY     -119.699413 DELTAE -219.6994130
 ITERATION   2 PLS= 0.538E-03 0.000E+00 ENERGY     -119.707290 DELTAE   -0.0078770
 ITERATION   3 PLS= 0.291E-03 0.000E+00 ENERGY     -119.708806 DELTAE   -0.0015162
 ITERATION   4 PLS= 0.159E-03 0.000E+00 ENERGY     -119.709687 DELTAE   -0.0008811
 CYCLE:   137 TIME:   0.059 TIME LEFT:  2.00W  GRAD.:     2.263 HEAT: -119.7092
 ITERATION   1 PLS= 0.175E-04 0.000E+00 ENERGY     -119.660933 DELTAE -219.6609333
 ITERATION   2 PLS= 0.106E-02 0.000E+00 ENERGY     -119.704208 DELTAE   -0.0432747
 ITERATION   3 PLS= 0.584E-03 0.000E+00 ENERGY     -119.712543 DELTAE   -0.0083352
 ITERATION   4 PLS= 0.321E-03 0.000E+00 ENERGY     -119.717450 DELTAE   -0.0049070
 ITERATION   5 PLS= 0.392E-04 0.000E+00 ENERGY     -119.714839 DELTAE    0.0026111
 CYCLE:   138 TIME:   0.074 TIME LEFT:  2.00W  GRAD.:     2.934 HEAT: -119.7148
 ITERATION   1 PLS= 0.244E-04 0.000E+00 ENERGY     -119.696181 DELTAE -219.6961808
 ITERATION   2 PLS= 0.864E-03 0.000E+00 ENERGY     -119.722691 DELTAE   -0.0265104
 ITERATION   3 PLS= 0.447E-03 0.000E+00 ENERGY     -119.727792 DELTAE   -0.0051011
 ITERATION   4 PLS= 0.235E-03 0.000E+00 ENERGY     -119.730752 DELTAE   -0.0029601
 CYCLE:   139 TIME:   0.059 TIME LEFT:  2.00W  GRAD.:     3.751 HEAT: -119.7292
 ITERATION   1 PLS= 0.246E-04 0.000E+00 ENERGY     -119.637951 DELTAE -219.6379508
 ITERATION   2 PLS= 0.141E-02 0.000E+00 ENERGY     -119.705495 DELTAE   -0.0675437
 ITERATION   3 PLS= 0.706E-03 0.000E+00 ENERGY     -119.718412 DELTAE   -0.0129173
 ITERATION   4 PLS= 0.362E-03 0.000E+00 ENERGY     -119.725688 DELTAE   -0.0072762
 CYCLE:   140 TIME:   0.059 TIME LEFT:  2.00W  GRAD.:     2.828 HEAT: -119.7219
 ITERATION   1 PLS= 0.318E-04 0.000E+00 ENERGY     -119.711077 DELTAE -219.7110766
 ITERATION   2 PLS= 0.567E-03 0.000E+00 ENERGY     -119.731156 DELTAE   -0.0200798
 ITERATION   3 PLS= 0.304E-03 0.000E+00 ENERGY     -119.735127 DELTAE   -0.0039709
 ITERATION   4 PLS= 0.157E-03 0.000E+00 ENERGY     -119.737598 DELTAE   -0.0024711
 CYCLE:   141 TIME:   0.062 TIME LEFT:  2.00W  GRAD.:     3.159 HEAT: -119.7363
 ITERATION   1 PLS= 0.255E-04 0.000E+00 ENERGY     -119.724729 DELTAE -219.7247290
 ITERATION   2 PLS= 0.538E-03 0.000E+00 ENERGY     -119.735004 DELTAE   -0.0102753
 ITERATION   3 PLS= 0.260E-03 0.000E+00 ENERGY     -119.736938 DELTAE   -0.0019336
 ITERATION   4 PLS= 0.127E-03 0.000E+00 ENERGY     -119.738076 DELTAE   -0.0011384
 CYCLE:   142 TIME:   0.059 TIME LEFT:  2.00W  GRAD.:     2.567 HEAT: -119.7375
 ITERATION   1 PLS= 0.202E-04 0.000E+00 ENERGY     -119.750232 DELTAE -219.7502324
 ITERATION   2 PLS= 0.398E-03 0.000E+00 ENERGY     -119.752287 DELTAE   -0.0020550
 ITERATION   3 PLS= 0.199E-03 0.000E+00 ENERGY     -119.752699 DELTAE   -0.0004115
 ITERATION   4 PLS= 0.100E-03 0.000E+00 ENERGY     -119.752971 DELTAE   -0.0002721
 CYCLE:   143 TIME:   0.062 TIME LEFT:  2.00W  GRAD.:     2.040 HEAT: -119.7528
[...]
 ITERATION   3 PLS= 0.294E-03 0.000E+00 ENERGY     -119.759746 DELTAE   -0.0007728
 ITERATION   4 PLS= 0.148E-03 0.000E+00 ENERGY     -119.760259 DELTAE   -0.0005126
 CYCLE:   144 TIME:   0.059 TIME LEFT:  2.00W  GRAD.:     1.709 HEAT: -119.7600
 ITERATION   1 PLS= 0.127E-04 0.000E+00 ENERGY     -119.729850 DELTAE -219.7298499
 ITERATION   2 PLS= 0.828E-03 0.000E+00 ENERGY     -119.757838 DELTAE   -0.0279883
 ITERATION   3 PLS= 0.394E-03 0.000E+00 ENERGY     -119.763239 DELTAE   -0.0054008
 ITERATION   4 PLS= 0.189E-03 0.000E+00 ENERGY     -119.766345 DELTAE   -0.0031064
 ITERATION   5 PLS= 0.182E-04 0.000E+00 ENERGY     -119.764726 DELTAE    0.0016191
 CYCLE:   145 TIME:   0.066 TIME LEFT:  2.00W  GRAD.:     2.274 HEAT: -119.7647
 ITERATION   1 PLS= 0.122E-04 0.000E+00 ENERGY     -119.724195 DELTAE -219.7241948
 ITERATION   2 PLS= 0.896E-03 0.000E+00 ENERGY     -119.763437 DELTAE   -0.0392422
 ITERATION   3 PLS= 0.456E-03 0.000E+00 ENERGY     -119.770965 DELTAE   -0.0075279
 ITERATION   4 PLS= 0.235E-03 0.000E+00 ENERGY     -119.775286 DELTAE   -0.0043210
 ITERATION   5 PLS= 0.322E-04 0.000E+00 ENERGY     -119.773030 DELTAE    0.0022561
 CYCLE:   146 TIME:   0.062 TIME LEFT:  2.00W  GRAD.:     2.138 HEAT: -119.7730
 ITERATION   1 PLS= 0.197E-04 0.000E+00 ENERGY     -119.763777 DELTAE -219.7637771
 ITERATION   2 PLS= 0.420E-03 0.000E+00 ENERGY     -119.771569 DELTAE   -0.0077923
 ITERATION   3 PLS= 0.232E-03 0.000E+00 ENERGY     -119.773065 DELTAE   -0.0014957
 ITERATION   4 PLS= 0.137E-03 0.000E+00 ENERGY     -119.773975 DELTAE   -0.0009095
 CYCLE:   147 TIME:   0.059 TIME LEFT:  2.00W  GRAD.:     1.306 HEAT: -119.7735
 ITERATION   1 PLS= 0.186E-04 0.000E+00 ENERGY     -119.816358 DELTAE -219.8163576
 ITERATION   2 PLS= 0.461E-03 0.000E+00 ENERGY     -119.817515 DELTAE   -0.0011571
 ITERATION   3 PLS= 0.264E-03 0.000E+00 ENERGY     -119.817748 DELTAE   -0.0002332
 ITERATION   4 PLS= 0.153E-03 0.000E+00 ENERGY     -119.817921 DELTAE   -0.0001730
 CYCLE:   148 TIME:   0.078 TIME LEFT:  2.00W  GRAD.:     1.526 HEAT: -119.8178
 ITERATION   1 PLS= 0.148E-04 0.000E+00 ENERGY     -119.803258 DELTAE -219.8032581
 ITERATION   2 PLS= 0.348E-03 0.000E+00 ENERGY     -119.805810 DELTAE   -0.0025521
 ITERATION   3 PLS= 0.168E-03 0.000E+00 ENERGY     -119.806283 DELTAE   -0.0004726
 ITERATION   4 PLS= 0.838E-04 0.000E+00 ENERGY     -119.806557 DELTAE   -0.0002740
 CYCLE:   149 TIME:   0.059 TIME LEFT:  2.00W  GRAD.:     1.639 HEAT: -119.8064
 ITERATION   1 PLS= 0.122E-04 0.000E+00 ENERGY     -119.806291 DELTAE -219.8062911
 ITERATION   2 PLS= 0.219E-03 0.000E+00 ENERGY     -119.808119 DELTAE   -0.0018274
 ITERATION   3 PLS= 0.108E-03 0.000E+00 ENERGY     -119.808456 DELTAE   -0.0003374
 ITERATION   4 PLS= 0.534E-04 0.000E+00 ENERGY     -119.808650 DELTAE   -0.0001942
 CYCLE:   150 TIME:   0.059 TIME LEFT:  2.00W  GRAD.:     1.033 HEAT: -119.8086
 ITERATION   1 PLS= 0.634E-05 0.000E+00 ENERGY     -119.811870 DELTAE -219.8118704
 ITERATION   2 PLS= 0.308E-03 0.000E+00 ENERGY     -119.815749 DELTAE   -0.0038783
 ITERATION   3 PLS= 0.150E-03 0.000E+00 ENERGY     -119.816478 DELTAE   -0.0007289
 ITERATION   4 PLS= 0.726E-04 0.000E+00 ENERGY     -119.816875 DELTAE   -0.0003972
 ITERATION   5 PLS= 0.121E-04 0.000E+00 ENERGY     -119.816679 DELTAE    0.0001958
 CYCLE:   151 TIME:   0.070 TIME LEFT:  2.00W  GRAD.:     1.027 HEAT: -119.8167
 ITERATION   1 PLS= 0.775E-05 0.000E+00 ENERGY     -119.818456 DELTAE -219.8184557
 ITERATION   2 PLS= 0.354E-03 0.000E+00 ENERGY     -119.826804 DELTAE   -0.0083479
 ITERATION   3 PLS= 0.153E-03 0.000E+00 ENERGY     -119.828441 DELTAE   -0.0016369
 ITERATION   4 PLS= 0.781E-04 0.000E+00 ENERGY     -119.829478 DELTAE   -0.0010374
 ITERATION   5 PLS= 0.261E-04 0.000E+00 ENERGY     -119.828929 DELTAE    0.0005488
 CYCLE:   152 TIME:   0.062 TIME LEFT:  2.00W  GRAD.:     2.609 HEAT: -119.8289
 ITERATION   1 PLS= 0.198E-04 0.000E+00 ENERGY     -119.828791 DELTAE -219.8287912
 ITERATION   2 PLS= 0.959E-04 0.000E+00 ENERGY     -119.829117 DELTAE   -0.0003254
 ITERATION   3 PLS= 0.401E-04 0.000E+00 ENERGY     -119.829167 DELTAE   -0.0000505
 ITERATION   4 PLS= 0.197E-04 0.000E+00 ENERGY     -119.829199 DELTAE   -0.0000320
 CYCLE:   153 TIME:   0.062 TIME LEFT:  2.00W  GRAD.:     1.100 HEAT: -119.8292
 ITERATION   1 PLS= 0.113E-04 0.000E+00 ENERGY     -119.815837 DELTAE -219.8158369
 ITERATION   2 PLS= 0.319E-03 0.000E+00 ENERGY     -119.816135 DELTAE   -0.0002983
 ITERATION   3 PLS= 0.151E-03 0.000E+00 ENERGY     -119.816193 DELTAE   -0.0000583
 ITERATION   4 PLS= 0.735E-04 0.000E+00 ENERGY     -119.816234 DELTAE   -0.0000401
 CYCLE:   154 TIME:   0.078 TIME LEFT:  2.00W  GRAD.:     0.787 HEAT: -119.8162
 ITERATION   1 PLS= 0.110E-04 0.000E+00 ENERGY     -119.828809 DELTAE -219.8288093
 ITERATION   2 PLS= 0.318E-03 0.000E+00 ENERGY     -119.829109 DELTAE   -0.0002997
 ITERATION   3 PLS= 0.151E-03 0.000E+00 ENERGY     -119.829166 DELTAE   -0.0000565
 ITERATION   4 PLS= 0.738E-04 0.000E+00 ENERGY     -119.829201 DELTAE   -0.0000352


          CURRENT BEST VALUE OF HEAT OF FORMATION =   -119.829184

* ===============================
* Input file for Mopac
* ===============================
 PM7 CHARGE=0 SINGLET AUX DUMP=30M ITRY=15000 eps=32.66 T=14D PL THREADS=40

 Mopac file generated by Gabedit
  C    -1.57732435 +1   0.76975312 +1  -3.37501158 +1
  C    -0.71601522 +1   1.00193119 +1  -2.28421913 +1
  C    -0.89494991 +1   0.29531666 +1  -1.05493571 +1
  C    -1.91814005 +1  -0.65883804 +1  -0.90205422 +1
  C    -2.74736968 +1  -0.86800889 +1  -1.98561643 +1
  N    -3.83504968 +1  -1.72452327 +1  -2.11768940 +1
  C    -4.34964665 +1  -1.58603513 +1  -3.41196899 +1
  C    -3.63096084 +1  -0.63866595 +1  -4.11107544 +1
  C    -2.59034289 +1  -0.15112028 +1  -3.24058746 +1
  H    -3.79394521 +1  -0.30738143 +1  -5.11430073 +1
  H    -5.19888190 +1  -2.17513562 +1  -3.72450763 +1
  H    -2.03970565 +1  -1.20288210 +1   0.03056284 +1
  H    -1.43502497 +1   1.31721901 +1  -4.30868481 +1
  N    -0.06843797 +1   0.52850972 +1   0.03395844 +1
  C     0.90609949 +1   1.40917949 +1  -0.07357981 +1
  C     1.16054760 +1   2.14682991 +1  -1.27275035 +1
  H     1.98605336 +1   2.85532364 +1  -1.29050928 +1
  H     1.53778922 +1   1.56713965 +1   0.81343128 +1
  C     0.35657677 +1   1.94217021 +1  -2.35768426 +1
  H     0.51409104 +1   2.48576339 +1  -3.29360821 +1
  H    -4.11503525 +1  -2.40552721 +1  -1.42129006 +1
  C    -0.55235992 +1  -0.81053760 +1   3.51892917 +1
  H     0.04834880 +1  -1.67600421 +1   3.21751400 +1
  H     0.09074172 +1   0.04570419 +1   3.75025162 +1
  H    -1.18849675 +1  -1.05779736 +1   4.37701917 +1
  H    -0.95271750 +1  -0.19777204 +1   1.66496216 +1
  O    -1.45676051 +1  -0.46274688 +1   2.48403596 +1
  C    -5.52890615 +1  -3.85308411 +1   0.18581156 +1
  H    -5.65449268 +1  -4.50385476 +1   1.05794278 +1
  H    -6.08975287 +1  -2.92028012 +1   0.31525142 +1
  H    -5.84135517 +1  -4.37224400 +1  -0.72879283 +1
  H    -3.76682707 +1  -3.13669426 +1   0.79775883 +1
  O    -4.15718363 +1  -3.56845156 +1  -0.01126619 +1
  C    -2.70936159 +1  -3.59841419 +1   2.98285773 +1
  H    -1.80414461 +1  -3.99109461 +1   2.50562075 +1
  H    -2.50567452 +1  -3.30079289 +1   4.01720626 +1
  H    -3.51932456 +1  -4.33727369 +1   2.94867199 +1
  H    -2.52968194 +1  -1.74723594 +1   2.25711241 +1
  O    -3.19937457 +1  -2.48868745 +1   2.25163615 +1



 -------------------------------------------------------------------------------
 PM7 CHARGE=0 SINGLET AUX DUMP=30M ITRY=15000 eps=32.66 T=14D PL THREADS=40

 Mopac file generated by Gabedit


     HERBERTS TEST WAS SATISFIED IN BFGS                      
     SCF FIELD WAS ACHIEVED                                   


                              PM7 CALCULATION
                                                       MOPAC v22.1.0 Linux
                                                       Sun Mar 24 16:30:30 2024




          FINAL HEAT OF FORMATION =       -119.82918 KCAL/MOL =    -501.36530 KJ/MOL
          VAN DER WAALS AREA      =        310.92 SQUARE ANGSTROMS



          DIELECTRIC ENERGY       =         -0.62826 EV
          COSMO AREA              =        310.92 SQUARE ANGSTROMS
          COSMO VOLUME            =        349.05 CUBIC ANGSTROMS

          GRADIENT NORM           =          1.10011          =       0.17616 PER ATOM
          IONIZATION POTENTIAL    =          8.569234 EV
          HOMO LUMO ENERGIES (EV) =         -8.569 -1.187
          NO. OF FILLED LEVELS    =         52
          MOLECULAR WEIGHT        =        264.3236         POINT GROUP:  C1  

          MOLECULAR DIMENSIONS (Angstroms)

            Atom       Atom       Distance
            H    29    H    17    10.86511
            H    25    H    10     9.84415
            H    35    H    30     3.00529


          SCF CALCULATIONS        =        156

          WALL-CLOCK TIME         =     10.852 SECONDS
          COMPUTATION TIME        =         17 MINUTES AND 3.267 SECONDS




   ATOM   CHEMICAL          X               Y               Z
  NUMBER   SYMBOL      (ANGSTROMS)     (ANGSTROMS)     (ANGSTROMS)

     1       C         -1.57732435  *   0.76975312  *  -3.37501158  *
     2       C         -0.71601522  *   1.00193119  *  -2.28421913  *
     3       C         -0.89494991  *   0.29531666  *  -1.05493571  *
     4       C         -1.91814005  *  -0.65883804  *  -0.90205422  *
     5       C         -2.74736968  *  -0.86800889  *  -1.98561643  *
     6       N         -3.83504968  *  -1.72452327  *  -2.11768940  *
     7       C         -4.34964665  *  -1.58603513  *  -3.41196899  *
     8       C         -3.63096084  *  -0.63866595  *  -4.11107544  *
     9       C         -2.59034289  *  -0.15112028  *  -3.24058746  *
    10       H         -3.79394521  *  -0.30738143  *  -5.11430073  *
    11       H         -5.19888190  *  -2.17513562  *  -3.72450763  *
    12       H         -2.03970565  *  -1.20288210  *   0.03056284  *
    13       H         -1.43502497  *   1.31721901  *  -4.30868481  *
    14       N         -0.06843797  *   0.52850972  *   0.03395844  *
    15       C          0.90609949  *   1.40917949  *  -0.07357981  *
    16       C          1.16054760  *   2.14682991  *  -1.27275035  *
    17       H          1.98605336  *   2.85532364  *  -1.29050928  *
    18       H          1.53778922  *   1.56713965  *   0.81343128  *
    19       C          0.35657677  *   1.94217021  *  -2.35768426  *
    20       H          0.51409104  *   2.48576339  *  -3.29360821  *
    21       H         -4.11503525  *  -2.40552721  *  -1.42129006  *
    22       C         -0.55235992  *  -0.81053760  *   3.51892917  *
    23       H          0.04834880  *  -1.67600421  *   3.21751400  *
    24       H          0.09074172  *   0.04570419  *   3.75025162  *
    25       H         -1.18849675  *  -1.05779736  *   4.37701917  *
    26       H         -0.95271750  *  -0.19777204  *   1.66496216  *
    27       O         -1.45676051  *  -0.46274688  *   2.48403596  *
    28       C         -5.52890615  *  -3.85308411  *   0.18581156  *
    29       H         -5.65449268  *  -4.50385476  *   1.05794278  *
    30       H         -6.08975287  *  -2.92028012  *   0.31525142  *
    31       H         -5.84135517  *  -4.37224400  *  -0.72879283  *
    32       H         -3.76682707  *  -3.13669426  *   0.79775883  *
    33       O         -4.15718363  *  -3.56845156  *  -0.01126619  *
    34       C         -2.70936159  *  -3.59841419  *   2.98285773  *
    35       H         -1.80414461  *  -3.99109461  *   2.50562075  *
    36       H         -2.50567452  *  -3.30079289  *   4.01720626  *
    37       H         -3.51932456  *  -4.33727369  *   2.94867199  *
    38       H         -2.52968194  *  -1.74723594  *   2.25711241  *
    39       O         -3.19937457  *  -2.48868745  *   2.25163615  *

                             CARTESIAN COORDINATES

   1    C       -1.577324355     0.769753119    -3.375011576
   2    C       -0.716015216     1.001931191    -2.284219132
   3    C       -0.894949908     0.295316660    -1.054935712
   4    C       -1.918140049    -0.658838037    -0.902054216
   5    C       -2.747369685    -0.868008885    -1.985616432
   6    N       -3.835049679    -1.724523269    -2.117689398
   7    C       -4.349646647    -1.586035127    -3.411968987
   8    C       -3.630960836    -0.638665946    -4.111075444
   9    C       -2.590342892    -0.151120278    -3.240587456
  10    H       -3.793945211    -0.307381429    -5.114300735
  11    H       -5.198881904    -2.175135618    -3.724507628
  12    H       -2.039705646    -1.202882097     0.030562842
  13    H       -1.435024975     1.317219015    -4.308684813
  14    N       -0.068437966     0.528509717     0.033958436
  15    C        0.906099491     1.409179490    -0.073579811
  16    C        1.160547598     2.146829911    -1.272750355
  17    H        1.986053363     2.855323640    -1.290509278
  18    H        1.537789218     1.567139651     0.813431276
  19    C        0.356576769     1.942170207    -2.357684261
  20    H        0.514091036     2.485763391    -3.293608205
  21    H       -4.115035252    -2.405527208    -1.421290058
  22    C       -0.552359917    -0.810537596     3.518929168
  23    H        0.048348803    -1.676004208     3.217514003
  24    H        0.090741725     0.045704195     3.750251624
  25    H       -1.188496748    -1.057797356     4.377019169
  26    H       -0.952717505    -0.197772042     1.664962162
  27    O       -1.456760508    -0.462746879     2.484035957
  28    C       -5.528906151    -3.853084109     0.185811558
  29    H       -5.654492685    -4.503854756     1.057942777
  30    H       -6.089752866    -2.920280117     0.315251424
  31    H       -5.841355173    -4.372243998    -0.728792827
  32    H       -3.766827068    -3.136694256     0.797758825
  33    O       -4.157183632    -3.568451562    -0.011266187
  34    C       -2.709361586    -3.598414188     2.982857733
  35    H       -1.804144609    -3.991094610     2.505620751
  36    H       -2.505674525    -3.300792893     4.017206259
  37    H       -3.519324557    -4.337273694     2.948671994
  38    H       -2.529681940    -1.747235936     2.257112409
  39    O       -3.199374570    -2.488687449     2.251636151


           Empirical Formula: C14 H20 N2 O3  =    39 atoms



      MOLECULAR POINT GROUP   :   C1  


                  EIGENVALUES  
 -37.66488 -36.09774 -30.40374 -29.71864 -29.21716 -28.71661 -28.41358 -27.74154
 -25.61635 -25.17806 -24.10504 -23.89152 -23.77757 -22.67202 -21.78811 -21.41272
 -20.17616 -18.66712 -18.04557 -17.99234 -17.53050 -17.27644 -17.16945 -16.17921
 -15.49629 -15.42987 -15.16879 -15.12982 -15.09957 -14.99806 -14.88369 -14.84852
 -14.77506 -14.69599 -14.38452 -14.24754 -13.94133 -13.69190 -12.76842 -12.70830
 -12.46105 -12.41399 -12.20425 -12.09571 -11.52971 -11.01998 -10.99885 -10.98964
 -10.62015 -10.58749  -9.31513  -8.56923  -1.18698  -0.39892   0.27564   1.15866
   1.51168   2.01107   2.30938   2.51205   2.78462   3.14635   3.19916   3.53529
   3.62206   3.95101   4.05787   4.18053   4.36489   4.79010   4.80986   4.91547
   4.99733   5.11993   5.30578   5.45431   5.49667   5.54536   5.56408   5.63450
   5.63888   5.67142   5.68068   5.74016   5.79111   5.86250   5.89898   6.05759
   6.12097   6.16280   6.23584   6.27881   6.34185   6.39758   6.67283   6.87550


              NET ATOMIC CHARGES AND DIPOLE CONTRIBUTIONS

  ATOM NO.   TYPE          CHARGE      No. of ELECS.   s-Pop       p-Pop       
    1          C          -0.104949        4.1049     1.08626     3.01869
    2          C          -0.138608        4.1386     1.06052     3.07809
    3          C           0.178359        3.8216     1.06052     2.76112
    4          C          -0.292715        4.2927     1.06942     3.22329
    5          C           0.150227        3.8498     1.06158     2.78819
    6          N          -0.401459        5.4015     1.52893     3.87253
    7          C           0.041291        3.9587     1.09799     2.86072
    8          C          -0.307265        4.3073     1.07463     3.23264
    9          C          -0.066008        4.0660     1.06108     3.00493
   10          H           0.177152        0.8228     0.82285
   11          H           0.183077        0.8169     0.81692
   12          H           0.181510        0.8185     0.81849
   13          H           0.178705        0.8213     0.82129
   14          N          -0.470793        5.4708     1.73651     3.73428
   15          C           0.114031        3.8860     1.10433     2.78164
   16          C          -0.275389        4.2754     1.08826     3.18713
   17          H           0.180964        0.8190     0.81904
   18          H           0.183844        0.8162     0.81616
   19          C          -0.047280        4.0473     1.09677     2.95051
   20          H           0.175937        0.8241     0.82406
   21          H           0.360717        0.6393     0.63928
   22          C          -0.138013        4.1380     1.08163     3.05639
   23          H           0.133738        0.8663     0.86626
   24          H           0.132059        0.8679     0.86794
   25          H           0.141371        0.8586     0.85863
   26          H           0.377890        0.6221     0.62211
   27          O          -0.635109        6.6351     1.84352     4.79159
   28          C          -0.139148        4.1391     1.08045     3.05870
   29          H           0.127971        0.8720     0.87203
   30          H           0.132400        0.8676     0.86760
   31          H           0.143300        0.8567     0.85670
   32          H           0.377176        0.6228     0.62282
   33          O          -0.652939        6.6529     1.84510     4.80784
   34          C          -0.139060        4.1391     1.08096     3.05810
   35          H           0.133722        0.8663     0.86628
   36          H           0.129201        0.8708     0.87080
   37          H           0.141403        0.8586     0.85860
   38          H           0.376598        0.6234     0.62340
   39          O          -0.643908        6.6439     1.84317     4.80074
 DIPOLE           X         Y         Z       TOTAL
 POINT-CHG.     1.473    -0.843     1.276     2.123
 HYBRID         0.330     0.475    -0.316     0.659
 SUM            1.803    -0.368     0.960     2.075


          ATOMIC ORBITAL ELECTRON POPULATIONS

     Atom    s        px        py        pz   
    1  C   1.08626   0.96652   0.99787   1.05431
    2  C   1.06052   1.03041   1.04700   1.00067
    3  C   1.06052   0.92390   0.94924   0.88798
    4  C   1.06942   1.04281   1.09847   1.08201
    5  C   1.06158   0.88108   0.92297   0.98414
    6  N   1.52893   1.29916   1.36730   1.20607
    7  C   1.09799   1.01910   1.01160   0.83002
    8  C   1.07463   1.05116   1.08959   1.09189
    9  C   1.06108   1.00846   1.01870   0.97777
   10  H   0.82285
   11  H   0.81692
   12  H   0.81849
   13  H   0.82129
   14  N   1.73651   1.14237   1.24585   1.34606
   15  C   1.10433   0.90232   0.85664   1.02268
   16  C   1.08826   1.09382   1.08922   1.00408
   17  H   0.81904
   18  H   0.81616
   19  C   1.09677   0.94088   0.95516   1.05447
   20  H   0.82406
   21  H   0.63928
   22  C   1.08163   1.00722   1.12230   0.92687
   23  H   0.86626
   24  H   0.86794
   25  H   0.85863
   26  H   0.62211
   27  O   1.84352   1.47757   1.90507   1.40894
   28  C   1.08045   0.78334   1.12773   1.14763
   29  H   0.87203
   30  H   0.86760
   31  H   0.85670
   32  H   0.62282
   33  O   1.84510   1.35481   1.87256   1.58047
   34  C   1.08096   1.11404   0.89963   1.04443
   35  H   0.86628
   36  H   0.87080
   37  H   0.85860
   38  H   0.62340
   39  O   1.84317   1.59857   1.41575   1.78643

 **********************
 *                    *
 * JOB ENDED NORMALLY *
 *                    *
 **********************



 TOTAL JOB TIME:            10.86 SECONDS

 == MOPAC DONE ==
