
                                 *****************
                                 * O   R   C   A *
                                 *****************

                                            #,                                       
                                            ###                                      
                                            ####                                     
                                            #####                                    
                                            ######                                   
                                           ########,                                 
                                     ,,################,,,,,                         
                               ,,#################################,,                 
                          ,,##########################################,,             
                       ,#########################################, ''#####,          
                    ,#############################################,,   '####,        
                  ,##################################################,,,,####,       
                ,###########''''           ''''###############################       
              ,#####''   ,,,,##########,,,,          '''####'''          '####       
            ,##' ,,,,###########################,,,                        '##       
           ' ,,###''''                  '''############,,,                           
         ,,##''                                '''############,,,,        ,,,,,,###''
      ,#''                                            '''#######################'''  
     '                                                          ''''####''''         
             ,#######,   #######,   ,#######,      ##                                
            ,#'     '#,  ##    ##  ,#'     '#,    #''#        ######   ,####,        
            ##       ##  ##   ,#'  ##            #'  '#       #        #'  '#        
            ##       ##  #######   ##           ,######,      #####,   #    #        
            '#,     ,#'  ##    ##  '#,     ,#' ,#      #,         ##   #,  ,#        
             '#######'   ##     ##  '#######'  #'      '#     #####' # '####'        



                  #######################################################
                  #                        -***-                        #
                  #          Department of theory and spectroscopy      #
                  #    Directorship and core code : Frank Neese         #
                  #        Max Planck Institute fuer Kohlenforschung    #
                  #                Kaiser Wilhelm Platz 1               #
                  #                 D-45470 Muelheim/Ruhr               #
                  #                      Germany                        #
                  #                                                     #
                  #                  All rights reserved                #
                  #                        -***-                        #
                  #######################################################


                         Program Version 5.0.4 -  RELEASE  -


 With contributions from (in alphabetic order):
   Daniel Aravena         : Magnetic Suceptibility
   Michael Atanasov       : Ab Initio Ligand Field Theory (pilot matlab implementation)
   Alexander A. Auer      : GIAO ZORA, VPT2 properties, NMR spectrum
   Ute Becker             : Parallelization
   Giovanni Bistoni       : ED, misc. LED, open-shell LED, HFLD
   Martin Brehm           : Molecular dynamics
   Dmytro Bykov           : SCF Hessian
   Vijay G. Chilkuri      : MRCI spin determinant printing, contributions to CSF-ICE
   Dipayan Datta          : RHF DLPNO-CCSD density
   Achintya Kumar Dutta   : EOM-CC, STEOM-CC
   Dmitry Ganyushin       : Spin-Orbit,Spin-Spin,Magnetic field MRCI
   Miquel Garcia          : C-PCM and meta-GGA Hessian, CC/C-PCM, Gaussian charge scheme
   Yang Guo               : DLPNO-NEVPT2, F12-NEVPT2, CIM, IAO-localization
   Andreas Hansen         : Spin unrestricted coupled pair/coupled cluster methods
   Benjamin Helmich-Paris : MC-RPA, TRAH-SCF, COSX integrals
   Lee Huntington         : MR-EOM, pCC
   Robert Izsak           : Overlap fitted RIJCOSX, COSX-SCS-MP3, EOM
   Marcus Kettner         : VPT2
   Christian Kollmar      : KDIIS, OOCD, Brueckner-CCSD(T), CCSD density, CASPT2, CASPT2-K
   Simone Kossmann        : Meta GGA functionals, TD-DFT gradient, OOMP2, MP2 Hessian
   Martin Krupicka        : Initial AUTO-CI
   Lucas Lang             : DCDCAS
   Marvin Lechner         : AUTO-CI (C++ implementation), FIC-MRCC
   Dagmar Lenk            : GEPOL surface, SMD
   Dimitrios Liakos       : Extrapolation schemes; Compound Job, initial MDCI parallelization
   Dimitrios Manganas     : Further ROCIS development; embedding schemes
   Dimitrios Pantazis     : SARC Basis sets
   Anastasios Papadopoulos: AUTO-CI, single reference methods and gradients
   Taras Petrenko         : DFT Hessian,TD-DFT gradient, ASA, ECA, R-Raman, ABS, FL, XAS/XES, NRVS
   Peter Pinski           : DLPNO-MP2, DLPNO-MP2 Gradient
   Christoph Reimann      : Effective Core Potentials
   Marius Retegan         : Local ZFS, SOC
   Christoph Riplinger    : Optimizer, TS searches, QM/MM, DLPNO-CCSD(T), (RO)-DLPNO pert. Triples
   Tobias Risthaus        : Range-separated hybrids, TD-DFT gradient, RPA, STAB
   Michael Roemelt        : Original ROCIS implementation
   Masaaki Saitow         : Open-shell DLPNO-CCSD energy and density
   Barbara Sandhoefer     : DKH picture change effects
   Avijit Sen             : IP-ROCIS
   Kantharuban Sivalingam : CASSCF convergence, NEVPT2, FIC-MRCI
   Bernardo de Souza      : ESD, SOC TD-DFT
   Georgi Stoychev        : AutoAux, RI-MP2 NMR, DLPNO-MP2 response
   Willem Van den Heuvel  : Paramagnetic NMR
   Boris Wezisla          : Elementary symmetry handling
   Frank Wennmohs         : Technical directorship


 We gratefully acknowledge several colleagues who have allowed us to
 interface, adapt or use parts of their codes:
   Stefan Grimme, W. Hujo, H. Kruse, P. Pracht,  : VdW corrections, initial TS optimization,
                  C. Bannwarth, S. Ehlert          DFT functionals, gCP, sTDA/sTD-DF
   Ed Valeev, F. Pavosevic, A. Kumar             : LibInt (2-el integral package), F12 methods
   Garnet Chan, S. Sharma, J. Yang, R. Olivares  : DMRG
   Ulf Ekstrom                                   : XCFun DFT Library
   Mihaly Kallay                                 : mrcc  (arbitrary order and MRCC methods)
   Jiri Pittner, Ondrej Demel                    : Mk-CCSD
   Frank Weinhold                                : gennbo (NPA and NBO analysis)
   Christopher J. Cramer and Donald G. Truhlar   : smd solvation model
   Lars Goerigk                                  : TD-DFT with DH, B97 family of functionals
   V. Asgeirsson, H. Jonsson                     : NEB implementation
   FAccTs GmbH                                   : IRC, NEB, NEB-TS, DLPNO-Multilevel, CI-OPT
                                                   MM, QMMM, 2- and 3-layer-ONIOM, Crystal-QMMM,
                                                   LR-CPCM, SF, NACMEs, symmetry and pop. for TD-DFT,
                                                   nearIR, NL-DFT gradient (VV10), updates on ESD,
                                                   ML-optimized integration grids
   S Lehtola, MJT Oliveira, MAL Marques          : LibXC Library
   Liviu Ungur et al                             : ANISO software


 Your calculation uses the libint2 library for the computation of 2-el integrals
 For citations please refer to: http://libint.valeyev.net

 Your ORCA version has been built with support for libXC version: 5.1.0
 For citations please refer to: https://tddft.org/programs/libxc/

 This ORCA versions uses:
   CBLAS   interface :  Fast vector & matrix operations
   LAPACKE interface :  Fast linear algebra routines
   SCALAPACK package :  Parallel linear algebra routines
   Shared memory     :  Shared parallel matrices
   BLAS/LAPACK       :  OpenBLAS 0.3.15  USE64BITINT DYNAMIC_ARCH NO_AFFINITY Prescott SINGLE_THREADED
        Core in use  :  Prescott
   Copyright (c) 2011-2014, The OpenBLAS Project


Your calculation utilizes the atom-pairwise dispersion correction
with the Becke-Johnson damping scheme (D3BJ)
Cite in your paper:
S.Grimme, S.Ehrlich, L.Goerigk, J Comput Chem, (2011), 32, 1456–1465 
S.Grimme, J.Antony, S.Ehrlich and H.Krieg, J.Chem.Phys., 132, (2010), 154104 
   

================================================================================

----- Orbital basis set information -----
Your calculation utilizes the basis: def2-TZVP
   F. Weigend and R. Ahlrichs, Phys. Chem. Chem. Phys. 7, 3297 (2005).

----- AuxJ basis set information -----
Your calculation utilizes the auxiliary basis: def2/J
   F. Weigend, Phys. Chem. Chem. Phys. 8, 1057 (2006).

================================================================================
                                        WARNINGS
                       Please study these warnings very carefully!
================================================================================

WARNING: Gradients needed for Numerical Frequencies
  ===> : Setting RunTyp to EnGrad

INFO   : the flag for use of the SHARK integral package has been found!

================================================================================
                                       INPUT FILE
================================================================================
NAME = /home/rudenko/mop_saddle_orca_4_serv/for_orca/CH2CHCH2NO2_pyridine/orca/start_freq_D/start_f_D.inp
|  1> !  NUMFREQ B3LYP def2-TZVP CPCM D3 
|  2> %pal nprocs 102 end
|  3> %cpcm epsilon 78.4 end 
|  4> *xyz 0 1 
|  5> C   2.2459143605291 -0.6917237124 0.81406654452318
|  6> H   2.50254840132606 -0.84852373498363 -0.22582339087263
|  7> N   0.55342164920569 -2.529330115877 1.0042583161667
|  8> O   -0.02484607553472 -1.98556669957876 0.08172826733113
|  9> O   0.19417104583317 -3.57646964058431 1.51976836297487
| 10> H   2.14044729261393 0.67535575854788 2.41545983643294
| 11> C   1.79943843668455 -1.88550135492171 1.5796894732199
| 12> H   2.53569789456775 -2.68666549413635 1.58498028077831 M = 2
| 13> H   1.53876804131483 -1.65155425159928 2.61155501698224
| 14> C   2.3854420574779 0.50316305789224 1.37324543144147
| 15> H   2.75904111562136 1.35106335806038 0.81289925065465
| 16> C   5.50048822082177 -2.56960869927695 1.15738763548311
| 17> C   6.44246185263908 -1.63733253875818 1.570540535812
| 18> C   6.77181688203383 -0.59768200689665 0.7087544724618
| 19> C   6.14830492756919 -0.53064012170912 -0.52988983823877
| 20> C   5.2151924005835 -1.50665741400827 -0.85610084447416
| 21> N   4.89477484481015 -2.50712789459305 -0.03171424199315
| 22> H   5.2156592511839 -3.39154901715969 1.80435915219608
| 23> H   6.90428370476733 -1.7264123292279 2.54454542697558
| 24> H   6.37153074770736 0.26032173681673 -1.23307643031451
| 25> H   4.69933941346683 -1.48514432073477 -1.8092977385963
| 26> H   7.50099251423196 0.14854597821775 0.99788650108465
| 27> H   2.52188390269255 -4.74691949182633 -0.20733429483414
| 28> H   3.48543674478261 -3.56635808903051 -0.52324150498918
| 29> O   2.69206037306994 -4.05228296223238 -0.85890622020584
| 30> *
| 31> 
| 32>                          ****END OF INPUT****
================================================================================

                     *******************************
                     * Energy+Gradient Calculation *
                     *******************************

---------------------------------
CARTESIAN COORDINATES (ANGSTROEM)
---------------------------------
  C      2.245914   -0.691724    0.814067
  H      2.502548   -0.848524   -0.225823
  N      0.553422   -2.529330    1.004258
  O     -0.024846   -1.985567    0.081728
  O      0.194171   -3.576470    1.519768
  H      2.140447    0.675356    2.415460
  C      1.799438   -1.885501    1.579689
  H      2.535698   -2.686665    1.584980
  H      1.538768   -1.651554    2.611555
  C      2.385442    0.503163    1.373245
  H      2.759041    1.351063    0.812899
  C      5.500488   -2.569609    1.157388
  C      6.442462   -1.637333    1.570541
  C      6.771817   -0.597682    0.708754
  C      6.148305   -0.530640   -0.529890
  C      5.215192   -1.506657   -0.856101
  N      4.894775   -2.507128   -0.031714
  H      5.215659   -3.391549    1.804359
  H      6.904284   -1.726412    2.544545
  H      6.371531    0.260322   -1.233076
  H      4.699339   -1.485144   -1.809298
  H      7.500993    0.148546    0.997887
  H      2.521884   -4.746919   -0.207334
  H      3.485437   -3.566358   -0.523242
  O      2.692060   -4.052283   -0.858906

----------------------------
CARTESIAN COORDINATES (A.U.)
----------------------------
  NO LB      ZA    FRAG     MASS         X           Y           Z
   0 C     6.0000    0    12.011    4.244163   -1.307168    1.538363
   1 H     1.0000    0     1.008    4.729131   -1.603477   -0.426744
   2 N     7.0000    0    14.007    1.045815   -4.779741    1.897773
   3 O     8.0000    0    15.999   -0.046952   -3.752177    0.154444
   4 O     8.0000    0    15.999    0.366930   -6.758548    2.871946
   5 H     1.0000    0     1.008    4.044859    1.276237    4.564558
   6 C     6.0000    0    12.011    3.400446   -3.563081    2.985180
   7 H     1.0000    0     2.000    4.791775   -5.077062    2.995179
   8 H     1.0000    0     1.008    2.907850   -3.120985    4.935124
   9 C     6.0000    0    12.011    4.507832    0.950840    2.595058
  10 H     1.0000    0     1.008    5.213832    2.553140    1.536157
  11 C     6.0000    0    12.011   10.394416   -4.855857    2.187146
  12 C     6.0000    0    12.011   12.174489   -3.094110    2.967891
  13 C     6.0000    0    12.011   12.796879   -1.129455    1.339352
  14 C     6.0000    0    12.011   11.618613   -1.002765   -1.001347
  15 C     6.0000    0    12.011    9.855285   -2.847170   -1.617796
  16 N     7.0000    0    14.007    9.249784   -4.737785   -0.059931
  17 H     1.0000    0     1.008    9.856168   -6.409099    3.409745
  18 H     1.0000    0     1.008   13.047205   -3.262446    4.808494
  19 H     1.0000    0     1.008   12.040448    0.491937   -2.330177
  20 H     1.0000    0     1.008    8.880465   -2.806516   -3.419077
  21 H     1.0000    0     1.008   14.174822    0.280711    1.885732
  22 H     1.0000    0     1.008    4.765670   -8.970378   -0.391805
  23 H     1.0000    0     1.008    6.586521   -6.739440   -0.988783
  24 O     8.0000    0    15.999    5.087257   -7.657705   -1.623098

--------------------------------
INTERNAL COORDINATES (ANGSTROEM)
--------------------------------
 C      0   0   0     0.000000000000     0.00000000     0.00000000
 H      1   0   0     1.082505591540     0.00000000     0.00000000
 N      1   2   0     2.505494318889    97.28651704     0.00000000
 O      3   1   2     1.217018449074    86.31519866   303.24489966
 O      3   1   2     1.221193182338   149.27878721   118.52968400
 H      1   2   3     2.108195924879   146.66676995   205.95076344
 C      1   2   3     1.486816827758   116.71541460    29.15265196
 H      7   1   2     1.088103836925   112.98504688    57.82117541
 H      7   1   2     1.089691150088   112.77240496   181.15731546
 C      6   1   2     1.084381679549    32.39876853     0.76775439
 H     10   6   1     1.082819937752   116.80614959   180.59644544
 C      8   7   1     2.997752398412   129.77391608    22.93724014
 C     12   8   7     1.388217735646   130.90905163    38.77497486
 C     13  12   8     1.389972367629   118.59186519   266.66588901
 C     14  13  12     1.388344877961   118.87186304     0.00000000
 C     15  14  13     1.389144471779   118.50602614     0.17858418
 N     16  15  14     1.335373304705   122.86083728   359.84283967
 H     12   8   7     1.084105885762    68.00218139   150.95483301
 H     13  12   8     1.081619230683   120.16000611    86.63130076
 H     15  14  13     1.081629239478   121.50979835   179.93505931
 H     16  15  14     1.084044019615   120.80943078   179.42994841
 H     14  13  12     1.082659059139   120.63383670   179.90385781
 H      8   7   1     2.730792723610   123.29052798   265.90391396
 H     23   8   7     1.556263689321    63.75438260    97.83007441
 O     23   8   7     0.967484321965    84.22907808    64.52511539

---------------------------
INTERNAL COORDINATES (A.U.)
---------------------------
 C      0   0   0     0.000000000000     0.00000000     0.00000000
 H      1   0   0     2.045639106449     0.00000000     0.00000000
 N      1   2   0     4.734698092795    97.28651704     0.00000000
 O      3   1   2     2.299831568679    86.31519866   303.24489966
 O      3   1   2     2.307720671230   149.27878721   118.52968400
 H      1   2   3     3.983912934670   146.66676995   205.95076344
 C      1   2   3     2.809676615768   116.71541460    29.15265196
 H      7   1   2     2.056218257057   112.98504688    57.82117541
 H      7   1   2     2.059217844223   112.77240496   181.15731546
 C      6   1   2     2.049184398989    32.39876853     0.76775439
 H     10   6   1     2.046233134701   116.80614959   180.59644544
 C      8   7   1     5.664931050304   129.77391608    22.93724014
 C     12   8   7     2.623351334622   130.90905163    38.77497486
 C     13  12   8     2.626667108537   118.59186519   266.66588901
 C     14  13  12     2.623591598779   118.87186304     0.00000000
 C     15  14  13     2.625102612113   118.50602614     0.17858418
 N     16  15  14     2.523489832442   122.86083728   359.84283967
 H     12   8   7     2.048663224262    68.00218139   150.95483301
 H     13  12   8     2.043964127174   120.16000611    86.63130076
 H     15  14  13     2.043983041055   121.50979835   179.93505931
 H     16  15  14     2.048546314188   120.80943078   179.42994841
 H     14  13  12     2.045929118181   120.63383670   179.90385781
 H      8   7   1     5.160450376128   123.29052798   265.90391396
 H     23   8   7     2.940912164983    63.75438260    97.83007441
 O     23   8   7     1.828280407377    84.22907808    64.52511539

---------------------
BASIS SET INFORMATION
---------------------
There are 4 groups of distinct atoms

 Group   1 Type C   : 11s6p2d1f contracted to 5s3p2d1f pattern {62111/411/11/1}
 Group   2 Type H   : 5s1p contracted to 3s1p pattern {311/1}
 Group   3 Type N   : 11s6p2d1f contracted to 5s3p2d1f pattern {62111/411/11/1}
 Group   4 Type O   : 11s6p2d1f contracted to 5s3p2d1f pattern {62111/411/11/1}

Atom   0C    basis set group =>   1
Atom   1H    basis set group =>   2
Atom   2N    basis set group =>   3
Atom   3O    basis set group =>   4
Atom   4O    basis set group =>   4
Atom   5H    basis set group =>   2
Atom   6C    basis set group =>   1
Atom   7H    basis set group =>   2
Atom   8H    basis set group =>   2
Atom   9C    basis set group =>   1
Atom  10H    basis set group =>   2
Atom  11C    basis set group =>   1
Atom  12C    basis set group =>   1
Atom  13C    basis set group =>   1
Atom  14C    basis set group =>   1
Atom  15C    basis set group =>   1
Atom  16N    basis set group =>   3
Atom  17H    basis set group =>   2
Atom  18H    basis set group =>   2
Atom  19H    basis set group =>   2
Atom  20H    basis set group =>   2
Atom  21H    basis set group =>   2
Atom  22H    basis set group =>   2
Atom  23H    basis set group =>   2
Atom  24O    basis set group =>   4
---------------------------------
AUXILIARY/J BASIS SET INFORMATION
---------------------------------
There are 4 groups of distinct atoms

 Group   1 Type C   : 12s5p4d2f1g contracted to 6s4p3d1f1g pattern {711111/2111/211/2/1}
 Group   2 Type H   : 5s2p1d contracted to 3s1p1d pattern {311/2/1}
 Group   3 Type N   : 12s5p4d2f1g contracted to 6s4p3d1f1g pattern {711111/2111/211/2/1}
 Group   4 Type O   : 12s5p4d2f1g contracted to 6s4p3d1f1g pattern {711111/2111/211/2/1}

Atom   0C    basis set group =>   1
Atom   1H    basis set group =>   2
Atom   2N    basis set group =>   3
Atom   3O    basis set group =>   4
Atom   4O    basis set group =>   4
Atom   5H    basis set group =>   2
Atom   6C    basis set group =>   1
Atom   7H    basis set group =>   2
Atom   8H    basis set group =>   2
Atom   9C    basis set group =>   1
Atom  10H    basis set group =>   2
Atom  11C    basis set group =>   1
Atom  12C    basis set group =>   1
Atom  13C    basis set group =>   1
Atom  14C    basis set group =>   1
Atom  15C    basis set group =>   1
Atom  16N    basis set group =>   3
Atom  17H    basis set group =>   2
Atom  18H    basis set group =>   2
Atom  19H    basis set group =>   2
Atom  20H    basis set group =>   2
Atom  21H    basis set group =>   2
Atom  22H    basis set group =>   2
Atom  23H    basis set group =>   2
Atom  24O    basis set group =>   4


           ************************************************************
           *        Program running with 102 parallel MPI-processes   *
           *              working on a common directory               *
           ************************************************************
------------------------------------------------------------------------------
                           ORCA GTO INTEGRAL CALCULATION
                           -- RI-GTO INTEGRALS CHOSEN --
------------------------------------------------------------------------------
------------------------------------------------------------------------------
                   ___                                                        
                  /   \      - P O W E R E D   B Y -                         
                 /     \                                                     
                 |  |  |   _    _      __       _____    __    __             
                 |  |  |  | |  | |    /  \     |  _  \  |  |  /  |          
                  \  \/   | |  | |   /    \    | | | |  |  | /  /          
                 / \  \   | |__| |  /  /\  \   | |_| |  |  |/  /          
                |  |  |   |  __  | /  /__\  \  |    /   |      \           
                |  |  |   | |  | | |   __   |  |    \   |  |\   \          
                \     /   | |  | | |  |  |  |  | |\  \  |  | \   \       
                 \___/    |_|  |_| |__|  |__|  |_| \__\ |__|  \__/        
                                                                              
                      - O R C A' S   B I G   F R I E N D -                    
                                      &                                       
                       - I N T E G R A L  F E E D E R -                       
                                                                              
 v1 FN, 2020, v2 2021                                                         
------------------------------------------------------------------------------


Reading SHARK input file /home/rudenko/mop_saddle_orca_4_serv/for_orca/CH2CHCH2NO2_pyridine/orca/start_freq_D/start_f_D.SHARKINP.tmp ... ok
----------------------
SHARK INTEGRAL PACKAGE
----------------------

Number of atoms                             ...     25
Number of basis functions                   ...    475
Number of shells                            ...    191
Maximum angular momentum                    ...      3
Integral batch strategy                     ... SHARK/LIBINT Hybrid
RI-J (if used) integral strategy            ... SPLIT-RIJ (Revised 2003 algorithm where possible)
Printlevel                                  ...      1
Contraction scheme used                     ... SEGMENTED contraction
Coulomb Range Separation                    ... NOT USED
Exchange Range Separation                   ... NOT USED
Finite Nucleus Model                        ... NOT USED
Auxiliary Coulomb fitting basis             ... AVAILABLE
   # of basis functions in Aux-J            ...    769
   # of shells in Aux-J                     ...    255
   Maximum angular momentum in Aux-J        ...      4
Auxiliary J/K fitting basis                 ... NOT available
Auxiliary Correlation fitting basis         ... NOT available
Auxiliary 'external' fitting basis          ... NOT available
Integral threshold                          ...     2.500000e-11
Primitive cut-off                           ...     2.500000e-12
Primitive pair pre-selection threshold      ...     2.500000e-12

Calculating pre-screening integrals         ... done (  0.0 sec) Dimension = 191
Organizing shell pair data                  ... done (  0.4 sec)
Shell pair information
Total number of shell pairs                 ...     18336
Shell pairs after pre-screening             ...     14729
Total number of primitive shell pairs       ...     55600
Primitive shell pairs kept                  ...     30833
          la=0 lb=0:   4020 shell pairs
          la=1 lb=0:   4254 shell pairs
          la=1 lb=1:   1159 shell pairs
          la=2 lb=0:   2072 shell pairs
          la=2 lb=1:   1106 shell pairs
          la=2 lb=2:    273 shell pairs
          la=3 lb=0:    971 shell pairs
          la=3 lb=1:    546 shell pairs
          la=3 lb=2:    261 shell pairs
          la=3 lb=3:     67 shell pairs

Calculating one electron integrals          ... done (  0.1 sec)
Calculating RI/J V-Matrix + Cholesky decomp.... done (  0.0 sec)
Calculating Nuclear repulsion               ... done (  0.0 sec) ENN=    773.861670275650 Eh

SHARK setup successfully completed in   0.9 seconds

Maximum memory used throughout the entire GTOINT-calculation: 27.1 MB


           ************************************************************
           *        Program running with 102 parallel MPI-processes   *
           *              working on a common directory               *
           ************************************************************
-------------------------------------------------------------------------------
                                 ORCA SCF
-------------------------------------------------------------------------------

------------
SCF SETTINGS
------------
Hamiltonian:
 Density Functional     Method          .... DFT(GTOs)
 Exchange Functional    Exchange        .... B88
   X-Alpha parameter    XAlpha          ....  0.666667
   Becke's b parameter  XBeta           ....  0.004200
 Correlation Functional Correlation     .... LYP
 LDA part of GGA corr.  LDAOpt          .... VWN-5
 Gradients option       PostSCFGGA      .... off
 Hybrid DFT is turned on
   Fraction HF Exchange ScalHFX         ....  0.200000
   Scaling of DF-GGA-X  ScalDFX         ....  0.720000
   Scaling of DF-GGA-C  ScalDFC         ....  0.810000
   Scaling of DF-LDA-C  ScalLDAC        ....  1.000000
   Perturbative correction              ....  0.000000
   Density functional embedding theory  .... OFF
   NL short-range parameter             ....  4.800000
 RI-approximation to the Coulomb term is turned on
   Number of AuxJ basis functions       .... 769
   RIJ-COSX (HFX calculated with COS-X)).... on


General Settings:
 Integral files         IntName         .... /home/rudenko/mop_saddle_orca_4_serv/for_orca/CH2CHCH2NO2_pyridine/orca/start_freq_D/start_f_D
 Hartree-Fock type      HFTyp           .... RHF
 Total Charge           Charge          ....    0
 Multiplicity           Mult            ....    1
 Number of Electrons    NEL             ....   98
 Basis Dimension        Dim             ....  475
 Nuclear Repulsion      ENuc            ....    773.8616702756 Eh

Convergence Acceleration:
 DIIS                   CNVDIIS         .... on
   Start iteration      DIISMaxIt       ....    12
   Startup error        DIISStart       ....  0.200000
   # of expansion vecs  DIISMaxEq       ....     5
   Bias factor          DIISBfac        ....   1.050
   Max. coefficient     DIISMaxC        ....  10.000
 Trust-Rad. Augm. Hess. CNVTRAH         .... auto
   Auto Start mean grad. ratio tolernc. ....  1.125000
   Auto Start start iteration           ....    20
   Auto Start num. interpolation iter.  ....    10
   Max. Number of Micro iterations      ....    16
   Max. Number of Macro iterations      .... Maxiter - #DIIS iter
   Number of Davidson start vectors     ....     2
   Converg. threshold I  (grad. norm)   ....   1.000e-05
   Converg. threshold II (energy diff.) ....   1.000e-08
   Grad. Scal. Fac. for Micro threshold ....   0.100
   Minimum threshold for Micro iter.    ....   0.010
   NR start threshold (gradient norm)   ....   0.001
   Initial trust radius                 ....   0.400
   Minimum AH scaling param. (alpha)    ....   1.000
   Maximum AH scaling param. (alpha)    .... 1000.000
   Orbital update algorithm             .... Taylor
   White noise on init. David. guess    .... on
   Maximum white noise                  ....   0.010
   Quad. conv. algorithm                .... NR
 SOSCF                  CNVSOSCF        .... on
   Start iteration      SOSCFMaxIt      ....   150
   Startup grad/error   SOSCFStart      ....  0.003300
 Level Shifting         CNVShift        .... on
   Level shift para.    LevelShift      ....    0.2500
   Turn off err/grad.   ShiftErr        ....    0.0010
 Zerner damping         CNVZerner       .... off
 Static damping         CNVDamp         .... on
   Fraction old density DampFac         ....    0.7000
   Max. Damping (<1)    DampMax         ....    0.9800
   Min. Damping (>=0)   DampMin         ....    0.0000
   Turn off err/grad.   DampErr         ....    0.1000
 Fernandez-Rico         CNVRico         .... off

SCF Procedure:
 Maximum # iterations   MaxIter         ....   125
 SCF integral mode      SCFMode         .... Direct
   Integral package                     .... SHARK and LIBINT hybrid scheme
 Reset frequency        DirectResetFreq ....    20
 Integral Threshold     Thresh          ....  2.500e-11 Eh
 Primitive CutOff       TCut            ....  2.500e-12 Eh

Convergence Tolerance:
 Convergence Check Mode ConvCheckMode   .... Total+1el-Energy
 Convergence forced     ConvForced      .... 0
 Energy Change          TolE            ....  1.000e-08 Eh
 1-El. energy change                    ....  1.000e-05 Eh
 Orbital Gradient       TolG            ....  1.000e-05
 Orbital Rotation angle TolX            ....  1.000e-05
 DIIS Error             TolErr          ....  5.000e-07


Diagonalization of the overlap matrix:
Smallest eigenvalue                        ... 4.258e-05
Time for diagonalization                   ...    0.070 sec
Threshold for overlap eigenvalues          ... 1.000e-08
Number of eigenvalues below threshold      ... 0
Time for construction of square roots      ...    0.152 sec
Total time needed                          ...    0.225 sec

Time for model grid setup =    0.177 sec

------------------------------
INITIAL GUESS: MODEL POTENTIAL
------------------------------
Loading Hartree-Fock densities                     ... done
Calculating cut-offs                               ... done
Initializing the effective Hamiltonian             ... done
Setting up the integral package (SHARK)            ... done
Starting the Coulomb interaction                   ... done (   0.0 sec)
Reading the grid                                   ... done
Mapping shells                                     ... done
Starting the XC term evaluation                    ... done (   0.0 sec)
  promolecular density results
     # of electrons  =     98.001101856
     EX              =    -82.376553160
     EC              =     -3.331330303
     EX+EC           =    -85.707883463
Transforming the Hamiltonian                       ... done (   0.1 sec)
Diagonalizing the Hamiltonian                      ... done (   0.1 sec)
Back transforming the eigenvectors                 ... done (   0.0 sec)
Now organizing SCF variables                       ... done
                      ------------------
                      INITIAL GUESS DONE (   0.6 sec)
                      ------------------
-------------------
DFT GRID GENERATION
-------------------

General Integration Accuracy     IntAcc      ... 4.388
Radial Grid Type                 RadialGrid  ... OptM3 with GC (2021)
Angular Grid (max. ang.)         AngularGrid ... 4 (Lebedev-302)
Angular grid pruning method      GridPruning ... 4 (adaptive)
Weight generation scheme         WeightScheme... Becke
Basis function cutoff            BFCut       ... 1.0000e-11
Integration weight cutoff        WCut        ... 1.0000e-14
Angular grids for H and He will be reduced by one unit
Partially contracted basis set               ... off
Rotationally invariant grid construction     ... off

Total number of grid points                  ...   116932
Total number of batches                      ...     1839
Average number of points per batch           ...       63
Average number of grid points per atom       ...     4677
Time for grid setup =    0.942 sec

--------------------
COSX GRID GENERATION
--------------------

GRIDX 1
-------
General Integration Accuracy     IntAcc      ... 3.816
Radial Grid Type                 RadialGrid  ... OptM3 with GC (2021)
Angular Grid (max. ang.)         AngularGrid ... 1 (Lebedev-50)
Angular grid pruning method      GridPruning ... 4 (adaptive)
Weight generation scheme         WeightScheme... Becke
Basis function cutoff            BFCut       ... 1.0000e-11
Integration weight cutoff        WCut        ... 1.0000e-14
Angular grids for H and He will be reduced by one unit
Partially contracted basis set               ... on
Rotationally invariant grid construction     ... off

Total number of grid points                  ...    14887
Total number of batches                      ...      244
Average number of points per batch           ...       61
Average number of grid points per atom       ...      595
UseSFitting                                  ... on

GRIDX 2
-------
General Integration Accuracy     IntAcc      ... 4.020
Radial Grid Type                 RadialGrid  ... OptM3 with GC (2021)
Angular Grid (max. ang.)         AngularGrid ... 2 (Lebedev-110)
Angular grid pruning method      GridPruning ... 4 (adaptive)
Weight generation scheme         WeightScheme... Becke
Basis function cutoff            BFCut       ... 1.0000e-11
Integration weight cutoff        WCut        ... 1.0000e-14
Angular grids for H and He will be reduced by one unit
Partially contracted basis set               ... on
Rotationally invariant grid construction     ... off

Total number of grid points                  ...    32270
Total number of batches                      ...      518
Average number of points per batch           ...       62
Average number of grid points per atom       ...     1291
UseSFitting                                  ... on

GRIDX 3
-------
General Integration Accuracy     IntAcc      ... 4.338
Radial Grid Type                 RadialGrid  ... OptM3 with GC (2021)
Angular Grid (max. ang.)         AngularGrid ... 3 (Lebedev-194)
Angular grid pruning method      GridPruning ... 4 (adaptive)
Weight generation scheme         WeightScheme... Becke
Basis function cutoff            BFCut       ... 1.0000e-11
Integration weight cutoff        WCut        ... 1.0000e-14
Angular grids for H and He will be reduced by one unit
Partially contracted basis set               ... on
Rotationally invariant grid construction     ... off

Total number of grid points                  ...    70673
Total number of batches                      ...     1116
Average number of points per batch           ...       63
Average number of grid points per atom       ...     2827
UseSFitting                                  ... on

Time for X-Grid setup             =    1.255 sec


--------------------
CPCM SOLVATION MODEL
--------------------
CPCM parameters:
  Epsilon                                         ...      78.4000
  Refrac                                          ...       1.3300
  Rsolv                                           ...       1.3000
  Surface type                                    ... GAUSSIAN VDW
  Epsilon function type                           ...         CPCM
Radii:
 Radius for C  used is    3.8550 Bohr (=   2.0400 Ang.)
 Radius for H  used is    2.4944 Bohr (=   1.3200 Ang.)
 Radius for N  used is    3.5149 Bohr (=   1.8600 Ang.)
 Radius for O  used is    3.4469 Bohr (=   1.8240 Ang.)
Calculating surface                               ...        done! (  0.0s)
GEPOL surface points                              ...         1506
GEPOL Volume                                      ...    1617.4351
GEPOL Surface-area                                ...     917.0966
Calculating surface distance matrix               ...        done! (  0.1s)
Performing Cholesky decomposition & store         ...        done! (  0.5s)
Overall time for CPCM initialization              ...                 0.6s
--------------
SCF ITERATIONS
--------------
ITER       Energy         Delta-E        Max-DP      RMS-DP      [F,P]     Damp
               ***  Starting incremental Fock matrix formation  ***
  0   -646.6122939210   0.000000000000 0.05357473  0.00085847  0.3491942 0.7000
  1   -646.8244491768  -0.212155255754 0.03577627  0.00062236  0.1392959 0.7000
                               ***Turning on DIIS***
  2   -646.9009828571  -0.076533680290 0.05073134  0.00098456  0.0346726 0.0000
  3   -647.0313689886  -0.130386131479 0.03128824  0.00045871  0.0789183 0.0000
  4   -647.0555205690  -0.024151580437 0.00944793  0.00016103  0.0158568 0.0000
  5   -647.0572629920  -0.001742423045 0.00360896  0.00006147  0.0039387 0.0000
                      *** Initiating the SOSCF procedure ***
                           *** Shutting down DIIS ***
                      *** Re-Reading the Fockian *** 
                      *** Removing any level shift *** 
ITER      Energy       Delta-E        Grad      Rot      Max-DP    RMS-DP
  6   -647.05736014  -0.0000971512  0.000192  0.000192  0.001506  0.000027
               *** Restarting incremental Fock matrix formation ***
  7   -647.05734544   0.0000147056  0.000173  0.000311  0.000664  0.000016
  8   -647.05734407   0.0000013663  0.000244  0.000290  0.000387  0.000007
  9   -647.05734752  -0.0000034441  0.000041  0.000098  0.000096  0.000001
 10   -647.05734744   0.0000000798  0.000066  0.000090  0.000046  0.000001
 11   -647.05734755  -0.0000001142  0.000020  0.000061  0.000029  0.000000
 12   -647.05734756  -0.0000000088  0.000038  0.000044  0.000019  0.000000
 13   -647.05734755   0.0000000064  0.000003  0.000006  0.000013  0.000000
                  ***Gradient check signals convergence***
              ***Rediagonalizing the Fockian in SOSCF/NRSCF***

               *****************************************************
               *                     SUCCESS                       *
               *           SCF CONVERGED AFTER  14 CYCLES          *
               *****************************************************

Old exchange energy                            =    -16.700723998 Eh
New exchange energy                            =    -16.700714395 Eh
Exchange energy change after final integration =      0.000009603 Eh
Total energy after final integration           =   -647.057337932 Eh
Final COS-X integration done in                =     1.363 sec

----------------
TOTAL SCF ENERGY
----------------

Total Energy       :         -647.05733793 Eh          -17607.32530 eV

Components:
Nuclear Repulsion  :          773.86167028 Eh           21057.84661 eV
Electronic Energy  :        -1420.91900821 Eh          -38665.17191 eV
One Electron Energy:        -2416.00938445 Eh          -65742.95766 eV
Two Electron Energy:          995.09037624 Eh           27077.78575 eV
Max COSX asymmetry :            0.00000091 Eh               0.00002 eV
CPCM Dielectric    :           -0.03087015 Eh              -0.84002 eV

Virial components:
Potential Energy   :        -1291.41810035 Eh          -35141.27306 eV
Kinetic Energy     :          644.36076242 Eh           17533.94775 eV
Virial Ratio       :            2.00418488


DFT components:
N(Alpha)           :       48.999976847860 electrons
N(Beta)            :       48.999976847860 electrons
N(Total)           :       97.999953695719 electrons
E(X)               :      -66.476947786368 Eh       
E(C)               :       -3.936781719118 Eh       
E(XC)              :      -70.413729505487 Eh       
DFET-embed. en.    :        0.000000000000 Eh       
CPCM Solvation Model Properties:
Surface-charge          :           -0.02469863
Charge-correction       :           -0.00013875 Eh              -0.00378 eV
Free-energy (cav+disp)  :  This term is not implemented in the current solvation scheme

---------------
SCF CONVERGENCE
---------------

  Last Energy change         ...    1.6699e-08  Tolerance :   1.0000e-08
  Last MAX-Density change    ...    2.3315e-15  Tolerance :   1.0000e-07
  Last RMS-Density change    ...    1.7194e-17  Tolerance :   5.0000e-09
  Last Orbital Gradient      ...    2.3807e-06  Tolerance :   1.0000e-05
  Last Orbital Rotation      ...    2.7886e-06  Tolerance :   1.0000e-05

             **** THE GBW FILE WAS UPDATED (/home/rudenko/mop_saddle_orca_4_serv/for_orca/CH2CHCH2NO2_pyridine/orca/start_freq_D/start_f_D.gbw) ****
             **** DENSITY /home/rudenko/mop_saddle_orca_4_serv/for_orca/CH2CHCH2NO2_pyridine/orca/start_freq_D/start_f_D.scfp WAS UPDATED ****
             **** ENERGY FILE WAS UPDATED (/home/rudenko/mop_saddle_orca_4_serv/for_orca/CH2CHCH2NO2_pyridine/orca/start_freq_D/start_f_D.en.tmp) ****
             **** THE GBW FILE WAS UPDATED (/home/rudenko/mop_saddle_orca_4_serv/for_orca/CH2CHCH2NO2_pyridine/orca/start_freq_D/start_f_D.gbw) ****
             **** DENSITY /home/rudenko/mop_saddle_orca_4_serv/for_orca/CH2CHCH2NO2_pyridine/orca/start_freq_D/start_f_D.scfp WAS UPDATED ****
----------------
ORBITAL ENERGIES
----------------

  NO   OCC          E(Eh)            E(eV) 
   0   2.0000     -19.172491      -521.7100 
   1   2.0000     -19.168381      -521.5982 
   2   2.0000     -19.102118      -519.7951 
   3   2.0000     -14.555567      -396.0771 
   4   2.0000     -14.328032      -389.8856 
   5   2.0000     -10.228420      -278.3294 
   6   2.0000     -10.213334      -277.9189 
   7   2.0000     -10.213110      -277.9129 
   8   2.0000     -10.194222      -277.3989 
   9   2.0000     -10.184916      -277.1457 
  10   2.0000     -10.184670      -277.1390 
  11   2.0000     -10.184296      -277.1288 
  12   2.0000     -10.173446      -276.8336 
  13   2.0000      -1.242151       -33.8006 
  14   2.0000      -1.068895       -29.0861 
  15   2.0000      -0.984198       -26.7814 
  16   2.0000      -0.955670       -26.0051 
  17   2.0000      -0.836982       -22.7754 
  18   2.0000      -0.810809       -22.0632 
  19   2.0000      -0.770202       -20.9583 
  20   2.0000      -0.754270       -20.5247 
  21   2.0000      -0.638681       -17.3794 
  22   2.0000      -0.633828       -17.2473 
  23   2.0000      -0.631252       -17.1772 
  24   2.0000      -0.576868       -15.6974 
  25   2.0000      -0.555177       -15.1071 
  26   2.0000      -0.544410       -14.8142 
  27   2.0000      -0.539125       -14.6703 
  28   2.0000      -0.527847       -14.3634 
  29   2.0000      -0.505552       -13.7568 
  30   2.0000      -0.490286       -13.3414 
  31   2.0000      -0.473645       -12.8885 
  32   2.0000      -0.470730       -12.8092 
  33   2.0000      -0.441907       -12.0249 
  34   2.0000      -0.435289       -11.8448 
  35   2.0000      -0.413343       -11.2476 
  36   2.0000      -0.411247       -11.1906 
  37   2.0000      -0.403934       -10.9916 
  38   2.0000      -0.374749       -10.1975 
  39   2.0000      -0.370360       -10.0780 
  40   2.0000      -0.366461        -9.9719 
  41   2.0000      -0.330918        -9.0047 
  42   2.0000      -0.323861        -8.8127 
  43   2.0000      -0.312158        -8.4942 
  44   2.0000      -0.303032        -8.2459 
  45   2.0000      -0.296873        -8.0783 
  46   2.0000      -0.280276        -7.6267 
  47   2.0000      -0.278237        -7.5712 
  48   2.0000      -0.273017        -7.4292 
  49   0.0000      -0.078882        -2.1465 
  50   0.0000      -0.042231        -1.1492 
  51   0.0000      -0.026085        -0.7098 
  52   0.0000      -0.011247        -0.3060 
  53   0.0000       0.037257         1.0138 
  54   0.0000       0.064324         1.7503 
  55   0.0000       0.072514         1.9732 
  56   0.0000       0.074083         2.0159 
  57   0.0000       0.089794         2.4434 
  58   0.0000       0.100291         2.7291 
  59   0.0000       0.105937         2.8827 
  60   0.0000       0.111800         3.0422 
  61   0.0000       0.116383         3.1669 
  62   0.0000       0.120870         3.2890 
  63   0.0000       0.129903         3.5349 
  64   0.0000       0.131925         3.5899 
  65   0.0000       0.145898         3.9701 
  66   0.0000       0.159465         4.3393 
  67   0.0000       0.164972         4.4891 
  68   0.0000       0.171159         4.6575 
  69   0.0000       0.184050         5.0083 
  70   0.0000       0.190763         5.1909 
  71   0.0000       0.206812         5.6276 
  72   0.0000       0.214576         5.8389 
  73   0.0000       0.217134         5.9085 
  74   0.0000       0.222320         6.0496 
  75   0.0000       0.231788         6.3073 
  76   0.0000       0.234742         6.3877 
  77   0.0000       0.249589         6.7917 
  78   0.0000       0.253664         6.9026 
  79   0.0000       0.261429         7.1138 
  80   0.0000       0.276178         7.5152 
  81   0.0000       0.280216         7.6251 
  82   0.0000       0.283945         7.7265 
  83   0.0000       0.292505         7.9595 
  84   0.0000       0.295587         8.0433 
  85   0.0000       0.314759         8.5650 
  86   0.0000       0.328993         8.9523 
  87   0.0000       0.330206         8.9854 
  88   0.0000       0.335275         9.1233 
  89   0.0000       0.338709         9.2167 
  90   0.0000       0.348769         9.4905 
  91   0.0000       0.353141         9.6095 
  92   0.0000       0.361600         9.8396 
  93   0.0000       0.375640        10.2217 
  94   0.0000       0.384333        10.4582 
  95   0.0000       0.387666        10.5489 
  96   0.0000       0.395432        10.7603 
  97   0.0000       0.408987        11.1291 
  98   0.0000       0.411761        11.2046 
  99   0.0000       0.416744        11.3402 
 100   0.0000       0.419007        11.4018 
 101   0.0000       0.423854        11.5336 
 102   0.0000       0.430770        11.7218 
 103   0.0000       0.438055        11.9201 
 104   0.0000       0.444858        12.1052 
 105   0.0000       0.450067        12.2469 
 106   0.0000       0.454843        12.3769 
 107   0.0000       0.457478        12.4486 
 108   0.0000       0.465641        12.6707 
 109   0.0000       0.471530        12.8310 
 110   0.0000       0.481624        13.1057 
 111   0.0000       0.487857        13.2753 
 112   0.0000       0.489597        13.3226 
 113   0.0000       0.497477        13.5371 
 114   0.0000       0.501978        13.6595 
 115   0.0000       0.511512        13.9190 
 116   0.0000       0.517848        14.0913 
 117   0.0000       0.525634        14.3032 
 118   0.0000       0.530660        14.4400 
 119   0.0000       0.544145        14.8069 
 120   0.0000       0.557018        15.1572 
 121   0.0000       0.563060        15.3217 
 122   0.0000       0.577101        15.7037 
 123   0.0000       0.587022        15.9737 
 124   0.0000       0.591119        16.0852 
 125   0.0000       0.603911        16.4332 
 126   0.0000       0.616519        16.7763 
 127   0.0000       0.621821        16.9206 
 128   0.0000       0.640593        17.4314 
 129   0.0000       0.643616        17.5137 
 130   0.0000       0.661408        17.9978 
 131   0.0000       0.666936        18.1482 
 132   0.0000       0.672840        18.3089 
 133   0.0000       0.686699        18.6860 
 134   0.0000       0.691922        18.8281 
 135   0.0000       0.699975        19.0473 
 136   0.0000       0.719529        19.5794 
 137   0.0000       0.738013        20.0823 
 138   0.0000       0.753485        20.5034 
 139   0.0000       0.756575        20.5875 
 140   0.0000       0.760811        20.7027 
 141   0.0000       0.772015        21.0076 
 142   0.0000       0.800932        21.7945 
 143   0.0000       0.812923        22.1207 
 144   0.0000       0.820617        22.3301 
 145   0.0000       0.846923        23.0459 
 146   0.0000       0.854896        23.2629 
 147   0.0000       0.863248        23.4902 
 148   0.0000       0.888322        24.1725 
 149   0.0000       0.901342        24.5268 
 150   0.0000       0.904876        24.6229 
 151   0.0000       0.919900        25.0318 
 152   0.0000       0.944018        25.6880 
 153   0.0000       0.960245        26.1296 
 154   0.0000       0.977347        26.5950 
 155   0.0000       0.981036        26.6954 
 156   0.0000       1.004984        27.3470 
 157   0.0000       1.013543        27.5799 
 158   0.0000       1.040545        28.3147 
 159   0.0000       1.051614        28.6159 
 160   0.0000       1.059385        28.8273 
 161   0.0000       1.075124        29.2556 
 162   0.0000       1.097556        29.8660 
 163   0.0000       1.102665        30.0050 
 164   0.0000       1.113744        30.3065 
 165   0.0000       1.141371        31.0583 
 166   0.0000       1.163706        31.6661 
 167   0.0000       1.175603        31.9898 
 168   0.0000       1.185099        32.2482 
 169   0.0000       1.188264        32.3343 
 170   0.0000       1.199208        32.6321 
 171   0.0000       1.214236        33.0410 
 172   0.0000       1.224295        33.3148 
 173   0.0000       1.233410        33.5628 
 174   0.0000       1.247907        33.9573 
 175   0.0000       1.264264        34.4024 
 176   0.0000       1.269999        34.5584 
 177   0.0000       1.284260        34.9465 
 178   0.0000       1.294036        35.2125 
 179   0.0000       1.302201        35.4347 
 180   0.0000       1.322086        35.9758 
 181   0.0000       1.325213        36.0609 
 182   0.0000       1.340259        36.4703 
 183   0.0000       1.359184        36.9853 
 184   0.0000       1.384659        37.6785 
 185   0.0000       1.392893        37.9025 
 186   0.0000       1.407308        38.2948 
 187   0.0000       1.426864        38.8270 
 188   0.0000       1.439749        39.1776 
 189   0.0000       1.453556        39.5533 
 190   0.0000       1.461480        39.7689 
 191   0.0000       1.470284        40.0085 
 192   0.0000       1.475867        40.1604 
 193   0.0000       1.491644        40.5897 
 194   0.0000       1.493754        40.6471 
 195   0.0000       1.507942        41.0332 
 196   0.0000       1.523395        41.4537 
 197   0.0000       1.532721        41.7074 
 198   0.0000       1.553818        42.2815 
 199   0.0000       1.590460        43.2786 
 200   0.0000       1.591686        43.3120 
 201   0.0000       1.592287        43.3283 
 202   0.0000       1.607892        43.7530 
 203   0.0000       1.620845        44.1054 
 204   0.0000       1.631887        44.4059 
 205   0.0000       1.639658        44.6174 
 206   0.0000       1.652636        44.9705 
 207   0.0000       1.658720        45.1361 
 208   0.0000       1.677617        45.6503 
 209   0.0000       1.694641        46.1135 
 210   0.0000       1.696626        46.1675 
 211   0.0000       1.716942        46.7204 
 212   0.0000       1.726089        46.9693 
 213   0.0000       1.726540        46.9816 
 214   0.0000       1.734589        47.2006 
 215   0.0000       1.741855        47.3983 
 216   0.0000       1.756148        47.7872 
 217   0.0000       1.764806        48.0228 
 218   0.0000       1.774889        48.2972 
 219   0.0000       1.778717        48.4014 
 220   0.0000       1.813663        49.3523 
 221   0.0000       1.819936        49.5230 
 222   0.0000       1.826133        49.6916 
 223   0.0000       1.828234        49.7488 
 224   0.0000       1.848575        50.3023 
 225   0.0000       1.869912        50.8829 
 226   0.0000       1.874152        50.9983 
 227   0.0000       1.911943        52.0266 
 228   0.0000       1.923344        52.3369 
 229   0.0000       1.940362        52.7999 
 230   0.0000       1.949571        53.0505 
 231   0.0000       1.963540        53.4306 
 232   0.0000       1.971026        53.6343 
 233   0.0000       2.009688        54.6864 
 234   0.0000       2.016743        54.8784 
 235   0.0000       2.024987        55.1027 
 236   0.0000       2.056012        55.9469 
 237   0.0000       2.060975        56.0820 
 238   0.0000       2.072477        56.3950 
 239   0.0000       2.085682        56.7543 
 240   0.0000       2.107553        57.3494 
 241   0.0000       2.117762        57.6272 
 242   0.0000       2.132379        58.0250 
 243   0.0000       2.139981        58.2318 
 244   0.0000       2.179455        59.3060 
 245   0.0000       2.184150        59.4337 
 246   0.0000       2.193985        59.7014 
 247   0.0000       2.217902        60.3522 
 248   0.0000       2.227524        60.6140 
 249   0.0000       2.230588        60.6974 
 250   0.0000       2.241188        60.9858 
 251   0.0000       2.252578        61.2958 
 252   0.0000       2.266399        61.6719 
 253   0.0000       2.290996        62.3412 
 254   0.0000       2.305424        62.7338 
 255   0.0000       2.319284        63.1109 
 256   0.0000       2.338536        63.6348 
 257   0.0000       2.350858        63.9701 
 258   0.0000       2.360025        64.2195 
 259   0.0000       2.401013        65.3349 
 260   0.0000       2.411273        65.6141 
 261   0.0000       2.430110        66.1266 
 262   0.0000       2.443597        66.4937 
 263   0.0000       2.454327        66.7856 
 264   0.0000       2.466814        67.1254 
 265   0.0000       2.480909        67.5090 
 266   0.0000       2.494045        67.8664 
 267   0.0000       2.522063        68.6288 
 268   0.0000       2.539990        69.1166 
 269   0.0000       2.547127        69.3108 
 270   0.0000       2.549508        69.3757 
 271   0.0000       2.572606        70.0042 
 272   0.0000       2.579366        70.1881 
 273   0.0000       2.597593        70.6841 
 274   0.0000       2.603006        70.8314 
 275   0.0000       2.612681        71.0947 
 276   0.0000       2.622208        71.3539 
 277   0.0000       2.633021        71.6482 
 278   0.0000       2.639488        71.8241 
 279   0.0000       2.651507        72.1512 
 280   0.0000       2.659166        72.3596 
 281   0.0000       2.667142        72.5766 
 282   0.0000       2.674882        72.7872 
 283   0.0000       2.681655        72.9716 
 284   0.0000       2.683662        73.0262 
 285   0.0000       2.694051        73.3089 
 286   0.0000       2.698774        73.4374 
 287   0.0000       2.706760        73.6547 
 288   0.0000       2.726324        74.1871 
 289   0.0000       2.737693        74.4964 
 290   0.0000       2.753444        74.9250 
 291   0.0000       2.776028        75.5396 
 292   0.0000       2.790721        75.9394 
 293   0.0000       2.795616        76.0726 
 294   0.0000       2.798811        76.1595 
 295   0.0000       2.814994        76.5999 
 296   0.0000       2.822998        76.8177 
 297   0.0000       2.845766        77.4372 
 298   0.0000       2.849622        77.5422 
 299   0.0000       2.873965        78.2046 
 300   0.0000       2.902267        78.9747 
 301   0.0000       2.906948        79.1021 
 302   0.0000       2.922140        79.5155 
 303   0.0000       2.932842        79.8067 
 304   0.0000       2.944041        80.1114 
 305   0.0000       2.967564        80.7515 
 306   0.0000       2.982637        81.1617 
 307   0.0000       2.994398        81.4817 
 308   0.0000       3.003466        81.7285 
 309   0.0000       3.022904        82.2574 
 310   0.0000       3.046099        82.8886 
 311   0.0000       3.059170        83.2442 
 312   0.0000       3.073511        83.6345 
 313   0.0000       3.080102        83.8138 
 314   0.0000       3.085908        83.9718 
 315   0.0000       3.099286        84.3359 
 316   0.0000       3.107541        84.5605 
 317   0.0000       3.114770        84.7572 
 318   0.0000       3.118295        84.8531 
 319   0.0000       3.142664        85.5162 
 320   0.0000       3.146986        85.6339 
 321   0.0000       3.157378        85.9166 
 322   0.0000       3.171526        86.3016 
 323   0.0000       3.174144        86.3729 
 324   0.0000       3.179425        86.5166 
 325   0.0000       3.183496        86.6273 
 326   0.0000       3.197752        87.0153 
 327   0.0000       3.215567        87.5000 
 328   0.0000       3.221229        87.6541 
 329   0.0000       3.228595        87.8545 
 330   0.0000       3.240097        88.1675 
 331   0.0000       3.245588        88.3169 
 332   0.0000       3.251894        88.4885 
 333   0.0000       3.272119        89.0389 
 334   0.0000       3.278981        89.2256 
 335   0.0000       3.291551        89.5677 
 336   0.0000       3.309141        90.0463 
 337   0.0000       3.348840        91.1266 
 338   0.0000       3.357395        91.3594 
 339   0.0000       3.368743        91.6682 
 340   0.0000       3.382039        92.0300 
 341   0.0000       3.395421        92.3941 
 342   0.0000       3.402929        92.5984 
 343   0.0000       3.417500        92.9949 
 344   0.0000       3.424264        93.1790 
 345   0.0000       3.437147        93.5295 
 346   0.0000       3.465016        94.2879 
 347   0.0000       3.472102        94.4807 
 348   0.0000       3.485642        94.8491 
 349   0.0000       3.518491        95.7430 
 350   0.0000       3.542590        96.3988 
 351   0.0000       3.548422        96.5575 
 352   0.0000       3.560029        96.8733 
 353   0.0000       3.572046        97.2003 
 354   0.0000       3.667715        99.8036 
 355   0.0000       3.676586       100.0450 
 356   0.0000       3.714732       101.0830 
 357   0.0000       3.720894       101.2507 
 358   0.0000       3.738811       101.7382 
 359   0.0000       3.748065       101.9900 
 360   0.0000       3.771010       102.6144 
 361   0.0000       3.772873       102.6651 
 362   0.0000       3.782380       102.9238 
 363   0.0000       3.836267       104.3901 
 364   0.0000       3.883581       105.6776 
 365   0.0000       3.889585       105.8410 
 366   0.0000       3.909072       106.3712 
 367   0.0000       3.926841       106.8548 
 368   0.0000       3.969878       108.0259 
 369   0.0000       3.998708       108.8104 
 370   0.0000       4.011321       109.1536 
 371   0.0000       4.017362       109.3180 
 372   0.0000       4.029847       109.6577 
 373   0.0000       4.059303       110.4592 
 374   0.0000       4.075310       110.8948 
 375   0.0000       4.086852       111.2089 
 376   0.0000       4.103630       111.6654 
 377   0.0000       4.137246       112.5802 
 378   0.0000       4.154047       113.0374 
 379   0.0000       4.167216       113.3957 
 380   0.0000       4.189889       114.0127 
 381   0.0000       4.261118       115.9509 
 382   0.0000       4.274392       116.3121 
 383   0.0000       4.289932       116.7350 
 384   0.0000       4.302964       117.0896 
 385   0.0000       4.327178       117.7485 
 386   0.0000       4.371624       118.9579 
 387   0.0000       4.380242       119.1924 
 388   0.0000       4.402548       119.7994 
 389   0.0000       4.429703       120.5383 
 390   0.0000       4.483849       122.0117 
 391   0.0000       4.510559       122.7386 
 392   0.0000       4.534058       123.3780 
 393   0.0000       4.549233       123.7909 
 394   0.0000       4.577275       124.5540 
 395   0.0000       4.590653       124.9180 
 396   0.0000       4.611206       125.4773 
 397   0.0000       4.650011       126.5332 
 398   0.0000       4.699321       127.8750 
 399   0.0000       4.702839       127.9708 
 400   0.0000       4.714605       128.2909 
 401   0.0000       4.719506       128.4243 
 402   0.0000       4.792409       130.4081 
 403   0.0000       4.808303       130.8406 
 404   0.0000       4.832265       131.4926 
 405   0.0000       4.836385       131.6047 
 406   0.0000       4.871439       132.5586 
 407   0.0000       4.915251       133.7508 
 408   0.0000       4.922671       133.9527 
 409   0.0000       4.936249       134.3222 
 410   0.0000       4.952909       134.7755 
 411   0.0000       5.036328       137.0455 
 412   0.0000       5.056417       137.5921 
 413   0.0000       5.083011       138.3158 
 414   0.0000       5.098177       138.7284 
 415   0.0000       5.113805       139.1537 
 416   0.0000       5.118908       139.2926 
 417   0.0000       5.122888       139.4009 
 418   0.0000       5.137475       139.7978 
 419   0.0000       5.150411       140.1498 
 420   0.0000       5.169138       140.6594 
 421   0.0000       5.219518       142.0303 
 422   0.0000       5.251472       142.8998 
 423   0.0000       5.275414       143.5513 
 424   0.0000       5.291918       144.0004 
 425   0.0000       5.312814       144.5690 
 426   0.0000       5.343593       145.4066 
 427   0.0000       5.398418       146.8984 
 428   0.0000       5.402936       147.0214 
 429   0.0000       5.423908       147.5920 
 430   0.0000       5.466440       148.7494 
 431   0.0000       5.475959       149.0084 
 432   0.0000       5.573612       151.6657 
 433   0.0000       5.608636       152.6188 
 434   0.0000       5.627953       153.1444 
 435   0.0000       5.637662       153.4086 
 436   0.0000       5.689672       154.8239 
 437   0.0000       5.795681       157.7085 
 438   0.0000       5.939597       161.6246 
 439   0.0000       5.999698       163.2601 
 440   0.0000       6.090665       165.7354 
 441   0.0000       6.234194       169.6411 
 442   0.0000       6.279297       170.8684 
 443   0.0000       6.322879       172.0543 
 444   0.0000       6.329278       172.2284 
 445   0.0000       6.343815       172.6240 
 446   0.0000       6.363250       173.1528 
 447   0.0000       6.382739       173.6832 
 448   0.0000       6.401466       174.1928 
 449   0.0000       6.438280       175.1945 
 450   0.0000       6.455409       175.6606 
 451   0.0000       6.664054       181.3381 
 452   0.0000       6.841871       186.1768 
 453   0.0000       6.865607       186.8227 
 454   0.0000       6.922503       188.3709 
 455   0.0000       6.966728       189.5743 
 456   0.0000       7.085018       192.7931 
 457   0.0000       7.097331       193.1282 
 458   0.0000       7.249213       197.2611 
 459   0.0000       7.298569       198.6042 
 460   0.0000       7.343438       199.8251 
 461   0.0000       7.386509       200.9971 
 462   0.0000      22.115545       601.7946 
 463   0.0000      22.252036       605.5087 
 464   0.0000      22.474123       611.5520 
 465   0.0000      22.532051       613.1283 
 466   0.0000      22.610045       615.2506 
 467   0.0000      22.738859       618.7558 
 468   0.0000      22.757754       619.2700 
 469   0.0000      22.993684       625.6900 
 470   0.0000      32.394325       881.4944 
 471   0.0000      32.448049       882.9563 
 472   0.0000      43.543982      1184.8920 
 473   0.0000      43.929561      1195.3841 
 474   0.0000      43.997074      1197.2213 

                    ********************************
                    * MULLIKEN POPULATION ANALYSIS *
                    ********************************

-----------------------
MULLIKEN ATOMIC CHARGES
-----------------------
   0 C :   -0.104983
   1 H :    0.139928
   2 N :    0.449199
   3 O :   -0.343457
   4 O :   -0.357891
   5 H :    0.146627
   6 C :   -0.146495
   7 H :    0.163479
   8 H :    0.175409
   9 C :   -0.295691
  10 H :    0.148230
  11 C :   -0.011603
  12 C :   -0.128119
  13 C :   -0.109627
  14 C :   -0.125676
  15 C :   -0.018547
  16 N :   -0.322756
  17 H :    0.156488
  18 H :    0.154779
  19 H :    0.154727
  20 H :    0.156659
  21 H :    0.161395
  22 H :    0.344115
  23 H :    0.340527
  24 O :   -0.726716
Sum of atomic charges:   -0.0000000

--------------------------------
MULLIKEN REDUCED ORBITAL CHARGES
--------------------------------
  0 C s       :     3.213038  s :     3.213038
      pz      :     0.962944  p :     2.808031
      px      :     0.957052
      py      :     0.888035
      dz2     :     0.021504  d :     0.076714
      dxz     :     0.006153
      dyz     :     0.016308
      dx2y2   :     0.012357
      dxy     :     0.020392
      f0      :     0.000728  f :     0.007200
      f+1     :     0.000379
      f-1     :     0.001800
      f+2     :     0.000791
      f-2     :     0.001097
      f+3     :     0.001476
      f-3     :     0.000929
  1 H s       :     0.837591  s :     0.837591
      pz      :     0.013570  p :     0.022481
      px      :     0.005183
      py      :     0.003728
  2 N s       :     3.314661  s :     3.314661
      pz      :     0.959386  p :     2.983081
      px      :     1.070657
      py      :     0.953038
      dz2     :     0.056167  d :     0.238721
      dxz     :     0.033775
      dyz     :     0.050725
      dx2y2   :     0.048056
      dxy     :     0.049997
      f0      :     0.001646  f :     0.014338
      f+1     :     0.001691
      f-1     :     0.002490
      f+2     :     0.002845
      f-2     :     0.001739
      f+3     :     0.001952
      f-3     :     0.001975
  3 O s       :     3.884742  s :     3.884742
      pz      :     1.256753  p :     4.413610
      px      :     1.560062
      py      :     1.596795
      dz2     :     0.011999  d :     0.041806
      dxz     :     0.010258
      dyz     :     0.009466
      dx2y2   :     0.003896
      dxy     :     0.006187
      f0      :     0.000561  f :     0.003299
      f+1     :     0.000585
      f-1     :     0.000570
      f+2     :     0.000450
      f-2     :     0.000740
      f+3     :     0.000183
      f-3     :     0.000211
  4 O s       :     3.881031  s :     3.881031
      pz      :     1.545405  p :     4.432163
      px      :     1.669817
      py      :     1.216941
      dz2     :     0.005782  d :     0.041406
      dxz     :     0.003714
      dyz     :     0.011516
      dx2y2   :     0.011261
      dxy     :     0.009133
      f0      :     0.000310  f :     0.003290
      f+1     :     0.000090
      f-1     :     0.000603
      f+2     :     0.000585
      f-2     :     0.000536
      f+3     :     0.000553
      f-3     :     0.000615
  5 H s       :     0.831573  s :     0.831573
      pz      :     0.013090  p :     0.021800
      px      :     0.004922
      py      :     0.003788
  6 C s       :     3.233400  s :     3.233400
      pz      :     1.011507  p :     2.814183
      px      :     0.833676
      py      :     0.969001
      dz2     :     0.020455  d :     0.091854
      dxz     :     0.013207
      dyz     :     0.011160
      dx2y2   :     0.018016
      dxy     :     0.029016
      f0      :     0.000791  f :     0.007058
      f+1     :     0.000809
      f-1     :     0.001076
      f+2     :     0.000790
      f-2     :     0.001166
      f+3     :     0.001196
      f-3     :     0.001231
  7 H s       :     0.813859  s :     0.813859
      pz      :     0.004369  p :     0.022663
      px      :     0.008835
      py      :     0.009459
  8 H s       :     0.802465  s :     0.802465
      pz      :     0.013743  p :     0.022126
      px      :     0.003950
      py      :     0.004432
  9 C s       :     3.291444  s :     3.291444
      pz      :     1.020465  p :     2.954109
      px      :     0.976864
      py      :     0.956781
      dz2     :     0.013185  d :     0.045190
      dxz     :     0.002832
      dyz     :     0.010746
      dx2y2   :     0.006979
      dxy     :     0.011447
      f0      :     0.000721  f :     0.004947
      f+1     :     0.000256
      f-1     :     0.000938
      f+2     :     0.000516
      f-2     :     0.000722
      f+3     :     0.001229
      f-3     :     0.000564
 10 H s       :     0.829788  s :     0.829788
      pz      :     0.006213  p :     0.021982
      px      :     0.005777
      py      :     0.009992
 11 C s       :     3.188979  s :     3.188979
      pz      :     0.862181  p :     2.706009
      px      :     0.877833
      py      :     0.965995
      dz2     :     0.021804  d :     0.105834
      dxz     :     0.022393
      dyz     :     0.031768
      dx2y2   :     0.019373
      dxy     :     0.010496
      f0      :     0.002338  f :     0.010781
      f+1     :     0.001782
      f-1     :     0.001813
      f+2     :     0.001152
      f-2     :     0.001834
      f+3     :     0.000906
      f-3     :     0.000955
 12 C s       :     3.215135  s :     3.215135
      pz      :     0.989492  p :     2.828269
      px      :     0.931116
      py      :     0.907661
      dz2     :     0.018699  d :     0.077447
      dxz     :     0.014048
      dyz     :     0.012413
      dx2y2   :     0.017079
      dxy     :     0.015208
      f0      :     0.000742  f :     0.007267
      f+1     :     0.001039
      f-1     :     0.001206
      f+2     :     0.000791
      f-2     :     0.001388
      f+3     :     0.000963
      f-3     :     0.001138
 13 C s       :     3.214353  s :     3.214353
      pz      :     0.902042  p :     2.806942
      px      :     0.971218
      py      :     0.933682
      dz2     :     0.023357  d :     0.081040
      dxz     :     0.015741
      dyz     :     0.019870
      dx2y2   :     0.008318
      dxy     :     0.013754
      f0      :     0.001356  f :     0.007293
      f+1     :     0.000671
      f-1     :     0.001505
      f+2     :     0.000867
      f-2     :     0.001485
      f+3     :     0.000630
      f-3     :     0.000778
 14 C s       :     3.216158  s :     3.216158
      pz      :     0.925570  p :     2.825156
      px      :     0.921004
      py      :     0.978582
      dz2     :     0.014043  d :     0.077094
      dxz     :     0.016409
      dyz     :     0.023060
      dx2y2   :     0.014346
      dxy     :     0.009236
      f0      :     0.001369  f :     0.007268
      f+1     :     0.000764
      f-1     :     0.001151
      f+2     :     0.000770
      f-2     :     0.001420
      f+3     :     0.000832
      f-3     :     0.000962
 15 C s       :     3.200405  s :     3.200405
      pz      :     0.963013  p :     2.701093
      px      :     0.905454
      py      :     0.832626
      dz2     :     0.025103  d :     0.106252
      dxz     :     0.020058
      dyz     :     0.017529
      dx2y2   :     0.025373
      dxy     :     0.018188
      f0      :     0.001142  f :     0.010798
      f+1     :     0.001102
      f-1     :     0.002151
      f+2     :     0.001493
      f-2     :     0.002116
      f+3     :     0.001341
      f-3     :     0.001452
 16 N s       :     3.614947  s :     3.614947
      pz      :     1.064129  p :     3.642362
      px      :     1.307339
      py      :     1.270894
      dz2     :     0.015826  d :     0.061708
      dxz     :     0.012834
      dyz     :     0.014248
      dx2y2   :     0.009753
      dxy     :     0.009048
      f0      :     0.000773  f :     0.003739
      f+1     :     0.000432
      f-1     :     0.000862
      f+2     :     0.000577
      f-2     :     0.000628
      f+3     :     0.000200
      f-3     :     0.000266
 17 H s       :     0.821793  s :     0.821793
      pz      :     0.007177  p :     0.021719
      px      :     0.004472
      py      :     0.010070
 18 H s       :     0.822874  s :     0.822874
      pz      :     0.012415  p :     0.022347
      px      :     0.006039
      py      :     0.003893
 19 H s       :     0.822925  s :     0.822925
      pz      :     0.008191  p :     0.022348
      px      :     0.004534
      py      :     0.009623
 20 H s       :     0.821718  s :     0.821718
      pz      :     0.011975  p :     0.021623
      px      :     0.006269
      py      :     0.003379
 21 H s       :     0.816575  s :     0.816575
      pz      :     0.004406  p :     0.022031
      px      :     0.008781
      py      :     0.008844
 22 H s       :     0.609740  s :     0.609740
      pz      :     0.015882  p :     0.046145
      px      :     0.012669
      py      :     0.017593
 23 H s       :     0.603437  s :     0.603437
      pz      :     0.012868  p :     0.056036
      px      :     0.026360
      py      :     0.016808
 24 O s       :     3.793745  s :     3.793745
      pz      :     1.694563  p :     4.913484
      px      :     1.646205
      py      :     1.572716
      dz2     :     0.002450  d :     0.018292
      dxz     :     0.003941
      dyz     :     0.007171
      dx2y2   :     0.002631
      dxy     :     0.002099
      f0      :     0.000099  f :     0.001195
      f+1     :     0.000009
      f-1     :     0.000204
      f+2     :     0.000266
      f-2     :     0.000202
      f+3     :     0.000109
      f-3     :     0.000307


                     *******************************
                     * LOEWDIN POPULATION ANALYSIS *
                     *******************************

----------------------
LOEWDIN ATOMIC CHARGES
----------------------
   0 C :   -0.209848
   1 H :    0.147566
   2 N :   -0.048861
   3 O :   -0.040509
   4 O :   -0.060478
   5 H :    0.130758
   6 C :   -0.210169
   7 H :    0.152602
   8 H :    0.162512
   9 C :   -0.181492
  10 H :    0.130254
  11 C :   -0.198711
  12 C :   -0.136191
  13 C :   -0.104214
  14 C :   -0.136234
  15 C :   -0.198593
  16 N :    0.110857
  17 H :    0.145216
  18 H :    0.155151
  19 H :    0.155250
  20 H :    0.145481
  21 H :    0.156326
  22 H :    0.161235
  23 H :    0.134924
  24 O :   -0.362831

-------------------------------
LOEWDIN REDUCED ORBITAL CHARGES
-------------------------------
  0 C s       :     2.793966  s :     2.793966
      pz      :     1.013155  p :     2.983745
      px      :     0.896910
      py      :     1.073680
      dz2     :     0.102997  d :     0.388808
      dxz     :     0.026312
      dyz     :     0.112714
      dx2y2   :     0.074884
      dxy     :     0.071900
      f0      :     0.003819  f :     0.043330
      f+1     :     0.001912
      f-1     :     0.012297
      f+2     :     0.007151
      f-2     :     0.006186
      f+3     :     0.005928
      f-3     :     0.006037
  1 H s       :     0.791788  s :     0.791788
      pz      :     0.034870  p :     0.060645
      px      :     0.014570
      py      :     0.011205
  2 N s       :     2.953276  s :     2.953276
      pz      :     1.073369  p :     3.278217
      px      :     1.115054
      py      :     1.089794
      dz2     :     0.154079  d :     0.745141
      dxz     :     0.116208
      dyz     :     0.177757
      dx2y2   :     0.148498
      dxy     :     0.148599
      f0      :     0.008091  f :     0.072228
      f+1     :     0.009521
      f-1     :     0.011593
      f+2     :     0.015105
      f-2     :     0.006731
      f+3     :     0.011009
      f-3     :     0.010177
  3 O s       :     3.497639  s :     3.497639
      pz      :     1.338288  p :     4.431487
      px      :     1.530270
      py      :     1.562929
      dz2     :     0.023834  d :     0.100166
      dxz     :     0.028054
      dyz     :     0.024804
      dx2y2   :     0.010237
      dxy     :     0.013238
      f0      :     0.001478  f :     0.011217
      f+1     :     0.002167
      f-1     :     0.002047
      f+2     :     0.001856
      f-2     :     0.002566
      f+3     :     0.000537
      f-3     :     0.000566
  4 O s       :     3.502297  s :     3.502297
      pz      :     1.516710  p :     4.448246
      px      :     1.600098
      py      :     1.331438
      dz2     :     0.013563  d :     0.098910
      dxz     :     0.007477
      dyz     :     0.028714
      dx2y2   :     0.025289
      dxy     :     0.023868
      f0      :     0.001111  f :     0.011026
      f+1     :     0.000221
      f-1     :     0.001955
      f+2     :     0.002103
      f-2     :     0.001709
      f+3     :     0.002092
      f-3     :     0.001835
  5 H s       :     0.807206  s :     0.807206
      pz      :     0.035991  p :     0.062036
      px      :     0.014528
      py      :     0.011517
  6 C s       :     2.803034  s :     2.803034
      pz      :     1.032315  p :     2.965621
      px      :     0.905197
      py      :     1.028110
      dz2     :     0.090019  d :     0.395595
      dxz     :     0.055693
      dyz     :     0.059215
      dx2y2   :     0.069054
      dxy     :     0.121615
      f0      :     0.004352  f :     0.045918
      f+1     :     0.005479
      f-1     :     0.006350
      f+2     :     0.007318
      f-2     :     0.007560
      f+3     :     0.006670
      f-3     :     0.008188
  7 H s       :     0.784217  s :     0.784217
      pz      :     0.013015  p :     0.063181
      px      :     0.023971
      py      :     0.026195
  8 H s       :     0.775901  s :     0.775901
      pz      :     0.036213  p :     0.061586
      px      :     0.012028
      py      :     0.013345
  9 C s       :     2.857044  s :     2.857044
      pz      :     1.039608  p :     3.056454
      px      :     0.933466
      py      :     1.083380
      dz2     :     0.067110  d :     0.239562
      dxz     :     0.010468
      dyz     :     0.083947
      dx2y2   :     0.039254
      dxy     :     0.038783
      f0      :     0.003190  f :     0.028432
      f+1     :     0.001298
      f-1     :     0.007045
      f+2     :     0.004889
      f-2     :     0.003320
      f+3     :     0.004761
      f-3     :     0.003930
 10 H s       :     0.807639  s :     0.807639
      pz      :     0.019877  p :     0.062108
      px      :     0.016255
      py      :     0.025975
 11 C s       :     2.779743  s :     2.779743
      pz      :     0.950480  p :     2.870473
      px      :     0.944948
      py      :     0.975045
      dz2     :     0.096882  d :     0.486681
      dxz     :     0.120353
      dyz     :     0.140027
      dx2y2   :     0.074194
      dxy     :     0.055225
      f0      :     0.012732  f :     0.061815
      f+1     :     0.011306
      f-1     :     0.011609
      f+2     :     0.005895
      f-2     :     0.009448
      f+3     :     0.005799
      f-3     :     0.005026
 12 C s       :     2.770894  s :     2.770894
      pz      :     0.983542  p :     2.952671
      px      :     0.958460
      py      :     1.010670
      dz2     :     0.088185  d :     0.369330
      dxz     :     0.064565
      dyz     :     0.069757
      dx2y2   :     0.070651
      dxy     :     0.076173
      f0      :     0.004473  f :     0.043296
      f+1     :     0.004783
      f-1     :     0.008801
      f+2     :     0.005943
      f-2     :     0.007631
      f+3     :     0.006756
      f-3     :     0.004908
 13 C s       :     2.769744  s :     2.769744
      pz      :     1.029845  p :     2.903732
      px      :     0.911254
      py      :     0.962633
      dz2     :     0.111562  d :     0.386622
      dxz     :     0.074237
      dyz     :     0.100062
      dx2y2   :     0.031136
      dxy     :     0.069626
      f0      :     0.007288  f :     0.044116
      f+1     :     0.005695
      f-1     :     0.010500
      f+2     :     0.006605
      f-2     :     0.006985
      f+3     :     0.003872
      f-3     :     0.003171
 14 C s       :     2.770796  s :     2.770796
      pz      :     1.010088  p :     2.952698
      px      :     0.967882
      py      :     0.974729
      dz2     :     0.072749  d :     0.369384
      dxz     :     0.077747
      dyz     :     0.108401
      dx2y2   :     0.058759
      dxy     :     0.051727
      f0      :     0.008071  f :     0.043356
      f+1     :     0.006484
      f-1     :     0.007665
      f+2     :     0.003659
      f-2     :     0.006886
      f+3     :     0.005534
[...]
     51      -0.211795   0.147004  -0.039530   0.001834   0.036029   0.035667
     52      -0.603592   0.419557  -0.112011   0.005575   0.098507   0.097186
     53       0.469369  -0.326896   0.086655  -0.004367  -0.073654  -0.072775
     54      -0.065163   0.069571   0.133781   0.001433  -0.300147  -0.254522
     55       0.014910  -0.015370  -0.022662  -0.000375   0.056008   0.049526
     56      -0.140398   0.149358   0.277480   0.003084  -0.630285  -0.537420
     57       0.020459   0.042747   0.065673   0.000954   0.142832  -0.126183
     58       0.075718   0.156418   0.225861   0.003640   0.501057  -0.447145
     59      -0.069155  -0.141811  -0.197395  -0.003253  -0.443114   0.397831
     60       0.274118   0.370457  -0.076751   0.002920  -0.064578   0.066681
     61      -0.008209  -0.011698   0.001918  -0.000158  -0.000377   0.000515
     62       0.502606   0.679827  -0.140180   0.006324  -0.115215   0.118655
     63       0.007560  -0.070749  -0.585358   0.004172  -0.002561  -0.319348
     64       0.008130  -0.072316  -0.598838   0.004274  -0.005311  -0.326728
     65       0.002429  -0.028155  -0.232436   0.001671   0.002767  -0.126857
     66       0.000387  -0.001712   0.000574  -0.000122  -0.000007  -0.001486
     67       0.000610  -0.003335   0.001058  -0.000124  -0.000026  -0.002841
     68      -0.000272   0.001917  -0.000594   0.000152   0.000022   0.001591
     69      -0.008481   0.046896  -0.016007   0.004492   0.000281   0.037278
     70      -0.004951   0.029610  -0.010059   0.002093   0.000052   0.023355
     71      -0.004059   0.018768  -0.006463   0.001580   0.000307   0.014996
     72       0.000540  -0.002994   0.001027  -0.000283  -0.000019  -0.002388
     73       0.000324  -0.001753   0.000609  -0.000104  -0.000005  -0.001387
     74       0.000239  -0.001368   0.000462  -0.000118  -0.000015  -0.001096
                 72         73         74    
      0       0.005754  -0.000078  -0.000001
      1      -0.004813   0.000067   0.000003
      2      -0.024824   0.000464   0.000004
      3      -0.066933   0.000479   0.000020
      4       0.041469  -0.000574   0.000061
      5       0.270913  -0.005003  -0.000167
      6      -0.000211   0.000119  -0.000072
      7       0.000095  -0.000149   0.000011
      8      -0.000131  -0.000015  -0.000022
      9       0.000033   0.000002   0.000010
     10      -0.000049   0.000021   0.000005
     11       0.000083   0.000034  -0.000001
     12       0.000070   0.000012   0.000010
     13       0.000012   0.000084  -0.000015
     14       0.000012  -0.000013  -0.000004
     15      -0.131262   0.000011   0.000012
     16       0.100174  -0.000151  -0.000018
     17       0.565474  -0.001010  -0.000019
     18       0.000309   0.000101  -0.000012
     19      -0.001028  -0.000153   0.000047
     20      -0.001113  -0.000142   0.000019
     21      -0.000274  -0.001561   0.000020
     22       0.000965   0.000049   0.000076
     23      -0.000043  -0.000141   0.000510
     24      -0.005842  -0.001504   0.000772
     25       0.001393   0.001202  -0.000427
     26       0.019767   0.002129  -0.000410
     27       0.032813   0.000038  -0.000006
     28       0.043160   0.000064  -0.000009
     29      -0.078213   0.000028   0.000003
     30      -0.258558  -0.000243   0.000053
     31      -0.589760  -0.000583   0.000009
     32       0.385420   0.000453  -0.000041
     33      -0.000004  -0.001133   0.000002
     34       0.000052  -0.004224  -0.000093
     35      -0.000075   0.003850   0.000124
     36      -0.000003   0.000614  -0.000018
     37       0.000024  -0.000184  -0.000018
     38      -0.000021   0.001154  -0.000014
     39      -0.000017   0.000624  -0.000004
     40      -0.000022   0.000645  -0.000004
     41      -0.000004   0.000246   0.000001
     42       0.000002   0.000314  -0.000012
     43       0.000020   0.000924  -0.000023
     44      -0.000036  -0.000961   0.000005
     45       0.000082  -0.002218  -0.000073
     46      -0.000023   0.000705   0.000023
     47       0.000081  -0.005057  -0.000155
     48       0.000053  -0.001284  -0.000182
     49      -0.000029  -0.000353  -0.000132
     50       0.000013  -0.000462   0.000010
     51      -0.000187   0.011187   0.000078
     52      -0.000605   0.035844   0.000518
     53       0.000463  -0.029013  -0.000465
     54       0.000113  -0.010974  -0.000205
     55      -0.000003  -0.000115  -0.000088
     56       0.000250  -0.020466  -0.000217
     57      -0.000067  -0.006229  -0.000167
     58      -0.000328  -0.017758  -0.000293
     59       0.000281   0.013531   0.000086
     60      -0.000312   0.020963   0.000150
     61       0.000008  -0.002018  -0.000080
     62      -0.000859   0.041821   0.000558
     63       0.000170  -0.007371  -0.000001
     64       0.000187  -0.007293   0.000026
     65       0.000065  -0.002819   0.000010
     66       0.000036   0.035579  -0.196347
     67      -0.000012   0.068262  -0.723004
     68      -0.000006  -0.040042   0.655614
     69      -0.001283  -0.793659  -0.052278
     70      -0.000624  -0.501997  -0.013893
     71      -0.000477  -0.317766  -0.045298
     72       0.000081   0.049870   0.015914
     73       0.000036   0.028735   0.046607
     74       0.000038   0.023296  -0.038450


-----------
IR SPECTRUM
-----------

 Mode   freq       eps      Int      T**2         TX        TY        TZ
       cm**-1   L/(mol*cm) km/mol    a.u.
----------------------------------------------------------------------------
  6:      3.99   0.000000    0.00  0.000000  ( 0.000000  0.000000  0.000000)
  7:     24.65   0.000273    1.38  0.003460  ( 0.037722 -0.034194 -0.029451)
  8:     25.15   0.000096    0.49  0.001195  (-0.018063  0.026584 -0.012713)
  9:     37.07   0.000090    0.45  0.000757  (-0.016730  0.015913  0.014947)
 10:     54.26   0.000255    1.29  0.001466  ( 0.030634  0.018987  0.012924)
 11:     58.85   0.000004    0.02  0.000020  ( 0.000472  0.002937  0.003301)
 12:     70.52   0.000196    0.99  0.000867  ( 0.026704 -0.007123 -0.010177)
 13:     72.55   0.000435    2.20  0.001872  ( 0.017677  0.038492  0.008833)
 14:    111.93   0.004062   20.53  0.011326  (-0.059784  0.041783  0.077497)
 15:    127.40   0.002377   12.01  0.005823  (-0.035082  0.056980  0.036679)
 16:    174.03   0.001796    9.08  0.003220  ( 0.050364  0.025972  0.003018)
 17:    265.80   0.003287   16.61  0.003859  (-0.007824  0.059752  0.015098)
 18:    273.10   0.037329  188.65  0.042654  (-0.127758  0.127784  0.100018)
 19:    389.74   0.000239    1.21  0.000192  (-0.012759 -0.005364  0.000059)
 20:    390.39   0.000223    1.13  0.000178  (-0.010054 -0.008755 -0.000804)
 21:    416.44   0.000754    3.81  0.000565  (-0.022876  0.003484  0.005411)
 22:    483.13   0.001874    9.47  0.001210  ( 0.029296  0.018461 -0.003346)
 23:    508.53   0.027374  138.34  0.016798  (-0.085462 -0.097283 -0.005532)
 24:    546.41   0.000113    0.57  0.000065  (-0.000135 -0.008041  0.000078)
 25:    596.94   0.004371   22.09  0.002285  (-0.006491  0.042551  0.020794)
 26:    633.77   0.003567   18.02  0.001756  ( 0.032118  0.025850  0.007513)
 27:    667.90   0.000083    0.42  0.000039  (-0.001987 -0.005451  0.002310)
 28:    711.82   0.013018   65.79  0.005707  ( 0.073598 -0.011923  0.012172)
 29:    717.14   0.021890  110.62  0.009525  (-0.066520  0.056802  0.043289)
 30:    755.17   0.022439  113.40  0.009272  (-0.054186  0.061357  0.050712)
 31:    786.38   0.008900   44.98  0.003532  ( 0.023183 -0.041605 -0.035544)
 32:    862.21   0.004893   24.73  0.001771  ( 0.031745  0.007259  0.026657)
 33:    900.85   0.000002    0.01  0.000001  ( 0.000713 -0.000193  0.000270)
 34:    902.10   0.002473   12.50  0.000855  (-0.017389 -0.023030 -0.004766)
 35:    935.84   0.000292    1.48  0.000098  ( 0.000460  0.009803 -0.001093)
 36:    970.53   0.000032    0.16  0.000010  (-0.002372  0.001758  0.001195)
 37:    982.31   0.015436   78.01  0.004904  (-0.067852  0.008306 -0.015198)
 38:   1013.10   0.000039    0.19  0.000012  (-0.001723  0.002030 -0.002187)
 39:   1026.28   0.003456   17.47  0.001051  (-0.004162  0.028788 -0.014311)
 40:   1027.43   0.004827   24.39  0.001466  ( 0.027233  0.025067  0.009807)
 41:   1033.80   0.000005    0.03  0.000002  ( 0.000415 -0.000823 -0.000882)
 42:   1037.46   0.005490   27.74  0.001651  ( 0.038124 -0.000110  0.014064)
 43:   1055.46   0.003384   17.10  0.001001  (-0.021351 -0.021262 -0.009623)
 44:   1085.00   0.000127    0.64  0.000036  ( 0.002524 -0.001375  0.005309)
 45:   1093.29   0.003461   17.49  0.000988  (-0.022403 -0.020484 -0.008148)
 46:   1170.66   0.001069    5.40  0.000285  (-0.001687  0.008202 -0.014655)
 47:   1185.28   0.002682   13.56  0.000706  ( 0.000337 -0.023556  0.012297)
 48:   1233.45   0.001827    9.23  0.000462  (-0.015902 -0.013472 -0.005269)
 49:   1284.69   0.008147   41.17  0.001979  ( 0.025593 -0.016963  0.032190)
 50:   1289.35   0.000428    2.17  0.000104  ( 0.002093 -0.004502  0.008892)
 51:   1306.29   0.002185   11.04  0.000522  ( 0.013193  0.018276 -0.003714)
 52:   1328.07   0.001127    5.69  0.000265  (-0.001891  0.012656 -0.010049)
 53:   1389.77   0.000248    1.25  0.000056  (-0.000610  0.003344 -0.006640)
 54:   1418.26   0.030550  154.39  0.006722  ( 0.063125  0.049710  0.016316)
 55:   1459.26   0.006719   33.96  0.001437  ( 0.012150  0.034430  0.010193)
 56:   1475.89   0.010414   52.63  0.002202  ( 0.004671 -0.022269  0.041039)
 57:   1519.68   0.000418    2.11  0.000086  ( 0.004883  0.006838  0.003910)
 58:   1563.10   0.133115  672.71  0.026576  (-0.016037  0.120649 -0.108454)
 59:   1616.56   0.000429    2.17  0.000083  ( 0.001239  0.004958 -0.007529)
 60:   1632.36   0.011932   60.30  0.002281  ( 0.032502  0.034071  0.007993)
 61:   1646.10   0.019178   96.92  0.003636  ( 0.023634 -0.016317  0.053019)
 62:   1707.43   0.000318    1.60  0.000058  ( 0.001155 -0.005168 -0.005477)
 63:   2299.10   0.000459    2.32  0.000062  ( 0.004115  0.006394 -0.002124)
 64:   3110.91   0.000765    3.87  0.000077  (-0.004624 -0.007442  0.000067)
 65:   3134.84   0.001105    5.58  0.000110  ( 0.000109  0.008161  0.006586)
 66:   3165.55   0.004647   23.48  0.000458  (-0.003349  0.009769 -0.018747)
 67:   3167.86   0.000280    1.42  0.000028  ( 0.003497  0.003313 -0.002097)
 68:   3183.98   0.000344    1.74  0.000034  ( 0.003521  0.004233  0.001834)
 69:   3186.61   0.000247    1.25  0.000024  (-0.002567  0.001344  0.003977)
 70:   3200.02   0.003323   16.79  0.000324  ( 0.002360 -0.008464  0.015712)
 71:   3205.61   0.002820   14.25  0.000275  ( 0.012250  0.010486  0.003811)
 72:   3220.72   0.001811    9.15  0.000175  ( 0.005365  0.004282 -0.011329)
 73:   3287.21   0.343950  1738.18  0.032652  (-0.139441 -0.106083 -0.044211)
 74:   3774.31   0.018780   94.91  0.001553  (-0.019340 -0.032332  0.011549)

* The epsilon (eps) is given for a Dirac delta lineshape.
** The dipole moment derivative (T) already includes vibrational overlap.

The first frequency considered to be a vibration is 6
The total number of vibrations considered is 69


--------------------------
THERMOCHEMISTRY AT 298.15K
--------------------------

Temperature         ... 298.15 K
Pressure            ... 1.00 atm
Total Mass          ... 185.19 AMU

Throughout the following assumptions are being made:
  (1) The electronic state is orbitally nondegenerate
  (2) There are no thermally accessible electronically excited states
  (3) Hindered rotations indicated by low frequency modes are not
      treated as such but are treated as vibrations and this may
      cause some error
  (4) All equations used are the standard statistical mechanics
      equations for an ideal gas
  (5) All vibrations are strictly harmonic

freq.       3.99  E(vib)   ...       0.59 
freq.      24.65  E(vib)   ...       0.56 
freq.      25.15  E(vib)   ...       0.56 
freq.      37.07  E(vib)   ...       0.54 
freq.      54.26  E(vib)   ...       0.52 
freq.      58.85  E(vib)   ...       0.51 
freq.      70.52  E(vib)   ...       0.50 
freq.      72.55  E(vib)   ...       0.49 
freq.     111.93  E(vib)   ...       0.45 
freq.     127.40  E(vib)   ...       0.43 
freq.     174.03  E(vib)   ...       0.38 
freq.     265.80  E(vib)   ...       0.29 
freq.     273.10  E(vib)   ...       0.29 
freq.     389.74  E(vib)   ...       0.20 
freq.     390.39  E(vib)   ...       0.20 
freq.     416.44  E(vib)   ...       0.18 
freq.     483.13  E(vib)   ...       0.15 
freq.     508.53  E(vib)   ...       0.14 
freq.     546.41  E(vib)   ...       0.12 
freq.     596.94  E(vib)   ...       0.10 
freq.     633.77  E(vib)   ...       0.09 
freq.     667.90  E(vib)   ...       0.08 
freq.     711.82  E(vib)   ...       0.07 
freq.     717.14  E(vib)   ...       0.07 
freq.     755.17  E(vib)   ...       0.06 
freq.     786.38  E(vib)   ...       0.05 
freq.     862.21  E(vib)   ...       0.04 
freq.     900.85  E(vib)   ...       0.03 
freq.     902.10  E(vib)   ...       0.03 
freq.     935.84  E(vib)   ...       0.03 
freq.     970.53  E(vib)   ...       0.03 
freq.     982.31  E(vib)   ...       0.02 
freq.    1013.10  E(vib)   ...       0.02 
freq.    1026.28  E(vib)   ...       0.02 
freq.    1027.43  E(vib)   ...       0.02 
freq.    1033.80  E(vib)   ...       0.02 
freq.    1037.46  E(vib)   ...       0.02 
freq.    1055.46  E(vib)   ...       0.02 
freq.    1085.00  E(vib)   ...       0.02 
freq.    1093.29  E(vib)   ...       0.02 
freq.    1170.66  E(vib)   ...       0.01 
freq.    1185.28  E(vib)   ...       0.01 
freq.    1233.45  E(vib)   ...       0.01 
freq.    1284.69  E(vib)   ...       0.01 
freq.    1289.35  E(vib)   ...       0.01 
freq.    1306.29  E(vib)   ...       0.01 
freq.    1328.07  E(vib)   ...       0.01 
freq.    1389.77  E(vib)   ...       0.00 
freq.    1418.26  E(vib)   ...       0.00 
freq.    1459.26  E(vib)   ...       0.00 
freq.    1475.89  E(vib)   ...       0.00 
freq.    1519.68  E(vib)   ...       0.00 
freq.    1563.10  E(vib)   ...       0.00 
freq.    1616.56  E(vib)   ...       0.00 
freq.    1632.36  E(vib)   ...       0.00 
freq.    1646.10  E(vib)   ...       0.00 
freq.    1707.43  E(vib)   ...       0.00 
freq.    2299.10  E(vib)   ...       0.00 
freq.    3110.91  E(vib)   ...       0.00 
freq.    3134.84  E(vib)   ...       0.00 
freq.    3165.55  E(vib)   ...       0.00 
freq.    3167.86  E(vib)   ...       0.00 
freq.    3183.98  E(vib)   ...       0.00 
freq.    3186.61  E(vib)   ...       0.00 
freq.    3200.02  E(vib)   ...       0.00 
freq.    3205.61  E(vib)   ...       0.00 
freq.    3220.72  E(vib)   ...       0.00 
freq.    3287.21  E(vib)   ...       0.00 
freq.    3774.31  E(vib)   ...       0.00 

------------
INNER ENERGY
------------

The inner energy is: U= E(el) + E(ZPE) + E(vib) + E(rot) + E(trans)
    E(el)   - is the total energy from the electronic structure calculation
              = E(kin-el) + E(nuc-el) + E(el-el) + E(nuc-nuc)
    E(ZPE)  - the the zero temperature vibrational energy from the frequency calculation
    E(vib)  - the the finite temperature correction to E(ZPE) due to population
              of excited vibrational states
    E(rot)  - is the rotational thermal energy
    E(trans)- is the translational thermal energy

Summary of contributions to the inner energy U:
Electronic energy                ...   -647.09910363 Eh
Zero point energy                ...      0.19362526 Eh     121.50 kcal/mol
Thermal vibrational correction   ...      0.01279951 Eh       8.03 kcal/mol
Thermal rotational correction    ...      0.00141627 Eh       0.89 kcal/mol
Thermal translational correction ...      0.00141627 Eh       0.89 kcal/mol
-----------------------------------------------------------------------
Total thermal energy                   -646.88984631 Eh


Summary of corrections to the electronic energy:
(perhaps to be used in another calculation)
Total thermal correction                  0.01563206 Eh       9.81 kcal/mol
Non-thermal (ZPE) correction              0.19362526 Eh     121.50 kcal/mol
-----------------------------------------------------------------------
Total correction                          0.20925732 Eh     131.31 kcal/mol


--------
ENTHALPY
--------

The enthalpy is H = U + kB*T
                kB is Boltzmann's constant
Total free energy                 ...   -646.88984631 Eh 
Thermal Enthalpy correction       ...      0.00094421 Eh       0.59 kcal/mol
-----------------------------------------------------------------------
Total Enthalpy                    ...   -646.88890210 Eh


Note: Only C1 symmetry has been detected, increase convergence thresholds 
      if your molecule has a higher symmetry. Symmetry factor of 1.0 is   
      used for the rotational entropy correction. 
 

Note: Rotational entropy computed according to Herzberg 
Infrared and Raman Spectra, Chapter V,1, Van Nostrand Reinhold, 1945 
Point Group:  C1, Symmetry Number:   1  
Rotational constants in cm-1:     0.040218     0.013660     0.012217 

Vibrational entropy computed according to the QRRHO of S. Grimme
Chem.Eur.J. 2012 18 9955


-------
ENTROPY
-------

The entropy contributions are T*S = T*(S(el)+S(vib)+S(rot)+S(trans))
     S(el)   - electronic entropy
     S(vib)  - vibrational entropy
     S(rot)  - rotational entropy
     S(trans)- translational entropy
The entropies will be listed as multiplied by the temperature to get
units of energy

Electronic entropy                ...      0.00000000 Eh      0.00 kcal/mol
Vibrational entropy               ...      0.02495993 Eh     15.66 kcal/mol
Rotational entropy                ...      0.01513421 Eh      9.50 kcal/mol
Translational entropy             ...      0.01974394 Eh     12.39 kcal/mol
-----------------------------------------------------------------------
Final entropy term                ...      0.05983808 Eh     37.55 kcal/mol

In case the symmetry of your molecule has not been determined correctly
or in case you have a reason to use a different symmetry number we print 
out the resulting rotational entropy values for sn=1,12 :
 --------------------------------------------------------
|  sn= 1 | S(rot)=       0.01513421 Eh      9.50 kcal/mol|
|  sn= 2 | S(rot)=       0.01447975 Eh      9.09 kcal/mol|
|  sn= 3 | S(rot)=       0.01409692 Eh      8.85 kcal/mol|
|  sn= 4 | S(rot)=       0.01382530 Eh      8.68 kcal/mol|
|  sn= 5 | S(rot)=       0.01361461 Eh      8.54 kcal/mol|
|  sn= 6 | S(rot)=       0.01344246 Eh      8.44 kcal/mol|
|  sn= 7 | S(rot)=       0.01329692 Eh      8.34 kcal/mol|
|  sn= 8 | S(rot)=       0.01317084 Eh      8.26 kcal/mol|
|  sn= 9 | S(rot)=       0.01305963 Eh      8.20 kcal/mol|
|  sn=10 | S(rot)=       0.01296015 Eh      8.13 kcal/mol|
|  sn=11 | S(rot)=       0.01287016 Eh      8.08 kcal/mol|
|  sn=12 | S(rot)=       0.01278801 Eh      8.02 kcal/mol|
 --------------------------------------------------------


-------------------
GIBBS FREE ENERGY
-------------------

The Gibbs free energy is G = H - T*S

Total enthalpy                    ...   -646.88890210 Eh 
Total entropy correction          ...     -0.05983808 Eh    -37.55 kcal/mol
-----------------------------------------------------------------------
Final Gibbs free energy         ...   -646.94874019 Eh

For completeness - the Gibbs free energy minus the electronic energy
G-E(el)                           ...      0.15036344 Eh     94.35 kcal/mol



Timings for individual modules:

Sum of individual times         ...     1389.272 sec (=  23.155 min)
GTO integral calculation        ...        9.556 sec (=   0.159 min)   0.7 %
SCF iterations                  ...       81.939 sec (=   1.366 min)   5.9 %
SCF Gradient evaluation         ...       20.526 sec (=   0.342 min)   1.5 %
Numerical frequency calculation ...     1277.252 sec (=  21.288 min)  91.9 %
                             ****ORCA TERMINATED NORMALLY****
TOTAL RUN TIME: 0 days 0 hours 22 minutes 16 seconds 335 msec
