 *******************************************************************************
 **                                                                           **
 **                              MOPAC v22.0.6                                **
 **                                                                           **
 *******************************************************************************
 **          Digital Object Identifier (DOI): 10.5281/zenodo.6511958          **
 **    Visit the DOI location for information on how to cite this program.    **
 *******************************************************************************

                              PM7 CALCULATION RESULTS

 *******************************************************************************
 *  CALCULATION DONE:                                Mon Mar 25 22:29:38 2024  *
 *  PM7        - The PM7 Hamiltonian to be used
 *  SINGLET    - SPIN STATE DEFINED AS A SINGLET
 *
 *
 *
 *                 CHARGE ON SYSTEM = -1
 *
 *
 *
 *  EPS=78.4   - USE ANDREAS KLAMT'S COSMO IMPLICIT SOLVATION MODEL
 *  SADDLE     - TRANSITION STATE TO BE OPTIMIZED
 *  T=         - A TIME OF 14.0 DAYS REQUESTED
 *  DUMP=N     - RESTART FILE WRITTEN EVERY 30.0 MINUTES REQUESTED
 *  RELSCF     - DEFAULT SCF CRITERION MULTIPLIED BY 1.0000
 *              (DEFAULT SCF CRITERION = 0.00010)
 *  ITRY=      - DO A MAXIMUM OF 15000 ITERATIONS FOR SCF
 *  AUX        - OUTPUT AUXILIARY INFORMATION
 *  BONDS      - FINAL BOND-ORDER MATRIX TO BE PRINTED
 *******************************************************************************
SADDLE PM7 BONDS AUX DUMP=30M ITRY=15000 T=14D CHARGE=-1 SINGLET eps=78.4 RELSCF=1


   ATOM   CHEMICAL          X               Y               Z
  NUMBER   SYMBOL      (ANGSTROMS)     (ANGSTROMS)     (ANGSTROMS)

     1       C          0.88896399  *   3.27562149  *   1.95684653  *
     2       C          1.38127259  *   1.97359172  *   1.87903971  *
     3       C          0.50241992  *   0.89328412  *   1.77223590  *
     4       C         -0.87694434  *   1.10897581  *   1.73760168  *
     5       C         -1.33250299  *   2.41574310  *   1.81740849  *
     6       C         -0.48502268  *   3.50975430  *   1.92747070  *
     7       H          1.57890772  *   4.11921990  *   2.03998041  *
     8       H          2.46430321  *   1.79968541  *   1.90239478  *
     9       H         -1.56966546  *   0.26783110  *   1.64574444  *
    10      Cl         -3.02909011  *   2.69004765  *   1.77700879  *
    11       H         -0.87420179  *   4.52771779  *   1.98906783  *
    12       C          1.06703892  *  -0.49940604  *   1.71138984  *
    13       C          0.44624914  *  -1.42798674  *   2.74618955  *
    14       H          0.92680897  *  -2.41733659  *   2.76317606  *
    15       H         -0.62830048  *  -1.59213476  *   2.58457870  *
    16       H          0.54678350  *  -1.00558991  *   3.75905726  *
    17       N          0.81634451  *  -1.06874468  *   0.34376088  *
    18       O          1.77298990  *  -1.47287178  *  -0.29871304  *
    19       O         -0.32410303  *  -1.11560849  *  -0.08583272  *
    20       H          2.19886469  *  -0.46790252  *   1.86221710  *
    21       O          6.54596097  *   0.07100014  *   2.57367770  *
    22       H          6.86811431  *   0.68490917  *   1.96909017  *
    23       H          5.28182888  *  -0.05549475  *   2.22059855  *
    24       H          4.19579370  *  -0.74635654  *   1.18318232  *
    25       O          4.18898874  *  -0.15533578  *   1.90911760  *



          CARTESIAN COORDINATES 

    NO.       ATOM           X           Y           Z

     1         C          0.8890      3.2756      1.9568
     2         C          1.3813      1.9736      1.8790
     3         C          0.5024      0.8933      1.7722
     4         C         -0.8769      1.1090      1.7376
     5         C         -1.3325      2.4157      1.8174
     6         C         -0.4850      3.5098      1.9275
     7         H          1.5789      4.1192      2.0400
     8         H          2.4643      1.7997      1.9024
     9         H         -1.5697      0.2678      1.6457
    10        Cl         -3.0291      2.6900      1.7770
    11         H         -0.8742      4.5277      1.9891
    12         C          1.0670     -0.4994      1.7114
    13         C          0.4462     -1.4280      2.7462
    14         H          0.9268     -2.4173      2.7632
    15         H         -0.6283     -1.5921      2.5846
    16         H          0.5468     -1.0056      3.7591
    17         N          0.8163     -1.0687      0.3438
    18         O          1.7730     -1.4729     -0.2987
    19         O         -0.3241     -1.1156     -0.0858
    20         H          2.1989     -0.4679      1.8622
    21         O          6.5460      0.0710      2.5737
    22         H          6.8681      0.6849      1.9691
    23         H          5.2818     -0.0555      2.2206
    24         H          4.1958     -0.7464      1.1832
    25         O          4.1890     -0.1553      1.9091

 General Reference for PM7:
 "Optimization of Parameters for Semiempirical Methods VI: More Modifications to the 
 NDDO Approximations and Re-optimization of Parameters", J. J. P. Stewart, J. Mol. Mod., 1:32, 19 (2013)
 https://link.springer.com/article/10.1007/s00894-012-1667-x

           Empirical Formula: C8 H11 N O4 Cl  =    25 atoms



      MOLECULAR POINT GROUP   :   C1  


 SINGLET STATE CALCULATION


      RHF CALCULATION, NO. OF DOUBLY OCCUPIED LEVELS = 40



  CARTESIAN GEOMETRY OF FIRST SYSTEM


   1    C          1.53295       3.05141       2.07784
   2    C          1.80236       1.68970       1.94998
   3    C          0.75782       0.77265       1.79834
   4    C         -0.56824       1.22329       1.77832
   5    C         -0.79618       2.58312       1.90809
   6    C          0.21811       3.51655       2.05691
   7    H          2.35426       3.76061       2.19415
   8    H          2.83591       1.34050       1.96761
   9    H         -1.38550       0.50944       1.66379
  10   Cl         -2.42857       3.13563       1.87825
  11    H          0.00782       4.58107       2.15541
  12    C          1.01156      -0.66365       1.68662
  13    C          0.96472      -1.46583       2.94050
  14    H          1.44087      -2.45144       2.82866
  15    H         -0.07368      -1.64695       3.25981
  16    H          1.46988      -0.95128       3.77098
  17    N          1.10365      -1.24253       0.49481
  18    O          1.21479      -2.49461       0.36464
  19    O          1.12340      -0.55785      -0.56863
  20    H          3.17942      -0.79652       1.83883
  21    O          6.53149      -0.82637       3.06833
  22    H          7.07078      -0.40519       2.38919
  23    H          5.64232      -0.82622       2.69762
  24    H          4.34633      -1.40397       1.07241
  25    O          4.15103      -0.80618       1.80680


  CARTESIAN GEOMETRY OF SECOND SYSTEM


   1    C          1.64424       3.07977       2.05634
   2    C          1.97967       1.72768       2.00121
   3    C          0.98059       0.75784       1.89123
   4    C         -0.36271       1.13501       1.83067
   5    C         -0.66113       2.48747       1.88837
   6    C          0.30839       3.47467       2.00093
   7    H          2.42805       3.83666       2.14202
   8    H          3.03391       1.42697       2.04497
   9    H         -1.14885       0.38076       1.73619
  10   Cl         -2.31232       2.96035       1.81598
  11    H          0.04187       4.53229       2.04472
  12    C          1.37679      -0.69261       1.85528
  13    C          0.63402      -1.52767       2.88942
  14    H          0.99343      -2.56669       2.92544
  15    H         -0.44975      -1.56539       2.71127
  16    H          0.76810      -1.10714       3.89917
  17    N          1.08175      -1.24581       0.48988
  18    O          1.99361      -1.76871      -0.13169
  19    O         -0.04932      -1.16274       0.04140
  20    H          2.50185      -0.79351       2.02508
  21    O          6.87049      -0.76443       2.80479
  22    H          7.27267      -0.20086       2.19912
  23    H          5.60597      -0.74477       2.43156
  24    H          4.46200      -1.31538       1.38336
  25    O          4.51402      -0.71841       2.10256


   "DISTANCE":     2.571181


  REACTION COORDINATE VECTOR


   1    C         -0.11129      -0.02835       0.02150
   2    C         -0.17731      -0.03798      -0.05123
   3    C         -0.22277       0.01481      -0.09289
   4    C         -0.20553       0.08828      -0.05235
   5    C         -0.13505       0.09565       0.01972
   6    C         -0.09028       0.04188       0.05598
   7    H         -0.07379      -0.07605       0.05213
   8    H         -0.19800      -0.08646      -0.07737
   9    H         -0.23665       0.12867      -0.07241
  10   Cl         -0.11625       0.17528       0.06227
  11    H         -0.03405       0.04878       0.11069
  12    C         -0.36522       0.02896      -0.16866
  13    C          0.33070       0.06183       0.05108
  14    H          0.44744       0.11525      -0.09678
  15    H          0.37607      -0.08156       0.54854
  16    H          0.70179       0.15585      -0.12820
  17    N          0.02190       0.00328       0.00493
  18    O         -0.77882      -0.72591       0.49633
  19    O          1.17272       0.60488      -0.61003
  20    H          0.67757      -0.00301      -0.18624
  21    O         -0.33900      -0.06195       0.26354
  22    H         -0.20189      -0.20432       0.19007
  23    H          0.03635      -0.08146       0.26606
  24    H         -0.11567      -0.08859      -0.31095
  25    O         -0.36299      -0.08777      -0.29576
 *+*+*+*+*+*+*+*+*+*+*+*+*+*+*+*+*+*+*+*+*+*+*+*+*+*+*+*+*+*+*+*+*+*+*+*+*+*+*+*+
            BAR SHORTENED BY       0.000 PERCENT
 GRADIENT CRITERION IN FLEPO =     1.000
  SCF CRITERION =    0.1000E-03
 

                    SINCE COS WAS JUST RESET,THE SEARCH IS BEING ENDED


          FOR POINT    1 SECOND STRUCTURE
 DISTANCE A - B      2.571181
 HEAT             -245.990819
 GRADIENT NORM       7.832522
 DIRECTION COSINE    0.000062
* ===============================
* Input file for Mopac
* ===============================
 PM7 BONDS AUX DUMP=30M ITRY=15000 T=14D CHARGE=-1 SINGLET eps=78.4 RELSCF=1


  C     0.00000000 +0    0.0000000 +0    0.0000000 +0     0     0     0
  C     1.39399019 +1    0.0000000 +0    0.0000000 +0     1     0     0
  C     1.39822457 +1  120.4138396 +1    0.0000000 +0     2     1     0
  C     1.40067850 +1  119.8543471 +1   -0.1770984 +1     3     2     1
  C     1.38489864 +1  118.0591228 +1    0.1747653 +1     4     3     2
  C     1.38643974 +1  123.4164031 +1   -0.0353189 +1     5     4     3
  H     1.09134555 +1  119.9417610 +1 -179.8989082 +1     1     2     3
  H     1.09108178 +1  119.6188784 +1  179.9314622 +1     2     1     3
  H     1.09115235 +1  120.0075452 +1 -179.7756819 +1     4     3     2
 Cl     1.72361998 +1  117.9698766 +1  179.8145558 +1     5     4     3
  H     1.08955383 +1  121.7557986 +1  179.9097579 +1     6     5     4
  C     1.46281976 +1  121.5116509 +1 -178.8697164 +1     3     2     1
  C     1.48926328 +1  117.3304726 +1   93.4434813 +1    12     3     2
  H     1.10029269 +1  112.5385804 +1 -163.4127121 +1    13    12     3
  H     1.10138079 +1  111.2432515 +1   76.6935709 +1    13    12     3
  H     1.09983641 +1  111.6724779 +1  -42.6809382 +1    13    12     3
  N     1.32815161 +1  120.5649110 +1  -95.1264711 +1    12     3     2
  O     1.26372877 +1  122.0301306 +1 -174.2101496 +1    17    12     3
  O     1.26494437 +1  121.3032649 +1    7.8861419 +1    17    12     3
  H     2.16828772 +1  117.6802939 +1  177.7459896 +1     8     2     1
  O     3.57056726 +1   97.8464260 +1 -161.9563189 +1    20     8     2
  H     0.96409073 +1  106.1962453 +1  -69.1755646 +1    21    20     8
  H     0.96335649 +1    2.5338414 +1 -107.0758843 +1    21    20     8
  H     1.52252538 +1  122.9931826 +1  142.9271095 +1    20     8     2
  O     0.96686630 +1   38.3859315 +1   60.0977950 +1    24    20     8

 TIME=     0.49
  REACTANTS AND PRODUCTS SWAPPED AROUND
 *+*+*+*+*+*+*+*+*+*+*+*+*+*+*+*+*+*+*+*+*+*+*+*+*+*+*+*+*+*+*+*+*+*+*+*+*+*+*+*+
            BAR SHORTENED BY       1.000 PERCENT
 GRADIENT CRITERION IN FLEPO =     4.833
           THERE HAVE BEEN 3 ATTEMPTS TO REDUCE THE GRADIENT.
           DURING THESE ATTEMPTS THE ENERGY DROPPED BY LESS THAN 0.3 KCAL/MOLE
           FURTHER CALCULATION IS NOT JUSTIFIED AT THIS TIME.
           TO CONTINUE, START AGAIN WITH THE WORD "PRECISE"


          FOR POINT    2 FIRST  STRUCTURE
 DISTANCE A - B      2.545469
 HEAT             -223.555841
 GRADIENT NORM      15.294927
 DIRECTION COSINE    0.318751
* ===============================
* Input file for Mopac
* ===============================
 PM7 BONDS AUX DUMP=30M ITRY=15000 T=14D CHARGE=-1 SINGLET eps=78.4 RELSCF=1


  C     0.00000000 +0    0.0000000 +0    0.0000000 +0     0     0     0
  C     1.39409197 +1    0.0000000 +0    0.0000000 +0     1     0     0
  C     1.39682686 +1  120.2887414 +1    0.0000000 +0     2     1     0
  C     1.39631547 +1  120.2599678 +1    0.2305126 +1     3     2     1
  C     1.38627202 +1  117.9609444 +1   -0.2389468 +1     4     3     2
  C     1.38812425 +1  123.1485430 +1    0.0836144 +1     5     4     3
  H     1.09291248 +1  120.1364863 +1 -179.9723654 +1     1     2     3
  H     1.09712099 +1  119.6994736 +1 -179.9748353 +1     2     1     3
  H     1.09359979 +1  120.5970951 +1  179.4934997 +1     4     3     2
 Cl     1.71914186 +1  118.2519630 +1 -179.9454056 +1     5     4     3
  H     1.09147808 +1  121.4622234 +1 -179.9629305 +1     6     5     4
  C     1.50357807 +1  118.8690835 +1 -179.0825870 +1     3     2     1
  C     1.52135797 +1  112.6602800 +1  127.1234650 +1    12     3     2
  H     1.09986930 +1  112.3839601 +1 -174.5533947 +1    13    12     3
  H     1.09806871 +1  112.9485402 +1   64.0620460 +1    13    12     3
  H     1.10155251 +1  110.6626074 +1  -55.0624947 +1    13    12     3
  N     1.50054089 +1  109.0749246 +1 -111.9606561 +1    12     3     2
  O     1.21856482 +1  118.4849659 +1  124.7405871 +1    17    12     3
  O     1.21485714 +1  119.5952255 +1  -55.4242185 +1    17    12     3
  H     1.14896687 +1  109.9498317 +1    5.0743334 +1    12     3     2
  O     4.42390400 +1  174.3378051 +1   14.5317987 +1    20    12     3
  H     0.92590948 +1  108.7516981 +1  -68.1654001 +1    21    20    12
  H     1.30829227 +1    6.5135760 +1  -97.3394077 +1    21    20    12
  H     1.65882942 +1  147.0652651 +1 -128.2658755 +1    23    21    20
  O     0.93615518 +1   41.8920927 +1 -178.8360738 +1    24    23    21

 TIME=     0.84
  REACTANTS AND PRODUCTS SWAPPED AROUND
 *+*+*+*+*+*+*+*+*+*+*+*+*+*+*+*+*+*+*+*+*+*+*+*+*+*+*+*+*+*+*+*+*+*+*+*+*+*+*+*+
            BAR SHORTENED BY       1.000 PERCENT
 GRADIENT CRITERION IN FLEPO =    10.000
 

                    SINCE COS WAS JUST RESET,THE SEARCH IS BEING ENDED


          FOR POINT    3 SECOND STRUCTURE
 DISTANCE A - B      2.520014
 HEAT             -245.974472
 GRADIENT NORM      11.390673
 DIRECTION COSINE    0.035356
* ===============================
* Input file for Mopac
* ===============================
 PM7 BONDS AUX DUMP=30M ITRY=15000 T=14D CHARGE=-1 SINGLET eps=78.4 RELSCF=1


  C     0.00000000 +0    0.0000000 +0    0.0000000 +0     0     0     0
  C     1.39396129 +1    0.0000000 +0    0.0000000 +0     1     0     0
  C     1.39819224 +1  120.4123402 +1    0.0000000 +0     2     1     0
  C     1.40061789 +1  119.8584746 +1   -0.1737756 +1     3     2     1
  C     1.38487915 +1  118.0581126 +1    0.1714020 +1     4     3     2
  C     1.38643543 +1  123.4137795 +1   -0.0344735 +1     5     4     3
  H     1.09134130 +1  119.9431493 +1 -179.8993877 +1     1     2     3
  H     1.09112145 +1  119.6193034 +1  179.9323106 +1     2     1     3
  H     1.09116221 +1  120.0129793 +1 -179.7820935 +1     4     3     2
 Cl     1.72355956 +1  117.9722562 +1  179.8164854 +1     5     4     3
  H     1.08954652 +1  121.7529144 +1  179.9108623 +1     6     5     4
  C     1.46241965 +1  121.6394296 +1 -178.8590349 +1     3     2     1
  C     1.48801407 +1  117.3680831 +1   93.6591803 +1    12     3     2
  H     1.10014036 +1  112.5485278 +1 -163.3674109 +1    13    12     3
  H     1.09917485 +1  111.0952805 +1   76.8543541 +1    13    12     3
  H     1.09915777 +1  111.6296694 +1  -42.6044561 +1    13    12     3
  N     1.32918062 +1  120.4808080 +1  -95.2301511 +1    12     3     2
  O     1.26328046 +1  122.3776128 +1 -174.9229769 +1    17    12     3
  O     1.26084862 +1  121.4771275 +1    7.3931133 +1    17    12     3
  H     2.16775372 +1  117.4545516 +1  177.7357614 +1     8     2     1
  O     3.57240413 +1   97.6741533 +1 -162.1091799 +1    20     8     2
  H     0.96578672 +1  106.4758932 +1  -68.9823869 +1    21    20     8
  H     0.96266247 +1    2.6922825 +1 -105.9192251 +1    21    20     8
  H     1.52856009 +1  122.8529096 +1  143.2016345 +1    20     8     2
  O     0.96658338 +1   38.4084995 +1   59.4868492 +1    24    20     8

 *+*+*+*+*+*+*+*+*+*+*+*+*+*+*+*+*+*+*+*+*+*+*+*+*+*+*+*+*+*+*+*+*+*+*+*+*+*+*+*+
            BAR SHORTENED BY       1.000 PERCENT
 GRADIENT CRITERION IN FLEPO =     8.391


          FOR POINT    4 SECOND STRUCTURE
 DISTANCE A - B      2.494814
 HEAT             -245.853075
 GRADIENT NORM      11.883032
 DIRECTION COSINE    0.808658
* ===============================
* Input file for Mopac
* ===============================
 PM7 BONDS AUX DUMP=30M ITRY=15000 T=14D CHARGE=-1 SINGLET eps=78.4 RELSCF=1


  C     0.00000000 +0    0.0000000 +0    0.0000000 +0     0     0     0
  C     1.39370031 +1    0.0000000 +0    0.0000000 +0     1     0     0
  C     1.39882260 +1  120.4388118 +1    0.0000000 +0     2     1     0
  C     1.40135833 +1  119.7532086 +1   -0.2307814 +1     3     2     1
  C     1.38260961 +1  118.1407814 +1    0.2193705 +1     4     3     2
  C     1.38732823 +1  123.4697165 +1   -0.0499115 +1     5     4     3
  H     1.09185990 +1  119.9889840 +1 -179.8701302 +1     1     2     3
  H     1.09121561 +1  119.5771563 +1  179.9003242 +1     2     1     3
  H     1.09167512 +1  119.8492248 +1 -179.7621814 +1     4     3     2
 Cl     1.72401892 +1  117.9899703 +1  179.7815812 +1     5     4     3
  H     1.08882995 +1  121.7903969 +1  179.9029893 +1     6     5     4
  C     1.46284426 +1  121.6975301 +1 -178.9088235 +1     3     2     1
  C     1.48701567 +1  117.3712636 +1   93.9283926 +1    12     3     2
  H     1.09845129 +1  112.6752251 +1 -163.5629631 +1    13    12     3
  H     1.10056857 +1  110.8012196 +1   76.8511476 +1    13    12     3
  H     1.10031344 +1  111.8754761 +1  -42.4343660 +1    13    12     3
  N     1.33037763 +1  120.5598094 +1  -95.4040841 +1    12     3     2
  O     1.26251991 +1  122.5615065 +1 -175.4331851 +1    17    12     3
  O     1.26055039 +1  121.3732522 +1    6.7615152 +1    17    12     3
  H     2.17001184 +1  103.1083562 +1    0.6396719 +1    12     3     2
  O     3.56983962 +1  164.0289735 +1   73.4405787 +1    20    12     3
  H     0.96157030 +1  106.8471450 +1 -140.6689329 +1    21    20    12
  H     0.96174257 +1    2.7954800 +1 -164.0610550 +1    21    20    12
  H     1.53058266 +1  138.9881142 +1 -127.5693079 +1    20    12     3
  O     0.96611260 +1   38.2098161 +1  169.5338160 +1    24    20    12

 *+*+*+*+*+*+*+*+*+*+*+*+*+*+*+*+*+*+*+*+*+*+*+*+*+*+*+*+*+*+*+*+*+*+*+*+*+*+*+*+
            BAR SHORTENED BY       1.000 PERCENT
 GRADIENT CRITERION IN FLEPO =     8.883


          FOR POINT    5 SECOND STRUCTURE
 DISTANCE A - B      2.469866
 HEAT             -245.818447
 GRADIENT NORM      14.981544
 DIRECTION COSINE    0.288402
* ===============================
* Input file for Mopac
* ===============================
 PM7 BONDS AUX DUMP=30M ITRY=15000 T=14D CHARGE=-1 SINGLET eps=78.4 RELSCF=1


  C     0.00000000 +0    0.0000000 +0    0.0000000 +0     0     0     0
  C     1.39574567 +1    0.0000000 +0    0.0000000 +0     1     0     0
  C     1.39679673 +1  120.4832031 +1    0.0000000 +0     2     1     0
  C     1.40168727 +1  119.8428111 +1   -0.3362516 +1     3     2     1
  C     1.38354211 +1  117.7983983 +1    0.4413209 +1     4     3     2
  C     1.38136788 +1  123.8569285 +1   -0.2866548 +1     5     4     3
  H     1.09176208 +1  120.0344026 +1 -179.8631845 +1     1     2     3
  H     1.09134309 +1  119.3993071 +1  179.9071938 +1     2     1     3
  H     1.09134288 +1  120.0181754 +1 -179.9121904 +1     4     3     2
 Cl     1.72855365 +1  117.6799870 +1  179.6803651 +1     5     4     3
  H     1.09142881 +1  121.9827816 +1 -179.9660138 +1     6     5     4
  C     1.46320189 +1  121.8213532 +1 -179.0230590 +1     3     2     1
  C     1.48790634 +1  117.2787047 +1   94.2601941 +1    12     3     2
  H     1.09843366 +1  112.7087939 +1 -163.6800222 +1    13    12     3
  H     1.10442018 +1  110.5409506 +1   76.9786772 +1    13    12     3
  H     1.10164625 +1  112.1200467 +1  -42.2431958 +1    13    12     3
  N     1.32935063 +1  120.6487979 +1  -95.4812135 +1    12     3     2
  O     1.26159204 +1  122.5145338 +1 -176.0354334 +1    17    12     3
  O     1.26409272 +1  121.3060351 +1    6.1737354 +1    17    12     3
  H     2.17220526 +1  103.0633386 +1    1.0828558 +1    12     3     2
  O     3.56052269 +1  164.6595730 +1   72.3718278 +1    20    12     3
  H     0.96327499 +1  107.2950933 +1 -139.3396811 +1    21    20    12
  H     0.96335655 +1    2.9413183 +1 -156.1283583 +1    21    20    12
  H     1.53178589 +1  138.8971444 +1 -127.1228341 +1    20    12     3
  O     0.96027036 +1   37.7760466 +1  167.7747860 +1    24    20    12

 TIME=     0.77
  REACTANTS AND PRODUCTS SWAPPED AROUND
 *+*+*+*+*+*+*+*+*+*+*+*+*+*+*+*+*+*+*+*+*+*+*+*+*+*+*+*+*+*+*+*+*+*+*+*+*+*+*+*+
            BAR SHORTENED BY       0.000 PERCENT
 GRADIENT CRITERION IN FLEPO =    10.000
 

                    SINCE COS WAS JUST RESET,THE SEARCH IS BEING ENDED


          FOR POINT    6 FIRST  STRUCTURE
 DISTANCE A - B      2.469866
 HEAT             -223.440197
 GRADIENT NORM      15.297060
 DIRECTION COSINE    0.129998
* ===============================
* Input file for Mopac
* ===============================
 PM7 BONDS AUX DUMP=30M ITRY=15000 T=14D CHARGE=-1 SINGLET eps=78.4 RELSCF=1


  C     0.00000000 +0    0.0000000 +0    0.0000000 +0     0     0     0
  C     1.39409197 +1    0.0000000 +0    0.0000000 +0     1     0     0
  C     1.39682686 +1  120.2887414 +1    0.0000000 +0     2     1     0
  C     1.39631547 +1  120.2599678 +1    0.2305126 +1     3     2     1
  C     1.38627202 +1  117.9609445 +1   -0.2389468 +1     4     3     2
  C     1.38812425 +1  123.1485430 +1    0.0836144 +1     5     4     3
  H     1.09291248 +1  120.1364863 +1 -179.9723654 +1     1     2     3
  H     1.09712099 +1  119.6994736 +1 -179.9748353 +1     2     1     3
  H     1.09359979 +1  120.5970951 +1  179.4934997 +1     4     3     2
 Cl     1.71914186 +1  118.2519630 +1 -179.9454056 +1     5     4     3
  H     1.09147808 +1  121.4622234 +1 -179.9629305 +1     6     5     4
  C     1.50357807 +1  118.8690834 +1 -179.0825870 +1     3     2     1
  C     1.52135798 +1  112.6602799 +1  127.1234652 +1    12     3     2
  H     1.09986930 +1  112.3839600 +1 -174.5533947 +1    13    12     3
  H     1.09806871 +1  112.9485404 +1   64.0620457 +1    13    12     3
  H     1.10155251 +1  110.6626072 +1  -55.0624952 +1    13    12     3
  N     1.50054090 +1  109.0749245 +1 -111.9606563 +1    12     3     2
  O     1.21856483 +1  118.4849653 +1  124.7405865 +1    17    12     3
  O     1.21485712 +1  119.5952256 +1  -55.4242181 +1    17    12     3
  H     1.14896688 +1  109.9498318 +1    5.0743334 +1    12     3     2
  O     4.42390400 +1  174.3378051 +1   14.5317995 +1    20    12     3
  H     0.92590948 +1  108.7516980 +1  -68.1654009 +1    21    20    12
  H     1.30829227 +1    6.5135760 +1  -97.3394084 +1    21    20    12
  H     1.65882942 +1  147.0652651 +1 -128.2658754 +1    23    21    20
  O     0.93615518 +1   41.8920926 +1 -178.8360737 +1    24    23    21

 TIME=     0.40
  REACTANTS AND PRODUCTS SWAPPED AROUND
 *+*+*+*+*+*+*+*+*+*+*+*+*+*+*+*+*+*+*+*+*+*+*+*+*+*+*+*+*+*+*+*+*+*+*+*+*+*+*+*+
            BAR SHORTENED BY       1.000 PERCENT
 GRADIENT CRITERION IN FLEPO =    10.000


          FOR POINT    7 SECOND STRUCTURE
 DISTANCE A - B      2.445167
 HEAT             -245.504556
 GRADIENT NORM      27.250807
 DIRECTION COSINE   -0.006636
* ===============================
* Input file for Mopac
* ===============================
 PM7 BONDS AUX DUMP=30M ITRY=15000 T=14D CHARGE=-1 SINGLET eps=78.4 RELSCF=1


  C     0.00000000 +0    0.0000000 +0    0.0000000 +0     0     0     0
  C     1.39858946 +1    0.0000000 +0    0.0000000 +0     1     0     0
  C     1.39207504 +1  120.4957450 +1    0.0000000 +0     2     1     0
  C     1.40148677 +1  120.1421317 +1    0.7758687 +1     3     2     1
  C     1.39029829 +1  117.6623195 +1   -0.9642709 +1     4     3     2
  C     1.38526297 +1  123.4913084 +1    0.9786128 +1     5     4     3
  H     1.08963015 +1  119.9863766 +1  179.8007962 +1     1     2     3
  H     1.09355839 +1  119.1946348 +1 -179.4993595 +1     2     1     3
  H     1.08687638 +1  120.3758854 +1  179.8875266 +1     4     3     2
 Cl     1.72071704 +1  117.7559813 +1  179.9838088 +1     5     4     3
  H     1.08652463 +1  121.7437813 +1  179.4594267 +1     6     5     4
  C     1.46650887 +1  122.0172032 +1 -179.4033697 +1     3     2     1
  C     1.48959211 +1  116.8614910 +1   95.4225281 +1    12     3     2
  H     1.09610454 +1  112.4732802 +1 -163.2992448 +1    13    12     3
  H     1.09742625 +1  110.4795420 +1   77.0579172 +1    13    12     3
  H     1.09754873 +1  111.9157758 +1  -42.3623394 +1    13    12     3
  N     1.33103316 +1  120.8881054 +1  -94.5570072 +1    12     3     2
  O     1.26147328 +1  121.7212540 +1 -176.7005474 +1    17    12     3
  O     1.26727227 +1  121.1957043 +1    4.7783626 +1    17    12     3
  H     2.18785057 +1  102.9328733 +1    2.3004292 +1    12     3     2
  O     3.54166210 +1  165.3364896 +1   70.2939184 +1    20    12     3
  H     0.97299284 +1  107.6419814 +1 -137.1125841 +1    21    20    12
  H     0.97502460 +1    3.4101054 +1 -142.1756376 +1    21    20    12
  H     1.52934240 +1  137.9194457 +1 -126.5155390 +1    20    12     3
  O     0.95893145 +1  169.6743307 +1  -68.0169444 +1    20    12     3

 TIME=     0.24
  REACTANTS AND PRODUCTS SWAPPED AROUND
 *+*+*+*+*+*+*+*+*+*+*+*+*+*+*+*+*+*+*+*+*+*+*+*+*+*+*+*+*+*+*+*+*+*+*+*+*+*+*+*+
            BAR SHORTENED BY       1.000 PERCENT
 GRADIENT CRITERION IN FLEPO =    10.000


          FOR POINT    8 FIRST  STRUCTURE
 DISTANCE A - B      2.420716
 HEAT             -223.317363
 GRADIENT NORM       7.758589
 DIRECTION COSINE    0.162972
* ===============================
* Input file for Mopac
* ===============================
 PM7 BONDS AUX DUMP=30M ITRY=15000 T=14D CHARGE=-1 SINGLET eps=78.4 RELSCF=1


  C     0.00000000 +0    0.0000000 +0    0.0000000 +0     0     0     0
  C     1.39391556 +1    0.0000000 +0    0.0000000 +0     1     0     0
  C     1.39686887 +1  120.2891090 +1    0.0000000 +0     2     1     0
  C     1.39648675 +1  120.2631021 +1    0.2332588 +1     3     2     1
  C     1.38633403 +1  117.9498263 +1   -0.2366854 +1     4     3     2
  C     1.38817124 +1  123.1524220 +1    0.0822709 +1     5     4     3
  H     1.09293508 +1  120.1257748 +1 -179.9678020 +1     1     2     3
  H     1.09713179 +1  119.7078846 +1 -179.9691473 +1     2     1     3
  H     1.09341288 +1  120.6007103 +1  179.4882122 +1     4     3     2
 Cl     1.71911696 +1  118.2344674 +1 -179.9487638 +1     5     4     3
  H     1.09142875 +1  121.4698847 +1 -179.9692902 +1     6     5     4
  C     1.50321484 +1  118.7559052 +1 -179.0966645 +1     3     2     1
  C     1.52217670 +1  112.6336105 +1  126.9942693 +1    12     3     2
  H     1.09962600 +1  112.3383952 +1 -174.5713561 +1    13    12     3
  H     1.09778904 +1  113.0125597 +1   64.0006354 +1    13    12     3
  H     1.10209992 +1  110.5568190 +1  -55.1197249 +1    13    12     3
  N     1.49923641 +1  109.1361848 +1 -112.0333564 +1    12     3     2
  O     1.22277097 +1  118.5587295 +1  125.7164273 +1    17    12     3
  O     1.21869591 +1  119.9301661 +1  -54.6099529 +1    17    12     3
  H     1.14535100 +1  109.9060922 +1    4.8123993 +1    12     3     2
  O     4.41899871 +1  174.4321872 +1   18.6603553 +1    20    12     3
  H     0.92174721 +1  108.7924761 +1  -72.4182790 +1    21    20    12
  H     1.30116598 +1    6.3552602 +1 -103.4082197 +1    21    20    12
  H     1.67045433 +1  147.2136352 +1 -130.9331590 +1    23    21    20
  O     0.93672852 +1   41.8883624 +1 -178.1339794 +1    24    23    21

 TIME=     0.19
  REACTANTS AND PRODUCTS SWAPPED AROUND
 *+*+*+*+*+*+*+*+*+*+*+*+*+*+*+*+*+*+*+*+*+*+*+*+*+*+*+*+*+*+*+*+*+*+*+*+*+*+*+*+
            BAR SHORTENED BY       1.000 PERCENT
 GRADIENT CRITERION IN FLEPO =     4.759


          FOR POINT    9 SECOND STRUCTURE
 DISTANCE A - B      2.396509
 HEAT             -245.440185
 GRADIENT NORM      11.427675
 DIRECTION COSINE    0.248696
* ===============================
* Input file for Mopac
* ===============================
 PM7 BONDS AUX DUMP=30M ITRY=15000 T=14D CHARGE=-1 SINGLET eps=78.4 RELSCF=1


  C     0.00000000 +0    0.0000000 +0    0.0000000 +0     0     0     0
  C     1.39426286 +1    0.0000000 +0    0.0000000 +0     1     0     0
  C     1.39821531 +1  120.4861770 +1    0.0000000 +0     2     1     0
  C     1.39925996 +1  119.8837113 +1    0.1810457 +1     3     2     1
  C     1.38542653 +1  117.8975456 +1   -0.3460809 +1     4     3     2
  C     1.38725234 +1  123.6507936 +1    0.3668361 +1     5     4     3
  H     1.09228287 +1  120.1268222 +1  179.8260566 +1     1     2     3
  H     1.09311910 +1  119.2432365 +1 -179.8812197 +1     2     1     3
  H     1.09572347 +1  119.6160896 +1 -179.8554877 +1     4     3     2
 Cl     1.72320378 +1  117.8836184 +1  179.9194736 +1     5     4     3
  H     1.08721976 +1  121.9062666 +1  179.6825125 +1     6     5     4
  C     1.46296063 +1  121.8437283 +1 -179.3701045 +1     3     2     1
  C     1.48575359 +1  117.0952287 +1   95.5017088 +1    12     3     2
  H     1.09945058 +1  112.7817732 +1 -163.6479015 +1    13    12     3
  H     1.10148854 +1  110.5862866 +1   76.5904046 +1    13    12     3
  H     1.09819932 +1  111.9727986 +1  -42.3935879 +1    13    12     3
  N     1.33137536 +1  120.5960529 +1  -95.3695883 +1    12     3     2
  O     1.26184471 +1  122.0388231 +1 -177.1119920 +1    17    12     3
  O     1.26341211 +1  121.3902653 +1    4.8798016 +1    17    12     3
  H     2.17574741 +1  103.2817385 +1    2.0034456 +1    12     3     2
  O     3.54714108 +1  165.4868617 +1   69.4615705 +1    20    12     3
  H     0.96657988 +1  107.9398853 +1 -136.1474916 +1    21    20    12
  H     0.97180375 +1    3.4003737 +1 -139.9012644 +1    21    20    12
  H     1.53666919 +1  138.2154229 +1 -126.1319702 +1    20    12     3
  O     0.96518409 +1   37.6697227 +1  164.5821366 +1    24    20    12

 *+*+*+*+*+*+*+*+*+*+*+*+*+*+*+*+*+*+*+*+*+*+*+*+*+*+*+*+*+*+*+*+*+*+*+*+*+*+*+*+
            BAR SHORTENED BY       1.000 PERCENT
 GRADIENT CRITERION IN FLEPO =     8.428


          FOR POINT   10 SECOND STRUCTURE
 DISTANCE A - B      2.372544
 HEAT             -245.409816
 GRADIENT NORM      15.142277
 DIRECTION COSINE    0.249454
* ===============================
* Input file for Mopac
* ===============================
 PM7 BONDS AUX DUMP=30M ITRY=15000 T=14D CHARGE=-1 SINGLET eps=78.4 RELSCF=1


  C     0.00000000 +0    0.0000000 +0    0.0000000 +0     0     0     0
  C     1.39418762 +1    0.0000000 +0    0.0000000 +0     1     0     0
  C     1.40052546 +1  120.6276210 +1    0.0000000 +0     2     1     0
  C     1.40356252 +1  119.6907205 +1   -0.1747444 +1     3     2     1
  C     1.38180371 +1  117.8785240 +1    0.0301499 +1     4     3     2
  C     1.38703356 +1  123.7534838 +1    0.1608986 +1     5     4     3
  H     1.09181088 +1  120.1947867 +1 -179.9642393 +1     1     2     3
  H     1.09286745 +1  119.1930518 +1  179.9616413 +1     2     1     3
  H     1.09241436 +1  119.4368515 +1 -179.7099834 +1     4     3     2
 Cl     1.72397700 +1  117.8839376 +1  179.7219840 +1     5     4     3
  H     1.09062964 +1  121.9459038 +1  179.6881714 +1     6     5     4
  C     1.45995178 +1  121.9240269 +1 -179.3378164 +1     3     2     1
  C     1.48981149 +1  117.1256274 +1   95.6687826 +1    12     3     2
  H     1.09939662 +1  112.7975059 +1 -163.8199836 +1    13    12     3
  H     1.10123515 +1  110.3922659 +1   76.4082707 +1    13    12     3
  H     1.09058602 +1  111.9879939 +1  -41.4570392 +1    13    12     3
  N     1.32889086 +1  120.5571983 +1  -95.8623545 +1    12     3     2
  O     1.26282963 +1  122.3470646 +1 -177.5712908 +1    17    12     3
  O     1.26223274 +1  121.4554620 +1    4.7553315 +1    17    12     3
  H     2.17263070 +1  103.4178025 +1    1.9323450 +1    12     3     2
  O     3.54819203 +1  165.6573189 +1   68.5460935 +1    20    12     3
  H     0.96219514 +1  107.9888232 +1 -134.9847020 +1    21    20    12
  H     0.96987293 +1    3.3646853 +1 -136.7609699 +1    21    20    12
  H     1.53772687 +1  138.2483156 +1 -126.0020836 +1    20    12     3
  O     0.96644041 +1   37.6593883 +1  163.5677391 +1    24    20    12

 *+*+*+*+*+*+*+*+*+*+*+*+*+*+*+*+*+*+*+*+*+*+*+*+*+*+*+*+*+*+*+*+*+*+*+*+*+*+*+*+
            BAR SHORTENED BY       1.000 PERCENT
 GRADIENT CRITERION IN FLEPO =    10.000


          FOR POINT   11 SECOND STRUCTURE
 DISTANCE A - B      2.348818
 HEAT             -245.300353
 GRADIENT NORM      16.783404
 DIRECTION COSINE    0.414643
* ===============================
* Input file for Mopac
* ===============================
 PM7 BONDS AUX DUMP=30M ITRY=15000 T=14D CHARGE=-1 SINGLET eps=78.4 RELSCF=1


  C     0.00000000 +0    0.0000000 +0    0.0000000 +0     0     0     0
  C     1.39626358 +1    0.0000000 +0    0.0000000 +0     1     0     0
  C     1.39861039 +1  120.7423982 +1    0.0000000 +0     2     1     0
  C     1.40157118 +1  119.9506518 +1   -0.4389441 +1     3     2     1
  C     1.38531209 +1  117.7763751 +1    0.3361707 +1     4     3     2
  C     1.38827079 +1  123.6729974 +1   -0.0823349 +1     5     4     3
  H     1.08771522 +1  120.6523702 +1 -179.8937014 +1     1     2     3
  H     1.09182267 +1  118.7760526 +1  179.7533396 +1     2     1     3
  H     1.09051145 +1  119.7502155 +1 -179.7721469 +1     4     3     2
 Cl     1.72325598 +1  117.9221489 +1  179.6218054 +1     5     4     3
  H     1.08796985 +1  121.7829236 +1 -179.8895232 +1     6     5     4
  C     1.46317784 +1  121.9689260 +1 -179.3768399 +1     3     2     1
  C     1.48549341 +1  117.2560822 +1   95.8507227 +1    12     3     2
  H     1.09647115 +1  113.0054133 +1 -163.5144032 +1    13    12     3
  H     1.10200798 +1  110.4352027 +1   76.5261883 +1    13    12     3
  H     1.09708847 +1  111.7755234 +1  -41.4911339 +1    13    12     3
  N     1.33032693 +1  120.4779990 +1  -95.8172547 +1    12     3     2
  O     1.26389935 +1  122.3934303 +1 -178.2071747 +1    17    12     3
  O     1.26025722 +1  121.4570805 +1    3.7292590 +1    17    12     3
  H     2.16947924 +1  103.2677227 +1    2.0965651 +1    12     3     2
  O     3.54699905 +1  166.1437144 +1   67.4837126 +1    20    12     3
  H     0.96364008 +1  108.3955384 +1 -133.8701004 +1    21    20    12
  H     0.96951369 +1    3.7213279 +1 -137.1577615 +1    21    20    12
  H     1.54172169 +1  137.9351233 +1 -125.3401813 +1    20    12     3
  O     0.96545257 +1   37.7272587 +1  162.1356354 +1    24    20    12

 TIME=     0.65
  REACTANTS AND PRODUCTS SWAPPED AROUND
 *+*+*+*+*+*+*+*+*+*+*+*+*+*+*+*+*+*+*+*+*+*+*+*+*+*+*+*+*+*+*+*+*+*+*+*+*+*+*+*+
            BAR SHORTENED BY       0.000 PERCENT
 GRADIENT CRITERION IN FLEPO =    10.000


          FOR POINT   12 FIRST  STRUCTURE
 DISTANCE A - B      2.348818
 HEAT             -223.432931
 GRADIENT NORM       7.758411
 DIRECTION COSINE   -0.050907
* ===============================
* Input file for Mopac
* ===============================
 PM7 BONDS AUX DUMP=30M ITRY=15000 T=14D CHARGE=-1 SINGLET eps=78.4 RELSCF=1


  C     0.00000000 +0    0.0000000 +0    0.0000000 +0     0     0     0
  C     1.39391556 +1    0.0000000 +0    0.0000000 +0     1     0     0
  C     1.39686887 +1  120.2891090 +1    0.0000000 +0     2     1     0
  C     1.39648675 +1  120.2631021 +1    0.2332588 +1     3     2     1
  C     1.38633403 +1  117.9498263 +1   -0.2366854 +1     4     3     2
  C     1.38817124 +1  123.1524220 +1    0.0822709 +1     5     4     3
  H     1.09293508 +1  120.1257748 +1 -179.9678020 +1     1     2     3
  H     1.09713179 +1  119.7078846 +1 -179.9691473 +1     2     1     3
  H     1.09341288 +1  120.6007103 +1  179.4882122 +1     4     3     2
 Cl     1.71911696 +1  118.2344674 +1 -179.9487638 +1     5     4     3
  H     1.09142875 +1  121.4698847 +1 -179.9692902 +1     6     5     4
  C     1.50321484 +1  118.7559052 +1 -179.0966645 +1     3     2     1
  C     1.52217670 +1  112.6336105 +1  126.9942693 +1    12     3     2
  H     1.09962600 +1  112.3383952 +1 -174.5713561 +1    13    12     3
  H     1.09778904 +1  113.0125597 +1   64.0006354 +1    13    12     3
  H     1.10209992 +1  110.5568190 +1  -55.1197249 +1    13    12     3
  N     1.49923641 +1  109.1361848 +1 -112.0333564 +1    12     3     2
  O     1.22277097 +1  118.5587295 +1  125.7164273 +1    17    12     3
  O     1.21869591 +1  119.9301661 +1  -54.6099529 +1    17    12     3
  H     1.14535100 +1  109.9060922 +1    4.8123993 +1    12     3     2
  O     4.41899871 +1  174.4321872 +1   18.6603553 +1    20    12     3
  H     0.92174721 +1  108.7924761 +1  -72.4182790 +1    21    20    12
  H     1.30116598 +1    6.3552602 +1 -103.4082197 +1    21    20    12
  H     1.67045433 +1  147.2136352 +1 -130.9331590 +1    23    21    20
  O     0.93672852 +1   41.8883624 +1 -178.1339794 +1    24    23    21

 TIME=     0.09
  REACTANTS AND PRODUCTS SWAPPED AROUND
 *+*+*+*+*+*+*+*+*+*+*+*+*+*+*+*+*+*+*+*+*+*+*+*+*+*+*+*+*+*+*+*+*+*+*+*+*+*+*+*+
            BAR SHORTENED BY       1.000 PERCENT
 GRADIENT CRITERION IN FLEPO =     4.758


          FOR POINT   13 SECOND STRUCTURE
 DISTANCE A - B      2.325330
 HEAT             -245.173504
 GRADIENT NORM      16.251572
 DIRECTION COSINE    0.037420
* ===============================
* Input file for Mopac
* ===============================
 PM7 BONDS AUX DUMP=30M ITRY=15000 T=14D CHARGE=-1 SINGLET eps=78.4 RELSCF=1


  C     0.00000000 +0    0.0000000 +0    0.0000000 +0     0     0     0
  C     1.39396203 +1    0.0000000 +0    0.0000000 +0     1     0     0
  C     1.40086083 +1  120.3541279 +1    0.0000000 +0     2     1     0
  C     1.40009650 +1  119.9777613 +1   -0.3945240 +1     3     2     1
  C     1.38472821 +1  117.9085147 +1    0.3789270 +1     4     3     2
  C     1.38590328 +1  123.4827928 +1   -0.1393446 +1     5     4     3
  H     1.09307391 +1  120.3429569 +1 -179.7973325 +1     1     2     3
  H     1.09027889 +1  119.3451204 +1  179.8627552 +1     2     1     3
  H     1.09143013 +1  119.7665302 +1 -179.7823391 +1     4     3     2
 Cl     1.72222665 +1  117.8919613 +1  179.6103713 +1     5     4     3
  H     1.09046885 +1  121.8716390 +1  179.8356562 +1     6     5     4
  C     1.46358617 +1  121.8869030 +1 -179.4632073 +1     3     2     1
  C     1.48790672 +1  117.0316598 +1   96.3220606 +1    12     3     2
  H     1.09945930 +1  112.9361560 +1 -163.7270492 +1    13    12     3
  H     1.10369777 +1  110.6795141 +1   77.0895689 +1    13    12     3
  H     1.09815847 +1  112.0049683 +1  -41.7379953 +1    13    12     3
  N     1.32962311 +1  120.7176891 +1  -96.1109431 +1    12     3     2
  O     1.26046640 +1  122.6436864 +1 -178.7652924 +1    17    12     3
  O     1.25976612 +1  121.2657339 +1    3.6235828 +1    17    12     3
  H     2.16328029 +1  103.4065704 +1    2.3338725 +1    12     3     2
  O     3.55037367 +1  166.3504462 +1   66.0854331 +1    20    12     3
  H     0.96179137 +1  108.6098054 +1 -132.5041904 +1    21    20    12
  H     0.96169552 +1    3.9722547 +1 -135.9655498 +1    21    20    12
  H     1.53981730 +1  138.0116856 +1 -125.0792971 +1    20    12     3
  O     0.96624360 +1   38.0046864 +1  161.4826453 +1    24    20    12

 *+*+*+*+*+*+*+*+*+*+*+*+*+*+*+*+*+*+*+*+*+*+*+*+*+*+*+*+*+*+*+*+*+*+*+*+*+*+*+*+
            BAR SHORTENED BY       1.000 PERCENT
 GRADIENT CRITERION IN FLEPO =    10.000


          FOR POINT   14 SECOND STRUCTURE
 DISTANCE A - B      2.302077
 HEAT             -245.079523
 GRADIENT NORM      16.559363
 DIRECTION COSINE    0.666592
* ===============================
* Input file for Mopac
* ===============================
 PM7 BONDS AUX DUMP=30M ITRY=15000 T=14D CHARGE=-1 SINGLET eps=78.4 RELSCF=1


  C     0.00000000 +0    0.0000000 +0    0.0000000 +0     0     0     0
  C     1.39423014 +1    0.0000000 +0    0.0000000 +0     1     0     0
  C     1.39904865 +1  120.4297090 +1    0.0000000 +0     2     1     0
  C     1.40082903 +1  119.9118139 +1   -0.4146584 +1     3     2     1
  C     1.38298393 +1  117.9753838 +1    0.4010437 +1     4     3     2
  C     1.38694387 +1  123.5072619 +1   -0.1340293 +1     5     4     3
  H     1.09261052 +1  120.3849944 +1 -179.7655880 +1     1     2     3
  H     1.09148914 +1  119.2567897 +1  179.8600677 +1     2     1     3
  H     1.09206018 +1  119.6979008 +1 -179.7635924 +1     4     3     2
 Cl     1.72279173 +1  117.9259989 +1  179.5910015 +1     5     4     3
  H     1.08895021 +1  121.8859513 +1  179.8330001 +1     6     5     4
  C     1.46336958 +1  122.1116669 +1 -179.4028668 +1     3     2     1
  C     1.48816230 +1  117.2053959 +1   96.4735497 +1    12     3     2
  H     1.09747178 +1  112.9641301 +1 -163.4620598 +1    13    12     3
  H     1.10132664 +1  110.3403255 +1   77.2176637 +1    13    12     3
  H     1.09551359 +1  112.0116904 +1  -41.3716188 +1    13    12     3
  N     1.33107243 +1  120.6275146 +1  -95.9567843 +1    12     3     2
  O     1.26078277 +1  122.6762791 +1 -179.3454322 +1    17    12     3
  O     1.25978380 +1  121.3638575 +1    2.6355750 +1    17    12     3
  H     2.16537733 +1  103.2060247 +1    2.2684540 +1    12     3     2
  O     3.55153666 +1  166.4389448 +1   66.3633151 +1    20    12     3
  H     0.96488817 +1  108.4454103 +1 -132.5185749 +1    21    20    12
  H     0.96900945 +1    4.1531783 +1 -135.3655676 +1    21    20    12
  H     1.53087518 +1  138.4585916 +1 -125.4273061 +1    20    12     3
  O     0.95548103 +1   38.1212694 +1  161.1392890 +1    24    20    12

 *+*+*+*+*+*+*+*+*+*+*+*+*+*+*+*+*+*+*+*+*+*+*+*+*+*+*+*+*+*+*+*+*+*+*+*+*+*+*+*+
            BAR SHORTENED BY       1.000 PERCENT
 GRADIENT CRITERION IN FLEPO =    10.000


          FOR POINT   15 SECOND STRUCTURE
 DISTANCE A - B      2.279056
 HEAT             -244.897532
 GRADIENT NORM      20.430177
 DIRECTION COSINE    0.796945
* ===============================
* Input file for Mopac
* ===============================
 PM7 BONDS AUX DUMP=30M ITRY=15000 T=14D CHARGE=-1 SINGLET eps=78.4 RELSCF=1


  C     0.00000000 +0    0.0000000 +0    0.0000000 +0     0     0     0
  C     1.39428742 +1    0.0000000 +0    0.0000000 +0     1     0     0
  C     1.40134510 +1  120.5458952 +1    0.0000000 +0     2     1     0
  C     1.40127625 +1  119.6453548 +1   -0.3649517 +1     3     2     1
  C     1.38339139 +1  118.1531321 +1    0.3521201 +1     4     3     2
  C     1.38673939 +1  123.4731783 +1   -0.1085621 +1     5     4     3
  H     1.09265260 +1  120.3754937 +1 -179.7862655 +1     1     2     3
  H     1.09158964 +1  119.2554952 +1  179.8847556 +1     2     1     3
  H     1.09245230 +1  119.5893352 +1 -179.7891725 +1     4     3     2
 Cl     1.72282979 +1  117.9460701 +1  179.6147615 +1     5     4     3
  H     1.08902987 +1  121.8717359 +1  179.8325492 +1     6     5     4
  C     1.45995441 +1  122.1835545 +1 -179.4197185 +1     3     2     1
  C     1.48752618 +1  117.1632316 +1   96.9466773 +1    12     3     2
  H     1.10072706 +1  112.9431939 +1 -163.7045790 +1    13    12     3
  H     1.10020291 +1  110.3220050 +1   77.1275230 +1    13    12     3
  H     1.09512247 +1  111.9192020 +1  -41.5936813 +1    13    12     3
  N     1.33186849 +1  120.5275262 +1  -96.2989259 +1    12     3     2
  O     1.26084608 +1  122.7409655 +1 -179.8412856 +1    17    12     3
  O     1.25721485 +1  121.5441798 +1    2.5457734 +1    17    12     3
  H     2.15727553 +1  103.2725502 +1    2.3164266 +1    12     3     2
  O     3.55498755 +1  166.6687373 +1   65.9878174 +1    20    12     3
  H     0.96039794 +1  108.7961975 +1 -131.8997590 +1    21    20    12
  H     0.96362050 +1    4.1472978 +1 -135.2448317 +1    21    20    12
  H     1.53842025 +1  138.4580463 +1 -125.4702514 +1    20    12     3
  O     0.96162508 +1   38.0915455 +1  161.2287100 +1    24    20    12

 TIME=     0.66
  REACTANTS AND PRODUCTS SWAPPED AROUND
 *+*+*+*+*+*+*+*+*+*+*+*+*+*+*+*+*+*+*+*+*+*+*+*+*+*+*+*+*+*+*+*+*+*+*+*+*+*+*+*+
            BAR SHORTENED BY       0.000 PERCENT
 GRADIENT CRITERION IN FLEPO =    10.000


          FOR POINT   16 FIRST  STRUCTURE
 DISTANCE A - B      2.279056
 HEAT             -223.432931
 GRADIENT NORM       7.758410
 DIRECTION COSINE    0.023548
* ===============================
* Input file for Mopac
* ===============================
 PM7 BONDS AUX DUMP=30M ITRY=15000 T=14D CHARGE=-1 SINGLET eps=78.4 RELSCF=1


  C     0.00000000 +0    0.0000000 +0    0.0000000 +0     0     0     0
  C     1.39391556 +1    0.0000000 +0    0.0000000 +0     1     0     0
  C     1.39686887 +1  120.2891090 +1    0.0000000 +0     2     1     0
  C     1.39648675 +1  120.2631021 +1    0.2332588 +1     3     2     1
  C     1.38633403 +1  117.9498263 +1   -0.2366854 +1     4     3     2
  C     1.38817124 +1  123.1524220 +1    0.0822709 +1     5     4     3
  H     1.09293508 +1  120.1257748 +1 -179.9678020 +1     1     2     3
  H     1.09713179 +1  119.7078846 +1 -179.9691473 +1     2     1     3
  H     1.09341288 +1  120.6007103 +1  179.4882122 +1     4     3     2
 Cl     1.71911696 +1  118.2344674 +1 -179.9487638 +1     5     4     3
  H     1.09142875 +1  121.4698847 +1 -179.9692902 +1     6     5     4
  C     1.50321484 +1  118.7559052 +1 -179.0966645 +1     3     2     1
  C     1.52217670 +1  112.6336105 +1  126.9942693 +1    12     3     2
  H     1.09962600 +1  112.3383952 +1 -174.5713561 +1    13    12     3
  H     1.09778904 +1  113.0125597 +1   64.0006354 +1    13    12     3
  H     1.10209992 +1  110.5568190 +1  -55.1197249 +1    13    12     3
  N     1.49923641 +1  109.1361848 +1 -112.0333564 +1    12     3     2
  O     1.22277097 +1  118.5587295 +1  125.7164273 +1    17    12     3
  O     1.21869591 +1  119.9301661 +1  -54.6099529 +1    17    12     3
  H     1.14535100 +1  109.9060922 +1    4.8123993 +1    12     3     2
  O     4.41899871 +1  174.4321872 +1   18.6603553 +1    20    12     3
  H     0.92174721 +1  108.7924761 +1  -72.4182790 +1    21    20    12
  H     1.30116598 +1    6.3552602 +1 -103.4082197 +1    21    20    12
  H     1.67045433 +1  147.2136352 +1 -130.9331590 +1    23    21    20
  O     0.93672852 +1   41.8883624 +1 -178.1339794 +1    24    23    21

 TIME=     0.10
  REACTANTS AND PRODUCTS SWAPPED AROUND
 *+*+*+*+*+*+*+*+*+*+*+*+*+*+*+*+*+*+*+*+*+*+*+*+*+*+*+*+*+*+*+*+*+*+*+*+*+*+*+*+
            BAR SHORTENED BY       1.000 PERCENT
 GRADIENT CRITERION IN FLEPO =     4.758


          FOR POINT   17 SECOND STRUCTURE
 DISTANCE A - B      2.256265
 HEAT             -245.031262
 GRADIENT NORM       9.323776
 DIRECTION COSINE    0.172243
* ===============================
* Input file for Mopac
* ===============================
 PM7 BONDS AUX DUMP=30M ITRY=15000 T=14D CHARGE=-1 SINGLET eps=78.4 RELSCF=1


  C     0.00000000 +0    0.0000000 +0    0.0000000 +0     0     0     0
  C     1.39337551 +1    0.0000000 +0    0.0000000 +0     1     0     0
  C     1.39926963 +1  120.5452364 +1    0.0000000 +0     2     1     0
  C     1.40076110 +1  119.7121744 +1   -0.7126329 +1     3     2     1
  C     1.38282535 +1  118.1519342 +1    0.7800342 +1     4     3     2
  C     1.38650417 +1  123.4592789 +1   -0.3670471 +1     5     4     3
  H     1.09124344 +1  120.3065974 +1 -179.6075191 +1     1     2     3
  H     1.09245554 +1  119.2376217 +1  179.7731382 +1     2     1     3
  H     1.09249078 +1  119.7169211 +1 -179.7681227 +1     4     3     2
 Cl     1.72258048 +1  117.8871822 +1  179.3411293 +1     5     4     3
  H     1.08915480 +1  121.7405574 +1  179.7883485 +1     6     5     4
  C     1.46355917 +1  122.4757476 +1 -179.5366898 +1     3     2     1
  C     1.48894932 +1  117.0478713 +1   97.3093055 +1    12     3     2
  H     1.10122747 +1  112.8598332 +1 -163.0393832 +1    13    12     3
  H     1.10368374 +1  110.1206037 +1   77.5302561 +1    13    12     3
  H     1.09772019 +1  112.1442793 +1  -41.1656425 +1    13    12     3
  N     1.33041000 +1  120.6257069 +1  -96.0945829 +1    12     3     2
  O     1.26337553 +1  121.9114330 +1  179.1973862 +1    17    12     3
  O     1.26330301 +1  121.2224627 +1    1.1939035 +1    17    12     3
  H     2.17274270 +1  102.8412301 +1    2.4189097 +1    12     3     2
  O     3.54484199 +1  166.9663288 +1   66.0143498 +1    20    12     3
  H     0.96283466 +1  108.6831699 +1 -131.7467443 +1    21    20    12
  H     0.96532880 +1    4.3794587 +1 -136.4061555 +1    21    20    12
  H     1.53052982 +1  137.7602154 +1 -125.4456687 +1    20    12     3
  O     0.96512157 +1   37.6213634 +1  160.7676632 +1    24    20    12

 *+*+*+*+*+*+*+*+*+*+*+*+*+*+*+*+*+*+*+*+*+*+*+*+*+*+*+*+*+*+*+*+*+*+*+*+*+*+*+*+
            BAR SHORTENED BY       1.000 PERCENT
 GRADIENT CRITERION IN FLEPO =     6.324


          FOR POINT   18 SECOND STRUCTURE
 DISTANCE A - B      2.233703
 HEAT             -244.942958
 GRADIENT NORM      13.621432
 DIRECTION COSINE    0.377393
* ===============================
* Input file for Mopac
* ===============================
 PM7 BONDS AUX DUMP=30M ITRY=15000 T=14D CHARGE=-1 SINGLET eps=78.4 RELSCF=1


  C     0.00000000 +0    0.0000000 +0    0.0000000 +0     0     0     0
  C     1.39372556 +1    0.0000000 +0    0.0000000 +0     1     0     0
  C     1.39934647 +1  120.5063894 +1    0.0000000 +0     2     1     0
  C     1.40068107 +1  119.7366010 +1   -0.6925084 +1     3     2     1
  C     1.38300310 +1  118.1328302 +1    0.7462591 +1     4     3     2
  C     1.38644412 +1  123.4739726 +1   -0.3348539 +1     5     4     3
  H     1.09153439 +1  120.2678635 +1 -179.6085643 +1     1     2     3
  H     1.09222609 +1  119.2532420 +1  179.7756255 +1     2     1     3
  H     1.09210684 +1  119.7335144 +1 -179.7520623 +1     4     3     2
 Cl     1.72279592 +1  117.8795230 +1  179.3612671 +1     5     4     3
  H     1.08924319 +1  121.7461161 +1  179.7763996 +1     6     5     4
  C     1.46356643 +1  122.4631994 +1 -179.5262416 +1     3     2     1
  C     1.48804919 +1  117.0872466 +1   97.5163533 +1    12     3     2
  H     1.10063900 +1  112.8971327 +1 -163.1353631 +1    13    12     3
  H     1.10068864 +1  109.5200794 +1   77.8574509 +1    13    12     3
  H     1.09690820 +1  112.1419048 +1  -41.1168738 +1    13    12     3
  N     1.33135045 +1  120.5423604 +1  -96.2107996 +1    12     3     2
  O     1.25975302 +1  122.0911745 +1  178.8172713 +1    17    12     3
  O     1.25855238 +1  121.2856148 +1    0.8015767 +1    17    12     3
  H     2.16591544 +1  102.8612916 +1    2.4652184 +1    12     3     2
  O     3.55039415 +1  167.1213203 +1   65.7486133 +1    20    12     3
  H     0.96375998 +1  108.7230982 +1 -131.3613506 +1    21    20    12
  H     0.96723501 +1    4.4166321 +1 -136.6175634 +1    21    20    12
  H     1.53516189 +1  137.8258662 +1 -125.3129574 +1    20    12     3
  O     0.96484727 +1   37.8713456 +1  160.6940640 +1    24    20    12

 *+*+*+*+*+*+*+*+*+*+*+*+*+*+*+*+*+*+*+*+*+*+*+*+*+*+*+*+*+*+*+*+*+*+*+*+*+*+*+*+
            BAR SHORTENED BY       1.000 PERCENT
 GRADIENT CRITERION IN FLEPO =    10.000


          FOR POINT   19 SECOND STRUCTURE
 DISTANCE A - B      2.211366
 HEAT             -244.710248
 GRADIENT NORM      19.003544
 DIRECTION COSINE    0.772685
* ===============================
* Input file for Mopac
* ===============================
 PM7 BONDS AUX DUMP=30M ITRY=15000 T=14D CHARGE=-1 SINGLET eps=78.4 RELSCF=1


  C     0.00000000 +0    0.0000000 +0    0.0000000 +0     0     0     0
  C     1.39822347 +1    0.0000000 +0    0.0000000 +0     1     0     0
  C     1.39679713 +1  120.2595905 +1    0.0000000 +0     2     1     0
  C     1.40072132 +1  119.8507370 +1   -0.7092109 +1     3     2     1
  C     1.38283458 +1  118.1403380 +1    0.7515771 +1     4     3     2
  C     1.38783333 +1  123.5318063 +1   -0.3144164 +1     5     4     3
  H     1.09443584 +1  120.0055427 +1 -179.5813127 +1     1     2     3
  H     1.09108360 +1  119.1911482 +1  179.7270657 +1     2     1     3
  H     1.09213003 +1  119.7242367 +1 -179.7336509 +1     4     3     2
 Cl     1.72274084 +1  117.8836578 +1  179.3698309 +1     5     4     3
  H     1.08726045 +1  121.7857428 +1  179.7858716 +1     6     5     4
  C     1.46376865 +1  122.3108816 +1 -179.5322205 +1     3     2     1
  C     1.48719582 +1  117.1004631 +1   97.7768756 +1    12     3     2
  H     1.09853770 +1  112.9740663 +1 -163.4777322 +1    13    12     3
  H     1.10386711 +1  109.5050593 +1   77.7062572 +1    13    12     3
  H     1.09519290 +1  112.1646846 +1  -41.0290659 +1    13    12     3
  N     1.33240625 +1  120.4547809 +1  -96.4117934 +1    12     3     2
  O     1.25964558 +1  122.3990982 +1  178.5007482 +1    17    12     3
  O     1.25628426 +1  121.4319305 +1    0.2945587 +1    17    12     3
  H     2.15697404 +1  102.9224693 +1    2.4634592 +1    12     3     2
  O     3.55585961 +1  167.2975416 +1   65.4361913 +1    20    12     3
  H     0.96214375 +1  108.8879468 +1 -130.8905442 +1    21    20    12
  H     0.96572879 +1    4.5094720 +1 -136.8521636 +1    21    20    12
  H     1.54081971 +1  137.9625454 +1 -125.4373300 +1    20    12     3
  O     0.96749039 +1   37.9370434 +1  160.7246022 +1    24    20    12

 TIME=     5.54
  REACTANTS AND PRODUCTS SWAPPED AROUND
 *+*+*+*+*+*+*+*+*+*+*+*+*+*+*+*+*+*+*+*+*+*+*+*+*+*+*+*+*+*+*+*+*+*+*+*+*+*+*+*+
            BAR SHORTENED BY       0.000 PERCENT
 GRADIENT CRITERION IN FLEPO =    10.000


          FOR POINT   20 FIRST  STRUCTURE
 DISTANCE A - B      2.211366
 HEAT             -223.432931
 GRADIENT NORM       7.758410
 DIRECTION COSINE    0.207273
* ===============================
* Input file for Mopac
* ===============================
 PM7 BONDS AUX DUMP=30M ITRY=15000 T=14D CHARGE=-1 SINGLET eps=78.4 RELSCF=1


  C     0.00000000 +0    0.0000000 +0    0.0000000 +0     0     0     0
  C     1.39391556 +1    0.0000000 +0    0.0000000 +0     1     0     0
  C     1.39686887 +1  120.2891090 +1    0.0000000 +0     2     1     0
  C     1.39648675 +1  120.2631021 +1    0.2332588 +1     3     2     1
  C     1.38633403 +1  117.9498263 +1   -0.2366854 +1     4     3     2
  C     1.38817124 +1  123.1524220 +1    0.0822709 +1     5     4     3
  H     1.09293508 +1  120.1257748 +1 -179.9678020 +1     1     2     3
  H     1.09713179 +1  119.7078846 +1 -179.9691473 +1     2     1     3
  H     1.09341288 +1  120.6007103 +1  179.4882122 +1     4     3     2
 Cl     1.71911696 +1  118.2344674 +1 -179.9487638 +1     5     4     3
  H     1.09142875 +1  121.4698847 +1 -179.9692902 +1     6     5     4
  C     1.50321484 +1  118.7559052 +1 -179.0966645 +1     3     2     1
  C     1.52217670 +1  112.6336105 +1  126.9942693 +1    12     3     2
  H     1.09962600 +1  112.3383952 +1 -174.5713561 +1    13    12     3
  H     1.09778904 +1  113.0125597 +1   64.0006354 +1    13    12     3
  H     1.10209992 +1  110.5568190 +1  -55.1197249 +1    13    12     3
  N     1.49923641 +1  109.1361848 +1 -112.0333564 +1    12     3     2
  O     1.22277097 +1  118.5587295 +1  125.7164273 +1    17    12     3
  O     1.21869591 +1  119.9301661 +1  -54.6099529 +1    17    12     3
  H     1.14535100 +1  109.9060922 +1    4.8123993 +1    12     3     2
  O     4.41899871 +1  174.4321872 +1   18.6603553 +1    20    12     3
  H     0.92174721 +1  108.7924761 +1  -72.4182790 +1    21    20    12
  H     1.30116598 +1    6.3552602 +1 -103.4082197 +1    21    20    12
  H     1.67045433 +1  147.2136352 +1 -130.9331590 +1    23    21    20
  O     0.93672852 +1   41.8883624 +1 -178.1339794 +1    24    23    21

 TIME=     0.10
  REACTANTS AND PRODUCTS SWAPPED AROUND
 *+*+*+*+*+*+*+*+*+*+*+*+*+*+*+*+*+*+*+*+*+*+*+*+*+*+*+*+*+*+*+*+*+*+*+*+*+*+*+*+
            BAR SHORTENED BY       1.000 PERCENT
 GRADIENT CRITERION IN FLEPO =     4.758


          FOR POINT   21 SECOND STRUCTURE
 DISTANCE A - B      2.189252
 HEAT             -244.663656
 GRADIENT NORM      11.962145
 DIRECTION COSINE    0.050593
* ===============================
* Input file for Mopac
* ===============================
 PM7 BONDS AUX DUMP=30M ITRY=15000 T=14D CHARGE=-1 SINGLET eps=78.4 RELSCF=1


  C     0.00000000 +0    0.0000000 +0    0.0000000 +0     0     0     0
  C     1.39559492 +1    0.0000000 +0    0.0000000 +0     1     0     0
  C     1.39863437 +1  120.3924191 +1    0.0000000 +0     2     1     0
  C     1.39926593 +1  119.7662780 +1   -0.4585464 +1     3     2     1
  C     1.38400679 +1  118.2633437 +1    0.4581926 +1     4     3     2
  C     1.38880875 +1  123.2787206 +1   -0.0981010 +1     5     4     3
  H     1.09129586 +1  120.2765423 +1 -179.6572188 +1     1     2     3
  H     1.09166575 +1  119.1290611 +1  179.8653595 +1     2     1     3
  H     1.09080814 +1  119.7288273 +1 -179.7200894 +1     4     3     2
 Cl     1.72288213 +1  117.9326084 +1  179.4860020 +1     5     4     3
  H     1.08946155 +1  121.5627838 +1  179.6829123 +1     6     5     4
  C     1.46310155 +1  122.3899976 +1 -179.6601000 +1     3     2     1
  C     1.48755245 +1  116.9497303 +1   98.5852562 +1    12     3     2
  H     1.09933485 +1  112.8916963 +1 -163.2424007 +1    13    12     3
  H     1.10815874 +1  109.6667356 +1   77.5808935 +1    13    12     3
  H     1.09592693 +1  112.1081994 +1  -41.0357735 +1    13    12     3
  N     1.33096141 +1  120.5489658 +1  -96.3735391 +1    12     3     2
  O     1.26117023 +1  122.2962814 +1  177.9826247 +1    17    12     3
  O     1.26360564 +1  121.3498157 +1   -0.0426537 +1    17    12     3
  H     2.16284911 +1  102.8092935 +1    2.7708241 +1    12     3     2
  O     3.55012023 +1  167.6505317 +1   64.6217583 +1    20    12     3
  H     0.96269116 +1  109.2798312 +1 -130.0544746 +1    21    20    12
  H     0.96515741 +1    4.5100022 +1 -134.2479636 +1    21    20    12
  H     1.52974602 +1  137.6213363 +1 -125.4416324 +1    20    12     3
  O     0.96713432 +1   37.9072555 +1  159.7224271 +1    24    20    12

 *+*+*+*+*+*+*+*+*+*+*+*+*+*+*+*+*+*+*+*+*+*+*+*+*+*+*+*+*+*+*+*+*+*+*+*+*+*+*+*+
            BAR SHORTENED BY       1.000 PERCENT
 GRADIENT CRITERION IN FLEPO =     8.962


          FOR POINT   22 SECOND STRUCTURE
 DISTANCE A - B      2.167359
 HEAT             -244.544217
 GRADIENT NORM      11.139650
 DIRECTION COSINE    0.658854
* ===============================
* Input file for Mopac
* ===============================
 PM7 BONDS AUX DUMP=30M ITRY=15000 T=14D CHARGE=-1 SINGLET eps=78.4 RELSCF=1


  C     0.00000000 +0    0.0000000 +0    0.0000000 +0     0     0     0
  C     1.39547840 +1    0.0000000 +0    0.0000000 +0     1     0     0
  C     1.40017902 +1  120.1655144 +1    0.0000000 +0     2     1     0
  C     1.40061083 +1  119.8809202 +1   -0.5743634 +1     3     2     1
  C     1.38287699 +1  118.1971964 +1    0.6058137 +1     4     3     2
  C     1.38670078 +1  123.3662725 +1   -0.2325792 +1     5     4     3
  H     1.09216393 +1  120.1622627 +1 -179.6053021 +1     1     2     3
  H     1.08972872 +1  119.2907237 +1  179.8235456 +1     2     1     3
  H     1.09055487 +1  119.6323361 +1 -179.6963094 +1     4     3     2
 Cl     1.72291899 +1  117.8921375 +1  179.4167654 +1     5     4     3
  H     1.08925292 +1  121.7508618 +1  179.6731163 +1     6     5     4
  C     1.46284854 +1  122.5298613 +1 -179.6039590 +1     3     2     1
  C     1.48705570 +1  117.1230959 +1   98.5424106 +1    12     3     2
  H     1.09795158 +1  113.0563320 +1 -163.0468729 +1    13    12     3
  H     1.10263091 +1  109.4565867 +1   77.8276390 +1    13    12     3
  H     1.09691919 +1  112.1345828 +1  -40.6487598 +1    13    12     3
  N     1.33211802 +1  120.4428667 +1  -96.3102341 +1    12     3     2
  O     1.26047574 +1  122.4822421 +1  177.0161350 +1    17    12     3
  O     1.26177031 +1  121.3245999 +1   -0.8669276 +1    17    12     3
  H     2.16639793 +1  102.5458327 +1    2.7610013 +1    12     3     2
  O     3.55082081 +1  167.8791694 +1   64.6159072 +1    20    12     3
  H     0.96341217 +1  109.2717949 +1 -129.8118890 +1    21    20    12
  H     0.96420764 +1    4.7577722 +1 -134.4210279 +1    21    20    12
  H     1.53479154 +1  137.5403545 +1 -125.2791522 +1    20    12     3
  O     0.96664311 +1   37.8087914 +1  159.5842692 +1    24    20    12

 *+*+*+*+*+*+*+*+*+*+*+*+*+*+*+*+*+*+*+*+*+*+*+*+*+*+*+*+*+*+*+*+*+*+*+*+*+*+*+*+
            BAR SHORTENED BY       1.000 PERCENT
 GRADIENT CRITERION IN FLEPO =     8.140


          FOR POINT   23 SECOND STRUCTURE
 DISTANCE A - B      2.145686
 HEAT             -244.352593
 GRADIENT NORM      13.532104
 DIRECTION COSINE    0.749760
* ===============================
* Input file for Mopac
* ===============================
 PM7 BONDS AUX DUMP=30M ITRY=15000 T=14D CHARGE=-1 SINGLET eps=78.4 RELSCF=1


  C     0.00000000 +0    0.0000000 +0    0.0000000 +0     0     0     0
  C     1.39515442 +1    0.0000000 +0    0.0000000 +0     1     0     0
  C     1.39769698 +1  120.4025344 +1    0.0000000 +0     2     1     0
  C     1.40065483 +1  119.7758965 +1   -0.5925296 +1     3     2     1
  C     1.38312677 +1  118.1941957 +1    0.6034390 +1     4     3     2
  C     1.38640180 +1  123.3717260 +1   -0.2108980 +1     5     4     3
  H     1.09204493 +1  120.2685645 +1 -179.5982000 +1     1     2     3
  H     1.09307894 +1  119.1108834 +1  179.7913579 +1     2     1     3
  H     1.09063814 +1  119.6050790 +1 -179.6780241 +1     4     3     2
 Cl     1.72290513 +1  117.8611824 +1  179.4188991 +1     5     4     3
  H     1.08908553 +1  121.7345308 +1  179.6753462 +1     6     5     4
  C     1.46315693 +1  122.6002421 +1 -179.6325646 +1     3     2     1
  C     1.48706182 +1  117.0852964 +1   98.9189052 +1    12     3     2
  H     1.09941772 +1  113.0820967 +1 -163.3517977 +1    13    12     3
  H     1.10657984 +1  109.5325497 +1   77.9906228 +1    13    12     3
  H     1.09521236 +1  112.3365973 +1  -40.7535624 +1    13    12     3
  N     1.33252594 +1  120.3736003 +1  -96.4779058 +1    12     3     2
  O     1.26030657 +1  122.4743129 +1  176.7121310 +1    17    12     3
  O     1.26054464 +1  121.4383622 +1   -1.3370901 +1    17    12     3
  H     2.15932158 +1  102.5801191 +1    2.8189594 +1    12     3     2
  O     3.55375870 +1  168.1649352 +1   64.0388624 +1    20    12     3
  H     0.95960542 +1  109.6335810 +1 -128.9833619 +1    21    20    12
  H     0.96386779 +1    4.6481742 +1 -132.9951029 +1    21    20    12
  H     1.53003204 +1  137.3520837 +1 -125.2737377 +1    20    12     3
  O     0.96827808 +1   38.3110292 +1  159.2227537 +1    24    20    12

 TIME=     0.89
  REACTANTS AND PRODUCTS SWAPPED AROUND
 *+*+*+*+*+*+*+*+*+*+*+*+*+*+*+*+*+*+*+*+*+*+*+*+*+*+*+*+*+*+*+*+*+*+*+*+*+*+*+*+
            BAR SHORTENED BY       0.000 PERCENT
 GRADIENT CRITERION IN FLEPO =    10.000


          FOR POINT   24 FIRST  STRUCTURE
 DISTANCE A - B      2.145686
 HEAT             -223.432931
 GRADIENT NORM       7.758410
 DIRECTION COSINE    0.095738
* ===============================
* Input file for Mopac
* ===============================
 PM7 BONDS AUX DUMP=30M ITRY=15000 T=14D CHARGE=-1 SINGLET eps=78.4 RELSCF=1


  C     0.00000000 +0    0.0000000 +0    0.0000000 +0     0     0     0
  C     1.39391556 +1    0.0000000 +0    0.0000000 +0     1     0     0
  C     1.39686887 +1  120.2891090 +1    0.0000000 +0     2     1     0
  C     1.39648675 +1  120.2631021 +1    0.2332588 +1     3     2     1
  C     1.38633403 +1  117.9498263 +1   -0.2366854 +1     4     3     2
  C     1.38817124 +1  123.1524220 +1    0.0822709 +1     5     4     3
  H     1.09293508 +1  120.1257748 +1 -179.9678020 +1     1     2     3
  H     1.09713179 +1  119.7078846 +1 -179.9691473 +1     2     1     3
  H     1.09341288 +1  120.6007103 +1  179.4882122 +1     4     3     2
 Cl     1.71911696 +1  118.2344674 +1 -179.9487638 +1     5     4     3
  H     1.09142875 +1  121.4698847 +1 -179.9692902 +1     6     5     4
  C     1.50321484 +1  118.7559052 +1 -179.0966645 +1     3     2     1
  C     1.52217670 +1  112.6336105 +1  126.9942693 +1    12     3     2
  H     1.09962600 +1  112.3383952 +1 -174.5713561 +1    13    12     3
  H     1.09778904 +1  113.0125597 +1   64.0006354 +1    13    12     3
  H     1.10209992 +1  110.5568190 +1  -55.1197249 +1    13    12     3
  N     1.49923641 +1  109.1361848 +1 -112.0333564 +1    12     3     2
  O     1.22277097 +1  118.5587295 +1  125.7164273 +1    17    12     3
  O     1.21869591 +1  119.9301661 +1  -54.6099529 +1    17    12     3
  H     1.14535100 +1  109.9060922 +1    4.8123993 +1    12     3     2
  O     4.41899871 +1  174.4321872 +1   18.6603553 +1    20    12     3
  H     0.92174721 +1  108.7924761 +1  -72.4182790 +1    21    20    12
  H     1.30116598 +1    6.3552602 +1 -103.4082197 +1    21    20    12
  H     1.67045433 +1  147.2136352 +1 -130.9331590 +1    23    21    20
  O     0.93672852 +1   41.8883624 +1 -178.1339794 +1    24    23    21

 TIME=     0.10
  REACTANTS AND PRODUCTS SWAPPED AROUND
 *+*+*+*+*+*+*+*+*+*+*+*+*+*+*+*+*+*+*+*+*+*+*+*+*+*+*+*+*+*+*+*+*+*+*+*+*+*+*+*+
            BAR SHORTENED BY       1.000 PERCENT
 GRADIENT CRITERION IN FLEPO =     4.758


          FOR POINT   25 SECOND STRUCTURE
 DISTANCE A - B      2.124229
 HEAT             -244.257965
 GRADIENT NORM      11.805842
 DIRECTION COSINE    0.171547
* ===============================
* Input file for Mopac
* ===============================
 PM7 BONDS AUX DUMP=30M ITRY=15000 T=14D CHARGE=-1 SINGLET eps=78.4 RELSCF=1


  C     0.00000000 +0    0.0000000 +0    0.0000000 +0     0     0     0
  C     1.39615644 +1    0.0000000 +0    0.0000000 +0     1     0     0
  C     1.39818038 +1  120.2795077 +1    0.0000000 +0     2     1     0
  C     1.40151704 +1  119.8363714 +1   -0.8870950 +1     3     2     1
  C     1.38252344 +1  118.1697076 +1    0.9005522 +1     4     3     2
  C     1.38855796 +1  123.3685879 +1   -0.3598779 +1     5     4     3
  H     1.09220498 +1  120.0812779 +1 -179.4934053 +1     1     2     3
  H     1.09084005 +1  119.1978092 +1  179.6373950 +1     2     1     3
  H     1.08943763 +1  119.4920630 +1 -179.5510479 +1     4     3     2
 Cl     1.72201973 +1  117.8009013 +1  179.2730788 +1     5     4     3
  H     1.08992481 +1  121.5690325 +1  179.7325065 +1     6     5     4
  C     1.46449903 +1  122.6415025 +1 -179.6748524 +1     3     2     1
  C     1.48704309 +1  117.1275477 +1   99.0288868 +1    12     3     2
  H     1.10019495 +1  113.1847140 +1 -163.1014677 +1    13    12     3
  H     1.10500928 +1  109.4819698 +1   78.0277234 +1    13    12     3
  H     1.09749536 +1  112.5484134 +1  -40.3952453 +1    13    12     3
  N     1.33142299 +1  120.2471088 +1  -96.6408528 +1    12     3     2
  O     1.26072510 +1  122.2877013 +1  175.8631589 +1    17    12     3
  O     1.26369135 +1  121.2437303 +1   -2.1180702 +1    17    12     3
  H     2.16337927 +1  102.3425362 +1    3.0668234 +1    12     3     2
  O     3.55064607 +1  168.8241771 +1   63.6185177 +1    20    12     3
  H     0.96295501 +1  109.6051235 +1 -128.2882257 +1    21    20    12
  H     0.96514118 +1    5.0814429 +1 -132.2736788 +1    21    20    12
  H     1.53599678 +1  136.6157734 +1 -124.9842131 +1    20    12     3
  O     0.96624689 +1   38.0189168 +1  158.4757525 +1    24    20    12

 *+*+*+*+*+*+*+*+*+*+*+*+*+*+*+*+*+*+*+*+*+*+*+*+*+*+*+*+*+*+*+*+*+*+*+*+*+*+*+*+
            BAR SHORTENED BY       1.000 PERCENT
 GRADIENT CRITERION IN FLEPO =     8.806


          FOR POINT   26 SECOND STRUCTURE
 DISTANCE A - B      2.102987
 HEAT             -243.981669
 GRADIENT NORM      13.293837
 DIRECTION COSINE    0.423609
* ===============================
* Input file for Mopac
* ===============================
 PM7 BONDS AUX DUMP=30M ITRY=15000 T=14D CHARGE=-1 SINGLET eps=78.4 RELSCF=1


  C     0.00000000 +0    0.0000000 +0    0.0000000 +0     0     0     0
  C     1.39583058 +1    0.0000000 +0    0.0000000 +0     1     0     0
  C     1.39788918 +1  120.3334125 +1    0.0000000 +0     2     1     0
  C     1.39736027 +1  119.7417893 +1   -0.3985204 +1     3     2     1
  C     1.38373397 +1  118.4013065 +1    0.5481019 +1     4     3     2
  C     1.38598080 +1  123.2373122 +1   -0.0091554 +1     5     4     3
  H     1.09235074 +1  120.1430368 +1 -179.7238041 +1     1     2     3
  H     1.09395102 +1  119.4412678 +1 -179.7116927 +1     2     1     3
  H     1.09352413 +1  119.4770331 +1 -179.6906546 +1     4     3     2
 Cl     1.72278474 +1  117.9283392 +1  179.3587567 +1     5     4     3
  H     1.08916270 +1  121.6548535 +1  179.5096274 +1     6     5     4
  C     1.46229242 +1  122.9600914 +1 -179.5430331 +1     3     2     1
  C     1.48839771 +1  117.2319621 +1   99.3596836 +1    12     3     2
  H     1.09626757 +1  113.2497515 +1 -162.9822500 +1    13    12     3
  H     1.10551348 +1  109.0153164 +1   78.4706229 +1    13    12     3
  H     1.09471926 +1  112.6642925 +1  -40.2758327 +1    13    12     3
  N     1.33239589 +1  120.2443664 +1  -96.2044991 +1    12     3     2
  O     1.26208800 +1  122.4409581 +1  174.8655827 +1    17    12     3
  O     1.26232380 +1  121.2689288 +1   -2.6592584 +1    17    12     3
  H     2.17472407 +1  101.9714513 +1    3.3165254 +1    12     3     2
  O     3.54702883 +1  168.9610261 +1   63.2176925 +1    20    12     3
  H     0.96252224 +1  109.8049942 +1 -128.1086146 +1    21    20    12
  H     0.96188166 +1    4.9104314 +1 -135.5572189 +1    21    20    12
  H     1.52684058 +1  136.4531456 +1 -125.3620883 +1    20    12     3
  O     0.96107325 +1   37.9782588 +1  158.5653583 +1    24    20    12

 *+*+*+*+*+*+*+*+*+*+*+*+*+*+*+*+*+*+*+*+*+*+*+*+*+*+*+*+*+*+*+*+*+*+*+*+*+*+*+*+
            BAR SHORTENED BY       1.000 PERCENT
 GRADIENT CRITERION IN FLEPO =    10.000


          FOR POINT   27 SECOND STRUCTURE
 DISTANCE A - B      2.081957
 HEAT             -243.843745
 GRADIENT NORM      12.965105
 DIRECTION COSINE    0.538949
* ===============================
* Input file for Mopac
* ===============================
 PM7 BONDS AUX DUMP=30M ITRY=15000 T=14D CHARGE=-1 SINGLET eps=78.4 RELSCF=1


  C     0.00000000 +0    0.0000000 +0    0.0000000 +0     0     0     0
  C     1.39503727 +1    0.0000000 +0    0.0000000 +0     1     0     0
  C     1.39845371 +1  120.3335733 +1    0.0000000 +0     2     1     0
  C     1.39991291 +1  119.7473454 +1   -0.4309816 +1     3     2     1
  C     1.38205187 +1  118.1385323 +1    0.5068120 +1     4     3     2
  C     1.38366054 +1  123.6195221 +1   -0.0985345 +1     5     4     3
  H     1.09242157 +1  120.1773722 +1 -179.8941025 +1     1     2     3
  H     1.09198595 +1  119.4144089 +1 -179.8637693 +1     2     1     3
  H     1.09053436 +1  119.4292886 +1 -179.6814163 +1     4     3     2
 Cl     1.72606972 +1  117.6637828 +1  179.4862433 +1     5     4     3
  H     1.08918351 +1  121.8312501 +1  179.5534062 +1     6     5     4
  C     1.46325990 +1  122.9166002 +1 -179.7663658 +1     3     2     1
  C     1.48888663 +1  117.2186646 +1   99.9614940 +1    12     3     2
  H     1.09860041 +1  113.2256019 +1 -162.8733403 +1    13    12     3
  H     1.10397160 +1  109.2323344 +1   77.9713107 +1    13    12     3
  H     1.09743852 +1  112.3452087 +1  -40.4178304 +1    13    12     3
  N     1.33253913 +1  120.1899582 +1  -96.2277287 +1    12     3     2
  O     1.25935309 +1  122.4639943 +1  174.6048112 +1    17    12     3
  O     1.26198096 +1  121.2518807 +1   -3.3245183 +1    17    12     3
  H     2.16908186 +1  101.9580676 +1    3.7168264 +1    12     3     2
  O     3.54912398 +1  169.5087407 +1   62.4179694 +1    20    12     3
  H     0.96316411 +1  109.8254603 +1 -127.2203499 +1    21    20    12
  H     0.96765077 +1    5.2139486 +1 -133.7107299 +1    21    20    12
  H     1.53751399 +1  135.9066543 +1 -125.1132672 +1    20    12     3
  O     0.96583751 +1   37.8657327 +1  157.9627487 +1    24    20    12

 TIME=     0.73
  REACTANTS AND PRODUCTS SWAPPED AROUND
 *+*+*+*+*+*+*+*+*+*+*+*+*+*+*+*+*+*+*+*+*+*+*+*+*+*+*+*+*+*+*+*+*+*+*+*+*+*+*+*+
            BAR SHORTENED BY       0.000 PERCENT
 GRADIENT CRITERION IN FLEPO =     9.965


          FOR POINT   28 FIRST  STRUCTURE
 DISTANCE A - B      2.081957
 HEAT             -223.432931
 GRADIENT NORM       7.758410
 DIRECTION COSINE    0.200153
* ===============================
* Input file for Mopac
* ===============================
 PM7 BONDS AUX DUMP=30M ITRY=15000 T=14D CHARGE=-1 SINGLET eps=78.4 RELSCF=1


  C     0.00000000 +0    0.0000000 +0    0.0000000 +0     0     0     0
  C     1.39391556 +1    0.0000000 +0    0.0000000 +0     1     0     0
  C     1.39686887 +1  120.2891090 +1    0.0000000 +0     2     1     0
  C     1.39648675 +1  120.2631021 +1    0.2332588 +1     3     2     1
  C     1.38633403 +1  117.9498263 +1   -0.2366854 +1     4     3     2
  C     1.38817124 +1  123.1524220 +1    0.0822709 +1     5     4     3
  H     1.09293508 +1  120.1257748 +1 -179.9678020 +1     1     2     3
  H     1.09713179 +1  119.7078846 +1 -179.9691473 +1     2     1     3
  H     1.09341288 +1  120.6007103 +1  179.4882122 +1     4     3     2
 Cl     1.71911696 +1  118.2344674 +1 -179.9487638 +1     5     4     3
  H     1.09142875 +1  121.4698847 +1 -179.9692902 +1     6     5     4
  C     1.50321484 +1  118.7559052 +1 -179.0966645 +1     3     2     1
  C     1.52217670 +1  112.6336105 +1  126.9942693 +1    12     3     2
  H     1.09962600 +1  112.3383952 +1 -174.5713561 +1    13    12     3
  H     1.09778904 +1  113.0125597 +1   64.0006354 +1    13    12     3
  H     1.10209992 +1  110.5568190 +1  -55.1197249 +1    13    12     3
  N     1.49923641 +1  109.1361848 +1 -112.0333564 +1    12     3     2
  O     1.22277097 +1  118.5587295 +1  125.7164273 +1    17    12     3
  O     1.21869591 +1  119.9301661 +1  -54.6099529 +1    17    12     3
  H     1.14535100 +1  109.9060922 +1    4.8123993 +1    12     3     2
  O     4.41899871 +1  174.4321872 +1   18.6603553 +1    20    12     3
  H     0.92174721 +1  108.7924761 +1  -72.4182790 +1    21    20    12
  H     1.30116598 +1    6.3552602 +1 -103.4082197 +1    21    20    12
  H     1.67045433 +1  147.2136352 +1 -130.9331590 +1    23    21    20
  O     0.93672852 +1   41.8883624 +1 -178.1339794 +1    24    23    21

 TIME=     0.11
  REACTANTS AND PRODUCTS SWAPPED AROUND
 *+*+*+*+*+*+*+*+*+*+*+*+*+*+*+*+*+*+*+*+*+*+*+*+*+*+*+*+*+*+*+*+*+*+*+*+*+*+*+*+
            BAR SHORTENED BY       1.000 PERCENT
 GRADIENT CRITERION IN FLEPO =     4.758


          FOR POINT   29 SECOND STRUCTURE
 DISTANCE A - B      2.061137
 HEAT             -243.594114
 GRADIENT NORM      16.421972
 DIRECTION COSINE    0.027455
* ===============================
* Input file for Mopac
* ===============================
 PM7 BONDS AUX DUMP=30M ITRY=15000 T=14D CHARGE=-1 SINGLET eps=78.4 RELSCF=1


  C     0.00000000 +0    0.0000000 +0    0.0000000 +0     0     0     0
  C     1.39503531 +1    0.0000000 +0    0.0000000 +0     1     0     0
  C     1.40072347 +1  120.4406800 +1    0.0000000 +0     2     1     0
  C     1.39985860 +1  119.6470027 +1   -0.4361249 +1     3     2     1
  C     1.38602438 +1  118.2681674 +1    0.5224661 +1     4     3     2
  C     1.38657613 +1  123.3818379 +1   -0.1250644 +1     5     4     3
  H     1.09238966 +1  120.1825480 +1 -179.9018366 +1     1     2     3
  H     1.09200644 +1  119.4008271 +1 -179.8742760 +1     2     1     3
  H     1.08828966 +1  119.5716000 +1 -179.7277040 +1     4     3     2
 Cl     1.72237097 +1  117.8361161 +1  179.4741200 +1     5     4     3
  H     1.08915254 +1  121.7212969 +1  179.5776771 +1     6     5     4
  C     1.46015608 +1  122.9547812 +1 -179.7833759 +1     3     2     1
  C     1.48814646 +1  117.2039386 +1  100.2492834 +1    12     3     2
  H     1.09681270 +1  113.2934848 +1 -163.2305623 +1    13    12     3
  H     1.10654595 +1  109.0556324 +1   77.9320955 +1    13    12     3
  H     1.09714912 +1  112.6744891 +1  -40.4386529 +1    13    12     3
  N     1.33354046 +1  120.1043005 +1  -96.4166003 +1    12     3     2
  O     1.25974756 +1  122.7168053 +1  174.3315147 +1    17    12     3
  O     1.26047320 +1  121.3841540 +1   -3.7476669 +1    17    12     3
  H     2.16002198 +1  102.0565999 +1    3.6379056 +1    12     3     2
  O     3.55627518 +1  169.4864944 +1   62.5779039 +1    20    12     3
  H     0.96479224 +1  109.7718689 +1 -127.2071587 +1    21    20    12
  H     0.96357386 +1    5.4119288 +1 -134.0808806 +1    21    20    12
  H     1.53616191 +1  136.1817210 +1 -125.2300034 +1    20    12     3
  O     0.96608557 +1   38.1756135 +1  158.2830011 +1    24    20    12

 *+*+*+*+*+*+*+*+*+*+*+*+*+*+*+*+*+*+*+*+*+*+*+*+*+*+*+*+*+*+*+*+*+*+*+*+*+*+*+*+
            BAR SHORTENED BY       1.000 PERCENT
 GRADIENT CRITERION IN FLEPO =    10.000


          FOR POINT   30 SECOND STRUCTURE
 DISTANCE A - B      2.040526
 HEAT             -243.369518
 GRADIENT NORM      15.898749
 DIRECTION COSINE    0.615126
* ===============================
* Input file for Mopac
* ===============================
 PM7 BONDS AUX DUMP=30M ITRY=15000 T=14D CHARGE=-1 SINGLET eps=78.4 RELSCF=1


  C     0.00000000 +0    0.0000000 +0    0.0000000 +0     0     0     0
  C     1.39607975 +1    0.0000000 +0    0.0000000 +0     1     0     0
  C     1.39818692 +1  120.2448656 +1    0.0000000 +0     2     1     0
  C     1.39994427 +1  119.8182773 +1   -0.6451251 +1     3     2     1
  C     1.38207511 +1  118.2860670 +1    0.7094062 +1     4     3     2
  C     1.38656498 +1  123.3631868 +1   -0.2733368 +1     5     4     3
  H     1.09418409 +1  120.2835907 +1 -179.8086544 +1     1     2     3
  H     1.09025021 +1  119.2070587 +1  179.8832559 +1     2     1     3
  H     1.09314885 +1  119.2853202 +1 -179.6660859 +1     4     3     2
 Cl     1.72236493 +1  117.8259472 +1  179.4557850 +1     5     4     3
  H     1.09221855 +1  121.7545877 +1  179.7297160 +1     6     5     4
  C     1.46402204 +1  122.7845947 +1 -179.9615527 +1     3     2     1
  C     1.48887602 +1  117.1666577 +1  100.6561995 +1    12     3     2
  H     1.09903619 +1  113.1466057 +1 -163.2382820 +1    13    12     3
  H     1.10300019 +1  108.9998886 +1   77.7525880 +1    13    12     3
  H     1.09044531 +1  112.8441252 +1  -39.7978972 +1    13    12     3
  N     1.33259922 +1  119.8894359 +1  -96.6737029 +1    12     3     2
  O     1.26152015 +1  122.5223641 +1  173.9714505 +1    17    12     3
[...]
 -1.9419 -1.9714 -1.9382 -2.0064 -1.9492 -1.9954 -1.9786 -1.9264 -1.9589 -1.8958
 -1.9673 -1.9531 -1.9605 -1.9275 -1.9053 -1.7534 -1.7173 -0.0058 -0.0091 -0.0042
 -0.0001 -0.0013





            (VALENCIES)   BOND ORDERS

     1  C     (3.970)     2  C 1.444     6  C 1.435     7  H 0.959     4  C 0.110    10 Cl 0.011

     2  C     (3.965)     1  C 1.444     3  C 1.421     8  H 0.950     5  C 0.109

     3  C     (3.990)     2  C 1.421     4  C 1.414    12  C 1.001     6  C 0.110    10 Cl 0.011

     4  C     (3.964)     5  C 1.430     3  C 1.414     9  H 0.949     1  C 0.110    10 Cl 0.024

     5  C     (3.954)     4  C 1.430     6  C 1.424    10 Cl 0.970     2  C 0.109

     6  C     (3.968)     1  C 1.435     5  C 1.424    11  H 0.954     3  C 0.110    10 Cl 0.023

     7  H     (0.971)     1  C 0.959

     8  H     (0.965)     2  C 0.950

     9  H     (0.965)     4  C 0.949

    10 Cl     (1.051)     5  C 0.970     4  C 0.024     6  C 0.023     1  C 0.011     3  C 0.011

    11  H     (0.969)     6  C 0.954

    12  C     (3.582)     3  C 1.001    13  C 0.977    17  N 0.890    20  H 0.456    19  O 0.075    25  O 0.072
                         18  O 0.068

    13  C     (3.919)    12  C 0.977    15  H 0.967    14  H 0.965    16  H 0.959    19  O 0.012    18  O 0.011
                         17  N 0.011

    14  H     (0.974)    13  C 0.965

    15  H     (0.977)    13  C 0.967

    16  H     (0.973)    13  C 0.959

    17  N     (3.749)    18  O 1.413    19  O 1.402    12  C 0.890    13  C 0.011

    18  O     (1.781)    17  N 1.413    19  O 0.271    12  C 0.068    13  C 0.011

    19  O     (1.776)    17  N 1.402    18  O 0.271    12  C 0.075    13  C 0.012

    20  H     (0.825)    12  C 0.456    25  O 0.344

    21  O     (1.641)    22  H 0.865    23  H 0.737    25  O 0.029

    22  H     (0.868)    21  O 0.865

    23  H     (0.829)    21  O 0.737    25  O 0.085

    24  H     (0.883)    25  O 0.874

    25  O     (1.418)    24  H 0.874    20  H 0.344    23  H 0.085    12  C 0.072    21  O 0.029

 BEST ESTIMATE GEOMETRY OF THE TRANSITION STATE


           C1=   0.432     C2=   0.568

 -------------------------------------------------------------------------------
 PM7 BONDS AUX DUMP=30M ITRY=15000 T=14D CHARGE=-1 SINGLET eps=78.4 RELSCF=1




     TRANSITION STATE LOCATED USING THE "SADDLE" TECHNIQUE    
     SCF FIELD WAS ACHIEVED                                   


                              PM7 CALCULATION
                                                       MOPAC v22.0.6 Linux
                                                       Mon Mar 25 22:31:53 2024




          FINAL HEAT OF FORMATION =       -219.68676 KCAL/MOL =    -919.16939 KJ/MOL
          VAN DER WAALS AREA      =        244.66 SQUARE ANGSTROMS



          DIELECTRIC ENERGY       =         -2.75853 EV
          COSMO AREA              =        244.66 SQUARE ANGSTROMS
          COSMO VOLUME            =        250.46 CUBIC ANGSTROMS

          GRADIENT NORM           =          8.39085          =       1.67817 PER ATOM
          IONIZATION POTENTIAL    =          9.352540 EV
          HOMO LUMO ENERGIES (EV) =         -9.353 -0.324
          NO. OF FILLED LEVELS    =         40
          MOLECULAR WEIGHT        =        220.6322         POINT GROUP:  C1  

          MOLECULAR DIMENSIONS (Angstroms)

            Atom       Atom       Distance
            H    22   Cl    10     9.82650
            H     7    H    14     6.46866
            O    19    H    16     4.03471


          SCF CALCULATIONS        =          1

          WALL-CLOCK TIME         =          2 MINUTES AND 14.648 SECONDS
          COMPUTATION TIME        =          2 HOURS 21 MINUTES AND 13.552 SECONDS



       FINAL  POINT  AND  DERIVATIVES

   PARAMETER     ATOM    TYPE            VALUE        GRADIENT
      1          1  C    CARTESIAN X     1.693393     -0.118814  KCAL/ANGSTROM
      2          1  C    CARTESIAN Y     3.145466      0.488462  KCAL/ANGSTROM
      3          1  C    CARTESIAN Z     2.186733     -0.107872  KCAL/ANGSTROM
      4          2  C    CARTESIAN X     2.030090      0.068758  KCAL/ANGSTROM
      5          2  C    CARTESIAN Y     1.795401     -1.352179  KCAL/ANGSTROM
      6          2  C    CARTESIAN Z     2.109035      0.183886  KCAL/ANGSTROM
      7          3  C    CARTESIAN X     1.037273     -1.636539  KCAL/ANGSTROM
      8          3  C    CARTESIAN Y     0.819313      0.380901  KCAL/ANGSTROM
      9          3  C    CARTESIAN Z     1.980529     -0.021326  KCAL/ANGSTROM
     10          4  C    CARTESIAN X    -0.306984      1.026076  KCAL/ANGSTROM
     11          4  C    CARTESIAN Y     1.199361     -0.396424  KCAL/ANGSTROM
     12          4  C    CARTESIAN Z     1.934574     -0.395543  KCAL/ANGSTROM
     13          5  C    CARTESIAN X    -0.607160     -0.004457  KCAL/ANGSTROM
     14          5  C    CARTESIAN Y     2.550419      0.434216  KCAL/ANGSTROM
     15          5  C    CARTESIAN Z     2.013336     -0.016062  KCAL/ANGSTROM
     16          6  C    CARTESIAN X     0.356731     -0.194593  KCAL/ANGSTROM
     17          6  C    CARTESIAN Y     3.539824     -0.168469  KCAL/ANGSTROM
     18          6  C    CARTESIAN Z     2.136783     -0.083696  KCAL/ANGSTROM
     19          7  H    CARTESIAN X     2.477014      0.087289  KCAL/ANGSTROM
     20          7  H    CARTESIAN Y     3.899095     -0.120914  KCAL/ANGSTROM
     21          7  H    CARTESIAN Z     2.283640     -0.040001  KCAL/ANGSTROM
     22          8  H    CARTESIAN X     3.082755     -0.147121  KCAL/ANGSTROM
     23          8  H    CARTESIAN Y     1.494921      0.254656  KCAL/ANGSTROM
     24          8  H    CARTESIAN Z     2.143313     -0.033924  KCAL/ANGSTROM
     25          9  H    CARTESIAN X    -1.088834     -0.137655  KCAL/ANGSTROM
     26          9  H    CARTESIAN Y     0.444117     -0.016290  KCAL/ANGSTROM
     27          9  H    CARTESIAN Z     1.834350      0.316776  KCAL/ANGSTROM
     28         10 Cl    CARTESIAN X    -2.262906     -0.042250  KCAL/ANGSTROM
     29         10 Cl    CARTESIAN Y     3.022065      0.223935  KCAL/ANGSTROM
     30         10 Cl    CARTESIAN Z     1.951070      0.054723  KCAL/ANGSTROM
     31         11  H    CARTESIAN X     0.090613      0.163973  KCAL/ANGSTROM
     32         11  H    CARTESIAN Y     4.594967     -0.331497  KCAL/ANGSTROM
     33         11  H    CARTESIAN Z     2.192499     -0.095352  KCAL/ANGSTROM
     34         12  C    CARTESIAN X     1.450383     -0.764754  KCAL/ANGSTROM
     35         12  C    CARTESIAN Y    -0.608064     -0.088500  KCAL/ANGSTROM
     36         12  C    CARTESIAN Z     1.902603      0.698685  KCAL/ANGSTROM
     37         13  C    CARTESIAN X     0.853232     -0.821956  KCAL/ANGSTROM
     38         13  C    CARTESIAN Y    -1.464821      0.192794  KCAL/ANGSTROM
     39         13  C    CARTESIAN Z     2.995810     -0.217579  KCAL/ANGSTROM
     40         14  H    CARTESIAN X     1.254707     -0.492118  KCAL/ANGSTROM
     41         14  H    CARTESIAN Y    -2.486659      0.089022  KCAL/ANGSTROM
     42         14  H    CARTESIAN Z     2.994927      0.253804  KCAL/ANGSTROM
     43         15  H    CARTESIAN X    -0.241584     -0.312975  KCAL/ANGSTROM
     44         15  H    CARTESIAN Y    -1.539280      0.280078  KCAL/ANGSTROM
     45         15  H    CARTESIAN Z     2.919776     -0.211098  KCAL/ANGSTROM
     46         16  H    CARTESIAN X     1.069984     -0.596304  KCAL/ANGSTROM
     47         16  H    CARTESIAN Y    -1.034050      0.011089  KCAL/ANGSTROM
     48         16  H    CARTESIAN Z     3.984443     -0.122756  KCAL/ANGSTROM
     49         17  N    CARTESIAN X     1.184020     -1.267632  KCAL/ANGSTROM
     50         17  N    CARTESIAN Y    -1.183852     -1.544411  KCAL/ANGSTROM
     51         17  N    CARTESIAN Z     0.591775     -2.796096  KCAL/ANGSTROM
     52         18  O    CARTESIAN X     1.920695     -0.084700  KCAL/ANGSTROM
     53         18  O    CARTESIAN Y    -2.064409      2.942302  KCAL/ANGSTROM
     54         18  O    CARTESIAN Z     0.159921     -0.574389  KCAL/ANGSTROM
     55         19  O    CARTESIAN X     0.252143      0.311141  KCAL/ANGSTROM
     56         19  O    CARTESIAN Y    -0.774805     -1.757267  KCAL/ANGSTROM
     57         19  O    CARTESIAN Z    -0.093631      1.859188  KCAL/ANGSTROM
     58         20  H    CARTESIAN X     2.799099     -0.334377  KCAL/ANGSTROM
     59         20  H    CARTESIAN Y    -0.654687     -0.214061  KCAL/ANGSTROM
     60         20  H    CARTESIAN Z     2.051477      0.526903  KCAL/ANGSTROM
     61         21  O    CARTESIAN X     6.536757      3.946711  KCAL/ANGSTROM
     62         21  O    CARTESIAN Y    -0.758432     -0.243328  KCAL/ANGSTROM
     63         21  O    CARTESIAN Z     2.818725     -0.108633  KCAL/ANGSTROM
     64         22  H    CARTESIAN X     7.012471      1.567674  KCAL/ANGSTROM
     65         22  H    CARTESIAN Y    -0.212984     -0.050317  KCAL/ANGSTROM
     66         22  H    CARTESIAN Z     2.200007      0.359291  KCAL/ANGSTROM
     67         23  H    CARTESIAN X     5.557767     -2.027816  KCAL/ANGSTROM
     68         23  H    CARTESIAN Y    -0.720174     -0.233558  KCAL/ANGSTROM
     69         23  H    CARTESIAN Z     2.499184     -0.624503  KCAL/ANGSTROM
     70         24  H    CARTESIAN X     4.203810      0.084602  KCAL/ANGSTROM
     71         24  H    CARTESIAN Y    -1.346071      1.571826  KCAL/ANGSTROM
     72         24  H    CARTESIAN Z     1.293675      1.951994  KCAL/ANGSTROM
     73         25  O    CARTESIAN X     4.110239      1.727918  KCAL/ANGSTROM
     74         25  O    CARTESIAN Y    -0.718595     -0.351715  KCAL/ANGSTROM
     75         25  O    CARTESIAN Z     1.970741     -0.756103  KCAL/ANGSTROM




   ATOM   CHEMICAL          X               Y               Z
  NUMBER   SYMBOL      (ANGSTROMS)     (ANGSTROMS)     (ANGSTROMS)

     1       C          1.69339265  *   3.14546567  *   2.18673322  *
     2       C          2.03008994  *   1.79540131  *   2.10903498  *
     3       C          1.03727256  *   0.81931337  *   1.98052851  *
     4       C         -0.30698395  *   1.19936129  *   1.93457370  *
     5       C         -0.60716000  *   2.55041904  *   2.01333623  *
     6       C          0.35673099  *   3.53982351  *   2.13678338  *
     7       H          2.47701412  *   3.89909471  *   2.28363992  *
     8       H          3.08275454  *   1.49492071  *   2.14331293  *
     9       H         -1.08883388  *   0.44411655  *   1.83435001  *
    10      Cl         -2.26290579  *   3.02206537  *   1.95106989  *
    11       H          0.09061347  *   4.59496669  *   2.19249878  *
    12       C          1.45038301  *  -0.60806411  *   1.90260275  *
    13       C          0.85323157  *  -1.46482140  *   2.99580983  *
    14       H          1.25470716  *  -2.48665936  *   2.99492718  *
    15       H         -0.24158439  *  -1.53927980  *   2.91977598  *
    16       H          1.06998408  *  -1.03405030  *   3.98444316  *
    17       N          1.18402017  *  -1.18385202  *   0.59177455  *
    18       O          1.92069515  *  -2.06440859  *   0.15992060  *
    19       O          0.25214264  *  -0.77480533  *  -0.09363123  *
    20       H          2.79909862  *  -0.65468722  *   2.05147679  *
    21       O          6.53675667  *  -0.75843187  *   2.81872522  *
    22       H          7.01247052  *  -0.21298390  *   2.20000677  *
    23       H          5.55776665  *  -0.72017372  *   2.49918395  *
    24       H          4.20381040  *  -1.34607081  *   1.29367532  *
    25       O          4.11023862  *  -0.71859465  *   1.97074120  *

                             CARTESIAN COORDINATES

   1    C        1.693392649     3.145465671     2.186733220
   2    C        2.030089944     1.795401311     2.109034984
   3    C        1.037272561     0.819313373     1.980528506
   4    C       -0.306983954     1.199361291     1.934573699
   5    C       -0.607159997     2.550419041     2.013336225
   6    C        0.356730986     3.539823513     2.136783384
   7    H        2.477014122     3.899094715     2.283639921
   8    H        3.082754544     1.494920709     2.143312928
   9    H       -1.088833885     0.444116554     1.834350012
  10   Cl       -2.262905790     3.022065370     1.951069890
  11    H        0.090613466     4.594966689     2.192498784
  12    C        1.450383009    -0.608064109     1.902602745
  13    C        0.853231572    -1.464821401     2.995809830
  14    H        1.254707160    -2.486659359     2.994927178
  15    H       -0.241584387    -1.539279798     2.919775980
  16    H        1.069984077    -1.034050304     3.984443160
  17    N        1.184020168    -1.183852019     0.591774555
  18    O        1.920695155    -2.064408593     0.159920599
  19    O        0.252142645    -0.774805331    -0.093631233
  20    H        2.799098625    -0.654687223     2.051476789
  21    O        6.536756671    -0.758431865     2.818725224
  22    H        7.012470520    -0.212983900     2.200006765
  23    H        5.557766651    -0.720173721     2.499183954
  24    H        4.203810404    -1.346070807     1.293675316
  25    O        4.110238624    -0.718594647     1.970741204


           Empirical Formula: C8 H11 N O4 Cl  =    25 atoms



      MOLECULAR POINT GROUP   :   C1  


                  EIGENVALUES  
 -36.74023 -31.24700 -30.03649 -28.59844 -28.25311 -27.24369 -25.96021 -25.68608
 -24.69824 -24.57144 -21.96604 -20.90239 -19.86478 -18.11750 -17.92941 -17.23152
 -17.04454 -16.63289 -15.99145 -15.23301 -14.84416 -14.46506 -14.33381 -14.26466
 -14.11683 -13.63374 -13.45229 -12.73400 -12.39322 -12.32246 -12.01224 -11.96387
 -11.60170 -11.46519 -11.44874 -11.15705 -10.96217 -10.11610  -9.86790  -9.35254
  -0.32450  -0.21128   0.01702   0.80974   1.27833   2.17736   3.52993   3.99425
   4.21909   4.33309   4.44286   4.64476   4.69907   4.79912   4.91045   5.11733
   5.40354   5.64011   5.73475   5.79082   5.84642   5.97650   6.04039   6.14392
   6.88869   7.20491   7.54822  69.73721  69.75168  69.78054  70.01068  70.02429


              NET ATOMIC CHARGES AND DIPOLE CONTRIBUTIONS

  ATOM NO.   TYPE          CHARGE      No. of ELECS.   s-Pop       p-Pop       d-Pop       
    1          C          -0.129729        4.1297     1.08759     3.04214
    2          C          -0.162620        4.1626     1.09346     3.06916
    3          C           0.026357        3.9736     1.06991     2.90374
    4          C          -0.180911        4.1809     1.08799     3.09292
    5          C           0.022341        3.9777     1.09588     2.88178
    6          C          -0.185913        4.1859     1.08527     3.10065
    7          H           0.170084        0.8299     0.82992
    8          H           0.187397        0.8126     0.81260
    9          H           0.187342        0.8127     0.81266
   10         Cl          -0.140399        7.1404     1.98130     5.15275     0.00634
   11          H           0.177599        0.8224     0.82240
   12          C          -0.288275        4.2883     1.12783     3.16045
   13          C          -0.434582        4.4346     1.05121     3.38337
   14          H           0.162565        0.8374     0.83743
   15          H           0.153711        0.8463     0.84629
   16          H           0.168608        0.8314     0.83139
   17          N           0.684675        4.3153     1.46664     2.84868
   18          O          -0.505788        6.5058     1.93975     4.56604
   19          O          -0.519162        6.5192     1.93976     4.57940
   20          H           0.406781        0.5932     0.59322
   21          O          -0.853406        6.8534     1.82838     5.02502
   22          H           0.361999        0.6380     0.63800
   23          H           0.418212        0.5818     0.58179
   24          H           0.340045        0.6600     0.65996
   25          O          -1.066932        7.0669     1.86039     5.20654
 DIPOLE           X         Y         Z       TOTAL
 POINT-CHG.    -7.537     7.551     2.275    10.908
 HYBRID        -1.140    -0.017    -0.944     1.480
 SUM           -8.677     7.534     1.332    11.568


          ATOMIC ORBITAL ELECTRON POPULATIONS

     Atom    s        px        py        pz      x^2-y^2     xz        z^2       yz        xy
    1  C   1.08759   1.02546   1.03873   0.97795
    2  C   1.09346   1.09427   0.98275   0.99214
    3  C   1.06991   0.95815   0.97683   0.96876
    4  C   1.08799   1.06114   1.01559   1.01619
    5  C   1.09588   0.84076   0.98722   1.05380
    6  C   1.08527   0.99642   1.08294   1.02129
    7  H   0.82992
    8  H   0.81260
    9  H   0.81266
   10 Cl   1.98130   1.24858   1.93326   1.97092   0.00228   0.00064   0.00125   0.00008   0.00209
   11  H   0.82240
   12  C   1.12783   1.40251   0.93838   0.81956
   13  C   1.05121   1.15723   1.13059   1.09555
   14  H   0.83743
   15  H   0.84629
   16  H   0.83139
   17  N   1.46664   0.91529   0.92303   1.01037
   18  O   1.93975   1.47209   1.31530   1.77865
   19  O   1.93976   1.28446   1.66042   1.63452
   20  H   0.59322
   21  O   1.82838   1.51356   1.81455   1.69692
   22  H   0.63800
   23  H   0.58179
   24  H   0.65996
   25  O   1.86039   1.75812   1.74577   1.70265

          BONDING CONTRIBUTION OF EACH M.O.

  1.3287  1.8751  0.9764  1.6142  1.1078  1.2498  1.2617  1.3678  1.2288  1.2989
  1.7583  1.7417  1.4359  1.6468  1.2290  1.5501  1.5822  1.7774  1.8963  1.7085
  1.8388  1.6720  1.4376  1.1348  1.4113  1.6930  1.8126  1.3007  1.6677  1.7238
  0.0006  0.8575  0.8203  0.3032  0.3078  0.7709  0.0339  1.9342  1.6199  0.9629
 -2.0363 -2.0365 -2.3332 -1.9674 -2.0780 -2.0105 -1.9553 -1.9311 -1.9543 -1.8971
 -1.9268 -1.9702 -1.9214 -2.0030 -1.9544 -1.9963 -1.9829 -1.9373 -1.9564 -1.9272
 -1.9251 -1.9517 -1.9601 -1.9259 -1.9034 -1.7607 -1.7163 -0.0058 -0.0094 -0.0039
 -0.0001 -0.0013





            (VALENCIES)   BOND ORDERS

     1  C     (3.969)     2  C 1.443     6  C 1.435     7  H 0.958     4  C 0.110    10 Cl 0.011

     2  C     (3.964)     1  C 1.443     3  C 1.422     8  H 0.950     5  C 0.109

     3  C     (3.991)     2  C 1.422     4  C 1.416    12  C 1.000     6  C 0.111    10 Cl 0.011

     4  C     (3.964)     5  C 1.430     3  C 1.416     9  H 0.949     1  C 0.110    10 Cl 0.024

     5  C     (3.955)     4  C 1.430     6  C 1.424    10 Cl 0.971     2  C 0.109

     6  C     (3.968)     1  C 1.435     5  C 1.424    11  H 0.954     3  C 0.111    10 Cl 0.024

     7  H     (0.971)     1  C 0.958

     8  H     (0.965)     2  C 0.950

     9  H     (0.965)     4  C 0.949

    10 Cl     (1.052)     5  C 0.971     4  C 0.024     6  C 0.024     1  C 0.011     3  C 0.011

    11  H     (0.968)     6  C 0.954

    12  C     (3.631)     3  C 1.000    13  C 0.979    17  N 0.876    20  H 0.526    19  O 0.072    25  O 0.069
                         18  O 0.065

    13  C     (3.917)    12  C 0.979    15  H 0.967    14  H 0.964    16  H 0.958    19  O 0.012    18  O 0.011
                         17  N 0.011

    14  H     (0.974)    13  C 0.964

    15  H     (0.976)    13  C 0.967

    16  H     (0.972)    13  C 0.958

    17  N     (3.747)    18  O 1.418    19  O 1.412    12  C 0.876    13  C 0.011

    18  O     (1.788)    17  N 1.418    19  O 0.276    12  C 0.065    13  C 0.011

    19  O     (1.787)    17  N 1.412    18  O 0.276    12  C 0.072    13  C 0.012

    20  H     (0.835)    12  C 0.526    25  O 0.282

    21  O     (1.627)    22  H 0.867    23  H 0.717    25  O 0.034

    22  H     (0.869)    21  O 0.867

    23  H     (0.825)    21  O 0.717    25  O 0.101

    24  H     (0.884)    25  O 0.876

    25  O     (1.376)    24  H 0.876    20  H 0.282    23  H 0.101    12  C 0.069    21  O 0.034


 **********************
 *                    *
 * JOB ENDED NORMALLY *
 *                    *
 **********************



 TOTAL JOB TIME:           134.66 SECONDS

 == MOPAC DONE ==
