 *******************************************************************************
 **                                                                           **
 **                              MOPAC v22.0.6                                **
 **                                                                           **
 *******************************************************************************
 **          Digital Object Identifier (DOI): 10.5281/zenodo.6511958          **
 **    Visit the DOI location for information on how to cite this program.    **
 *******************************************************************************

                              PM7 CALCULATION RESULTS

 *******************************************************************************
 *  CALCULATION DONE:                                Tue Mar 26 11:59:20 2024  *
 *  PM7        - The PM7 Hamiltonian to be used
 *  SINGLET    - SPIN STATE DEFINED AS A SINGLET
 *
 *
 *
 *                 CHARGE ON SYSTEM = -1
 *
 *
 *
 *  EPS=78.4   - USE ANDREAS KLAMT'S COSMO IMPLICIT SOLVATION MODEL
 *  T=         - A TIME OF 14.0 DAYS REQUESTED
 *  DUMP=N     - RESTART FILE WRITTEN EVERY 30.0 MINUTES REQUESTED
 *  RELSCF     - DEFAULT SCF CRITERION MULTIPLIED BY 1.0000
 *              (DEFAULT SCF CRITERION = 0.00010)
 *  ITRY=      - DO A MAXIMUM OF 15000 ITERATIONS FOR SCF
 *  AUX        - OUTPUT AUXILIARY INFORMATION
 *  BONDS      - FINAL BOND-ORDER MATRIX TO BE PRINTED
 *******************************************************************************
PM7 BONDS AUX DUMP=30M ITRY=15000 T=14D CHARGE=-1 SINGLET eps=78.4 RELSCF=1
 Title: ASE calculation

   ATOM   CHEMICAL          X               Y               Z
  NUMBER   SYMBOL      (ANGSTROMS)     (ANGSTROMS)     (ANGSTROMS)

     1       C          0.78615000  *  -0.72800000  *   0.06421000  *
     2       H          1.90845000  *  -0.87424000  *   0.11243000  *
     3       N          0.19976000  *  -1.38625000  *   1.28212000  *
     4       O          0.94573000  *  -2.00572000  *   2.02647000  *
     5       O         -0.99858000  *  -1.29890000  *   1.49836000  *
     6       C          6.41874000  *  -2.51612000  *   0.96451000  *
     7       O          5.73762000  *  -1.99401000  *   1.87324000  *
     8       O          5.89607000  *  -3.02358000  *  -0.05138000  *
     9       C          7.91763000  *  -2.56401000  *   1.11232000  *
    10       H          8.41393000  *  -2.81652000  *   0.16866000  *
    11       H          8.18405000  *  -3.32802000  *   1.85494000  *
    12       H          8.34146000  *  -1.61535000  *   1.46296000  *
    13       C          0.44612000  *   0.75537000  *   0.10484000  *
    14       H          0.85044000  *   1.25959000  *   0.99396000  *
    15       H         -0.63630000  *   0.94147000  *   0.09015000  *
    16       H          0.86071000  *   1.27269000  *  -0.77471000  *
    17       C          0.20419000  *  -1.41783000  *  -1.16280000  *
    18       H         -0.88603000  *  -1.29784000  *  -1.23293000  *
    19       H          0.41569000  *  -2.49639000  *  -1.18698000  *
    20       H          0.62056000  *  -0.98908000  *  -2.08746000  *
    21       H          4.30399000  *  -1.65729000  *   0.45323000  *
    22       O          4.08553000  *  -0.73282000  *   0.22917000  *
    23       H          4.82569000  *  -0.27261000  *   0.64781000  *



          CARTESIAN COORDINATES 

    NO.       ATOM           X           Y           Z

     1         C          0.7862     -0.7280      0.0642
     2         H          1.9084     -0.8742      0.1124
     3         N          0.1998     -1.3862      1.2821
     4         O          0.9457     -2.0057      2.0265
     5         O         -0.9986     -1.2989      1.4984
     6         C          6.4187     -2.5161      0.9645
     7         O          5.7376     -1.9940      1.8732
     8         O          5.8961     -3.0236     -0.0514
     9         C          7.9176     -2.5640      1.1123
    10         H          8.4139     -2.8165      0.1687
    11         H          8.1840     -3.3280      1.8549
    12         H          8.3415     -1.6154      1.4630
    13         C          0.4461      0.7554      0.1048
    14         H          0.8504      1.2596      0.9940
    15         H         -0.6363      0.9415      0.0901
    16         H          0.8607      1.2727     -0.7747
    17         C          0.2042     -1.4178     -1.1628
    18         H         -0.8860     -1.2978     -1.2329
    19         H          0.4157     -2.4964     -1.1870
    20         H          0.6206     -0.9891     -2.0875
    21         H          4.3040     -1.6573      0.4532
    22         O          4.0855     -0.7328      0.2292
    23         H          4.8257     -0.2726      0.6478

 General Reference for PM7:
 "Optimization of Parameters for Semiempirical Methods VI: More Modifications to the 
 NDDO Approximations and Re-optimization of Parameters", J. J. P. Stewart, J. Mol. Mod., 1:32, 19 (2013)
 https://link.springer.com/article/10.1007/s00894-012-1667-x

           Empirical Formula: C5 H12 N O5  =    23 atoms



      MOLECULAR POINT GROUP   :   C1  


 SINGLET STATE CALCULATION


      RHF CALCULATION, NO. OF DOUBLY OCCUPIED LEVELS = 34


          Geometry optimization using EF
  SCF CRITERION =    0.1000E-03

          DIAGONAL MATRIX USED AS START HESSIAN

 CYCLE:     1 TIME:   0.992 TIME LEFT:  2.00W  GRAD.:     5.364 HEAT: -309.0297

     TRUST RADIUS NOW LESS THAN  0.00010 OPTIMIZATION TERMINATING
      THE GEOMETRY MAY NOT BE COMPLETELY OPTIMIZED
      (TO CONTINUE, ADD 'LET DDMIN=0.0' TO THE KEYWORD LINE)

 -------------------------------------------------------------------------------
 PM7 BONDS AUX DUMP=30M ITRY=15000 T=14D CHARGE=-1 SINGLET eps=78.4 RELSCF=1
 Title: ASE calculation



     GEOMETRY OPTIMISED USING EIGENVECTOR FOLLOWING (EF).     
     SCF FIELD WAS ACHIEVED                                   


                              PM7 CALCULATION
                                                       MOPAC v22.0.6 Linux
                                                       Tue Mar 26 11:59:23 2024




          FINAL HEAT OF FORMATION =       -309.02972 KCAL/MOL =   -1292.98035 KJ/MOL
          VAN DER WAALS AREA      =        219.92 SQUARE ANGSTROMS



          DIELECTRIC ENERGY       =         -3.52340 EV
          COSMO AREA              =        219.92 SQUARE ANGSTROMS
          COSMO VOLUME            =        211.40 CUBIC ANGSTROMS

          GRADIENT NORM           =          5.36425          =       1.11852 PER ATOM
          IONIZATION POTENTIAL    =         10.276008 EV
          HOMO LUMO ENERGIES (EV) =        -10.276 -0.380
          NO. OF FILLED LEVELS    =         34
          MOLECULAR WEIGHT        =        166.1535         POINT GROUP:  C1  

          MOLECULAR DIMENSIONS (Angstroms)

            Atom       Atom       Distance
            H    15    H    11     9.95699
            H    19    H    12     4.47469
            H    20    O     4     3.96231


          SCF CALCULATIONS        =         10

          WALL-CLOCK TIME         =      2.625 SECONDS
          COMPUTATION TIME        =     14.078 SECONDS



       FINAL  POINT  AND  DERIVATIVES

   PARAMETER     ATOM    TYPE            VALUE        GRADIENT
      1          1  C    CARTESIAN X     0.786150      0.203252  KCAL/ANGSTROM
      2          1  C    CARTESIAN Y    -0.728000     -0.046465  KCAL/ANGSTROM
      3          1  C    CARTESIAN Z     0.064210      0.035435  KCAL/ANGSTROM
      4          2  H    CARTESIAN X     1.908450      0.365599  KCAL/ANGSTROM
      5          2  H    CARTESIAN Y    -0.874240     -0.055742  KCAL/ANGSTROM
      6          2  H    CARTESIAN Z     0.112430      0.080956  KCAL/ANGSTROM
      7          3  N    CARTESIAN X     0.199760      0.229313  KCAL/ANGSTROM
      8          3  N    CARTESIAN Y    -1.386250     -0.109088  KCAL/ANGSTROM
      9          3  N    CARTESIAN Z     1.282120      0.075342  KCAL/ANGSTROM
     10          4  O    CARTESIAN X     0.945730      0.259485  KCAL/ANGSTROM
     11          4  O    CARTESIAN Y    -2.005720     -0.019717  KCAL/ANGSTROM
     12          4  O    CARTESIAN Z     2.026470     -0.053167  KCAL/ANGSTROM
     13          5  O    CARTESIAN X    -0.998580     -0.059067  KCAL/ANGSTROM
     14          5  O    CARTESIAN Y    -1.298900     -0.122665  KCAL/ANGSTROM
     15          5  O    CARTESIAN Z     1.498360     -0.244431  KCAL/ANGSTROM
     16          6  C    CARTESIAN X     6.418740     -0.823851  KCAL/ANGSTROM
     17          6  C    CARTESIAN Y    -2.516120      0.988037  KCAL/ANGSTROM
     18          6  C    CARTESIAN Z     0.964510     -0.225989  KCAL/ANGSTROM
     19          7  O    CARTESIAN X     5.737620     -2.004721  KCAL/ANGSTROM
     20          7  O    CARTESIAN Y    -1.994010     -0.122966  KCAL/ANGSTROM
     21          7  O    CARTESIAN Z     1.873240     -0.453959  KCAL/ANGSTROM
     22          8  O    CARTESIAN X     5.896070     -0.464085  KCAL/ANGSTROM
     23          8  O    CARTESIAN Y    -3.023580     -0.070115  KCAL/ANGSTROM
     24          8  O    CARTESIAN Z    -0.051380      0.010841  KCAL/ANGSTROM
     25          9  C    CARTESIAN X     7.917630     -0.634231  KCAL/ANGSTROM
     26          9  C    CARTESIAN Y    -2.564010      1.181915  KCAL/ANGSTROM
     27          9  C    CARTESIAN Z     1.112320     -0.122211  KCAL/ANGSTROM
     28         10  H    CARTESIAN X     8.413930     -0.148603  KCAL/ANGSTROM
     29         10  H    CARTESIAN Y    -2.816520      0.596032  KCAL/ANGSTROM
     30         10  H    CARTESIAN Z     0.168660      0.003914  KCAL/ANGSTROM
     31         11  H    CARTESIAN X     8.184050     -2.022229  KCAL/ANGSTROM
     32         11  H    CARTESIAN Y    -3.328020      0.627024  KCAL/ANGSTROM
     33         11  H    CARTESIAN Z     1.854940     -0.125251  KCAL/ANGSTROM
     34         12  H    CARTESIAN X     8.341460      2.222429  KCAL/ANGSTROM
     35         12  H    CARTESIAN Y    -1.615350     -0.437347  KCAL/ANGSTROM
     36         12  H    CARTESIAN Z     1.462960     -0.154620  KCAL/ANGSTROM
     37         13  C    CARTESIAN X     0.446120      0.056887  KCAL/ANGSTROM
     38         13  C    CARTESIAN Y     0.755370     -0.104995  KCAL/ANGSTROM
     39         13  C    CARTESIAN Z     0.104840     -0.004174  KCAL/ANGSTROM
     40         14  H    CARTESIAN X     0.850440     -0.260122  KCAL/ANGSTROM
     41         14  H    CARTESIAN Y     1.259590      0.115356  KCAL/ANGSTROM
     42         14  H    CARTESIAN Z     0.993960      0.207694  KCAL/ANGSTROM
     43         15  H    CARTESIAN X    -0.636300      0.314133  KCAL/ANGSTROM
     44         15  H    CARTESIAN Y     0.941470      0.081708  KCAL/ANGSTROM
     45         15  H    CARTESIAN Z     0.090150     -0.099395  KCAL/ANGSTROM
     46         16  H    CARTESIAN X     0.860710     -0.255822  KCAL/ANGSTROM
     47         16  H    CARTESIAN Y     1.272690      0.056265  KCAL/ANGSTROM
     48         16  H    CARTESIAN Z    -0.774710     -0.332698  KCAL/ANGSTROM
     49         17  C    CARTESIAN X     0.204190      0.040454  KCAL/ANGSTROM
     50         17  C    CARTESIAN Y    -1.417830      0.232221  KCAL/ANGSTROM
     51         17  C    CARTESIAN Z    -1.162800     -0.041270  KCAL/ANGSTROM
     52         18  H    CARTESIAN X    -0.886030      0.200203  KCAL/ANGSTROM
     53         18  H    CARTESIAN Y    -1.297840      0.136965  KCAL/ANGSTROM
     54         18  H    CARTESIAN Z    -1.232930      0.072839  KCAL/ANGSTROM
     55         19  H    CARTESIAN X     0.415690     -0.345206  KCAL/ANGSTROM
     56         19  H    CARTESIAN Y    -2.496390     -0.241203  KCAL/ANGSTROM
     57         19  H    CARTESIAN Z    -1.186980     -0.047140  KCAL/ANGSTROM
     58         20  H    CARTESIAN X     0.620560     -0.475886  KCAL/ANGSTROM
     59         20  H    CARTESIAN Y    -0.989080     -0.116689  KCAL/ANGSTROM
     60         20  H    CARTESIAN Z    -2.087460     -0.208607  KCAL/ANGSTROM
     61         21  H    CARTESIAN X     4.303990      0.768855  KCAL/ANGSTROM
     62         21  H    CARTESIAN Y    -1.657290     -0.594673  KCAL/ANGSTROM
     63         21  H    CARTESIAN Z     0.453230      0.645629  KCAL/ANGSTROM
     64         22  O    CARTESIAN X     4.085530      1.040130  KCAL/ANGSTROM
     65         22  O    CARTESIAN Y    -0.732820     -0.584885  KCAL/ANGSTROM
     66         22  O    CARTESIAN Z     0.229170      1.171753  KCAL/ANGSTROM
     67         23  H    CARTESIAN X     4.825690      1.793109  KCAL/ANGSTROM
     68         23  H    CARTESIAN Y    -0.272610     -1.389077  KCAL/ANGSTROM
     69         23  H    CARTESIAN Z     0.647810     -0.191472  KCAL/ANGSTROM




   ATOM   CHEMICAL          X               Y               Z
  NUMBER   SYMBOL      (ANGSTROMS)     (ANGSTROMS)     (ANGSTROMS)

     1       C          0.78615000  *  -0.72800000  *   0.06421000  *
     2       H          1.90845000  *  -0.87424000  *   0.11243000  *
     3       N          0.19976000  *  -1.38625000  *   1.28212000  *
     4       O          0.94573000  *  -2.00572000  *   2.02647000  *
     5       O         -0.99858000  *  -1.29890000  *   1.49836000  *
     6       C          6.41874000  *  -2.51612000  *   0.96451000  *
     7       O          5.73762000  *  -1.99401000  *   1.87324000  *
     8       O          5.89607000  *  -3.02358000  *  -0.05138000  *
     9       C          7.91763000  *  -2.56401000  *   1.11232000  *
    10       H          8.41393000  *  -2.81652000  *   0.16866000  *
    11       H          8.18405000  *  -3.32802000  *   1.85494000  *
    12       H          8.34146000  *  -1.61535000  *   1.46296000  *
    13       C          0.44612000  *   0.75537000  *   0.10484000  *
    14       H          0.85044000  *   1.25959000  *   0.99396000  *
    15       H         -0.63630000  *   0.94147000  *   0.09015000  *
    16       H          0.86071000  *   1.27269000  *  -0.77471000  *
    17       C          0.20419000  *  -1.41783000  *  -1.16280000  *
    18       H         -0.88603000  *  -1.29784000  *  -1.23293000  *
    19       H          0.41569000  *  -2.49639000  *  -1.18698000  *
    20       H          0.62056000  *  -0.98908000  *  -2.08746000  *
    21       H          4.30399000  *  -1.65729000  *   0.45323000  *
    22       O          4.08553000  *  -0.73282000  *   0.22917000  *
    23       H          4.82569000  *  -0.27261000  *   0.64781000  *

                             CARTESIAN COORDINATES

   1    C        0.786150000    -0.728000000     0.064210000
   2    H        1.908450000    -0.874240000     0.112430000
   3    N        0.199760000    -1.386250000     1.282120000
   4    O        0.945730000    -2.005720000     2.026470000
   5    O       -0.998580000    -1.298900000     1.498360000
   6    C        6.418740000    -2.516120000     0.964510000
   7    O        5.737620000    -1.994010000     1.873240000
   8    O        5.896070000    -3.023580000    -0.051380000
   9    C        7.917630000    -2.564010000     1.112320000
  10    H        8.413930000    -2.816520000     0.168660000
  11    H        8.184050000    -3.328020000     1.854940000
  12    H        8.341460000    -1.615350000     1.462960000
  13    C        0.446120000     0.755370000     0.104840000
  14    H        0.850440000     1.259590000     0.993960000
  15    H       -0.636300000     0.941470000     0.090150000
  16    H        0.860710000     1.272690000    -0.774710000
  17    C        0.204190000    -1.417830000    -1.162800000
  18    H       -0.886030000    -1.297840000    -1.232930000
  19    H        0.415690000    -2.496390000    -1.186980000
  20    H        0.620560000    -0.989080000    -2.087460000
  21    H        4.303990000    -1.657290000     0.453230000
  22    O        4.085530000    -0.732820000     0.229170000
  23    H        4.825690000    -0.272610000     0.647810000


           Empirical Formula: C5 H12 N O5  =    23 atoms



      MOLECULAR POINT GROUP   :   C1  


                  EIGENVALUES  
 -37.24075 -30.71113 -29.83498 -29.29771 -28.63428 -27.80057 -25.25875 -25.04322
 -24.47013 -20.83405 -18.67873 -18.58873 -17.69055 -17.44479 -17.02622 -15.71752
 -15.47034 -15.14591 -15.02119 -14.40076 -14.07713 -14.00126 -13.54890 -13.08998
 -12.93956 -12.76555 -12.50406 -11.94278 -11.87820 -11.77107 -11.32388 -10.95150
 -10.74135 -10.27601  -0.38042   0.54099   2.09177   3.31249   3.40347   3.78712
   3.91278   4.41749   4.67548   5.18055   5.43821   5.44128   5.45919   5.50500
   5.51878   5.60844   5.66828   6.26864   6.63586   6.72509   6.87611   6.99419


              NET ATOMIC CHARGES AND DIPOLE CONTRIBUTIONS

  ATOM NO.   TYPE          CHARGE      No. of ELECS.   s-Pop       p-Pop       
    1          C           0.006628        3.9934     1.09678     2.89659
    2          H           0.211419        0.7886     0.78858
    3          N           0.617367        4.3826     1.48597     2.89667
    4          O          -0.461522        6.4615     1.93974     4.52178
    5          O          -0.462996        6.4630     1.93946     4.52354
    6          C           0.794635        3.2054     1.06928     2.13608
    7          O          -0.858435        6.8584     1.88427     4.97417
    8          O          -0.870676        6.8707     1.88409     4.98658
    9          C          -0.578379        4.5784     1.06796     3.51042
   10          H           0.171663        0.8283     0.82834
   11          H           0.180929        0.8191     0.81907
   12          H           0.176843        0.8232     0.82316
   13          C          -0.481454        4.4815     1.05831     3.42315
   14          H           0.174559        0.8254     0.82544
   15          H           0.167655        0.8323     0.83234
   16          H           0.180959        0.8190     0.81904
   17          C          -0.482761        4.4828     1.05871     3.42405
   18          H           0.169108        0.8309     0.83089
   19          H           0.176492        0.8235     0.82351
   20          H           0.182995        0.8170     0.81701
   21          H           0.381642        0.6184     0.61836
   22          O          -0.758515        6.7585     1.82485     4.93366
   23          H           0.361842        0.6382     0.63816
 DIPOLE           X         Y         Z       TOTAL
 POINT-CHG.    -7.096     6.350    -4.376    10.480
 HYBRID        -0.276    -0.279     0.558     0.683
 SUM           -7.372     6.071    -3.817    10.285


          ATOMIC ORBITAL ELECTRON POPULATIONS

     Atom    s        px        py        pz   
    1  C   1.09678   1.09381   0.95926   0.84352
    2  H   0.78858
    3  N   1.48597   0.96234   0.93466   0.99967
    4  O   1.93974   1.55474   1.45176   1.51528
    5  O   1.93946   1.04862   1.66859   1.80633
    6  C   1.06928   0.80681   0.62903   0.70025
    7  O   1.88427   1.75633   1.65513   1.56271
    8  O   1.88409   1.83086   1.66301   1.49271
    9  C   1.06796   1.10385   1.20536   1.20121
   10  H   0.82834
   11  H   0.81907
   12  H   0.82316
   13  C   1.05831   1.20240   1.01141   1.20933
   14  H   0.82544
   15  H   0.83234
   16  H   0.81904
   17  C   1.05871   1.18549   1.16395   1.07461
   18  H   0.83089
   19  H   0.82351
   20  H   0.81701
   21  H   0.61836
   22  O   1.82485   1.62814   1.44831   1.85721
   23  H   0.63816

          BONDING CONTRIBUTION OF EACH M.O.

  1.3079  0.9764  1.4073  1.7263  1.1631  1.0208  1.7584  0.9076  2.0466  1.4318
  0.9747  1.2344  1.5522  1.5905  1.5988  1.8346  1.4502  1.2150  1.1247  1.8628
  0.9261  1.6307  1.8559  1.5632  1.4746  1.9484  1.7251  0.1398  0.8791  0.3356
  0.7881  0.5770  0.2756  0.7038 -2.3770 -2.0451 -1.8451 -1.9715 -1.9620 -2.2178
 -1.9678 -1.9584 -1.8792 -1.8936 -1.9106 -1.9495 -1.9485 -1.9617 -1.9560 -1.9367
 -1.9419 -1.8969 -1.8946 -1.8882 -1.7213 -1.8838





            (VALENCIES)   BOND ORDERS

     1  C     (3.887)    13  C 0.999    17  C 0.997     2  H 0.935     3  N 0.815     5  O 0.065     4  O 0.064

     2  H     (0.955)     1  C 0.935

     3  N     (3.730)     5  O 1.446     4  O 1.438     1  C 0.815

     4  O     (1.826)     3  N 1.438     5  O 0.300     1  C 0.064    17  C 0.010    13  C 0.010

     5  O     (1.832)     3  N 1.446     4  O 0.300     1  C 0.065

     6  C     (3.712)     7  O 1.377     8  O 1.373     9  C 0.944

     7  O     (1.609)     6  C 1.377     8  O 0.152     9  C 0.049    21  H 0.010

     8  O     (1.594)     6  C 1.373     7  O 0.152     9  C 0.049

     9  C     (3.902)    10  H 0.960    12  H 0.953    11  H 0.946     6  C 0.944     7  O 0.049     8  O 0.049

    10  H     (0.971)     9  C 0.960

    11  H     (0.967)     9  C 0.946

    12  H     (0.969)     9  C 0.953

    13  C     (3.903)     1  C 0.999    15  H 0.962    14  H 0.960    16  H 0.952     4  O 0.010

    14  H     (0.970)    13  C 0.960

    15  H     (0.972)    13  C 0.962

    16  H     (0.967)    13  C 0.952

    17  C     (3.901)     1  C 0.997    18  H 0.962    19  H 0.959    20  H 0.951     4  O 0.010

    18  H     (0.971)    17  C 0.962

    19  H     (0.969)    17  C 0.959

    20  H     (0.967)    17  C 0.951

    21  H     (0.854)    22  O 0.832     7  O 0.010

    22  O     (1.711)    23  H 0.861    21  H 0.832

    23  H     (0.869)    22  O 0.861


 **********************
 *                    *
 * JOB ENDED NORMALLY *
 *                    *
 **********************



 TOTAL JOB TIME:             2.63 SECONDS

 == MOPAC DONE ==
