 *******************************************************************************
 **                                                                           **
 **                              MOPAC v22.0.6                                **
 **                                                                           **
 *******************************************************************************
 **          Digital Object Identifier (DOI): 10.5281/zenodo.6511958          **
 **    Visit the DOI location for information on how to cite this program.    **
 *******************************************************************************

                              PM7 CALCULATION RESULTS

 *******************************************************************************
 *  CALCULATION DONE:                                Sat Mar 23 15:07:35 2024  *
 *  PM7        - The PM7 Hamiltonian to be used
 *  SINGLET    - SPIN STATE DEFINED AS A SINGLET
 *
 *
 *
 *                 CHARGE ON SYSTEM = 0
 *
 *
 *
 *  EPS=78.4   - USE ANDREAS KLAMT'S COSMO IMPLICIT SOLVATION MODEL
 *  T=         - A TIME OF 14.0 DAYS REQUESTED
 *  DUMP=N     - RESTART FILE WRITTEN EVERY 30.0 MINUTES REQUESTED
 *  RELSCF     - DEFAULT SCF CRITERION MULTIPLIED BY 1.0000
 *              (DEFAULT SCF CRITERION = 0.00010)
 *  ITRY=      - DO A MAXIMUM OF 15000 ITERATIONS FOR SCF
 *  AUX        - OUTPUT AUXILIARY INFORMATION
 *  BONDS      - FINAL BOND-ORDER MATRIX TO BE PRINTED
 *******************************************************************************
PM7 BONDS AUX DUMP=30M ITRY=15000 T=14D CHARGE=0 SINGLET eps=78.4 RELSCF=1
 Title: ASE calculation

   ATOM   CHEMICAL          X               Y               Z
  NUMBER   SYMBOL      (ANGSTROMS)     (ANGSTROMS)     (ANGSTROMS)

     1       C          0.85027398  *  -0.54147193  *  -0.86785978  *
     2       H          1.00134495  *  -0.78727135  *  -1.92923200  *
     3       N          0.72897273  *  -2.94401209  *  -0.43576850  *
     4       O          0.60721132  *  -3.17535494  *  -1.67796922  *
     5       O          0.65893422  *  -3.95185084  *   0.33422535  *
     6       H          1.78583888  *  -0.61204192  *   1.67470097  *
     7       C          0.97412868     -1.72558680      0.02783922   
     8       H          3.06738590     -2.08239105  *  -0.77567530  *
     9       H         -0.15256661  *  -0.08997347  *  -0.78666927  *
    10       C          1.16704095  *  -1.50063067  *   1.48646670  *
    11       H          0.21020038  *  -1.34253531  *   2.00657367  *
    12       C          4.66656196  *  -2.47630094  *  -4.17250569  *
    13       C          4.95733038  *  -3.01380383  *  -5.42385298  *
    14       C          5.04629179  *  -4.39788275  *  -5.57352801  *
    15       C          4.83108772  *  -5.21868758  *  -4.46615303  *
    16       C          4.54176354  *  -4.64343738  *  -3.23162718  *
    17       N          4.46930808  *  -3.29108598  *  -3.10157410  *
    18       H          5.11158152  *  -2.34656633  *  -6.27780167  *
    19       H          5.27577844  *  -4.83615955  *  -6.55128715  *
    20       H          4.88609478  *  -6.30853551  *  -4.55842419  *
    21       H          1.57312904  *   0.24491319  *  -0.61249892  *
    22       H          1.66150991  *  -2.35277196  *   1.97680569  *
    23       H          4.36217480  *  -5.25357765  *  -2.32823486  *
    24       H          4.58392994  *  -1.38829551  *  -4.00668799  *
    25       H          4.23195687  *  -2.71445217  *  -0.07658144  *
    26       H          4.27057594  *  -2.85599721  *  -2.12605842  *
    27       O          4.04545698     -2.12564542     -0.83097942   



          CARTESIAN COORDINATES 

    NO.       ATOM           X           Y           Z

     1         C          0.8503     -0.5415     -0.8679
     2         H          1.0013     -0.7873     -1.9292
     3         N          0.7290     -2.9440     -0.4358
     4         O          0.6072     -3.1754     -1.6780
     5         O          0.6589     -3.9519      0.3342
     6         H          1.7858     -0.6120      1.6747
     7         C          0.9741     -1.7256      0.0278
     8         H          3.0674     -2.0824     -0.7757
     9         H         -0.1526     -0.0900     -0.7867
    10         C          1.1670     -1.5006      1.4865
    11         H          0.2102     -1.3425      2.0066
    12         C          4.6666     -2.4763     -4.1725
    13         C          4.9573     -3.0138     -5.4239
    14         C          5.0463     -4.3979     -5.5735
    15         C          4.8311     -5.2187     -4.4662
    16         C          4.5418     -4.6434     -3.2316
    17         N          4.4693     -3.2911     -3.1016
    18         H          5.1116     -2.3466     -6.2778
    19         H          5.2758     -4.8362     -6.5513
    20         H          4.8861     -6.3085     -4.5584
    21         H          1.5731      0.2449     -0.6125
    22         H          1.6615     -2.3528      1.9768
    23         H          4.3622     -5.2536     -2.3282
    24         H          4.5839     -1.3883     -4.0067
    25         H          4.2320     -2.7145     -0.0766
    26         H          4.2706     -2.8560     -2.1261
    27         O          4.0455     -2.1256     -0.8310

 General Reference for PM7:
 "Optimization of Parameters for Semiempirical Methods VI: More Modifications to the 
 NDDO Approximations and Re-optimization of Parameters", J. J. P. Stewart, J. Mol. Mod., 1:32, 19 (2013)
 https://link.springer.com/article/10.1007/s00894-012-1667-x

           Empirical Formula: C8 H14 N2 O3  =    27 atoms



      MOLECULAR POINT GROUP   :   C1  


 SINGLET STATE CALCULATION


      RHF CALCULATION, NO. OF DOUBLY OCCUPIED LEVELS = 37


          Geometry optimization using EF
  SCF CRITERION =    0.1000E-03

          DIAGONAL MATRIX USED AS START HESSIAN

 CYCLE:     1 TIME:   0.094 TIME LEFT:  2.00W  GRAD.:    13.049 HEAT: -71.86503
 CYCLE:     2 TIME:   0.035 TIME LEFT:  2.00W  GRAD.:    14.865 HEAT: -72.04723
 CYCLE:     3 TIME:   0.164 TIME LEFT:  2.00W  GRAD.:    11.676 HEAT: -72.07846
 CYCLE:     4 TIME:   0.156 TIME LEFT:  2.00W  GRAD.:    11.489 HEAT: -72.08106
 CYCLE:     5 TIME:   0.066 TIME LEFT:  2.00W  GRAD.:    11.368 HEAT: -72.08303

     TRUST RADIUS NOW LESS THAN  0.00010 OPTIMIZATION TERMINATING
      THE GEOMETRY MAY NOT BE COMPLETELY OPTIMIZED
      (TO CONTINUE, ADD 'LET DDMIN=0.0' TO THE KEYWORD LINE)

 -------------------------------------------------------------------------------
 PM7 BONDS AUX DUMP=30M ITRY=15000 T=14D CHARGE=0 SINGLET eps=78.4 RELSCF=1
 Title: ASE calculation



     GEOMETRY OPTIMISED USING EIGENVECTOR FOLLOWING (EF).     
     SCF FIELD WAS ACHIEVED                                   


                              PM7 CALCULATION
                                                       MOPAC v22.0.6 Linux
                                                       Sat Mar 23 15:07:36 2024




          FINAL HEAT OF FORMATION =        -72.08303 KCAL/MOL =    -301.59538 KJ/MOL
          VAN DER WAALS AREA      =        235.22 SQUARE ANGSTROMS



          DIELECTRIC ENERGY       =         -2.42587 EV
          COSMO AREA              =        235.22 SQUARE ANGSTROMS
          COSMO VOLUME            =        250.10 CUBIC ANGSTROMS

          GRADIENT NORM           =         11.36795          =       2.18776 PER ATOM
          IONIZATION POTENTIAL    =          8.332683 EV
          HOMO LUMO ENERGIES (EV) =         -8.333 -1.276
          NO. OF FILLED LEVELS    =         37
          MOLECULAR WEIGHT        =        186.2102         POINT GROUP:  C1  

          MOLECULAR DIMENSIONS (Angstroms)

            Atom       Atom       Distance
            H    19    H    11    10.53907
            H     9    H    23     4.80304
            O     5    H    24     3.67582


          SCF CALCULATIONS        =         18

          WALL-CLOCK TIME         =      0.617 SECONDS
          COMPUTATION TIME        =     41.046 SECONDS



       FINAL  POINT  AND  DERIVATIVES

   PARAMETER     ATOM    TYPE            VALUE        GRADIENT
      1          1  C    CARTESIAN X     0.851437     -0.717901  KCAL/ANGSTROM
      2          1  C    CARTESIAN Y    -0.541220     -0.075141  KCAL/ANGSTROM
      3          1  C    CARTESIAN Z    -0.867143     -0.044386  KCAL/ANGSTROM
      4          2  H    CARTESIAN X     1.002201     -0.748894  KCAL/ANGSTROM
      5          2  H    CARTESIAN Y    -0.788423      0.388942  KCAL/ANGSTROM
      6          2  H    CARTESIAN Z    -1.927664      0.170016  KCAL/ANGSTROM
      7          3  N    CARTESIAN X     0.733594     -2.180881  KCAL/ANGSTROM
      8          3  N    CARTESIAN Y    -2.941682      3.162810  KCAL/ANGSTROM
      9          3  N    CARTESIAN Z    -0.437161     -0.100305  KCAL/ANGSTROM
     10          4  O    CARTESIAN X     0.605837      0.690912  KCAL/ANGSTROM
     11          4  O    CARTESIAN Y    -3.174739     -0.527321  KCAL/ANGSTROM
     12          4  O    CARTESIAN Z    -1.679151     -0.835881  KCAL/ANGSTROM
     13          5  O    CARTESIAN X     0.660665     -1.800400  KCAL/ANGSTROM
     14          5  O    CARTESIAN Y    -3.950495     -2.017489  KCAL/ANGSTROM
     15          5  O    CARTESIAN Z     0.335385      1.532332  KCAL/ANGSTROM
     16          6  H    CARTESIAN X     1.786522     -0.619970  KCAL/ANGSTROM
     17          6  H    CARTESIAN Y    -0.612446     -0.022196  KCAL/ANGSTROM
     18          6  H    CARTESIAN Z     1.674895     -0.112362  KCAL/ANGSTROM
     19          8  H    CARTESIAN Y    -2.071824     -3.429153  KCAL/ANGSTROM
     20          8  H    CARTESIAN Z    -0.776170     -0.833870  KCAL/ANGSTROM
     21          9  H    CARTESIAN X    -0.151741     -0.621768  KCAL/ANGSTROM
     22          9  H    CARTESIAN Y    -0.090741      0.137326  KCAL/ANGSTROM
     23          9  H    CARTESIAN Z    -0.786153     -0.081620  KCAL/ANGSTROM
     24         10  C    CARTESIAN X     1.167510     -0.413170  KCAL/ANGSTROM
     25         10  C    CARTESIAN Y    -1.500333      0.100708  KCAL/ANGSTROM
     26         10  C    CARTESIAN Z     1.486837      0.548139  KCAL/ANGSTROM
     27         11  H    CARTESIAN X     0.209916      0.464967  KCAL/ANGSTROM
     28         11  H    CARTESIAN Y    -1.342853      0.032602  KCAL/ANGSTROM
     29         11  H    CARTESIAN Z     2.004015      0.013019  KCAL/ANGSTROM
     30         12  C    CARTESIAN X     4.666661     -0.335667  KCAL/ANGSTROM
     31         12  C    CARTESIAN Y    -2.475749     -0.546779  KCAL/ANGSTROM
     32         12  C    CARTESIAN Z    -4.174940      1.890656  KCAL/ANGSTROM
     33         13  C    CARTESIAN X     4.957098     -0.036779  KCAL/ANGSTROM
     34         13  C    CARTESIAN Y    -3.013893      0.011017  KCAL/ANGSTROM
     35         13  C    CARTESIAN Z    -5.425138      1.142371  KCAL/ANGSTROM
     36         14  C    CARTESIAN X     5.045964      0.244418  KCAL/ANGSTROM
     37         14  C    CARTESIAN Y    -4.398053      0.174383  KCAL/ANGSTROM
     38         14  C    CARTESIAN Z    -5.574334      0.238149  KCAL/ANGSTROM
     39         15  C    CARTESIAN X     4.830774      0.117940  KCAL/ANGSTROM
     40         15  C    CARTESIAN Y    -5.219086      0.572509  KCAL/ANGSTROM
     41         15  C    CARTESIAN Z    -4.467104      0.422477  KCAL/ANGSTROM
     42         16  C    CARTESIAN X     4.541772     -0.111941  KCAL/ANGSTROM
     43         16  C    CARTESIAN Y    -4.644604      1.371973  KCAL/ANGSTROM
     44         16  C    CARTESIAN Z    -3.232582      0.615223  KCAL/ANGSTROM
     45         17  N    CARTESIAN X     4.469850     -0.837959  KCAL/ANGSTROM
     46         17  N    CARTESIAN Y    -3.292220      1.702855  KCAL/ANGSTROM
     47         17  N    CARTESIAN Z    -3.105944      3.979503  KCAL/ANGSTROM
     48         18  H    CARTESIAN X     5.111796     -0.196905  KCAL/ANGSTROM
     49         18  H    CARTESIAN Y    -2.346714      0.064016  KCAL/ANGSTROM
     50         18  H    CARTESIAN Z    -6.278998      0.438936  KCAL/ANGSTROM
     51         19  H    CARTESIAN X     5.275917     -0.108728  KCAL/ANGSTROM
     52         19  H    CARTESIAN Y    -4.835980      0.006747  KCAL/ANGSTROM
     53         19  H    CARTESIAN Z    -6.552023      0.236540  KCAL/ANGSTROM
     54         20  H    CARTESIAN X     4.886209     -0.094784  KCAL/ANGSTROM
     55         20  H    CARTESIAN Y    -6.308959      0.271694  KCAL/ANGSTROM
     56         20  H    CARTESIAN Z    -4.559041      0.226807  KCAL/ANGSTROM
     57         21  H    CARTESIAN X     1.574474     -1.271711  KCAL/ANGSTROM
     58         21  H    CARTESIAN Y     0.243983      0.050911  KCAL/ANGSTROM
     59         21  H    CARTESIAN Z    -0.612138     -0.136925  KCAL/ANGSTROM
     60         22  H    CARTESIAN X     1.661750     -0.241890  KCAL/ANGSTROM
     61         22  H    CARTESIAN Y    -2.352570      0.046928  KCAL/ANGSTROM
     62         22  H    CARTESIAN Z     1.976431     -0.112376  KCAL/ANGSTROM
     63         23  H    CARTESIAN X     4.362671     -0.426002  KCAL/ANGSTROM
     64         23  H    CARTESIAN Y    -5.253960      0.028607  KCAL/ANGSTROM
     65         23  H    CARTESIAN Z    -2.327686      0.174478  KCAL/ANGSTROM
     66         24  H    CARTESIAN X     4.584361     -0.346035  KCAL/ANGSTROM
     67         24  H    CARTESIAN Y    -1.387800     -0.272593  KCAL/ANGSTROM
     68         24  H    CARTESIAN Z    -4.007498      0.290866  KCAL/ANGSTROM
     69         25  H    CARTESIAN X     4.241031     -4.369624  KCAL/ANGSTROM
     70         25  H    CARTESIAN Y    -2.716597     -3.839926  KCAL/ANGSTROM
     71         25  H    CARTESIAN Z    -0.063108      4.280648  KCAL/ANGSTROM
     72         26  H    CARTESIAN X     4.272650     -0.323310  KCAL/ANGSTROM
     73         26  H    CARTESIAN Y    -2.861648      0.351773  KCAL/ANGSTROM
     74         26  H    CARTESIAN Z    -2.152382     -2.327374  KCAL/ANGSTROM




   ATOM   CHEMICAL          X               Y               Z
  NUMBER   SYMBOL      (ANGSTROMS)     (ANGSTROMS)     (ANGSTROMS)

     1       C          0.85143671  *  -0.54121995  *  -0.86714276  *
     2       H          1.00220062  *  -0.78842324  *  -1.92766424  *
     3       N          0.73359421  *  -2.94168194  *  -0.43716083  *
     4       O          0.60583734  *  -3.17473856  *  -1.67915138  *
     5       O          0.66066487  *  -3.95049510  *   0.33538478  *
     6       H          1.78652182  *  -0.61244633  *   1.67489498  *
     7       C          0.97412868     -1.72558680      0.02783922   
     8       H          3.06738590     -2.07182351  *  -0.77616975  *
     9       H         -0.15174060  *  -0.09074077  *  -0.78615278  *
    10       C          1.16750990  *  -1.50033345  *   1.48683659  *
    11       H          0.20991579  *  -1.34285290  *   2.00401452  *
    12       C          4.66666055  *  -2.47574919  *  -4.17493969  *
    13       C          4.95709769  *  -3.01389264  *  -5.42513788  *
    14       C          5.04596413  *  -4.39805339  *  -5.57433421  *
    15       C          4.83077436  *  -5.21908590  *  -4.46710408  *
    16       C          4.54177211  *  -4.64460413  *  -3.23258214  *
    17       N          4.46984959  *  -3.29222029  *  -3.10594351  *
    18       H          5.11179561  *  -2.34671412  *  -6.27899798  *
    19       H          5.27591659  *  -4.83597982  *  -6.55202273  *
    20       H          4.88620868  *  -6.30895903  *  -4.55904141  *
    21       H          1.57447383  *   0.24398338  *  -0.61213826  *
    22       H          1.66174988  *  -2.35256977  *   1.97643077  *
    23       H          4.36267102  *  -5.25395994  *  -2.32768575  *
    24       H          4.58436050  *  -1.38780027  *  -4.00749848  *
    25       H          4.24103131  *  -2.71659686  *  -0.06310809  *
    26       H          4.27264979  *  -2.86164838  *  -2.15238184  *
    27       O          4.04545698     -2.12564542     -0.83097942   

                             CARTESIAN COORDINATES

   1    C        0.851436709    -0.541219952    -0.867142756
   2    H        1.002200622    -0.788423237    -1.927664240
   3    N        0.733594214    -2.941681935    -0.437160827
   4    O        0.605837340    -3.174738563    -1.679151379
   5    O        0.660664870    -3.950495097     0.335384778
   6    H        1.786521818    -0.612446333     1.674894982
   7    C        0.974128680    -1.725586800     0.027839220
   8    H        3.067385900    -2.071823508    -0.776169747
   9    H       -0.151740602    -0.090740770    -0.786152776
  10    C        1.167509896    -1.500333447     1.486836591
  11    H        0.209915795    -1.342852896     2.004014515
  12    C        4.666660550    -2.475749193    -4.174939686
  13    C        4.957097687    -3.013892644    -5.425137876
  14    C        5.045964129    -4.398053394    -5.574334209
  15    C        4.830774362    -5.219085900    -4.467104076
  16    C        4.541772109    -4.644604127    -3.232582136
  17    N        4.469849593    -3.292220290    -3.105943507
  18    H        5.111795606    -2.346714122    -6.278997980
  19    H        5.275916587    -4.835979822    -6.552022725
  20    H        4.886208681    -6.308959029    -4.559041411
  21    H        1.574473826     0.243983379    -0.612138259
  22    H        1.661749878    -2.352569770     1.976430775
  23    H        4.362671022    -5.253959939    -2.327685752
  24    H        4.584360501    -1.387800270    -4.007498480
  25    H        4.241031306    -2.716596860    -0.063108087
  26    H        4.272649790    -2.861648381    -2.152381840
  27    O        4.045456980    -2.125645420    -0.830979420


           Empirical Formula: C8 H14 N2 O3  =    27 atoms



      MOLECULAR POINT GROUP   :   C1  


                  EIGENVALUES  
 -38.68232 -35.49401 -30.08788 -29.57209 -27.65008 -27.54126 -27.45871 -24.16616
 -23.99574 -23.44481 -22.98049 -20.30791 -19.00465 -17.99463 -17.50190 -17.07051
 -16.81699 -16.45857 -16.21023 -16.13858 -15.69175 -15.46923 -15.15119 -13.94281
 -13.61203 -13.57401 -13.31991 -13.22130 -13.15089 -12.62645 -12.24377 -11.80751
 -11.04798 -10.69886 -10.52556 -10.33858  -8.33268  -1.27638  -0.92797   1.22567
   1.39186   1.43968   2.36006   3.13444   3.36941   3.61135   3.69088   4.10099
   4.13509   4.26329   4.63163   4.74906   4.84089   5.29403   5.49166   5.56015
   5.71319   5.78185   5.83040   5.87695   5.91305   5.93716   6.03993   6.51425
   6.98953   7.18468


              NET ATOMIC CHARGES AND DIPOLE CONTRIBUTIONS

  ATOM NO.   TYPE          CHARGE      No. of ELECS.   s-Pop       p-Pop       
    1          C          -0.415892        4.4159     1.04405     3.37184
    2          H           0.156089        0.8439     0.84391
    3          N           0.646897        4.3531     1.42386     2.92924
    4          O          -0.742593        6.7426     1.94685     4.79575
    5          O          -0.753531        6.7535     1.94690     4.80663
    6          H           0.152222        0.8478     0.84778
    7          C          -0.238371        4.2384     1.04065     3.19772
    8          H           0.375652        0.6243     0.62435
    9          H           0.153174        0.8468     0.84683
   10          C          -0.406386        4.4064     1.04339     3.36300
   11          H           0.151724        0.8483     0.84828
   12          C           0.059152        3.9408     1.10665     2.83419
   13          C          -0.191542        4.1915     1.09238     3.09916
   14          C          -0.025228        4.0252     1.10264     2.92258
   15          C          -0.186750        4.1868     1.09241     3.09434
   16          C           0.058468        3.9415     1.10793     2.83360
   17          N          -0.203138        5.2031     1.52706     3.67608
   18          H           0.201384        0.7986     0.79862
   19          H           0.188881        0.8111     0.81112
   20          H           0.204187        0.7958     0.79581
   21          H           0.153020        0.8470     0.84698
   22          H           0.155182        0.8448     0.84482
   23          H           0.227134        0.7729     0.77287
   24          H           0.220548        0.7795     0.77945
   25          H           0.394582        0.6054     0.60542
   26          H           0.378416        0.6216     0.62158
   27          O          -0.713279        6.7133     1.82499     4.88829
 DIPOLE           X         Y         Z       TOTAL
 POINT-CHG.    17.480     1.148   -11.349    20.872
 HYBRID        -0.324    -0.472     0.198     0.606
 SUM           17.156     0.675   -11.152    20.473


          ATOMIC ORBITAL ELECTRON POPULATIONS

     Atom    s        px        py        pz   
    1  C   1.04405   1.17619   1.07061   1.12503
    2  H   0.84391
    3  N   1.42386   1.01417   0.98797   0.92710
    4  O   1.94685   1.80152   1.92316   1.07107
    5  O   1.94690   1.80871   1.40303   1.59490
    6  H   0.84778
    7  C   1.04065   1.34753   0.86172   0.98848
    8  H   0.62435
    9  H   0.84683
   10  C   1.04339   1.17302   1.17564   1.01434
   11  H   0.84828
   12  C   1.10665   0.90635   1.03660   0.89124
   13  C   1.09238   1.00677   1.03644   1.05595
   14  C   1.10264   0.85899   0.98964   1.07395
   15  C   1.09241   1.00300   1.11883   0.97251
   16  C   1.10793   0.91301   0.84926   1.07134
   17  N   1.52706   1.33179   1.12416   1.22013
   18  H   0.79862
   19  H   0.81112
   20  H   0.79581
   21  H   0.84698
   22  H   0.84482
   23  H   0.77287
   24  H   0.77945
   25  H   0.60542
   26  H   0.62158
   27  O   1.82499   1.46587   1.78329   1.63913

          BONDING CONTRIBUTION OF EACH M.O.

  1.4347  1.4200  1.4077  1.5639  1.7378  1.0552  1.8903  1.1398  1.9015  1.8681
  1.9574  1.8881  1.1610  1.6014  2.0631  1.8307  1.1922  1.8344  1.8077  1.4485
  1.8115  1.9959  0.8829  1.5771  1.8715  1.3273  2.0180  1.9032  1.8453  0.9547
  1.9554  1.9378  2.0959  0.3876  0.4405  0.2519  1.1310 -2.0002 -1.9144 -1.9118
 -1.9371 -2.5190 -2.1406 -1.8529 -1.8944 -1.8538 -2.0047 -1.9626 -1.8929 -1.9918
 -1.8825 -1.9865 -1.9348 -1.9336 -1.9151 -1.9343 -1.7809 -1.7590 -1.9688 -1.9735
 -1.9700 -1.9668 -1.9519 -1.9369 -1.9091 -1.9112





            (VALENCIES)   BOND ORDERS

     1  C     (3.926)     7  C 1.003    21  H 0.965     2  H 0.965     9  H 0.962     5  O 0.014

     2  H     (0.976)     1  C 0.965

     3  N     (3.808)     7  C 1.471     4  O 1.148     5  O 1.140

     4  O     (1.464)     3  N 1.148     7  C 0.159     5  O 0.134    10  C 0.013

     5  O     (1.452)     3  N 1.140     7  C 0.155     4  O 0.134     1  C 0.014

     6  H     (0.977)    10  C 0.965

     7  C     (3.811)     3  N 1.471    10  C 1.004     1  C 1.003     4  O 0.159     5  O 0.155     8  H 0.011

     8  H     (0.859)    27  O 0.838     7  C 0.011

     9  H     (0.977)     1  C 0.962

    10  C     (3.927)     7  C 1.004     6  H 0.965    22  H 0.965    11  H 0.963     4  O 0.013

    11  H     (0.977)    10  C 0.963

    12  C     (3.898)    13  C 1.458    17  N 1.319    24  H 0.934    15  C 0.105    16  C 0.038    14  C 0.015

    13  C     (3.961)    12  C 1.458    14  C 1.426    18  H 0.946    16  C 0.105

    14  C     (3.940)    13  C 1.426    15  C 1.425    19  H 0.952    17  N 0.097    16  C 0.015    12  C 0.015

    15  C     (3.960)    16  C 1.459    14  C 1.425    20  H 0.944    12  C 0.105

    16  C     (3.893)    15  C 1.459    17  N 1.314    23  H 0.931    13  C 0.105    12  C 0.038    14  C 0.015

    17  N     (3.524)    12  C 1.319    16  C 1.314    26  H 0.724    14  C 0.097    27  O 0.036

    18  H     (0.959)    13  C 0.946

    19  H     (0.964)    14  C 0.952

    20  H     (0.958)    15  C 0.944

    21  H     (0.977)     1  C 0.965

    22  H     (0.976)    10  C 0.965

    23  H     (0.948)    16  C 0.931

    24  H     (0.951)    12  C 0.934

    25  H     (0.844)    27  O 0.839

    26  H     (0.857)    17  N 0.724    27  O 0.098

    27  O     (1.828)    25  H 0.839     8  H 0.838    26  H 0.098    17  N 0.036


 **********************
 *                    *
 * JOB ENDED NORMALLY *
 *                    *
 **********************



 TOTAL JOB TIME:             0.63 SECONDS

 == MOPAC DONE ==
