 *******************************************************************************
 **                                                                           **
 **                              MOPAC v22.0.6                                **
 **                                                                           **
 *******************************************************************************
 **          Digital Object Identifier (DOI): 10.5281/zenodo.6511958          **
 **    Visit the DOI location for information on how to cite this program.    **
 *******************************************************************************

                              PM7 CALCULATION RESULTS

 *******************************************************************************
 *  CALCULATION DONE:                                Mon Mar 25 23:23:01 2024  *
 *  PM7        - The PM7 Hamiltonian to be used
 *  SINGLET    - SPIN STATE DEFINED AS A SINGLET
 *
 *
 *
 *                 CHARGE ON SYSTEM = -1
 *
 *
 *
 *  EPS=78.4   - USE ANDREAS KLAMT'S COSMO IMPLICIT SOLVATION MODEL
 *  LET        - OVERRIDE SOME SAFETY CHECKS
 *  THREADS    - USE A MAXIMUM OF 30 THREADS
 *  T=         - A TIME OF 14.0 DAYS REQUESTED
 *  DUMP=N     - RESTART FILE WRITTEN EVERY 30.0 MINUTES REQUESTED
 *  RELSCF     - DEFAULT SCF CRITERION MULTIPLIED BY 1.0000
 *              (DEFAULT SCF CRITERION = 0.00010)
 *  ITRY=      - DO A MAXIMUM OF 15000 ITERATIONS FOR SCF
 *  AUX        - OUTPUT AUXILIARY INFORMATION
 *  ISOTOPE    - SAVE THE FORCE MATRIX FOR USE LATER
 *  BONDS      - FINAL BOND-ORDER MATRIX TO BE PRINTED
 *  LARGE      - EXPANDED OUTPUT TO BE PRINTED
 *  THERMO     - THERMODYNAMIC QUANTITIES TO BE CALCULATED
 *******************************************************************************
PM7 AUX LARGE THERMO(298,298) LET ISOTOPE BONDS DUMP=30M ITRY=15000 T=14D THREADS=30 CHARGE=-1 SINGLET eps=78.4 RELSCF=1
 Title: ASE calculation

   ATOM   CHEMICAL          X               Y               Z
  NUMBER   SYMBOL      (ANGSTROMS)     (ANGSTROMS)     (ANGSTROMS)

     1       C         -0.77373000  *   1.16768000  *  -0.07989000  *
     2       C          0.58230000  *   1.18121000  *   0.23895000  *
     3       C          1.33178000  *  -0.00286000  *   0.21123000  *
     4       C          0.70543000  *  -1.20323000  *  -0.10226000  *
     5       C         -0.66092000  *  -1.20596000  *  -0.40109000  *
     6       C         -1.41056000  *  -0.02697000  *  -0.40953000  *
     7       H         -1.34704000  *   2.09974000  *  -0.06523000  *
     8       H          1.05895000  *   2.13145000  *   0.50553000  *
     9       H          1.25598000  *  -2.15301000  *  -0.11422000  *
    10       H         -2.47476000  *  -0.03623000  *  -0.66807000  *
    11       N         -1.28645000  *  -2.47112000  *  -0.69928000  *
    12       O         -2.46913000  *  -2.50162000  *  -1.00988000  *
    13       O         -0.61616000  *  -3.49520000  *  -0.62686000  *
    14       C          2.79120000  *   0.02949000  *   0.57482000  *
    15       D          2.90727000  *   0.51356000  *   1.60886000  *
    16       C          3.45458000  *  -1.34116000  *   0.62395000  *
    17       H          4.51004000  *  -1.28087000  *   0.92801000  *
    18       H          3.42967000  *  -1.87408000  *  -0.33605000  *
    19       H          2.95399000  *  -1.98556000  *   1.36623000  *
    20       N          3.55824000  *   0.90503000  *  -0.37306000  *
    21       O          4.74621000  *   1.08582000  *  -0.15242000  *
    22       O          2.98955000  *   1.42771000  *  -1.31733000  *
    23       O          2.63422000  *   2.55593000  *   6.05669000  *
    24       H          2.92583000  *   1.85169000  *   5.58186000  *
    25       H          2.04886000  *   1.12344000  *   3.70127000  *
    26       H          3.48935000  *   1.57349000  *   3.56331000  *
    27       O          2.93472000  *   0.78373000  *   3.52398000  *


                                Isotopes Used

              Atom:   15  H  Default mass  1.0079,  mass used:  2.0140 amu


          CARTESIAN COORDINATES 

    NO.       ATOM           X           Y           Z

     1         C         -0.7737      1.1677     -0.0799
     2         C          0.5823      1.1812      0.2390
     3         C          1.3318     -0.0029      0.2112
     4         C          0.7054     -1.2032     -0.1023
     5         C         -0.6609     -1.2060     -0.4011
     6         C         -1.4106     -0.0270     -0.4095
     7         H         -1.3470      2.0997     -0.0652
     8         H          1.0590      2.1315      0.5055
     9         H          1.2560     -2.1530     -0.1142
    10         H         -2.4748     -0.0362     -0.6681
    11         N         -1.2865     -2.4711     -0.6993
    12         O         -2.4691     -2.5016     -1.0099
    13         O         -0.6162     -3.4952     -0.6269
    14         C          2.7912      0.0295      0.5748
    15         H          2.9073      0.5136      1.6089
    16         C          3.4546     -1.3412      0.6240
    17         H          4.5100     -1.2809      0.9280
    18         H          3.4297     -1.8741     -0.3361
    19         H          2.9540     -1.9856      1.3662
    20         N          3.5582      0.9050     -0.3731
    21         O          4.7462      1.0858     -0.1524
    22         O          2.9895      1.4277     -1.3173
    23         O          2.6342      2.5559      6.0567
    24         H          2.9258      1.8517      5.5819
    25         H          2.0489      1.1234      3.7013
    26         H          3.4893      1.5735      3.5633
    27         O          2.9347      0.7837      3.5240

 General Reference for PM7:
 "Optimization of Parameters for Semiempirical Methods VI: More Modifications to the 
 NDDO Approximations and Re-optimization of Parameters", J. J. P. Stewart, J. Mol. Mod., 1:32, 19 (2013)
 https://link.springer.com/article/10.1007/s00894-012-1667-x

           Empirical Formula: C8 H11 N2 O6  =    27 atoms



      MOLECULAR POINT GROUP   :   C1  


 SINGLET STATE CALCULATION


      RHF CALCULATION, NO. OF DOUBLY OCCUPIED LEVELS = 45

  SCF CRITERION =    0.1000E-03


          HEAT OF FORMATION =    -209.923102 KCALS/MOLE


          CARTESIAN COORDINATE DERIVATIVES

   NUMBER  ATOM         X            Y            Z

     1       C      0.230573    -0.693484     0.761741
     2       C      0.191249    -0.432170    -1.034481
     3       C     -0.984673     0.017970     1.088706
     4       C     -0.800598    -0.558492    -0.529010
     5       C      0.992654    -1.499584    -0.027650
     6       C      0.207507     1.436495    -0.465841
     7       H     -0.097107    -0.252888    -0.291495
     8       H     -0.427067    -0.078472    -0.053966
     9       H     -0.352089    -0.002935    -0.561217
    10       H      0.103754    -0.264200     0.511631
    11       N      0.150756    -0.024671     0.264343
    12       O      1.017508     0.618518    -0.301694
    13       O      1.426256     0.336185    -0.264303
    14       C      0.060071     1.417676     0.169972
    15       H      0.893725    -0.087543    -0.918822
    16       C     -0.783879     0.863857    -0.594746
    17       H     -0.755354     0.176250    -0.256858
    18       H     -0.403263     0.361229    -0.794451
    19       H     -0.964753    -0.678591     0.541895
    20       N      0.124679    -0.808350    -0.365694
    21       O      0.133392    -0.585967    -0.194947
    22       O      0.433288    -1.187125     0.894179
    23       O     -1.311723    -1.249237     0.261077
    24       H      0.677578     2.162668     1.494919
    25       H      1.782839    -0.203694     0.974130
    26       H     -1.931335     0.912686    -0.905452
    27       O      0.386008     0.303868     0.598035

 DIPOLE           X         Y         Z       TOTAL
 POINT-CHG.   -21.371     5.681    19.148    29.251
 HYBRID        -0.280     0.460     0.726     0.904
 SUM          -21.651     6.141    19.874    30.024


          GRADIENT NORM =   7.03266


                              **** WARNING ****

           GRADIENT IS VERY LARGE FOR A THERMO CALCULATION
           RESULTS ARE LIKELY TO BE INACCURATE IF THERE ARE
           ANY LOW-LYING VIBRATIONS (LESS THAN ABOUT 400CM-1)
           GRADIENT NORM SHOULD BE LESS THAN ABOUT 1.0 FOR THERMO
           TO GIVE ACCURATE RESULTS


          TIME FOR SCF CALCULATION =    0.18

          TIME FOR DERIVATIVES     =    0.05

          MOLECULAR WEIGHT =  232.19



          ROTATIONAL CONSTANTS IN CM(-1)

          A =    0.01886233   B =    0.00832128   C =    0.00719630



           PRINCIPAL MOMENTS OF INERTIA IN UNITS OF 10**(-40)*GRAM-CM**2

          A =     1484.0561   B =     3363.9960   C =     3889.8831


          ORIENTATION OF MOLECULE IN FORCE CALCULATION

    NO.       ATOM         X         Y         Z

     1          C      -2.0931   -1.3206    0.3138
     2          C      -0.7000   -1.3206    0.3138
     3          C       0.0117   -0.1131    0.3138
     4          C      -0.6814    1.0909    0.2771
     5          C      -2.0798    1.0766    0.2574
     6          C      -2.8000   -0.1201    0.2912
     7          H      -2.6387   -2.2692    0.3244
     8          H      -0.1658   -2.2776    0.3208
     9          H      -0.1574    2.0555    0.2559
    10          H      -3.8952   -0.1201    0.2994
    11          N      -2.7693    2.3422    0.1955
    12          O      -3.9919    2.3658    0.2237
    13          O      -2.1102    3.3724    0.1079
    14          C       1.5158   -0.1339    0.2971
    15          H       1.8702   -0.7691   -0.5906
    16          C       2.1595    1.2414    0.1733
    17          H       3.2571    1.1835    0.1278
    18          H       1.9104    1.9175    1.0022
    19          H       1.8359    1.7364   -0.7579
    20          N       2.0540   -0.8118    1.5235
    21          O       3.2627   -0.9692    1.6077
    22          O       1.2894   -1.2050    2.3890
    23          O       2.6422   -3.4986   -4.5885
    24          H       2.8106   -2.7153   -4.1828
    25          H       1.5194   -1.7413   -2.6927
    26          H       2.8944   -2.0958   -2.1632
    27          O       2.3379   -1.3366   -2.3796


    FIRST DERIVATIVES WILL BE USED IN THE CALCULATION OF SECOND DERIVATIVES

          ESTIMATED TIME TO COMPLETE CALCULATION =       37.97 SECONDS

    FOR POINT-GROUP C1   THERE ARE   1 UNIQUE SYMMETRY FUNCTIONS.

 STEP:   1 TIME =     0.17 SECS, INTEGRAL =      0.17 TIME LEFT:1209599.59
 STEP:   2 TIME =     0.10 SECS, INTEGRAL =      0.27 TIME LEFT:1209599.49
 STEP:   3 TIME =     0.11 SECS, INTEGRAL =      0.38 TIME LEFT:1209599.38
 STEP:   4 TIME =     0.72 SECS, INTEGRAL =      1.10 TIME LEFT:1209598.66
 STEP:   5 TIME =     0.44 SECS, INTEGRAL =      1.54 TIME LEFT:1209598.23
 STEP:   6 TIME =     0.38 SECS, INTEGRAL =      1.91 TIME LEFT:1209597.85
 STEP:   7 TIME =     0.33 SECS, INTEGRAL =      2.24 TIME LEFT:1209597.52
 STEP:   8 TIME =     0.48 SECS, INTEGRAL =      2.72 TIME LEFT:1209597.05
 STEP:   9 TIME =     1.00 SECS, INTEGRAL =      3.72 TIME LEFT:1209596.05
 STEP:  10 TIME =     1.20 SECS, INTEGRAL =      4.91 TIME LEFT:1209594.85
 STEP:  11 TIME =     1.48 SECS, INTEGRAL =      6.39 TIME LEFT:1209593.38
 STEP:  12 TIME =     0.70 SECS, INTEGRAL =      7.09 TIME LEFT:1209592.68
 STEP:  13 TIME =     0.08 SECS, INTEGRAL =      7.16 TIME LEFT:1209592.60
 STEP:  14 TIME =     0.08 SECS, INTEGRAL =      7.24 TIME LEFT:1209592.52
 STEP:  15 TIME =     0.09 SECS, INTEGRAL =      7.33 TIME LEFT:1209592.44
 STEP:  16 TIME =     0.07 SECS, INTEGRAL =      7.40 TIME LEFT:1209592.37
 STEP:  17 TIME =     0.09 SECS, INTEGRAL =      7.48 TIME LEFT:1209592.28
 STEP:  18 TIME =     0.08 SECS, INTEGRAL =      7.56 TIME LEFT:1209592.20
 STEP:  19 TIME =     0.08 SECS, INTEGRAL =      7.64 TIME LEFT:1209592.12
 STEP:  20 TIME =     0.08 SECS, INTEGRAL =      7.72 TIME LEFT:1209592.05
 STEP:  21 TIME =     0.08 SECS, INTEGRAL =      7.80 TIME LEFT:1209591.97
 STEP:  22 TIME =     0.12 SECS, INTEGRAL =      7.91 TIME LEFT:1209591.85
 STEP:  23 TIME =     0.08 SECS, INTEGRAL =      7.99 TIME LEFT:1209591.77
 STEP:  24 TIME =     0.08 SECS, INTEGRAL =      8.07 TIME LEFT:1209591.70
 STEP:  25 TIME =     0.08 SECS, INTEGRAL =      8.15 TIME LEFT:1209591.62
 STEP:  26 TIME =     0.09 SECS, INTEGRAL =      8.23 TIME LEFT:1209591.53
 STEP:  27 TIME =     0.08 SECS, INTEGRAL =      8.31 TIME LEFT:1209591.45
 STEP:  28 TIME =     0.08 SECS, INTEGRAL =      8.39 TIME LEFT:1209591.38
 STEP:  29 TIME =     0.08 SECS, INTEGRAL =      8.47 TIME LEFT:1209591.30
 STEP:  30 TIME =     0.08 SECS, INTEGRAL =      8.55 TIME LEFT:1209591.22
 STEP:  31 TIME =     0.08 SECS, INTEGRAL =      8.62 TIME LEFT:1209591.14
 STEP:  32 TIME =     0.08 SECS, INTEGRAL =      8.70 TIME LEFT:1209591.06
 STEP:  33 TIME =     0.08 SECS, INTEGRAL =      8.78 TIME LEFT:1209590.98
 STEP:  34 TIME =     0.09 SECS, INTEGRAL =      8.87 TIME LEFT:1209590.90
 STEP:  35 TIME =     0.09 SECS, INTEGRAL =      8.96 TIME LEFT:1209590.80
 STEP:  36 TIME =     0.08 SECS, INTEGRAL =      9.04 TIME LEFT:1209590.73
 STEP:  37 TIME =     0.10 SECS, INTEGRAL =      9.14 TIME LEFT:1209590.62
 STEP:  38 TIME =     0.11 SECS, INTEGRAL =      9.25 TIME LEFT:1209590.52
 STEP:  39 TIME =     0.10 SECS, INTEGRAL =      9.35 TIME LEFT:1209590.41
 STEP:  40 TIME =     0.11 SECS, INTEGRAL =      9.46 TIME LEFT:1209590.30
 STEP:  41 TIME =     0.08 SECS, INTEGRAL =      9.54 TIME LEFT:1209590.23
 STEP:  42 TIME =     0.10 SECS, INTEGRAL =      9.64 TIME LEFT:1209590.12
 STEP:  43 TIME =     0.10 SECS, INTEGRAL =      9.74 TIME LEFT:1209590.02
 STEP:  44 TIME =     0.09 SECS, INTEGRAL =      9.84 TIME LEFT:1209589.93
 STEP:  45 TIME =     0.08 SECS, INTEGRAL =      9.91 TIME LEFT:1209589.85
 STEP:  46 TIME =     0.08 SECS, INTEGRAL =      9.99 TIME LEFT:1209589.77
 STEP:  47 TIME =     0.08 SECS, INTEGRAL =     10.07 TIME LEFT:1209589.70
 STEP:  48 TIME =     0.08 SECS, INTEGRAL =     10.15 TIME LEFT:1209589.62
 STEP:  49 TIME =     0.08 SECS, INTEGRAL =     10.23 TIME LEFT:1209589.54
 STEP:  50 TIME =     0.09 SECS, INTEGRAL =     10.31 TIME LEFT:1209589.45
 STEP:  51 TIME =     0.08 SECS, INTEGRAL =     10.39 TIME LEFT:1209589.38
 STEP:  52 TIME =     0.08 SECS, INTEGRAL =     10.47 TIME LEFT:1209589.30
 STEP:  53 TIME =     0.08 SECS, INTEGRAL =     10.55 TIME LEFT:1209589.22
 STEP:  54 TIME =     0.08 SECS, INTEGRAL =     10.62 TIME LEFT:1209589.14
 STEP:  55 TIME =     0.08 SECS, INTEGRAL =     10.70 TIME LEFT:1209589.06
 STEP:  56 TIME =     0.08 SECS, INTEGRAL =     10.78 TIME LEFT:1209588.98
 STEP:  57 TIME =     0.11 SECS, INTEGRAL =     10.89 TIME LEFT:1209588.88
 STEP:  58 TIME =     0.09 SECS, INTEGRAL =     10.98 TIME LEFT:1209588.78
 STEP:  59 TIME =     0.08 SECS, INTEGRAL =     11.06 TIME LEFT:1209588.70
 STEP:  60 TIME =     0.08 SECS, INTEGRAL =     11.14 TIME LEFT:1209588.62
 STEP:  61 TIME =     0.09 SECS, INTEGRAL =     11.23 TIME LEFT:1209588.53
 STEP:  62 TIME =     0.08 SECS, INTEGRAL =     11.31 TIME LEFT:1209588.45
 STEP:  63 TIME =     0.08 SECS, INTEGRAL =     11.39 TIME LEFT:1209588.38
 STEP:  64 TIME =     0.08 SECS, INTEGRAL =     11.47 TIME LEFT:1209588.30
 STEP:  65 TIME =     0.08 SECS, INTEGRAL =     11.55 TIME LEFT:1209588.22
 STEP:  66 TIME =     0.08 SECS, INTEGRAL =     11.62 TIME LEFT:1209588.14
 STEP:  67 TIME =     0.13 SECS, INTEGRAL =     11.76 TIME LEFT:1209588.01
 STEP:  68 TIME =     0.09 SECS, INTEGRAL =     11.85 TIME LEFT:1209587.91
 STEP:  69 TIME =     0.14 SECS, INTEGRAL =     11.99 TIME LEFT:1209587.77
 STEP:  70 TIME =     0.09 SECS, INTEGRAL =     12.09 TIME LEFT:1209587.68
 STEP:  71 TIME =     0.12 SECS, INTEGRAL =     12.20 TIME LEFT:1209587.56
 STEP:  72 TIME =     0.10 SECS, INTEGRAL =     12.30 TIME LEFT:1209587.46
 STEP:  73 TIME =     0.09 SECS, INTEGRAL =     12.40 TIME LEFT:1209587.37
 STEP:  74 TIME =     0.10 SECS, INTEGRAL =     12.50 TIME LEFT:1209587.27
 STEP:  75 TIME =     0.10 SECS, INTEGRAL =     12.60 TIME LEFT:1209587.16
 STEP:  76 TIME =     0.09 SECS, INTEGRAL =     12.70 TIME LEFT:1209587.07
 STEP:  77 TIME =     0.12 SECS, INTEGRAL =     12.81 TIME LEFT:1209586.95
 STEP:  78 TIME =     0.13 SECS, INTEGRAL =     12.95 TIME LEFT:1209586.82
 STEP:  79 TIME =     0.09 SECS, INTEGRAL =     13.04 TIME LEFT:1209586.73
 STEP:  80 TIME =     0.10 SECS, INTEGRAL =     13.14 TIME LEFT:1209586.62
 STEP:  81 TIME =     0.10 SECS, INTEGRAL =     13.24 TIME LEFT:1209586.52

(To convert to Hartree/Bohr^2, multiply by (10^(-21) x N x a0^2)/(4.184 x 627.51) =  0.0642)


           FORCE MATRIX IN MILLIDYNES/ANGSTROM


                  C  1       C  2       C  3       C  4       C  5       C  6
 ------------------------------------------------------------------------------
     C    1  14.947205
     C    2   6.047639  14.946378
     C    3   1.952506   5.740003  15.842092
     C    4   1.252952   1.972040   6.251561  15.288510
     C    5   1.964041   1.147691   1.847170   5.762792  16.084744
     C    6   6.040351   1.991288   1.206541   1.841122   5.730472  14.945657
     H    7   3.388271   0.747487   0.083214   0.010909   0.089021   0.766145
     H    8   0.728416   3.391634   0.718587   0.088547   0.037710   0.098804
     H    9   0.021034   0.094507   0.707421   3.314096   0.764794   0.083992
     H   10   0.707142   0.092237   0.022330   0.082410   0.732722   3.368506
     N   11   0.190254   0.032424   0.198668   1.217995   3.250976   1.161550
     O   12   0.029457   0.014801   0.050711   0.115703   1.437974   0.092748
     O   13   0.055954   0.009090   0.029396   0.111688   1.456420   0.117728
     C   14   0.088681   0.758790   3.273787   0.769523   0.103151   0.016166
     H   15   0.013781   0.028458   0.696894   0.021387   0.012756   0.009495
     C   16   0.015917   0.039795   0.645993   0.091035   0.012667   0.009275
     H   17   0.001570   0.007071   0.046060   0.005855   0.002494   0.000950
     H   18   0.002894   0.002865   0.011104   0.029229   0.004655   0.002531
     H   19   0.003355   0.002915   0.017402   0.029279   0.005513   0.002747
     N   20   0.040352   0.058806   0.835848   0.044627   0.020983   0.019941
     O   21   0.017560   0.010563   0.100027   0.010856   0.013391   0.006020
     O   22   0.020031   0.029673   0.084933   0.011044   0.016360   0.010548
     O   23   0.003226   0.002704   0.002097   0.001505   0.001036   0.002129
     H   24   0.001220   0.000657   0.001105   0.000722   0.000622   0.000572
     H   25   0.004505   0.003071   0.010748   0.001383   0.003927   0.001936
     H   26   0.007147   0.004361   0.012187   0.002344   0.004295   0.002177
     O   27   0.007135   0.005246   0.020031   0.003921   0.005422   0.003011


                  H  7       H  8       H  9       H 10       N 11       O 12
 ------------------------------------------------------------------------------
     H    7   4.295086
     H    8   0.036856   4.256793
     H    9   0.010250   0.012052   4.221058
     H   10   0.038722   0.012050   0.008467   4.241345
     N   11   0.032341   0.050138   0.122895   0.096580  18.913715
     O   12   0.010892   0.013776   0.027677   0.030174   9.298338  12.157690
     O   13   0.009662   0.013986   0.056524   0.026436   9.075594   2.635758
     C   14   0.008807   0.067046   0.039037   0.010068   0.031484   0.009480
     H   15   0.004099   0.141810   0.007814   0.003029   0.015137   0.005268
     C   16   0.004690   0.016891   0.073468   0.004059   0.028531   0.010580
     H   17   0.000605   0.006388   0.004869   0.000840   0.005629   0.001902
     H   18   0.001119   0.003893   0.033640   0.001326   0.010039   0.004015
     H   19   0.001489   0.007403   0.034058   0.001742   0.011661   0.004737
     N   20   0.010902   0.080524   0.019563   0.008349   0.048971   0.016092
     O   21   0.005479   0.026751   0.011745   0.004755   0.026909   0.009883
     O   22   0.005666   0.030337   0.008643   0.004948   0.027497   0.009074
     O   23   0.001577   0.080361   0.001123   0.001493   0.001322   0.001176
     H   24   0.000633   0.041991   0.000307   0.000549   0.001146   0.000598
     H   25   0.002161   0.291599   0.001804   0.002558   0.008760   0.002971
     H   26   0.002472   0.373060   0.002453   0.001906   0.009108   0.003109
     O   27   0.003552   0.667652   0.002997   0.003039   0.009711   0.003577


                  O 13       C 14       H 15       C 16       H 17       H 18
 ------------------------------------------------------------------------------
     O   13  11.913984
     C   14   0.018334  11.885386
     H   15   0.005125   2.685700   3.785289
     C   16   0.008863   2.861597   0.652774  11.011432
     H   17   0.003109   0.687512   0.027215   3.341368   4.141752
     H   18   0.003468   0.673843   0.042672   3.365451   0.453560   4.150783
     H   19   0.003921   0.696472   0.027522   3.316388   0.451644   0.449092
     N   20   0.017524   2.502468   0.900284   0.772036   0.088202   0.047330
     O   21   0.009204   1.064510   0.079400   0.076068   0.020630   0.013608
     O   22   0.008875   1.010233   0.084056   0.101472   0.024300   0.016504
     O   23   0.000870   0.004206   0.002050   0.003835   0.001996   0.001511
     H   24   0.000402   0.002756   0.004890   0.001357   0.000478   0.000478
     H   25   0.002860   0.070820   0.140013   0.009456   0.004797   0.002372
     H   26   0.003026   0.079385   0.155184   0.017034   0.005878   0.002711
     O   27   0.003180   0.174311   0.166909   0.018631   0.008914   0.004324


                  H 19       N 20       O 21       O 22       O 23       H 24
 ------------------------------------------------------------------------------
     H   19   4.122660
     N   20   0.075976  18.806080
     O   21   0.015215   9.516271  12.189706
     O   22   0.017678   9.620575   2.693086  12.206622
     O   23   0.001830   0.008409   0.002658   0.005879   4.314694
     H   24   0.000501   0.003077   0.001562   0.001460   4.309530   4.340521
     H   25   0.005125   0.050562   0.016983   0.018633   0.083544   0.079640
     H   26   0.006072   0.057263   0.020925   0.021971   0.108286   0.091009
     O   27   0.010714   0.088365   0.028465   0.032614   0.166338   0.109337


                  H 25       H 26       O 27
 ------------------------------------------
     H   25   4.491954
     H   26   0.821514   4.275515
     O   27   4.087744   3.742415   6.082765


          HEAT OF FORMATION =    -209.923102 KCALS/MOLE


          TRIVIAL VIBRATIONS, SHOULD BE ZERO

  -0.4346=TX -15.5473=TY  22.2818=TZ  -5.9749=RX   4.3549=RY  -4.6973=RZ


      MOLECULAR POINT GROUP   :   C1  


           EIGENVECTORS  


   Root No.       1         2         3         4         5         6         7         8

                 1 A       2 A       3 A       4 A       5 A       6 A       7 A       8 A   

                  -1.0      -0.1      -0.1      -0.0      -0.0      -0.0      -0.0       0.0
  
           1   -0.0298   -0.0187   -0.0033    0.0132    0.0145   -0.0434   -0.0404   -0.0766
           2    0.0105   -0.0004    0.0029   -0.0043   -0.0432    0.0187    0.0065    0.0217
           3    0.0120    0.0660   -0.1530   -0.0657    0.0003    0.0073    0.0226    0.1155
           4   -0.0356   -0.0186   -0.0055    0.0132    0.0143   -0.0414   -0.0398   -0.0768
           5    0.0369   -0.0074    0.0111    0.0032   -0.0455   -0.0016   -0.0011   -0.0142
           6    0.0637    0.0750   -0.0843   -0.0255    0.0865   -0.1991   -0.0456    0.1516
           7   -0.0099   -0.0062   -0.0105    0.0083    0.0179   -0.0306   -0.0342   -0.0459
           8    0.0153   -0.0153    0.0157    0.0063   -0.0482   -0.0106   -0.0052   -0.0316
           9    0.0159   -0.0146    0.1076   -0.0605    0.0428   -0.1192   -0.0165    0.0792
          10   -0.0086   -0.0004   -0.0121    0.0012    0.0212   -0.0159   -0.0281   -0.0135
          11    0.0110   -0.0138    0.0203    0.0011   -0.0483    0.0022    0.0005   -0.0146
          12   -0.0087   -0.1038    0.3830   -0.1073   -0.0345   -0.0367    0.0404    0.0479
          13   -0.0087   -0.0017   -0.0095   -0.0002    0.0219   -0.0165   -0.0285   -0.0140
          14    0.0022   -0.0044    0.0115   -0.0033   -0.0470    0.0234    0.0088    0.0209
          15   -0.0030   -0.0324    0.1438   -0.0586   -0.0918    0.1517    0.0909    0.0259
          16   -0.0208   -0.0106   -0.0067    0.0069    0.0170   -0.0281   -0.0335   -0.0442
          17    0.0096    0.0028    0.0027   -0.0087   -0.0432    0.0310    0.0114    0.0395
          18   -0.0046    0.0347   -0.1276   -0.0921   -0.0974    0.2569    0.1073    0.0323
          19   -0.0103   -0.0232    0.0015    0.0172    0.0122   -0.0550   -0.0447   -0.1019
          20   -0.0013    0.0024   -0.0005   -0.0066   -0.0419    0.0250    0.0087    0.0366
          21    0.0102    0.0781   -0.2097   -0.0513    0.0109   -0.0217    0.0087    0.1270
          22   -0.1035   -0.0316   -0.0004    0.0167    0.0096   -0.0525   -0.0452   -0.0990
          23    0.0632   -0.0106    0.0154    0.0054   -0.0465   -0.0096   -0.0038   -0.0273
          24    0.2299    0.1389   -0.1468    0.0301    0.1597   -0.3657   -0.1003    0.1959
          25   -0.0051    0.0033   -0.0132   -0.0031    0.0222    0.0006   -0.0219    0.0120
          26    0.0066   -0.0174    0.0253    0.0028   -0.0488   -0.0079   -0.0030   -0.0289
          27   -0.0104   -0.1707    0.5978   -0.1322   -0.0333   -0.0972    0.0328    0.0247
          28   -0.0176   -0.0102   -0.0070    0.0069    0.0166   -0.0269   -0.0331   -0.0442
          29    0.0051    0.0101   -0.0018   -0.0127   -0.0392    0.0427    0.0166    0.0692
          30    0.0007    0.0523   -0.2411   -0.0820   -0.1357    0.3984    0.1420   -0.0194
          31   -0.0071    0.0033   -0.0118   -0.0115    0.0293   -0.0071   -0.0259    0.0162
          32    0.0014   -0.0004    0.0064   -0.0005   -0.0406    0.0253    0.0080    0.0353
          33   -0.0000   -0.0010    0.0691    0.1395   -0.0794    0.1008    0.0587   -0.0058
          34   -0.0065    0.0030   -0.0127   -0.0224    0.0321   -0.0058   -0.0272    0.0148
          35   -0.0015    0.0020    0.0039   -0.0394   -0.0273    0.0364    0.0074    0.0581
          36    0.0034   -0.0049    0.0241   -0.3012    0.0220    0.1475    0.0090   -0.0758
          37   -0.0046    0.0067   -0.0126   -0.0071    0.0338   -0.0015   -0.0238    0.0420
          38   -0.0011    0.0016    0.0014    0.0577   -0.0505    0.0092    0.0067    0.0236
          39   -0.0021    0.0497    0.0033    0.8540   -0.1576   -0.0466    0.0609    0.0536
          40   -0.0110   -0.0059   -0.0117    0.0103    0.0184   -0.0304   -0.0334   -0.0480
          41    0.0060   -0.0248    0.0106    0.0136   -0.0514   -0.0268   -0.0142   -0.0714
          42    0.0180   -0.0125    0.0166   -0.0254    0.0757   -0.0717   -0.0202    0.0005
          43   -0.0254   -0.0024   -0.0669    0.0338    0.0413    0.0112   -0.0260   -0.1252
          44    0.0133   -0.0248   -0.0366   -0.0100   -0.1047   -0.0549   -0.0285   -0.1478
          45    0.0491   -0.0151    0.0254    0.0033    0.1282   -0.0278   -0.0029    0.0223
          46   -0.0018   -0.0011   -0.0155    0.0043    0.0218   -0.0066   -0.0285   -0.0156
          47   -0.0021   -0.0255    0.0014    0.0145   -0.0558   -0.0353   -0.0171   -0.1004
          48   -0.0008    0.0002   -0.1064   -0.0453    0.0121   -0.0548   -0.0314   -0.1574
          49   -0.0013   -0.0010   -0.0200    0.0047    0.0210   -0.0062   -0.0283   -0.0253
          50   -0.0061   -0.0267   -0.0082    0.0186   -0.0616   -0.0525   -0.0215   -0.1526
          51   -0.0055    0.0110   -0.2071   -0.0368    0.0083   -0.0238   -0.0185   -0.3382
          52    0.0031   -0.0086    0.0689   -0.0057    0.0267   -0.0181   -0.0329    0.1471
          53    0.0026   -0.0312    0.0434    0.0281   -0.0200   -0.0320   -0.0059   -0.0570
          54   -0.0038    0.0031   -0.1154   -0.0591   -0.0149   -0.0600   -0.0415   -0.1450
          55   -0.0028    0.0090   -0.1036    0.0081    0.0174    0.0244   -0.0187   -0.1439
          56   -0.0064   -0.0175   -0.0405   -0.0038   -0.0944   -0.0286   -0.0284   -0.1252
          57   -0.0038    0.0015   -0.0982   -0.0563   -0.0068   -0.0611   -0.0403   -0.1263
          58   -0.0005   -0.0068    0.0513   -0.0155   -0.0086   -0.1041   -0.0487    0.0159
          59   -0.0008   -0.0337    0.0694    0.0620    0.0678    0.0294    0.0038   -0.0069
          60    0.0152   -0.0173    0.0182    0.0133    0.1546   -0.0016    0.0002    0.0043
          61   -0.0001   -0.0059    0.0516   -0.0256   -0.0436   -0.1306   -0.0484    0.0291
          62   -0.0088   -0.0266    0.0403   -0.0296   -0.2881   -0.2012    0.0271    0.0963
          63   -0.0095   -0.0134   -0.0458   -0.0092   -0.0018   -0.0475    0.0322    0.0033
          64    0.0026   -0.0064    0.0923   -0.0229    0.0085   -0.1340   -0.0647    0.0503
          65   -0.0037   -0.0512    0.1505    0.2113    0.5866    0.3531   -0.0068   -0.0828
          66    0.0120   -0.0243    0.0918    0.0739    0.4034    0.1179   -0.0186    0.0014
          67   -0.0417    0.3430    0.1242    0.0033   -0.1775    0.2983   -0.2384    0.3063
          68    0.0609   -0.1756   -0.1904   -0.0644    0.1271    0.0158   -0.2205    0.2709
          69   -0.0535    0.4374    0.2157    0.0164   -0.1841    0.1298   -0.1355   -0.2254
          70    0.0150   -0.1482   -0.0804   -0.0009   -0.0636    0.1671    0.1673    0.4581
          71   -0.0141    0.2506   -0.0170   -0.0727    0.0579    0.1278   -0.4300    0.0812
          72    0.0087   -0.1802   -0.0366    0.0333   -0.0947   -0.0329    0.1039    0.0828
          73    0.1530   -0.0097    0.0123   -0.0159   -0.0543    0.0897    0.3206   -0.0447
          74   -0.0614    0.4853    0.0015   -0.0838    0.2188   -0.2332    0.4406    0.0779
          75   -0.5085   -0.1588   -0.0625    0.0269   -0.0201   -0.0188   -0.2026   -0.0262
          76    0.3421   -0.1892   -0.0056    0.0047   -0.0751    0.1511    0.1209   -0.1392
          77    0.1161   -0.2809   -0.0876   -0.0311    0.0610    0.0281    0.0386   -0.0042
          78   -0.3521   -0.2233   -0.0790    0.0117   -0.0846   -0.0112    0.0390    0.1520
          79   -0.1629    0.1380    0.0069   -0.0221    0.0050    0.0121    0.3857   -0.0338
          80   -0.2533    0.0337   -0.0512   -0.0538    0.1272   -0.0739    0.2014    0.0336
          81    0.5273    0.0243    0.0172    0.0058   -0.0678   -0.0131   -0.0749   -0.0008


   Root No.       9        10        11        12        13        14        15        16

                 9 A      10 A      11 A      12 A      13 A      14 A      15 A      16 A   

                   0.0       0.0       0.0       0.0       0.0       0.1       0.1       0.1
  
           1    0.0175    0.0135    0.0332   -0.0182   -0.0544   -0.0100   -0.0704   -0.0134
           2    0.0151   -0.0093   -0.0307   -0.0046    0.0026   -0.0013   -0.0295    0.0156
           3    0.0214   -0.0172   -0.0587    0.0245    0.0567   -0.1904   -0.0275    0.0096
           4    0.0167    0.0136    0.0333   -0.0181   -0.0527   -0.0101   -0.0616   -0.0152
           5    0.0304   -0.0166   -0.0272   -0.0127   -0.0309   -0.0001   -0.1229    0.0241
           6    0.0461   -0.0259   -0.0792    0.0375    0.0456   -0.0096   -0.0164    0.0597
           7    0.0062    0.0200    0.0279   -0.0129   -0.0285   -0.0034   -0.0033   -0.0244
           8    0.0372   -0.0207   -0.0247   -0.0155   -0.0457   -0.0042   -0.1630    0.0318
           9    0.0267    0.0107   -0.0480    0.0172    0.0255   -0.0633    0.0032    0.0411
          10   -0.0074    0.0273    0.0288   -0.0086   -0.0084   -0.0030    0.0419   -0.0229
          11    0.0288   -0.0156   -0.0251   -0.0129   -0.0328   -0.0062   -0.1352    0.0296
          12    0.0359    0.0382   -0.0734    0.0326    0.0350   -0.1440   -0.0422   -0.0253
          13   -0.0076    0.0275    0.0290   -0.0080   -0.0070   -0.0042    0.0496   -0.0248
          14    0.0144   -0.0081   -0.0299   -0.0052    0.0001    0.0007   -0.0378    0.0193
          15    0.0199    0.0396   -0.0447    0.0049   -0.0065   -0.0145   -0.0277   -0.0163
          16    0.0042    0.0206    0.0316   -0.0135   -0.0315   -0.0086   -0.0164   -0.0165
          17    0.0073   -0.0048   -0.0313   -0.0019    0.0160   -0.0003    0.0048    0.0134
          18   -0.0053    0.0225   -0.0170   -0.0165    0.0034   -0.1629   -0.0079   -0.0356
          19    0.0279    0.0093    0.0360   -0.0242   -0.0785   -0.0091   -0.1313   -0.0104
          20    0.0089   -0.0070   -0.0323   -0.0011    0.0164   -0.0030    0.0038    0.0140
          21    0.0168   -0.0349   -0.0616    0.0331    0.0830   -0.2809   -0.0399    0.0031
          22    0.0228    0.0091    0.0384   -0.0224   -0.0731   -0.0178   -0.1227    0.0023
          23    0.0357   -0.0185   -0.0254   -0.0162   -0.0448   -0.0007   -0.1601    0.0281
          24    0.0727   -0.0494   -0.1068    0.0433    0.0285    0.1606   -0.0366    0.0705
          25   -0.0194    0.0335    0.0311   -0.0055    0.0070   -0.0032    0.0772   -0.0208
          26    0.0356   -0.0186   -0.0273   -0.0141   -0.0403   -0.0078   -0.1527    0.0268
          27    0.0436    0.0456   -0.0907    0.0451    0.0483   -0.2274   -0.0760   -0.0794
          28    0.0039    0.0207    0.0318   -0.0134   -0.0315   -0.0081   -0.0147   -0.0172
          29   -0.0053    0.0012   -0.0337    0.0045    0.0422    0.0017    0.0735    0.0075
          30   -0.0339    0.0308    0.0276   -0.0535   -0.0279   -0.1958    0.0173   -0.0728
          31   -0.0188    0.0338    0.0261    0.0040    0.0309    0.0010    0.2012   -0.0495
          32    0.0077   -0.0050   -0.0296    0.0008    0.0192    0.0168    0.0478    0.0080
          33    0.0126    0.0319   -0.0147   -0.0104   -0.0528    0.2520   -0.0004    0.0300
          34   -0.0184    0.0338    0.0267    0.0037    0.0299    0.0124    0.2076   -0.0490
          35   -0.0017    0.0007   -0.0305    0.0120    0.0531    0.0352    0.2042   -0.0169
          36    0.0355    0.0287    0.0069   -0.0361   -0.1376    0.6972    0.0204    0.0957
          37   -0.0287    0.0394    0.0246    0.0154    0.0666   -0.0066    0.3445   -0.0758
          38    0.0112   -0.0095   -0.0277   -0.0050    0.0014    0.0022   -0.0390    0.0230
          39   -0.0212    0.0211   -0.0054    0.0053    0.0033    0.0244    0.0252    0.0160
          40    0.0070    0.0205    0.0263   -0.0145   -0.0294   -0.0036    0.0016   -0.0290
          41    0.0546   -0.0322   -0.0284   -0.0087   -0.0396    0.0087   -0.0559   -0.0018
          42   -0.0126    0.0398   -0.0010   -0.0664   -0.0595   -0.0400    0.0341    0.0212
          43   -0.0140    0.0331    0.0307   -0.0792   -0.0753    0.0167    0.0897   -0.0992
          44    0.1579   -0.1065   -0.0469    0.0468    0.0326    0.0017   -0.0214   -0.0074
          45   -0.0896    0.0992    0.0174   -0.1364   -0.1258   -0.0305    0.0555   -0.0041
          46   -0.0111    0.0210    0.0536   -0.0280   -0.0546   -0.0182   -0.2002    0.0427
          47    0.0781   -0.0437   -0.0435    0.0024   -0.0206    0.0153    0.0503   -0.0421
          48    0.1381   -0.0673   -0.0149   -0.0295   -0.0136   -0.0551    0.0366   -0.0184
          49   -0.0068    0.0401    0.0426   -0.0184   -0.0499   -0.0173   -0.1992    0.0418
          50    0.1089   -0.0031   -0.0948    0.0384    0.0173    0.0294    0.2525   -0.1171
          51    0.2026    0.3668   -0.2480    0.1730    0.0786   -0.0405   -0.0196   -0.0057
          52   -0.0790   -0.3062    0.2473   -0.1949   -0.1466   -0.0394   -0.2821    0.0722
          53    0.0033    0.1611   -0.1006    0.0411   -0.0258    0.0249   -0.0217    0.0101
          54    0.1796   -0.3308    0.0872   -0.1107   -0.0365   -0.0693    0.0770   -0.0559
          55    0.0366    0.3334   -0.1031    0.1177    0.0053   -0.0113   -0.3377    0.0905
          56    0.1505   -0.3022    0.0484   -0.0629   -0.0371   -0.0051    0.0269   -0.0688
          57    0.1601   -0.3133    0.0881   -0.1149   -0.0440   -0.0684    0.0689   -0.0495
          58    0.0451   -0.0117   -0.0112    0.0792    0.0830    0.0016    0.0899    0.0058
          59   -0.0405    0.0367   -0.0172   -0.0581   -0.1099    0.0285    0.0641   -0.0547
          60   -0.0782    0.0915    0.0206   -0.1381   -0.1516   -0.0349    0.0530   -0.0277
          61    0.0324    0.0004   -0.0125    0.0748    0.0798    0.0028    0.1128    0.0043
          62   -0.2079    0.1851   -0.0063   -0.1826   -0.2434    0.0299    0.2186   -0.1133
          63   -0.2103    0.2029    0.0601   -0.2971   -0.3432   -0.0414    0.0371   -0.1042
          64    0.0882   -0.0474   -0.0381    0.1604    0.1806    0.0090    0.1574    0.0399
          65    0.1042   -0.0996   -0.0283    0.0573   -0.0119    0.0396    0.0217   -0.0546
          66    0.0248   -0.0024   -0.0084   -0.0142   -0.0219   -0.0235    0.0911    0.0024
          67    0.2733    0.0636   -0.0680   -0.1777    0.0577    0.0340    0.0551    0.3150
          68   -0.2259    0.0104    0.0164    0.2102    0.0343    0.0189   -0.1131   -0.3259
          69   -0.1109    0.0175    0.3622    0.1687    0.1599    0.0247   -0.0069   -0.1490
          70    0.3253    0.0383   -0.1256   -0.0756    0.0160    0.0859   -0.0546   -0.2576
          71   -0.3168   -0.0181   -0.0070    0.2210   -0.0598   -0.1029   -0.0037   -0.0818
          72    0.0424    0.0773    0.4169    0.1091    0.3490    0.2368   -0.1710   -0.3751
          73   -0.1760   -0.1546   -0.0651    0.2492   -0.0995   -0.0198    0.0499    0.0683
          74   -0.0392    0.0458    0.0530   -0.0554    0.1064    0.0547   -0.0737    0.0091
          75   -0.3211   -0.1390   -0.3134   -0.2783    0.3956    0.1490   -0.0890    0.1004
          76   -0.2861   -0.1217   -0.1243   -0.0981    0.2508   -0.0120    0.0365    0.1130
          77   -0.0183    0.1822    0.3952   -0.1104    0.2412   -0.1220    0.1228    0.4123
          78   -0.0110   -0.1011    0.1438    0.5377   -0.3344    0.0277    0.0818    0.3505
          79   -0.2338   -0.2108   -0.2513    0.1268    0.0133    0.0423   -0.0208   -0.0701
          80   -0.0341    0.1160    0.2354   -0.0673    0.1600   -0.0544    0.0389    0.2117
          81   -0.1846   -0.0829   -0.0449    0.0701    0.0431    0.1201   -0.0401    0.2187


   Root No.      17        18        19        20        21        22        23        24

                17 A      18 A      19 A      20 A      21 A      22 A      23 A      24 A   

                   0.1       0.2       0.2       0.2       0.3       0.3       0.4       0.4
  
           1   -0.0070    0.0649   -0.0903   -0.0422    0.0015    0.0396    0.0600   -0.0989
           2    0.0062   -0.0418   -0.0080   -0.0982   -0.0145   -0.0365   -0.0010   -0.0130
           3    0.1715    0.0897    0.0576   -0.0293   -0.0336    0.0325    0.1446    0.0818
           4   -0.0086    0.0626   -0.0835   -0.0401    0.0027    0.0324    0.0501   -0.0797
           5   -0.0072   -0.0284   -0.0362   -0.0729   -0.0057    0.0715    0.0253   -0.0848
           6    0.0964   -0.0978   -0.1568    0.0942   -0.1020   -0.0329    0.0857    0.0498
           7   -0.0225    0.0479   -0.0387   -0.0648    0.0104   -0.0503    0.0118    0.0119
           8    0.0044   -0.0218   -0.0593   -0.0510   -0.0109    0.1157    0.0409   -0.1229
           9   -0.0309   -0.1621   -0.1014   -0.0137   -0.0499    0.1365    0.0689    0.1019
          10   -0.0109    0.0406   -0.0354   -0.0956   -0.0007   -0.1408    0.0319    0.0232
          11    0.0066   -0.0308   -0.0512   -0.0892   -0.0167    0.0419    0.0484   -0.1108
          12   -0.0128    0.0121   -0.0656    0.0607   -0.0419   -0.0148    0.1803    0.0988
          13   -0.0109    0.0439   -0.0351   -0.0993   -0.0003   -0.1536    0.0283    0.0308
          14    0.0096   -0.0472   -0.0254   -0.1046   -0.0235   -0.0479    0.0281   -0.0400
          15   -0.0986   -0.0582   -0.1437    0.1219   -0.0834   -0.0578    0.4798    0.2277
          16   -0.0047    0.0522   -0.0697   -0.0868   -0.0043   -0.0783    0.0563   -0.0473
          17    0.0069   -0.0490   -0.0031   -0.1099   -0.0199   -0.0911   -0.0001    0.0051
          18   -0.1467   -0.0371   -0.0927    0.0616   -0.0427   -0.0262    0.1565    0.0759
          19   -0.0185    0.0890   -0.1222   -0.0129    0.0107    0.1758    0.1057   -0.2067
          20    0.0165   -0.0525    0.0112   -0.1238   -0.0193   -0.1153   -0.0253    0.0409
          21    0.4411    0.3318    0.3559   -0.2081    0.0634    0.1173   -0.0194    0.0202
          22    0.0205    0.0602   -0.1468   -0.0233   -0.0166    0.1479    0.1151   -0.2481
          23   -0.0076   -0.0173   -0.0642   -0.0681   -0.0063    0.1413    0.0631   -0.1799
          24    0.0853   -0.0743   -0.3251    0.2887   -0.1391   -0.3130   -0.1768   -0.1632
          25   -0.0086    0.0320   -0.0108   -0.0895   -0.0051   -0.2346    0.0315    0.0987
          26    0.0079   -0.0210   -0.0654   -0.0954   -0.0138    0.0915    0.0417   -0.1670
          27    0.0813    0.2480    0.0553    0.0693    0.0361   -0.1900   -0.3546   -0.2195
          28   -0.0064    0.0540   -0.0726   -0.0874   -0.0042   -0.0795    0.0600   -0.0514
          29    0.0102   -0.0671    0.0295   -0.1684   -0.0248   -0.2569   -0.0184    0.1208
          30   -0.3540   -0.0685   -0.1357    0.0875    0.0151   -0.0737   -0.4346   -0.2430
          31    0.0029    0.1060   -0.0364    0.0926    0.0104    0.0309    0.0210    0.0020
          32    0.0264   -0.0132   -0.0196   -0.0046   -0.0148    0.0643    0.0054   -0.0740
          33    0.0616   -0.0074   -0.0108    0.0186   -0.0163   -0.0136    0.1255    0.0617
          34    0.0084    0.1111   -0.0349    0.1024    0.0122    0.0475    0.0152   -0.0061
          35    0.0466    0.0618   -0.0268    0.2471   -0.0001    0.3519    0.0003   -0.1493
          36    0.2512    0.0345    0.1067   -0.0876    0.0310    0.0422   -0.1321   -0.0491
          37    0.0125    0.1753   -0.0470    0.3232    0.0224    0.2769    0.0250   -0.0513
          38    0.0212   -0.0529   -0.0106   -0.1462   -0.0191   -0.0757   -0.0130   -0.0539
          39    0.0709    0.0118    0.0390   -0.0158    0.0191    0.0395   -0.0745   -0.0313
          40   -0.0238    0.0444   -0.0343   -0.0698    0.0102   -0.0612   -0.0056    0.0412
          41   -0.0092    0.0318   -0.0159    0.0909    0.0125    0.0778   -0.0684    0.1260
          42   -0.0452   -0.1158   -0.0588   -0.1180    0.0037    0.1933   -0.1130    0.1175
          43   -0.0241    0.1603   -0.0165   -0.1061    0.0424   -0.1605   -0.1347    0.1929
          44   -0.0002    0.0665   -0.0378    0.1649    0.0176    0.0389   -0.1488    0.3106
          45   -0.0296   -0.1068   -0.0421   -0.1749   -0.0055    0.1654   -0.1049    0.0416
          46   -0.0081   -0.0345    0.0731    0.0785    0.0151   -0.0083   -0.0306    0.0623
          47   -0.0159    0.0705   -0.0450    0.0420    0.0110    0.0316   -0.0682    0.1466
          48   -0.0158   -0.0687    0.0488   -0.0184   -0.0046    0.0464   -0.0298    0.0285
          49   -0.0081   -0.0349    0.0806    0.0852    0.0149   -0.0150   -0.0320    0.0667
          50   -0.0261    0.1717   -0.2065   -0.1862   -0.0017   -0.0560   -0.0074    0.0867
          51    0.0016   -0.0770    0.1513    0.0640   -0.0147   -0.0260    0.0268   -0.0616
          52   -0.0142   -0.0983    0.1156    0.1763    0.0326    0.1010   -0.1633    0.2571
          53   -0.0230    0.0413   -0.1224    0.0312    0.0287    0.2087   -0.2519    0.3914
          54   -0.0109   -0.0645    0.1255    0.0153   -0.0160   -0.0694    0.0877   -0.1226
          55    0.0098   -0.0808    0.2377    0.2804    0.0173   -0.0598   -0.0145    0.0661
          56    0.0067    0.0675    0.1036    0.2035   -0.0015   -0.1090    0.0431    0.0400
          57   -0.0112   -0.0624    0.0903    0.0090   -0.0118   -0.0153    0.0295   -0.0394
          58   -0.1013   -0.1510    0.0877   -0.0929    0.0219    0.0145   -0.0161    0.0109
          59   -0.0212   -0.0197    0.1440    0.1176   -0.0074   -0.0452    0.0254   -0.0103
          60   -0.0054   -0.0669   -0.0249   -0.0956   -0.0222    0.0943   -0.0531    0.0477
          61   -0.1126   -0.1875    0.1289   -0.0936    0.0236    0.0193   -0.0160   -0.0074
          62   -0.0384   -0.1838    0.4000    0.1923   -0.0316   -0.1251    0.1076   -0.1589
          63    0.0759    0.0944   -0.0599   -0.0056   -0.0592   -0.0781    0.0453    0.0343
          64   -0.1773   -0.3274    0.2158   -0.1431    0.0458    0.1144   -0.0574   -0.0292
          65   -0.0083    0.0547    0.1529    0.1594   -0.0243   -0.1620    0.1106   -0.0745
          66   -0.0666   -0.1815    0.0852   -0.1198   -0.0085    0.1291   -0.0485   -0.0125
          67   -0.0670    0.1445    0.0881   -0.0304   -0.3941    0.0286   -0.0552   -0.0063
          68   -0.0585    0.0398    0.0328   -0.0184   -0.0925    0.0217    0.0054    0.0096
          69    0.2338   -0.1885   -0.1147    0.0462    0.3011   -0.0447    0.0065   -0.0130
          70    0.1434   -0.1361   -0.0967    0.0244    0.5443   -0.0228    0.0213   -0.0160
          71    0.0843   -0.0607   -0.0379    0.0205    0.0301   -0.0177    0.0016   -0.0003
          72   -0.1336    0.1282    0.1056   -0.0548   -0.3807    0.0588   -0.0252    0.0120
          73    0.1196   -0.0489   -0.0007   -0.0167   -0.1205    0.0303   -0.0240    0.0028
          74   -0.2375    0.1726    0.0671   -0.0136    0.1179   -0.0013    0.0398   -0.0028
          75   -0.1177    0.0576   -0.0127    0.0430    0.1538   -0.0443    0.0140   -0.0195
          76    0.2018   -0.1071   -0.0343    0.0221   -0.1085   -0.0111   -0.0232   -0.0159
          77    0.1790   -0.0791   -0.0840    0.0614    0.0524   -0.0886   -0.0026   -0.0274
          78   -0.0977    0.1039   -0.0108    0.0159    0.0580   -0.0608   -0.0124   -0.0175
          79    0.1158   -0.0824   -0.0213    0.0094   -0.1842    0.0170   -0.0606   -0.0024
          80    0.0204    0.0080   -0.0219    0.0198    0.0779   -0.0285    0.0183   -0.0079
          81   -0.3939    0.3256    0.1346   -0.0542    0.3507    0.0055    0.1279   -0.0072


   Root No.      25        26        27        28        29        30        31        32

                25 A      26 A      27 A      28 A      29 A      30 A      31 A      32 A   

                   0.6       0.8       0.8       0.8       0.9       0.9       1.0       1.1
  
           1   -0.0555   -0.0419    0.0026   -0.1129   -0.0117    0.0473   -0.0323   -0.0080
           2    0.0747   -0.0009   -0.0269   -0.0647   -0.0436    0.0817   -0.0741   -0.0158
           3   -0.0023    0.0300   -0.0006    0.0008   -0.1023    0.0055   -0.0907    0.4115
           4   -0.0455   -0.0340    0.0028   -0.0851   -0.0127    0.0385   -0.0236    0.0071
           5    0.0971    0.0279   -0.0246    0.1164   -0.0237    0.0088   -0.0663   -0.0584
           6   -0.0506    0.1017   -0.0061   -0.0065   -0.1701   -0.0054   -0.0997    0.3492
           7    0.0710    0.0274   -0.0205    0.0171   -0.0444    0.0154   -0.1083   -0.0196
           8    0.0391    0.0107   -0.0096    0.0559   -0.0025   -0.0212   -0.0383   -0.0519
           9   -0.1760    0.1925   -0.0078   -0.0132   -0.2025   -0.0103   -0.0451    0.0775
          10   -0.1129    0.0011    0.0200    0.0339    0.0056   -0.0247   -0.0627   -0.0827
          11   -0.0340   -0.0222    0.0053    0.0422    0.0154   -0.0133   -0.0227   -0.0926
          12   -0.0016    0.0244    0.0000   -0.0138   -0.0404   -0.0093    0.0058   -0.1101
          13   -0.1495   -0.0008    0.0319    0.0592    0.0107   -0.0316   -0.0535   -0.0871
          14   -0.0171   -0.0622   -0.0058   -0.1667   -0.0019    0.0943    0.0353    0.0157
          15    0.1728   -0.1701    0.0071   -0.0107    0.1651    0.0017    0.0747   -0.2458
          16   -0.1777   -0.0572    0.0346   -0.1003    0.0225   -0.0081    0.0021   -0.0384
          17    0.0031   -0.0196   -0.0082   -0.0687   -0.0163    0.0375   -0.0281   -0.0102
          18    0.0474   -0.0471    0.0044    0.0115    0.0107    0.0088   -0.0204    0.1817
          19    0.0017   -0.0428   -0.0117    0.2164   -0.0429    0.6777    0.1017    0.0296
          20    0.0435   -0.0068   -0.0219   -0.2721   -0.0313   -0.2653   -0.1687   -0.0553
          21    0.0145   -0.0439    0.0012   -0.0038    0.0952    0.0012    0.0827   -0.3238
          22   -0.1546   -0.1557    0.0226   -0.0126    0.0767   -0.4882    0.2354    0.2525
          23    0.0476   -0.0370   -0.0166    0.1789    0.0252   -0.2928    0.0714    0.0574
          24    0.1227   -0.1286    0.0041    0.0043    0.1465    0.0057    0.0662   -0.2107
          25   -0.3037   -0.0194    0.0642   -0.2329    0.1140    0.1177    0.2926    0.0786
          26    0.0645   -0.0154   -0.0175    0.2004   -0.0402   -0.0958   -0.2346   -0.2147
          27    0.0336   -0.0247    0.0052    0.0069    0.0147    0.0099   -0.0045    0.1307
          28   -0.1973   -0.0655    0.0397   -0.1181    0.0262   -0.0068    0.0001   -0.0510
          29   -0.1179    0.0098    0.0587    0.6757    0.0393    0.0326    0.2097    0.1786
          30   -0.0792    0.0685   -0.0050   -0.0066   -0.0349   -0.0041    0.0043   -0.0947
          31   -0.0885    0.0161    0.0245    0.0830    0.0057   -0.0523   -0.0702   -0.0925
          32    0.0310   -0.0610   -0.0183   -0.1932   -0.0166    0.1237    0.0465    0.0553
          33    0.0618   -0.0657    0.0027    0.0023    0.0765   -0.0017    0.0380   -0.1256
          34   -0.0888    0.0200    0.0245    0.0888    0.0032   -0.0580   -0.0745   -0.0916
          35    0.1718   -0.0548   -0.0481   -0.2000   -0.0180    0.1304    0.1172    0.1580
          36   -0.0629    0.0631   -0.0021    0.0115   -0.0600   -0.0075   -0.0339    0.0833
          37    0.0105    0.0373    0.0126    0.1597    0.0214   -0.1176   -0.0466   -0.0762
          38   -0.0367   -0.0668   -0.0122   -0.2465   -0.0374    0.1675    0.0265    0.0616
          39   -0.0375    0.0444   -0.0011    0.0176   -0.0413   -0.0108   -0.0227    0.0630
          40    0.1411    0.0878   -0.0476    0.0045   -0.0524    0.0035   -0.1305    0.0011
          41   -0.0521    0.0302    0.0654   -0.0091    0.0237   -0.0020    0.0628   -0.0078
          42   -0.0806    0.0082    0.0031   -0.0043   -0.0612   -0.0083    0.0913   -0.0714
          43    0.5426   -0.4631   -0.0101    0.0351   -0.1539   -0.0545    0.0335    0.2058
          44   -0.1937   -0.2094   -0.3892    0.0307   -0.3859   -0.0345    0.1597   -0.1166
          45    0.1816   -0.0110    0.3613   -0.0176    0.1778   -0.0052    0.1173    0.0527
          46    0.1037    0.1287   -0.0625   -0.0004    0.0110   -0.0056   -0.0466   -0.0108
          47   -0.0280    0.0266    0.0796   -0.0086    0.0185   -0.0005    0.0361   -0.0005
          48   -0.0486   -0.0538   -0.0830    0.0066    0.0003   -0.0004    0.0420   -0.0568
          49    0.1264    0.1625   -0.0843   -0.0021    0.0358   -0.0070   -0.0558   -0.0009
          50    0.2317    0.5808   -0.1749   -0.0648    0.2633   -0.0323    0.2234    0.0197
          51   -0.0699   -0.1008   -0.1280    0.0201    0.3805    0.0509   -0.2749    0.1468
          52    0.0008    0.0575   -0.2204   -0.0043    0.4266    0.0153   -0.0352    0.1297
          53   -0.1976   -0.1409    0.1512    0.0044    0.1945    0.0446   -0.1821   -0.0042
          54    0.0498    0.0710   -0.1713   -0.0083   -0.0035   -0.0278    0.2293   -0.0180
          55    0.1218    0.2397    0.2217   -0.0398   -0.2429   -0.0602    0.3457   -0.0869
          56   -0.0076    0.0862    0.6340   -0.0294   -0.1011    0.0156   -0.1282    0.0126
          57   -0.0405   -0.0582    0.1099    0.0106    0.0275    0.0258   -0.1827   -0.0288
          58    0.0931    0.0868   -0.0303    0.0010   -0.0918    0.0015   -0.1654   -0.0009
          59   -0.0240    0.0015    0.0379   -0.0045    0.0559    0.0001    0.0179    0.0389
          60    0.0005    0.0062    0.0457   -0.0041   -0.0677   -0.0077    0.0714   -0.0642
          61    0.0921    0.0538   -0.0367    0.0033   -0.0765    0.0014   -0.1391   -0.0048
          62   -0.0876   -0.1112   -0.1136    0.0129    0.0780    0.0050    0.0736    0.0201
          63   -0.0010    0.1791   -0.1353   -0.0019   -0.2526    0.0014   -0.2082   -0.0646
          64    0.0781   -0.0614    0.0228    0.0018   -0.0254   -0.0068    0.0335   -0.0488
          65   -0.0461    0.0439   -0.1355    0.0074   -0.0133    0.0085   -0.1313    0.0528
          66   -0.0324   -0.0950    0.0083    0.0003   -0.0514   -0.0129    0.1800   -0.1047
          67    0.0036    0.0034   -0.0005    0.0029   -0.0018    0.0018    0.0000   -0.0044
          68   -0.0029   -0.0030    0.0011   -0.0028    0.0029   -0.0024    0.0050   -0.0074
          69    0.0085    0.0017   -0.0026    0.0042   -0.0010    0.0048   -0.0053    0.0003
          70   -0.0096    0.0043   -0.0002   -0.0024   -0.0026   -0.0016    0.0001    0.0027
          71    0.0095   -0.0037   -0.0004    0.0020    0.0046    0.0023    0.0023   -0.0140
          72   -0.0100    0.0025    0.0016   -0.0025   -0.0037   -0.0032    0.0018    0.0095
          73   -0.0171    0.0037    0.0065   -0.0126   -0.0072   -0.0145    0.0105    0.0358
          74   -0.0058    0.0007   -0.0053    0.0022    0.0050    0.0053   -0.0033   -0.0254
          75    0.0081    0.0092   -0.0032    0.0112    0.0078    0.0117   -0.0036   -0.0228
          76    0.0036    0.0053   -0.0092    0.0047    0.0008    0.0062   -0.0120   -0.0131
          77    0.0408   -0.0043   -0.0057    0.0112    0.0082    0.0125   -0.0146   -0.0219
          78    0.0455   -0.0063    0.0025    0.0169    0.0089    0.0162   -0.0106   -0.0304
          79    0.0106    0.0063    0.0026    0.0122    0.0061    0.0112    0.0011   -0.0250
          80   -0.0034    0.0007    0.0011   -0.0093   -0.0025   -0.0104    0.0050    0.0260
          81   -0.0538    0.0027   -0.0110   -0.0319   -0.0190   -0.0290   -0.0026    0.0661


   Root No.      33        34        35        36        37        38        39        40

                33 A      34 A      35 A      36 A      37 A      38 A      39 A      40 A   

                   1.1       1.2       1.4       1.6       1.6       1.7       1.7       1.9
  
           1   -0.0085   -0.1500   -0.0019   -0.0507    0.0608    0.1450   -0.1678   -0.0540
           2    0.0127    0.0865   -0.0186   -0.0746    0.0293    0.3333   -0.0780   -0.0681
           3   -0.2241    0.0037   -0.2098   -0.0325   -0.0257   -0.0123   -0.0003   -0.0139
           4    0.0176   -0.1600   -0.0013   -0.0541    0.0595    0.1413   -0.1528   -0.0303
           5   -0.0602    0.2649   -0.0164   -0.0047   -0.0130   -0.0294   -0.0269   -0.0302
           6   -0.1476    0.0254    0.1106    0.0788    0.0858    0.0072    0.0179   -0.1108
           7    0.0323    0.0164   -0.0168   -0.0325    0.0216    0.0899   -0.0351   -0.0213
           8   -0.0820    0.1152   -0.0028   -0.0040    0.0211   -0.0599   -0.0968   -0.0155
           9    0.0175    0.0274    0.3562    0.0962    0.0990    0.0063    0.0136   -0.0273
          10   -0.1132    0.0371   -0.0044    0.0156   -0.0204   -0.0558    0.0103   -0.0329
          11   -0.1548    0.0942    0.0061    0.0295   -0.0100   -0.1843   -0.0911   -0.0512
          12    0.0812    0.0106    0.3974    0.1536    0.1462    0.0273    0.0743   -0.1473
          13   -0.1302    0.0108    0.0076    0.0157   -0.0242   -0.0239    0.0438   -0.0042
          14    0.0229   -0.0627    0.0051    0.0160   -0.0151   -0.0348    0.0295   -0.0015
          15    0.0896   -0.0252   -0.0764   -0.0342   -0.0384    0.0047    0.0095    0.0415
          16   -0.1013   -0.2107    0.0158    0.0346    0.0074   -0.2129   -0.0790   -0.0229
          17   -0.0064    0.0286   -0.0086   -0.0160   -0.0082    0.1158    0.0183   -0.0246
          18   -0.1260   -0.0205   -0.3194   -0.1126   -0.1146   -0.0224   -0.0159    0.1359
          19    0.0319    0.0862    0.0025   -0.0304   -0.0067    0.2730    0.0184   -0.0605
          20   -0.0050   -0.0458   -0.0228   -0.1301    0.0965    0.4544   -0.2734   -0.1264
          21    0.1690   -0.0040    0.1314    0.0192    0.0114   -0.0023    0.0051    0.0120
          22    0.3168   -0.0951   -0.0102    0.0034   -0.0196    0.1457    0.1349    0.0245
          23    0.0887    0.4084   -0.0286    0.0345   -0.0820   -0.0811    0.1577   -0.0053
          24    0.0906   -0.0280   -0.0660   -0.0368   -0.0334    0.0132   -0.0031    0.0452
          25    0.0526    0.5637   -0.0214   -0.0157    0.0198   -0.1803   -0.1916   -0.0523
          26   -0.3118   -0.1666    0.0025    0.0555   -0.0507   -0.2174   -0.0228   -0.0739
          27   -0.0732    0.0017   -0.2347   -0.0782   -0.0677   -0.0073   -0.0304    0.0616
          28   -0.1295   -0.2734    0.0218    0.0481    0.0104   -0.3084   -0.1168   -0.0362
          29    0.2472   -0.2866    0.0233   -0.0230    0.0658    0.0084   -0.1274   -0.0083
          30    0.0747    0.0156    0.2174    0.0741    0.0710    0.0116    0.0163   -0.0751
          31   -0.1426    0.0387    0.0142    0.0194   -0.0683    0.1389    0.2861    0.1299
          32    0.0670   -0.1051    0.0125    0.0421   -0.0477   -0.0259    0.2041    0.0851
          33    0.0523   -0.0119   -0.0483   -0.0261   -0.0220   -0.0039   -0.0235    0.0181
          34   -0.1505    0.0390    0.0160    0.0203   -0.0662    0.1386    0.2822    0.1292
          35    0.2216   -0.1532   -0.0068    0.0221    0.0472   -0.2958   -0.2119   -0.1012
          36   -0.0431    0.0168    0.0287    0.0128    0.0134    0.0115    0.0078   -0.0127
          37   -0.0945    0.0858   -0.0121   -0.0379    0.0334    0.0664   -0.1532   -0.0534
          38    0.0287   -0.1396    0.0364    0.0855   -0.1133    0.0084    0.4978    0.2054
          39   -0.0312    0.0157    0.0177    0.0060    0.0161   -0.0018   -0.0253   -0.0222
          40    0.1150    0.0210   -0.0258   -0.0430    0.0216   -0.0073   -0.0097    0.0142
          41   -0.0656   -0.0091    0.0656   -0.1206    0.0200    0.0116   -0.0887    0.2241
          42   -0.0186   -0.0135   -0.0218   -0.0462    0.0080    0.0075   -0.0430    0.1546
          43   -0.1013    0.0691    0.2400    0.1411    0.0528   -0.0689    0.0552   -0.1496
          44   -0.0184    0.0155   -0.0438    0.1326   -0.0837    0.0071   -0.1111    0.2243
          45   -0.1589    0.0034    0.1794   -0.2040    0.0719   -0.0404   -0.0544    0.2943
          46    0.0600    0.0189   -0.1053    0.1254    0.2869   -0.0354   -0.0232    0.2303
          47   -0.0434   -0.0114    0.0705   -0.1619   -0.0791    0.0177   -0.0475    0.0941
          48   -0.0104   -0.0134   -0.1113   -0.2253    0.2180   -0.0509    0.1620   -0.1693
          49    0.0739    0.0186   -0.1213    0.1959    0.3729   -0.0472   -0.0400    0.3552
          50   -0.0540   -0.0656   -0.1015    0.2090    0.0194   -0.0030    0.0753   -0.1165
          51    0.0462    0.0299    0.1669    0.1850   -0.2096    0.0439   -0.1316    0.1015
          52   -0.0506   -0.0651    0.1168    0.0822   -0.3023    0.0453    0.0102   -0.1750
          53    0.0951   -0.0110   -0.1670   -0.2016    0.1372   -0.0468    0.2108   -0.3101
          54   -0.1656   -0.0382    0.1483   -0.3492   -0.1093    0.0157    0.0010   -0.0188
          55   -0.0986   -0.0933   -0.0413   -0.1311   -0.0691    0.0003    0.1396   -0.2609
          56    0.1259    0.0135    0.0043    0.2888   -0.2378    0.0480   -0.0962    0.0265
          57    0.1393    0.0315   -0.2125    0.0781    0.3818   -0.0737    0.1564   -0.1082
          58    0.2057    0.0254    0.0338   -0.2189   -0.1317   -0.1309    0.0084    0.0699
          59   -0.0620   -0.0019    0.1098   -0.1194    0.0435   -0.0020   -0.0478    0.1958
          60   -0.0016   -0.0127   -0.0874    0.1028   -0.0921    0.0519   -0.0707    0.0637
          61    0.1756    0.0236    0.0118   -0.1815   -0.1089   -0.1187    0.0157    0.0421
          62   -0.1421   -0.0019   -0.0197    0.0975    0.1897    0.0594    0.0521   -0.0937
          63    0.3285    0.0139   -0.1024   -0.0518   -0.3083   -0.1142   -0.0115   -0.0635
          64    0.0336   -0.0063   -0.1383    0.0897   -0.1417   -0.0045   -0.0335   -0.0403
          65    0.0745    0.0220    0.0913   -0.1670    0.0711   -0.0796    0.0688   -0.0176
          66   -0.0831   -0.0343   -0.2611    0.3778   -0.1005    0.1379   -0.0578   -0.1425
          67    0.0012    0.0036    0.0067    0.0022    0.0010   -0.0003   -0.0007    0.0001
          68    0.0064   -0.0044    0.0051    0.0010    0.0020    0.0017    0.0004    0.0000
          69   -0.0063    0.0097   -0.0024   -0.0002   -0.0014   -0.0047    0.0008   -0.0035
          70    0.0022   -0.0027    0.0056    0.0020    0.0024   -0.0002   -0.0004   -0.0031
          71    0.0034    0.0049    0.0032    0.0005   -0.0005   -0.0036    0.0012   -0.0038
          72   -0.0016   -0.0057    0.0020   -0.0001    0.0027    0.0036   -0.0006    0.0019
          73    0.0098   -0.0478    0.0175   -0.0049    0.0235    0.0644   -0.0132    0.0768
          74   -0.0006    0.0259   -0.0087    0.0063   -0.0151   -0.0490    0.0093   -0.0597
          75   -0.0095    0.0216   -0.0065   -0.0020   -0.0022   -0.0029   -0.0034    0.0195
          76    0.0022    0.0236   -0.0100    0.0081   -0.0145   -0.0499    0.0145   -0.0874
          77   -0.0006    0.0271   -0.0040    0.0045   -0.0076   -0.0188    0.0053   -0.0198
          78   -0.0152    0.0467   -0.0051    0.0055   -0.0154   -0.0473    0.0075   -0.0454
          79   -0.0095    0.0229   -0.0002   -0.0032   -0.0005   -0.0041   -0.0023    0.0123
          80    0.0131   -0.0420    0.0135   -0.0026    0.0211    0.0655   -0.0112    0.0720
          81    0.0271   -0.0662    0.0093    0.0094    0.0151    0.0419   -0.0007    0.0109


   Root No.      41        42        43        44        45        46        47        48

                41 A      42 A      43 A      44 A      45 A      46 A      47 A      48 A   

                   1.9       2.4       2.7       2.8       3.1       3.6       3.7       3.9
  
           1   -0.0523   -0.0040   -0.0173   -0.0003   -0.0089    0.1236    0.2742   -0.0455
           2   -0.0173   -0.0060    0.0515    0.0360    0.0385   -0.0804   -0.1681    0.0207
           3   -0.0249   -0.1091   -0.1519   -0.1796    0.4643    0.1421   -0.0742   -0.1248
           4   -0.0481   -0.0079    0.0066   -0.0709   -0.0414    0.1447    0.2949   -0.0426
           5    0.0306    0.0012   -0.1657    0.1449   -0.0260    0.1215    0.1636   -0.0163
           6    0.0567    0.4922   -0.0339   -0.0253   -0.0884   -0.1166    0.0640    0.1404
           7   -0.0206    0.0135   -0.1638    0.0291   -0.1135    0.3189   -0.0372   -0.0088
           8    0.0287   -0.0062   -0.0360   -0.0118   -0.0048    0.0021    0.3405   -0.0338
           9   -0.0216   -0.0065    0.1991    0.1992   -0.3934    0.0107   -0.0237   -0.1006
          10    0.0319    0.0156    0.0492   -0.0751   -0.0662    0.1828   -0.3368    0.0135
          11    0.0755   -0.0293    0.1344   -0.1550    0.0182   -0.0973    0.1689   -0.0065
          12   -0.0314   -0.4565   -0.1971   -0.1668    0.2277    0.0076   -0.0208    0.0306
          13    0.0130    0.0048    0.0146   -0.0120   -0.0362    0.1317   -0.2707    0.0116
          14    0.0005    0.0129    0.0107    0.0654    0.0618   -0.2418   -0.1065    0.0424
          15    0.0317    0.2741    0.0099   -0.0029    0.0174   -0.0206    0.0520    0.0651
          16   -0.0206    0.0013   -0.1021    0.1674    0.0408   -0.0471   -0.0094    0.0046
          17    0.0021   -0.0019    0.0380    0.0590    0.0428   -0.1790   -0.3229    0.0524
          18   -0.0503   -0.4086    0.1641    0.1801   -0.4016   -0.0700    0.0298    0.0418
          19   -0.0064   -0.0004    0.0831    0.0634    0.0626   -0.1182   -0.1796    0.0174
          20   -0.0689   -0.0138    0.0468    0.0766    0.0394    0.0110    0.0426   -0.0225
          21    0.0123    0.0564    0.0576    0.0638   -0.1509   -0.0390    0.0202    0.0311
          22   -0.0455    0.0044    0.1919   -0.1882    0.0012   -0.1119   -0.1491    0.0158
          23   -0.0134    0.0085   -0.2614    0.3500    0.0336    0.1016   -0.1043    0.0000
          24    0.0563   -0.2304    0.0014    0.0036    0.0131    0.0257   -0.0142   -0.0302
          25    0.0875   -0.0234    0.1504   -0.2308   -0.0285    0.0036    0.1306   -0.0073
          26    0.1062   -0.0053    0.3072   -0.3621   -0.0610    0.0134   -0.1360    0.0121
          27    0.0118    0.1706    0.0602    0.0670   -0.0867   -0.0094    0.0130    0.0008
          28   -0.0354    0.0043   -0.2396    0.4178    0.1121   -0.1897   -0.0346    0.0200
          29   -0.0368    0.0031   -0.0249   -0.0166   -0.0022    0.0405    0.1566   -0.0199
          30    0.0244    0.1539   -0.0669   -0.0708    0.1309    0.0155   -0.0037   -0.0047
          31   -0.0164    0.0213   -0.0018   -0.0271   -0.0013    0.0650    0.1264   -0.0268
          32   -0.0154    0.0265   -0.0134    0.0020    0.0299   -0.1265    0.0924   -0.0032
          33    0.0326    0.3568    0.0154   -0.0020    0.1053    0.1304   -0.0815   -0.1850
          34   -0.0178    0.0075   -0.0035   -0.0246   -0.0013    0.0578    0.1482   -0.0227
          35    0.0185   -0.0147   -0.0169   -0.0736   -0.1138    0.3329   -0.1540   -0.0179
          36   -0.0163   -0.1610   -0.0081    0.0027   -0.0299   -0.0615    0.0297    0.0630
          37    0.0086   -0.0084    0.0227    0.0774    0.0916   -0.3128    0.0420    0.0324
          38   -0.0341    0.0034   -0.0294   -0.0742   -0.0462    0.1064    0.1786   -0.0227
          39   -0.0117   -0.1409   -0.0030    0.0044   -0.0351   -0.0389    0.0101    0.0568
          40   -0.0062    0.0083   -0.1403   -0.0313   -0.1152    0.2064   -0.0543    0.0057
          41   -0.0438    0.0159   -0.0982   -0.0859    0.0061   -0.0691    0.0701    0.0639
          42   -0.0255    0.0041    0.1386    0.1027    0.0606    0.1676   -0.0705   -0.0382
          43    0.0414   -0.0140    0.0661    0.0187   -0.0847   -0.1008    0.0572    0.0293
          44   -0.0379    0.0001    0.1735    0.0974    0.1946    0.0640   -0.0158   -0.0723
          45   -0.0592    0.0046    0.1684    0.0790    0.2158   -0.0188   -0.0082   -0.2622
          46   -0.0328    0.0074   -0.0780   -0.0749   -0.0473   -0.0598   -0.0298   -0.0363
          47   -0.0246    0.0218   -0.2546   -0.1620   -0.1578   -0.0724   -0.0767   -0.0851
          48    0.0274   -0.0050   -0.0098   -0.0053    0.0061   -0.0067    0.0151    0.0139
          49   -0.0523    0.0122   -0.1327   -0.1426   -0.0954   -0.2140   -0.1142   -0.1087
          50    0.0213   -0.0122    0.1428    0.0753    0.0737   -0.0061    0.0190    0.0171
          51   -0.0173    0.0003    0.0103    0.0106    0.0065    0.0185    0.0007    0.0015
          52    0.0267   -0.0101    0.1014    0.0791    0.0600    0.0465    0.0273    0.0288
          53    0.0479    0.0006   -0.1398   -0.0863   -0.1179   -0.0728   -0.0513   -0.0574
          54   -0.0064    0.0167   -0.2747   -0.1667   -0.1820   -0.0950   -0.0837   -0.0828
          55    0.0406   -0.0129    0.1063    0.0822    0.0611    0.0498    0.0321    0.0599
          56   -0.0059   -0.0005    0.0152    0.0153   -0.0344    0.0131   -0.0564   -0.1184
          57    0.0285   -0.0199    0.2097    0.1211    0.1541    0.0566    0.1014    0.1956
          58    0.0136   -0.0071    0.0963    0.0249    0.1024    0.0005    0.0049    0.0406
          59   -0.0374    0.0143   -0.0254   -0.0441    0.0405    0.0701   -0.0157    0.7098
          60   -0.0212    0.0080   -0.0579   -0.0155    0.0041    0.1725   -0.0536    0.3200
          61    0.0166   -0.0084    0.1035    0.0372    0.0982    0.0137   -0.0001   -0.0502
          62   -0.0062   -0.0018    0.0318    0.0688   -0.0546    0.0761   -0.0282   -0.2355
          63    0.0460   -0.0064   -0.0414   -0.0996    0.0529   -0.2382    0.0879   -0.0488
          64    0.0220   -0.0022   -0.1036   -0.1159    0.0146   -0.1954    0.0780    0.0619
          65    0.0092   -0.0070    0.1252    0.0771    0.0368   -0.0084    0.0024   -0.2047
          66    0.0101    0.0029   -0.1874   -0.0987   -0.0997   -0.0360    0.0116   -0.0758
          67    0.0099   -0.0014   -0.0036    0.0028    0.0004    0.0030    0.0002    0.0010
          68    0.0022   -0.0013    0.0001   -0.0013    0.0012   -0.0000    0.0001   -0.0000
          69   -0.0152    0.0002   -0.0036    0.0027    0.0005    0.0016    0.0000   -0.0011
          70   -0.0136    0.0022    0.0021   -0.0043    0.0008    0.0002   -0.0003   -0.0001
          71   -0.0216   -0.0003    0.0009   -0.0023    0.0013   -0.0009    0.0001   -0.0001
          72    0.0123    0.0014    0.0010   -0.0020    0.0004   -0.0004   -0.0001    0.0008
          73    0.4567   -0.0348   -0.0296    0.0369    0.0095    0.0106   -0.0004   -0.0106
          74   -0.3852    0.0310    0.0350   -0.0357    0.0025   -0.0076   -0.0019   -0.0027
          75    0.0567   -0.0141   -0.0171    0.0277    0.0125    0.0120   -0.0007   -0.0103
          76   -0.4456    0.0461    0.0459   -0.0679   -0.0180   -0.0226   -0.0010    0.0173
          77   -0.0704   -0.0035   -0.0137    0.0139    0.0011    0.0087    0.0016   -0.0062
          78   -0.2926    0.0188    0.0159   -0.0157    0.0014   -0.0031   -0.0004    0.0002
          79    0.0450   -0.0138   -0.0244    0.0290    0.0027    0.0135    0.0016   -0.0002
          80    0.4760   -0.0357   -0.0337    0.0290   -0.0032    0.0010    0.0013    0.0068
          81    0.1869   -0.0023    0.0014   -0.0136   -0.0060   -0.0068   -0.0003    0.0027


   Root No.      49        50        51        52        53        54        55        56

                49 A      50 A      51 A      52 A      53 A      54 A      55 A      56 A   

                   4.0       4.5       4.8       5.5       6.5       6.9       6.9       7.6
  
           1   -0.0026   -0.0045    0.0073   -0.0382    0.1937   -0.1124    0.1637    0.0898
           2   -0.0001    0.0066    0.0189   -0.0658   -0.1763   -0.0655   -0.0812   -0.1203
           3    0.1961    0.3131   -0.0787   -0.0214    0.0006    0.0064   -0.0016   -0.0010
           4    0.0087    0.0148    0.0866   -0.1138    0.1131   -0.1192    0.1092    0.0272
           5    0.0024    0.0081    0.0655   -0.0833   -0.2160   -0.0969   -0.0258   -0.1555
           6   -0.3070   -0.3524    0.1203    0.0601   -0.0020   -0.0066    0.0087   -0.0031
           7   -0.0688    0.0031    0.1776   -0.2481    0.0328    0.0875   -0.0185   -0.2190
           8    0.0531    0.0342    0.0827   -0.0416   -0.2638   -0.1862   -0.0347   -0.0171
           9    0.3563    0.3615   -0.1930   -0.1276    0.0372    0.0138   -0.0292    0.0167
          10   -0.0884   -0.0351   -0.0468   -0.1762    0.0523   -0.1119    0.1147    0.0889
          11    0.0450    0.0137    0.0253    0.0578   -0.1902   -0.2048    0.0067    0.1160
          12   -0.0460   -0.3010    0.1046    0.0431   -0.0027    0.0054    0.0090   -0.0113
          13   -0.0668   -0.0525   -0.0973   -0.1423   -0.0380   -0.1769    0.1015    0.1443
          14    0.0397    0.0819    0.2324   -0.1476    0.0257   -0.0976    0.0534    0.0931
          15   -0.3134    0.3957   -0.0944   -0.0081    0.0007    0.0047   -0.0011   -0.0032
          16    0.0023    0.0027    0.0113   -0.0518    0.1152   -0.1349    0.1570    0.2404
          17    0.0009    0.0184    0.1252   -0.1798   -0.1737   -0.1467   -0.0279    0.0173
          18    0.0237   -0.3126    0.0724    0.0149    0.0050    0.0002    0.0048    0.0008
          19   -0.0119   -0.0358   -0.1597    0.1625    0.0308    0.0995   -0.0307    0.0331
          20   -0.0216   -0.0665   -0.2829    0.2877    0.1179    0.1652   -0.0128    0.0535
          21   -0.0485   -0.0594    0.0172   -0.0019   -0.0013   -0.0031    0.0004   -0.0004
          22    0.0052    0.0138    0.0585   -0.0255   -0.1772   -0.0233   -0.1227   -0.0937
          23   -0.0441   -0.0419   -0.1438    0.0678    0.3346    0.1009    0.1570    0.1378
          24    0.0826    0.0766   -0.0238   -0.0123   -0.0209    0.0162    0.0208    0.0001
          25    0.0186    0.0052   -0.0016    0.1019    0.0890    0.1713   -0.0606   -0.0916
          26   -0.0143    0.0003   -0.0186    0.1213    0.2363    0.2975   -0.0628   -0.1250
          27   -0.0061    0.0664   -0.0220   -0.0117   -0.0030   -0.0061   -0.0009    0.0033
          28    0.0287   -0.0042   -0.1093    0.2053   -0.2090    0.2086   -0.2368   -0.2687
          29    0.0042    0.0042   -0.0125    0.0368    0.0408    0.0219    0.0064   -0.0046
          30   -0.0258    0.0691   -0.0146   -0.0014   -0.0003    0.0002    0.0001    0.0003
          31    0.0089   -0.0429   -0.1376    0.0930   -0.1406   -0.0450   -0.0549   -0.0017
          32    0.0952    0.0465    0.2408   -0.0664    0.2680    0.1404    0.0690   -0.0346
          33    0.6096   -0.3765    0.0512    0.0100   -0.0102   -0.0041   -0.0047    0.0015
          34   -0.0108   -0.0340   -0.1649    0.1152   -0.1825   -0.0636   -0.0713    0.0053
          35   -0.1147   -0.0796   -0.2457    0.0297   -0.1254   -0.0783   -0.0186    0.0265
          36   -0.1933    0.1183   -0.0008   -0.0065    0.0107    0.0051    0.0035   -0.0016
          37    0.0863    0.0917    0.2896   -0.0853    0.1997    0.0880    0.0583   -0.0136
          38   -0.0197    0.0049   -0.0254    0.0533    0.0928    0.0835    0.0077   -0.0329
          39   -0.1811    0.0997   -0.0228   -0.0029   -0.0115   -0.0091   -0.0011    0.0030
          40   -0.0305    0.0535    0.2558   -0.1048   -0.0080    0.2370   -0.1636   -0.2086
          41    0.0133   -0.0576   -0.1175   -0.2505   -0.1105    0.2116   -0.1663    0.3389
          42   -0.0257    0.0893    0.2061    0.2083   -0.1004    0.0276    0.1160   -0.2264
          43    0.1152    0.0693   -0.0500    0.0645   -0.0403   -0.0230    0.0060    0.0567
          44   -0.1261   -0.0846   -0.0043   -0.0563    0.0671   -0.0557    0.0370   -0.1024
          45   -0.2013   -0.1469   -0.0904   -0.1862    0.0820   -0.0203    0.0312   -0.1102
          46    0.0030    0.0047    0.0116   -0.0420   -0.0468    0.1341   -0.1072    0.0255
          47    0.0039    0.0128    0.0084   -0.0744   -0.0599    0.2558   -0.1774    0.2713
          48   -0.0021   -0.0077    0.0005    0.0081   -0.0096   -0.0118    0.0165   -0.0283
          49    0.0294    0.0264   -0.0757    0.2388    0.0734   -0.2144    0.1654   -0.0303
          50    0.0009   -0.0080   -0.0241    0.0197    0.0059   -0.0347    0.0242   -0.0083
          51   -0.0042    0.0014    0.0097   -0.0099   -0.0040    0.0124   -0.0083    0.0001
          52   -0.0112   -0.0102    0.0040   -0.0341   -0.0047    0.0260   -0.0143    0.0196
          53    0.0238    0.0301    0.0059    0.1349    0.0587   -0.1511    0.0884   -0.1178
          54    0.0278    0.0427    0.0152    0.1444    0.0492   -0.1369    0.0830   -0.1082
          55    0.0008   -0.0095   -0.0058   -0.0449   -0.0016    0.0298   -0.0188    0.0263
          56   -0.0194    0.0403    0.0731    0.1430    0.0143   -0.0952    0.0797   -0.1173
          57    0.0165   -0.0535   -0.0812   -0.1917   -0.0192    0.1264   -0.0979    0.1388
          58   -0.0102    0.0096    0.0764    0.1514   -0.0254   -0.0346   -0.0231    0.1475
          59    0.2027    0.0079   -0.1272   -0.0160    0.0796   -0.0976    0.1019   -0.2259
          60    0.0603    0.0713    0.2350    0.2790   -0.0255   -0.0351   -0.0940    0.2781
          61   -0.0415    0.0197    0.1455    0.2184   -0.0549   -0.0268   -0.0538    0.2562
          62   -0.0651    0.0288    0.1066    0.0222   -0.0208    0.0367   -0.0319    0.0281
          63    0.0034   -0.0808   -0.2252   -0.1470    0.0164   -0.0152    0.0420   -0.0627
          64    0.0307   -0.0901   -0.2746   -0.2454    0.0475   -0.0106    0.0792   -0.2327
          65   -0.0577   -0.0005    0.0187    0.0072   -0.0137    0.0020    0.0156   -0.0224
          66   -0.0112   -0.0058    0.0113   -0.0397   -0.0169    0.0497   -0.0674    0.1119
          67    0.0003   -0.0002   -0.0014    0.0008    0.0045   -0.0026   -0.0043    0.0007
          68   -0.0009    0.0000   -0.0005    0.0006    0.0104   -0.0081   -0.0147    0.0017
          69   -0.0003   -0.0007   -0.0011    0.0007    0.0095   -0.0060   -0.0106    0.0012
          70   -0.0004    0.0002    0.0005   -0.0004   -0.0047    0.0026    0.0046   -0.0008
          71   -0.0007   -0.0000    0.0008   -0.0010   -0.0093    0.0056    0.0107   -0.0023
          72   -0.0004   -0.0006    0.0016   -0.0002   -0.0053    0.0025    0.0046   -0.0015
          73   -0.0087   -0.0065   -0.0047   -0.0040    0.1631   -0.1948   -0.3276   -0.0397
          74   -0.0063   -0.0041    0.0056   -0.0043    0.0640   -0.0896   -0.1513   -0.0213
          75   -0.0095   -0.0066   -0.0062   -0.0018    0.0991   -0.0985   -0.1623   -0.0138
          76    0.0104    0.0080    0.0181   -0.0008   -0.2017    0.1757    0.2877    0.0072
          77   -0.0019   -0.0027   -0.0140    0.0011    0.2003   -0.1892   -0.3164   -0.0119
          78   -0.0016   -0.0009    0.0030   -0.0006   -0.0451    0.0455    0.0771    0.0037
          79    0.0033    0.0029   -0.0135    0.0058    0.0200    0.0337    0.0610    0.0316
          80    0.0075    0.0067    0.0067    0.0039   -0.2569    0.2762    0.4641    0.0355
          81    0.0011    0.0003    0.0061    0.0023   -0.0323    0.0369    0.0616    0.0122


   Root No.      57        58        59        60        61        62        63        64

                57 A      58 A      59 A      60 A      61 A      62 A      63 A      64 A   

                   7.7       8.5       8.6       8.9       9.0       9.4       9.6      10.1
  
           1    0.0328    0.2165    0.0040   -0.1021    0.0627   -0.0554   -0.0304   -0.1337
           2   -0.0647    0.3669    0.0045   -0.0879    0.0363   -0.0244    0.0260   -0.2157
           3   -0.0011   -0.0080   -0.0008    0.0023   -0.0020   -0.0001   -0.0000    0.0053
           4   -0.0032    0.2596    0.0038   -0.0769    0.0409   -0.0301    0.0028   -0.1207
           5   -0.0679   -0.1321   -0.0023    0.1338   -0.1716    0.0388    0.0699   -0.0411
           6    0.0359    0.0064   -0.0004   -0.0084   -0.0021    0.0019    0.0041   -0.0025
           7   -0.1015    0.0499    0.0006    0.1162   -0.1374    0.0292    0.1211    0.0004
           8   -0.0039   -0.1338   -0.0031    0.0202   -0.0240    0.0351   -0.0234    0.0135
           9   -0.1151   -0.0089   -0.0010    0.0230    0.0255    0.0009   -0.0297    0.0055
          10    0.0389   -0.1841   -0.0023    0.1030   -0.0950    0.0431    0.1166   -0.1846
          11    0.0576   -0.2512   -0.0048   -0.0014    0.0028    0.0469   -0.0887   -0.0350
          12    0.0313    0.0072   -0.0000   -0.0042   -0.0052   -0.0019    0.0080   -0.0006
          13    0.0559   -0.1423   -0.0015    0.0804   -0.0679    0.0313    0.1091   -0.1499
          14    0.0340    0.0930    0.0011   -0.1097    0.1178   -0.0488   -0.1593    0.2961
          15    0.0017   -0.0062   -0.0003    0.0057   -0.0073    0.0019    0.0097   -0.0135
          16    0.1042   -0.1414   -0.0006   -0.0483    0.0819   -0.0435   -0.1323    0.3109
          17    0.0021    0.1859    0.0019   -0.0872    0.0806   -0.0237   -0.0439    0.0497
          18    0.0037   -0.0032   -0.0003    0.0008   -0.0013   -0.0000    0.0011   -0.0017
          19    0.0224   -0.1793   -0.0020    0.0425   -0.0134    0.0168   -0.0078    0.0859
          20    0.0360   -0.3195   -0.0042    0.0874   -0.0443    0.0308   -0.0010    0.1201
          21   -0.0010    0.0048   -0.0007   -0.0013    0.0009    0.0002   -0.0001   -0.0018
          22   -0.0380   -0.0872   -0.0026    0.0512   -0.0533    0.0681    0.0177    0.0078
          23    0.0574    0.1732    0.0044   -0.0938    0.1008   -0.0916   -0.0284   -0.0105
[...]
 TRAVEL (Ang.)       0.3086         C  3 -- C 14         +10.5% ( 54.2%)     83.3%
 REDUCED MASS        0.7177         C  3 -- C  4          +7.5% ( 45.7%)     12.4%
 EFFECTIVE MASS      8.6555
 FORCE CONSTANT      0.4114

 VIBRATION         42   42A           ATOM PAIR      ENERGY CONTRIBUTION    RADIAL
 FREQUENCY           993.53         C  1 -- H  7         +34.8% ( 63.6%)      0.0%
 TRANSITION DIPOLE   0.7196         C  2 -- H  8         +19.1% ( 47.1%)      0.0%
 TRAVEL (Ang.)       0.2721         C  1 -- C  2         +12.6% ( 38.3%)      0.0%
 REDUCED MASS        0.9169         C  6 -- H 10         +12.0% ( 37.3%)      0.0%
 EFFECTIVE MASS      4.7051         C  1 -- C  6         +10.1% ( 34.3%)      0.0%
 FORCE CONSTANT      0.5333

 VIBRATION         43   43A           ATOM PAIR      ENERGY CONTRIBUTION    RADIAL
 FREQUENCY          1029.13         C  5 -- C  6         +13.7% ( 65.0%)     14.4%
 TRANSITION DIPOLE   0.6901         C  4 -- C  5         +12.8% ( 62.8%)     11.1%
 TRAVEL (Ang.)       0.1734         C  3 -- C  4         +12.7% ( 62.4%)      5.5%
 REDUCED MASS        2.1787         C  1 -- C  6         +11.5% ( 59.5%)      3.5%
 EFFECTIVE MASS     13.3500
 FORCE CONSTANT      1.3595

 VIBRATION         44   44A           ATOM PAIR      ENERGY CONTRIBUTION    RADIAL
 FREQUENCY          1087.20         C 16 -- H 18         +25.5% ( 68.4%)     21.7%
 TRANSITION DIPOLE   0.5961         C 16 -- H 19         +18.2% ( 57.8%)      8.5%
 TRAVEL (Ang.)       0.2466         C 14 -- C 16         +17.1% ( 56.0%)      1.7%
 REDUCED MASS        1.0203         C 16 -- H 17         +12.9% ( 48.6%)      1.0%
 EFFECTIVE MASS      5.4734
 FORCE CONSTANT      0.7105

 VIBRATION         45   45A           ATOM PAIR      ENERGY CONTRIBUTION    RADIAL
 FREQUENCY          1127.41         C 14 -- C 16         +27.2% ( 87.3%)     81.3%
 TRANSITION DIPOLE   0.8973         C 14 -- N 20         +15.1% ( 64.9%)     48.4%
 TRAVEL (Ang.)       0.1206         C 14 -- H 15         +14.2% ( 62.9%)      2.6%
 REDUCED MASS        4.1123         C  3 -- C 14         +13.9% ( 62.4%)      0.5%
 EFFECTIVE MASS     10.2771         C 16 -- H 17         +11.0% ( 55.4%)      0.0%
 FORCE CONSTANT      3.0796

 VIBRATION         46   46A           ATOM PAIR      ENERGY CONTRIBUTION    RADIAL
 FREQUENCY          1172.53         C 14 -- C 16         +14.4% ( 56.8%)     34.2%
 TRANSITION DIPOLE   0.6648         C 14 -- H 15         +10.8% ( 49.0%)      0.2%
 TRAVEL (Ang.)       0.2252         C 14 -- N 20         +10.1% ( 47.5%)     26.2%
 REDUCED MASS        1.1335         C  3 -- C 14          +9.6% ( 46.3%)     85.1%
 EFFECTIVE MASS      7.6667
 FORCE CONSTANT      0.9181

 VIBRATION         47   47A           ATOM PAIR      ENERGY CONTRIBUTION    RADIAL
 FREQUENCY          1182.46         C  6 -- H 10         +40.4% ( 76.9%)      1.2%
 TRANSITION DIPOLE   0.5837         C  2 -- H  8         +13.3% ( 44.1%)      6.0%
 TRAVEL (Ang.)       0.3564         C 14 -- C 16          +5.4% ( 28.1%)     89.2%
 REDUCED MASS        0.4488         C  1 -- C  2          +5.1% ( 27.4%)     80.0%
 EFFECTIVE MASS      3.6111
 FORCE CONSTANT      0.3698

 VIBRATION         48   48A           ATOM PAIR      ENERGY CONTRIBUTION    RADIAL
 FREQUENCY          1235.00         C  1 -- H  7         +20.6% ( 58.9%)      0.1%
 TRANSITION DIPOLE   0.6106         C  2 -- H  8         +16.4% ( 52.5%)      0.0%
 TRAVEL (Ang.)       0.4063         C  3 -- C  4          +6.5% ( 33.0%)     87.6%
 REDUCED MASS        0.3307         C  5 -- C  6          +6.2% ( 32.3%)     60.4%
 EFFECTIVE MASS      4.3429
 FORCE CONSTANT      0.2972

 VIBRATION         49   49A           ATOM PAIR      ENERGY CONTRIBUTION    RADIAL
 FREQUENCY          1238.64         C  2 -- H  8         +20.1% ( 54.2%)      0.1%
 TRANSITION DIPOLE   1.3738         C  4 -- H  9         +12.5% ( 42.7%)      0.2%
 TRAVEL (Ang.)       0.4473         C  5 -- C  6          +8.1% ( 34.4%)     98.3%
 REDUCED MASS        0.2720         C  6 -- H 10          +7.8% ( 33.8%)     11.6%
 EFFECTIVE MASS      4.0664
 FORCE CONSTANT      0.2459

 VIBRATION         50   50A           ATOM PAIR      ENERGY CONTRIBUTION    RADIAL
 FREQUENCY          1252.28         C 16 -- H 17         +46.0% ( 57.9%)      0.0%
 TRANSITION DIPOLE   0.7338         C 16 -- H 18         +26.4% ( 43.8%)      6.1%
 TRAVEL (Ang.)       0.3836         C 16 -- H 19         +22.3% ( 40.3%)      6.5%
 REDUCED MASS        0.3659         C 14 -- C 16          +3.2% ( 15.2%)     11.1%
 EFFECTIVE MASS      1.3959
 FORCE CONSTANT      0.3381

 VIBRATION         51   51A           ATOM PAIR      ENERGY CONTRIBUTION    RADIAL
 FREQUENCY          1261.91         C 16 -- H 19         +23.8% ( 49.1%)      1.2%
 TRANSITION DIPOLE   0.2436         C 16 -- H 18         +22.5% ( 47.8%)      2.2%
 TRAVEL (Ang.)       0.4369         C  1 -- H  7          +7.2% ( 27.1%)      2.4%
 REDUCED MASS        0.2800         C  5 -- C  6          +6.0% ( 24.7%)     95.9%
 EFFECTIVE MASS      2.6782
 FORCE CONSTANT      0.2627

 VIBRATION         52   52A           ATOM PAIR      ENERGY CONTRIBUTION    RADIAL
 FREQUENCY          1338.81         C  4 -- H  9         +17.0% ( 51.8%)      0.3%
 TRANSITION DIPOLE   1.2273         C  2 -- C  3          +9.6% ( 38.8%)     88.7%
 TRAVEL (Ang.)       0.3665         C  1 -- H  7          +9.1% ( 37.9%)     12.9%
 REDUCED MASS        0.3749         C  1 -- C  6          +8.7% ( 37.1%)     80.6%
 EFFECTIVE MASS      5.4317
 FORCE CONSTANT      0.3959

 VIBRATION         53   53A           ATOM PAIR      ENERGY CONTRIBUTION    RADIAL
 FREQUENCY          1349.82         C  4 -- H  9         +12.6% ( 46.4%)      1.7%
 TRANSITION DIPOLE   0.6713         C  5 -- C  6         +10.5% ( 42.5%)     86.5%
 TRAVEL (Ang.)       0.3033         C  1 -- C  2          +9.7% ( 40.8%)     80.6%
 REDUCED MASS        0.5430         C  3 -- C 14          +7.6% ( 36.1%)     99.2%
 EFFECTIVE MASS      6.5702
 FORCE CONSTANT      0.5829

 VIBRATION         54   54A           ATOM PAIR      ENERGY CONTRIBUTION    RADIAL
 FREQUENCY          1368.87         H 25 -- O 27         +40.7% ( 57.0%)      7.9%
 TRANSITION DIPOLE   1.2171         H 26 -- O 27         +24.6% ( 44.3%)      7.8%
 TRAVEL (Ang.)       0.3499         C  1 -- C  6          +6.8% ( 23.2%)     99.8%
 REDUCED MASS        0.4023         C  2 -- H  8          +3.4% ( 16.6%)     13.5%
 EFFECTIVE MASS      2.3982
 FORCE CONSTANT      0.4442

 VIBRATION         55   55A           ATOM PAIR      ENERGY CONTRIBUTION    RADIAL
 FREQUENCY          1372.78         C 16 -- H 17         +15.9% ( 45.9%)      0.2%
 TRANSITION DIPOLE   0.6290         C  3 -- C 14         +13.7% ( 42.6%)     84.4%
 TRAVEL (Ang.)       0.3362         C 16 -- H 19          +9.9% ( 36.1%)      0.9%
 REDUCED MASS        0.4347         C 16 -- H 18          +9.8% ( 35.9%)      0.8%
 EFFECTIVE MASS      4.6945
 FORCE CONSTANT      0.4826

 VIBRATION         56   56A           ATOM PAIR      ENERGY CONTRIBUTION    RADIAL
 FREQUENCY          1432.87         C  1 -- C  2         +16.3% ( 60.0%)     97.3%
 TRANSITION DIPOLE   0.5035         C  1 -- C  6         +12.8% ( 53.2%)     89.1%
 TRAVEL (Ang.)       0.1870         C  3 -- C  4         +10.4% ( 47.9%)     99.6%
 REDUCED MASS        1.3463         C  2 -- C  3          +9.4% ( 45.5%)     98.9%
 EFFECTIVE MASS      8.7711
 FORCE CONSTANT      1.6286

 VIBRATION         57   57A           ATOM PAIR      ENERGY CONTRIBUTION    RADIAL
 FREQUENCY          1488.07         N 11 -- O 13         +28.2% ( 74.0%)     69.4%
 TRANSITION DIPOLE   7.9068         N 11 -- O 12         +24.5% ( 69.1%)     58.2%
 TRAVEL (Ang.)       0.1089         C  5 -- N 11         +16.9% ( 57.3%)    100.0%
 REDUCED MASS        3.8228         O 12 -- O 13         +13.9% ( 52.1%)     99.9%
 EFFECTIVE MASS     14.7045
 FORCE CONSTANT      4.9874

 VIBRATION         58   58A           ATOM PAIR      ENERGY CONTRIBUTION    RADIAL
 FREQUENCY          1492.85         N 20 -- O 21         +28.7% ( 72.6%)     70.5%
 TRANSITION DIPOLE   3.1627         N 20 -- O 22         +26.7% ( 70.0%)     65.4%
 TRAVEL (Ang.)       0.1078         O 21 -- O 22         +18.0% ( 57.5%)    100.0%
 REDUCED MASS        3.8882         C 14 -- N 20         +12.0% ( 47.0%)     99.5%
 EFFECTIVE MASS     14.9029
 FORCE CONSTANT      5.1053

 VIBRATION         59   59A           ATOM PAIR      ENERGY CONTRIBUTION    RADIAL
 FREQUENCY          1509.04         C  4 -- C  5         +13.8% ( 52.2%)     97.3%
 TRANSITION DIPOLE   0.6657         C  5 -- C  6         +13.1% ( 50.8%)     24.0%
 TRAVEL (Ang.)       0.1807         C  1 -- C  6          +9.9% ( 44.1%)     29.9%
 REDUCED MASS        1.3690         C  3 -- C  4          +9.4% ( 43.2%)     28.4%
 EFFECTIVE MASS     10.1896
 FORCE CONSTANT      1.8367

 VIBRATION         60   60A           ATOM PAIR      ENERGY CONTRIBUTION    RADIAL
 FREQUENCY          1551.50         C  2 -- C  3         +16.8% ( 56.9%)     75.7%
 TRANSITION DIPOLE   0.9353         C  3 -- C  4         +11.3% ( 46.7%)     51.2%
 TRAVEL (Ang.)       0.1767         C  1 -- C  2          +9.7% ( 43.1%)      0.8%
 REDUCED MASS        1.3916         C  1 -- C  6          +9.0% ( 41.5%)     85.2%
 EFFECTIVE MASS      9.6697
 FORCE CONSTANT      1.9736

 VIBRATION         61   61A           ATOM PAIR      ENERGY CONTRIBUTION    RADIAL
 FREQUENCY          1650.12         N 11 -- O 12         +35.4% ( 84.7%)     90.4%
 TRANSITION DIPOLE  11.2580         N 11 -- O 13         +33.5% ( 82.3%)     87.6%
 TRAVEL (Ang.)       0.0804         C  5 -- N 11         +20.5% ( 64.4%)      0.7%
 REDUCED MASS        6.3152         O 12 -- O 13          +6.2% ( 35.5%)      0.4%
 EFFECTIVE MASS     14.5365
 FORCE CONSTANT     10.1314

 VIBRATION         62   62A           ATOM PAIR      ENERGY CONTRIBUTION    RADIAL
 FREQUENCY          1667.11         N 20 -- O 22         +27.9% ( 75.2%)     90.3%
 TRANSITION DIPOLE  10.7308         N 20 -- O 21         +26.6% ( 73.5%)     87.6%
 TRAVEL (Ang.)       0.0995         C 14 -- N 20         +16.3% ( 57.5%)      0.2%
 REDUCED MASS        4.0876         O 21 -- O 22          +4.9% ( 31.5%)      0.3%
 EFFECTIVE MASS     14.0165
 FORCE CONSTANT      6.6934

 VIBRATION         63   63A           ATOM PAIR      ENERGY CONTRIBUTION    RADIAL
 FREQUENCY          1675.35         C  5 -- C  6         +14.2% ( 53.7%)    100.0%
 TRANSITION DIPOLE   3.8058         C  2 -- C  3         +11.1% ( 47.6%)     93.6%
 TRAVEL (Ang.)       0.1510         C  3 -- C  4         +10.0% ( 45.1%)     75.4%
 REDUCED MASS        1.7648         C  4 -- C  5          +8.1% ( 40.6%)     31.1%
 EFFECTIVE MASS     12.6573
 FORCE CONSTANT      2.9184

 VIBRATION         64   64A           ATOM PAIR      ENERGY CONTRIBUTION    RADIAL
 FREQUENCY          1692.53         C  4 -- C  5         +17.3% ( 59.3%)     97.6%
 TRANSITION DIPOLE   2.2769         C  3 -- C  4         +14.8% ( 54.8%)     77.7%
 TRAVEL (Ang.)       0.1317         C  1 -- C  2         +14.1% ( 53.5%)     96.2%
 REDUCED MASS        2.2953         C  1 -- C  6          +9.9% ( 44.8%)     66.5%
 EFFECTIVE MASS     11.9933
 FORCE CONSTANT      3.8740

 VIBRATION         65   65A           ATOM PAIR      ENERGY CONTRIBUTION    RADIAL
 FREQUENCY          1853.85         C 14 -- H 15         +89.4% ( 97.9%)    100.0%
 TRANSITION DIPOLE   1.7565         C 14 -- N 20          +2.8% ( 17.3%)      1.5%
 TRAVEL (Ang.)       0.1490         C  3 -- C 14          +2.5% ( 16.4%)      2.6%
 REDUCED MASS        1.6386         C 14 -- C 16          +2.5% ( 16.2%)      6.4%
 EFFECTIVE MASS      2.9431
 FORCE CONSTANT      3.3179

 VIBRATION         66   66A           ATOM PAIR      ENERGY CONTRIBUTION    RADIAL
 FREQUENCY          2640.92         C 16 -- H 19         +67.6% ( 84.9%)     99.6%
 TRANSITION DIPOLE   1.0661         C 16 -- H 17         +22.4% ( 49.0%)     90.6%
 TRAVEL (Ang.)       0.2192         C 16 -- H 18          +9.1% ( 31.1%)     74.6%
 REDUCED MASS        0.5314         C 14 -- C 16          +0.9% (  9.8%)      0.0%
 EFFECTIVE MASS      1.4478
 FORCE CONSTANT      2.1836

 VIBRATION         67   67A           ATOM PAIR      ENERGY CONTRIBUTION    RADIAL
 FREQUENCY          2647.87         C  2 -- H  8         +54.4% ( 76.8%)     99.8%
 TRANSITION DIPOLE   2.7350         H 26 -- O 27         +27.7% ( 54.8%)     92.8%
 TRAVEL (Ang.)       0.2544         H 25 -- O 27         +15.4% ( 40.9%)     96.2%
 REDUCED MASS        0.3934         C  2 -- C  3          +0.7% (  8.5%)     23.0%
 EFFECTIVE MASS      1.4497
 FORCE CONSTANT      1.6252

 VIBRATION         68   68A           ATOM PAIR      ENERGY CONTRIBUTION    RADIAL
 FREQUENCY          2648.97         C 16 -- H 18         +55.5% ( 77.0%)     98.7%
 TRANSITION DIPOLE   1.0916         C 16 -- H 17         +41.4% ( 66.5%)     96.7%
 TRAVEL (Ang.)       0.2265         C 16 -- H 19          +1.9% ( 14.3%)     25.1%
 REDUCED MASS        0.4962         C 14 -- C 16          +0.9% (  9.8%)      0.1%
 EFFECTIVE MASS      1.4520
 FORCE CONSTANT      2.0513

 VIBRATION         69   69A           ATOM PAIR      ENERGY CONTRIBUTION    RADIAL
 FREQUENCY          2695.14         C  4 -- H  9         +95.0% ( 98.5%)    100.0%
 TRANSITION DIPOLE   1.5789         C  6 -- H 10          +2.1% ( 14.8%)     99.9%
 TRAVEL (Ang.)       0.1686         C  3 -- C  4          +1.1% ( 10.5%)     27.7%
 REDUCED MASS        0.8799         C  4 -- C  5          +1.1% ( 10.4%)     17.9%
 EFFECTIVE MASS      1.3890
 FORCE CONSTANT      3.7655

 VIBRATION         70   70A           ATOM PAIR      ENERGY CONTRIBUTION    RADIAL
 FREQUENCY          2705.59         C  6 -- H 10         +86.0% ( 93.9%)    100.0%
 TRANSITION DIPOLE   0.9803         C  1 -- H  7         +10.3% ( 32.4%)     99.8%
 TRAVEL (Ang.)       0.1845         C  4 -- H  9          +1.5% ( 12.3%)     99.8%
 REDUCED MASS        0.7323         C  1 -- C  6          +1.0% ( 10.1%)      8.0%
 EFFECTIVE MASS      1.3918
 FORCE CONSTANT      3.1585

 VIBRATION         71   71A           ATOM PAIR      ENERGY CONTRIBUTION    RADIAL
 FREQUENCY          2731.25         C  1 -- H  7         +86.9% ( 94.1%)    100.0%
 TRANSITION DIPOLE   1.2041         C  6 -- H 10          +9.3% ( 30.8%)     99.5%
 TRAVEL (Ang.)       0.1823         C  1 -- C  6          +1.1% ( 10.8%)     53.4%
 REDUCED MASS        0.7429         C  1 -- C  2          +1.0% (  9.9%)     26.4%
 EFFECTIVE MASS      1.4045
 FORCE CONSTANT      3.2650

 VIBRATION         72   72A           ATOM PAIR      ENERGY CONTRIBUTION    RADIAL
 FREQUENCY          2769.67         O 23 -- H 24         +85.6% ( 92.4%)    100.0%
 TRANSITION DIPOLE   0.3021         H 25 -- O 27          +8.8% ( 29.6%)     99.3%
 TRAVEL (Ang.)       0.1872         C 16 -- H 17          +1.8% ( 13.4%)     95.8%
 REDUCED MASS        0.6945         C 16 -- H 18          +1.8% ( 13.3%)     95.9%
 EFFECTIVE MASS      1.3701
 FORCE CONSTANT      3.1388

 VIBRATION         73   73A           ATOM PAIR      ENERGY CONTRIBUTION    RADIAL
 FREQUENCY          2771.48         C 16 -- H 17         +33.3% ( 55.4%)     95.8%
 TRANSITION DIPOLE   0.7361         C 16 -- H 18         +32.7% ( 54.8%)     95.8%
 TRAVEL (Ang.)       0.2875         C 16 -- H 19         +27.4% ( 50.2%)     94.3%
 REDUCED MASS        0.2943         O 23 -- H 24          +6.0% ( 23.5%)    100.0%
 EFFECTIVE MASS      1.1553
 FORCE CONSTANT      1.3320

 VIBRATION         74   74A           ATOM PAIR      ENERGY CONTRIBUTION    RADIAL
 FREQUENCY          2815.81         H 25 -- O 27         +42.8% ( 64.4%)     95.9%
 TRANSITION DIPOLE   1.6863         C  2 -- H  8         +37.2% ( 60.1%)     99.7%
 TRAVEL (Ang.)       0.2637         H 26 -- O 27         +15.6% ( 39.0%)     94.2%
 REDUCED MASS        0.3444         O 23 -- H 24          +3.2% ( 17.6%)    100.0%
 EFFECTIVE MASS      1.4227
 FORCE CONSTANT      1.6087

 VIBRATION         75   75A           ATOM PAIR      ENERGY CONTRIBUTION    RADIAL
 FREQUENCY          2835.18         H 26 -- O 27         +55.5% ( 71.9%)     99.9%
 TRANSITION DIPOLE   0.8966         H 25 -- O 27         +34.0% ( 56.3%)     99.9%
 TRAVEL (Ang.)       0.2382         O 23 -- H 24          +5.9% ( 23.5%)    100.0%
 REDUCED MASS        0.4193         C  2 -- H  8          +4.4% ( 20.2%)     99.5%
 EFFECTIVE MASS      1.1858
 FORCE CONSTANT      1.9858

      SYMMETRY NUMBER FOR POINT-GROUP C1  =  1


          SYSTEM IS A GROUND STATE



 Title: ASE calculation


          MOLECULE IS NOT LINEAR

          THERE ARE 75 GENUINE VIBRATIONS IN THIS SYSTEM
          THIS THERMODYNAMICS CALCULATION IS LIMITED TO
          MOLECULES WHICH HAVE NO INTERNAL ROTATIONS




                    CALCULATED THERMODYNAMIC PROPERTIES
                                          *
   TEMP. (K)   PARTITION FUNCTION   H.O.F.    ENTHALPY  HEAT CAPACITY ENTROPY
                                   KCAL/MOL   CAL/MOLE    CAL/K/MOL  CAL/K/MOL


 298.00  VIB.     0.1316D+09                 10134.7614    59.2991    71.1613
         ROT.     0.4971D+07                   888.2803     2.9808    33.6219
         INT.     0.6544D+15                 11023.0417    62.2800   104.7832
         TRA.     0.3421D+28                  1480.4672     4.9680    42.2268
         TOT.                     -209.923   12503.5089    67.2480   147.0100

   *: NOTE: HEATS OF FORMATION ARE RELATIVE TO THE
            ELEMENTS IN THEIR STANDARD STATE AT 298K
              (=  Standard Enthalpy of Formation).

            Hvib:  Zero-point energy is not included.
                   frequencies of less than zero cm-1 are not included.
            Hrot = (3/2)RT
            Htra = (3/2)RT + pV = (5/2)RT

            Heat capacity is Cp, not Cv

          For more information, see: HTTP://OpenMOPAC.net/Manual/thermochemistry.html


           FORCE CONSTANT IN CARTESIAN COORDINATES (Millidynes/A)

    ATOM   CHEMICAL       X               Y               Z
   NUMBER   SYMBOL  FORCE CONSTANT  FORCE CONSTANT  FORCE CONSTANT

      1       C       10.968824        9.968414        2.021680
      2       C       10.938270        9.778510        2.187062
      3       C       10.471904       11.765144        2.433588
      4       C       11.052942       10.255504        1.896949
      5       C       11.880729       10.698981        1.738633
      6       C        9.683444       11.275640        1.916679
      7       H        1.718235        3.357945        0.355960
      8       H        1.690209        3.362014        0.335333
      9       H        1.772361        3.337230        0.310007
     10       H        4.099601        0.851307        0.329966
     11       N       14.259135       11.797558        2.716000
     12       O       12.011247        1.607024        0.366183
     13       O        4.760506        8.670047        0.333991
     14       C        7.934309        6.844057        5.618105
     15       H        1.033688        1.686952        2.536046
     16       C        6.380441        6.519631        6.107796
     17       H        4.041613        0.745946        0.525961
     18       H        0.763271        2.044180        2.517749
     19       H        0.870982        1.433537        2.978460
     20       N       14.458373        4.879059        9.550200
     21       O       11.889016        0.788054        1.305539
     22       O        5.981665        1.620770        6.387936
     23       O        0.274744        3.378342        0.850614
     24       H        0.215866        3.233415        0.937604
     25       H        3.534748        0.988318        0.131691
     26       H        2.069335        2.368581        0.116271
     27       O        4.714734        2.801866        0.675209

 **********************
 *                    *
 * JOB ENDED NORMALLY *
 *                    *
 **********************



 TOTAL JOB TIME:            13.76 SECONDS

 == MOPAC DONE ==
