 *******************************************************************************
 **                                                                           **
 **                              MOPAC v22.0.6                                **
 **                                                                           **
 *******************************************************************************
 **          Digital Object Identifier (DOI): 10.5281/zenodo.6511958          **
 **    Visit the DOI location for information on how to cite this program.    **
 *******************************************************************************

                              PM7 CALCULATION RESULTS

 *******************************************************************************
 *  CALCULATION DONE:                                Mon Mar 25 23:22:35 2024  *
 *  PM7        - The PM7 Hamiltonian to be used
 *  SINGLET    - SPIN STATE DEFINED AS A SINGLET
 *
 *
 *
 *                 CHARGE ON SYSTEM = -1
 *
 *
 *
 *  EPS=78.4   - USE ANDREAS KLAMT'S COSMO IMPLICIT SOLVATION MODEL
 *  LET        - OVERRIDE SOME SAFETY CHECKS
 *  THREADS    - USE A MAXIMUM OF 30 THREADS
 *  T=         - A TIME OF 14.0 DAYS REQUESTED
 *  DUMP=N     - RESTART FILE WRITTEN EVERY 30.0 MINUTES REQUESTED
 *  RELSCF     - DEFAULT SCF CRITERION MULTIPLIED BY 1.0000
 *              (DEFAULT SCF CRITERION = 0.00010)
 *  ITRY=      - DO A MAXIMUM OF 15000 ITERATIONS FOR SCF
 *  AUX        - OUTPUT AUXILIARY INFORMATION
 *  ISOTOPE    - SAVE THE FORCE MATRIX FOR USE LATER
 *  BONDS      - FINAL BOND-ORDER MATRIX TO BE PRINTED
 *  LARGE      - EXPANDED OUTPUT TO BE PRINTED
 *  THERMO     - THERMODYNAMIC QUANTITIES TO BE CALCULATED
 *******************************************************************************
PM7 AUX LARGE THERMO(298,298) LET ISOTOPE BONDS DUMP=30M ITRY=15000 T=14D THREADS=30 CHARGE=-1 SINGLET eps=78.4 RELSCF=1
 Title: ASE calculation

   ATOM   CHEMICAL          X               Y               Z
  NUMBER   SYMBOL      (ANGSTROMS)     (ANGSTROMS)     (ANGSTROMS)

     1       C          0.15867002  *   1.27864085  *   0.58270831  *
     2       C          0.52615935  *   1.05117874  *  -0.74113005  *
     3       C          0.34864235  *  -0.21031861  *  -1.32711892  *
     4       C         -0.19180950  *  -1.24594373  *  -0.57187088  *
     5       C         -0.53176882  *  -1.01141112  *   0.76699389  *
     6       C         -0.37016806  *   0.24804763  *   1.35381384  *
     7       H          0.29062661  *   2.27108592  *   1.02382498  *
     8       H          0.95693525  *   1.87468216  *  -1.32363835  *
     9       H         -0.35066605  *  -2.24384622  *  -0.99980447  *
    10       H         -0.64982442  *   0.42119499  *   2.39977937  *
    11       N         -1.05147115  *  -2.09860686  *   1.55897885  *
    12       O         -1.36178199  *  -1.89390884  *   2.72576507  *
    13       O         -1.16702840  *  -3.20750384  *   1.05110372  *
    14       C          0.80336670  *  -0.42491147  *  -2.74662421  *
    15       D          1.90943501  *  -0.13097462  *  -2.81977760  *
    16       C          0.64977714  *  -1.85116345  *  -3.25584779  *
    17       H          1.02110736  *  -1.96396953  *  -4.28720675  *
    18       H         -0.39309083  *  -2.19613731  *  -3.25769741  *
    19       H          1.23119775  *  -2.55885506  *  -2.64062256  *
    20       N          0.08072617  *   0.49652611  *  -3.68834171  *
    21       O          0.18504405  *   0.29926539  *  -4.88859424  *
    22       O         -0.56225691  *   1.43163839  *  -3.24207904  *
    23       O          6.77569928  *   1.35416961  *  -3.17862900  *
    24       H          6.17848904  *   0.72974494  *  -2.95180193  *
    25       H          4.06579832  *   0.44100857  *  -2.02064179  *
    26       H          4.10426466  *   0.67406380  *  -3.52867384  *
    27       O          3.89018150  *   0.00593010  *  -2.86510172  *


                                Isotopes Used

              Atom:   15  H  Default mass  1.0079,  mass used:  2.0140 amu


          CARTESIAN COORDINATES 

    NO.       ATOM           X           Y           Z

     1         C          0.1587      1.2786      0.5827
     2         C          0.5262      1.0512     -0.7411
     3         C          0.3486     -0.2103     -1.3271
     4         C         -0.1918     -1.2459     -0.5719
     5         C         -0.5318     -1.0114      0.7670
     6         C         -0.3702      0.2480      1.3538
     7         H          0.2906      2.2711      1.0238
     8         H          0.9569      1.8747     -1.3236
     9         H         -0.3507     -2.2438     -0.9998
    10         H         -0.6498      0.4212      2.3998
    11         N         -1.0515     -2.0986      1.5590
    12         O         -1.3618     -1.8939      2.7258
    13         O         -1.1670     -3.2075      1.0511
    14         C          0.8034     -0.4249     -2.7466
    15         H          1.9094     -0.1310     -2.8198
    16         C          0.6498     -1.8512     -3.2558
    17         H          1.0211     -1.9640     -4.2872
    18         H         -0.3931     -2.1961     -3.2577
    19         H          1.2312     -2.5589     -2.6406
    20         N          0.0807      0.4965     -3.6883
    21         O          0.1850      0.2993     -4.8886
    22         O         -0.5623      1.4316     -3.2421
    23         O          6.7757      1.3542     -3.1786
    24         H          6.1785      0.7297     -2.9518
    25         H          4.0658      0.4410     -2.0206
    26         H          4.1043      0.6741     -3.5287
    27         O          3.8902      0.0059     -2.8651

 General Reference for PM7:
 "Optimization of Parameters for Semiempirical Methods VI: More Modifications to the 
 NDDO Approximations and Re-optimization of Parameters", J. J. P. Stewart, J. Mol. Mod., 1:32, 19 (2013)
 https://link.springer.com/article/10.1007/s00894-012-1667-x

           Empirical Formula: C8 H11 N2 O6  =    27 atoms



      MOLECULAR POINT GROUP   :   C1  


 SINGLET STATE CALCULATION


      RHF CALCULATION, NO. OF DOUBLY OCCUPIED LEVELS = 45

  SCF CRITERION =    0.1000E-03


          HEAT OF FORMATION =    -210.245755 KCALS/MOLE


          CARTESIAN COORDINATE DERIVATIVES

   NUMBER  ATOM         X            Y            Z

     1       C      0.151574    -0.020224     0.086667
     2       C      0.074240     0.013139     0.391117
     3       C     -0.396397     0.185990     0.067816
     4       C      0.502071    -0.329620    -0.059843
     5       C     -0.247632     0.069712     0.051578
     6       C      0.129560     0.155002    -0.210277
     7       H     -0.125740     0.031127     0.088237
     8       H     -0.129415    -0.019683     0.194058
     9       H     -0.136520    -0.096108     0.003495
    10       H     -0.463719     0.094488     0.018016
    11       N     -0.077946     0.052256    -0.351287
    12       O     -0.248920    -0.185362    -0.151137
    13       O      0.206210     0.451232    -0.100353
    14       C     -0.006300    -0.105731     0.004726
    15       H     -0.224319    -0.176657    -0.318429
    16       C     -0.218691    -0.229368     0.407738
    17       H     -0.069917    -0.072856     0.082137
    18       H     -0.053787    -0.321435    -0.208684
    19       H     -0.185166     0.194163    -0.289355
    20       N      0.275357    -0.801598     0.585288
    21       O     -0.311081    -0.158009    -0.169208
    22       O      1.391226     0.125089    -1.094007
    23       O     -0.732071     1.114085     1.230623
    24       H      0.300314    -0.555062     0.007675
    25       H      0.068827    -0.032714     0.116716
    26       H      0.254009     0.443199    -0.348632
    27       O      0.274236     0.174951    -0.034680

 DIPOLE           X         Y         Z       TOTAL
 POINT-CHG.   -24.684     6.902    19.135    31.985
 HYBRID        -0.417     0.418     0.665     0.890
 SUM          -25.100     7.321    19.800    32.798


          GRADIENT NORM =   3.32935


                              **** WARNING ****

           GRADIENT IS VERY LARGE FOR A THERMO CALCULATION
           RESULTS ARE LIKELY TO BE INACCURATE IF THERE ARE
           ANY LOW-LYING VIBRATIONS (LESS THAN ABOUT 400CM-1)
           GRADIENT NORM SHOULD BE LESS THAN ABOUT 1.0 FOR THERMO
           TO GIVE ACCURATE RESULTS


          TIME FOR SCF CALCULATION =    0.22

          TIME FOR DERIVATIVES     =    0.03

          MOLECULAR WEIGHT =  232.19



          ROTATIONAL CONSTANTS IN CM(-1)

          A =    0.01958941   B =    0.00779901   C =    0.00690080



           PRINCIPAL MOMENTS OF INERTIA IN UNITS OF 10**(-40)*GRAM-CM**2

          A =     1428.9735   B =     3589.2702   C =     4056.4496


          ORIENTATION OF MOLECULE IN FORCE CALCULATION

    NO.       ATOM         X         Y         Z

     1          C      -2.1386   -1.2655    0.3255
     2          C      -0.7460   -1.2655    0.3255
     3          C      -0.0297   -0.0600    0.3255
     4          C      -0.7211    1.1470    0.3157
     5          C      -2.1219    1.1331    0.2878
     6          C      -2.8428   -0.0655    0.3016
     7          H      -2.6852   -2.2131    0.3385
     8          H      -0.2130   -2.2241    0.3269
     9          H      -0.1932    2.1090    0.3218
    10          H      -3.9392   -0.0626    0.2901
    11          N      -2.8343    2.3857    0.2342
    12          O      -4.0588    2.3775    0.2229
    13          O      -2.2009    3.4336    0.1949
    14          C       1.4748   -0.1062    0.2778
    15          H       1.7882   -0.7274   -0.6339
    16          C       2.1513    1.2544    0.1887
    17          H       3.2481    1.1674    0.1281
    18          H       1.9342    1.8989    1.0513
    19          H       1.8354    1.7980   -0.7181
    20          N       2.0288   -0.8355    1.4692
    21          O       3.2295   -0.7744    1.6811
    22          O       1.2821   -1.4926    2.1746
    23          O       3.1709   -3.6452   -4.5822
    24          H       2.8996   -2.8529   -4.2711
    25          H       1.5041   -1.8631   -2.6942
    26          H       2.9098   -2.2148   -2.2142
    27          O       2.3316   -1.4631   -2.3967


    FIRST DERIVATIVES WILL BE USED IN THE CALCULATION OF SECOND DERIVATIVES

          ESTIMATED TIME TO COMPLETE CALCULATION =       40.50 SECONDS

    FOR POINT-GROUP C1   THERE ARE   1 UNIQUE SYMMETRY FUNCTIONS.

 STEP:   1 TIME =     0.11 SECS, INTEGRAL =      0.11 TIME LEFT:1209599.64
 STEP:   2 TIME =     0.10 SECS, INTEGRAL =      0.21 TIME LEFT:1209599.54
 STEP:   3 TIME =     0.15 SECS, INTEGRAL =      0.36 TIME LEFT:1209599.39
 STEP:   4 TIME =     0.09 SECS, INTEGRAL =      0.45 TIME LEFT:1209599.30
 STEP:   5 TIME =     0.10 SECS, INTEGRAL =      0.55 TIME LEFT:1209599.20
 STEP:   6 TIME =     0.11 SECS, INTEGRAL =      0.66 TIME LEFT:1209599.09
 STEP:   7 TIME =     0.12 SECS, INTEGRAL =      0.78 TIME LEFT:1209598.97
 STEP:   8 TIME =     0.09 SECS, INTEGRAL =      0.87 TIME LEFT:1209598.88
 STEP:   9 TIME =     0.11 SECS, INTEGRAL =      0.98 TIME LEFT:1209598.77
 STEP:  10 TIME =     0.09 SECS, INTEGRAL =      1.07 TIME LEFT:1209598.68
 STEP:  11 TIME =     0.08 SECS, INTEGRAL =      1.15 TIME LEFT:1209598.60
 STEP:  12 TIME =     0.08 SECS, INTEGRAL =      1.23 TIME LEFT:1209598.52
 STEP:  13 TIME =     0.08 SECS, INTEGRAL =      1.30 TIME LEFT:1209598.45
 STEP:  14 TIME =     0.09 SECS, INTEGRAL =      1.39 TIME LEFT:1209598.36
 STEP:  15 TIME =     0.08 SECS, INTEGRAL =      1.47 TIME LEFT:1209598.28
 STEP:  16 TIME =     0.12 SECS, INTEGRAL =      1.59 TIME LEFT:1209598.16
 STEP:  17 TIME =     0.09 SECS, INTEGRAL =      1.69 TIME LEFT:1209598.06
 STEP:  18 TIME =     0.09 SECS, INTEGRAL =      1.77 TIME LEFT:1209597.98
 STEP:  19 TIME =     0.08 SECS, INTEGRAL =      1.85 TIME LEFT:1209597.90
 STEP:  20 TIME =     0.08 SECS, INTEGRAL =      1.93 TIME LEFT:1209597.82
 STEP:  21 TIME =     0.09 SECS, INTEGRAL =      2.02 TIME LEFT:1209597.73
 STEP:  22 TIME =     0.08 SECS, INTEGRAL =      2.09 TIME LEFT:1209597.66
 STEP:  23 TIME =     0.09 SECS, INTEGRAL =      2.19 TIME LEFT:1209597.56
 STEP:  24 TIME =     0.12 SECS, INTEGRAL =      2.31 TIME LEFT:1209597.44
 STEP:  25 TIME =     0.11 SECS, INTEGRAL =      2.42 TIME LEFT:1209597.33
 STEP:  26 TIME =     0.08 SECS, INTEGRAL =      2.50 TIME LEFT:1209597.25
 STEP:  27 TIME =     0.11 SECS, INTEGRAL =      2.61 TIME LEFT:1209597.14
 STEP:  28 TIME =     0.11 SECS, INTEGRAL =      2.72 TIME LEFT:1209597.03
 STEP:  29 TIME =     0.10 SECS, INTEGRAL =      2.82 TIME LEFT:1209596.93
 STEP:  30 TIME =     0.12 SECS, INTEGRAL =      2.95 TIME LEFT:1209596.80
 STEP:  31 TIME =     0.12 SECS, INTEGRAL =      3.07 TIME LEFT:1209596.68
 STEP:  32 TIME =     0.20 SECS, INTEGRAL =      3.27 TIME LEFT:1209596.48
 STEP:  33 TIME =     0.23 SECS, INTEGRAL =      3.51 TIME LEFT:1209596.24
 STEP:  34 TIME =     0.12 SECS, INTEGRAL =      3.63 TIME LEFT:1209596.12
 STEP:  35 TIME =     0.10 SECS, INTEGRAL =      3.73 TIME LEFT:1209596.02
 STEP:  36 TIME =     0.45 SECS, INTEGRAL =      4.18 TIME LEFT:1209595.57
 STEP:  37 TIME =     0.20 SECS, INTEGRAL =      4.38 TIME LEFT:1209595.38
 STEP:  38 TIME =     0.30 SECS, INTEGRAL =      4.68 TIME LEFT:1209595.07
 STEP:  39 TIME =     0.27 SECS, INTEGRAL =      4.95 TIME LEFT:1209594.80
 STEP:  40 TIME =     0.13 SECS, INTEGRAL =      5.08 TIME LEFT:1209594.67
 STEP:  41 TIME =     0.13 SECS, INTEGRAL =      5.21 TIME LEFT:1209594.54
 STEP:  42 TIME =     0.23 SECS, INTEGRAL =      5.44 TIME LEFT:1209594.31
 STEP:  43 TIME =     0.24 SECS, INTEGRAL =      5.68 TIME LEFT:1209594.07
 STEP:  44 TIME =     0.12 SECS, INTEGRAL =      5.80 TIME LEFT:1209593.95
 STEP:  45 TIME =     0.12 SECS, INTEGRAL =      5.92 TIME LEFT:1209593.83
 STEP:  46 TIME =     0.18 SECS, INTEGRAL =      6.10 TIME LEFT:1209593.65
 STEP:  47 TIME =     0.12 SECS, INTEGRAL =      6.22 TIME LEFT:1209593.53
 STEP:  48 TIME =     0.23 SECS, INTEGRAL =      6.45 TIME LEFT:1209593.30
 STEP:  49 TIME =     0.11 SECS, INTEGRAL =      6.56 TIME LEFT:1209593.19
 STEP:  50 TIME =     1.03 SECS, INTEGRAL =      7.59 TIME LEFT:1209592.16
 STEP:  51 TIME =     2.45 SECS, INTEGRAL =     10.04 TIME LEFT:1209589.71
 STEP:  52 TIME =     1.65 SECS, INTEGRAL =     11.69 TIME LEFT:1209588.06
 STEP:  53 TIME =     0.20 SECS, INTEGRAL =     11.88 TIME LEFT:1209587.87
 STEP:  54 TIME =     0.94 SECS, INTEGRAL =     12.82 TIME LEFT:1209586.93
 STEP:  55 TIME =     0.10 SECS, INTEGRAL =     12.92 TIME LEFT:1209586.83
 STEP:  56 TIME =     0.08 SECS, INTEGRAL =     13.00 TIME LEFT:1209586.75
 STEP:  57 TIME =     0.08 SECS, INTEGRAL =     13.08 TIME LEFT:1209586.67
 STEP:  58 TIME =     0.08 SECS, INTEGRAL =     13.16 TIME LEFT:1209586.59
 STEP:  59 TIME =     0.08 SECS, INTEGRAL =     13.23 TIME LEFT:1209586.52
 STEP:  60 TIME =     0.08 SECS, INTEGRAL =     13.31 TIME LEFT:1209586.44
 STEP:  61 TIME =     0.11 SECS, INTEGRAL =     13.42 TIME LEFT:1209586.33
 STEP:  62 TIME =     0.08 SECS, INTEGRAL =     13.50 TIME LEFT:1209586.25
 STEP:  63 TIME =     0.09 SECS, INTEGRAL =     13.59 TIME LEFT:1209586.16
 STEP:  64 TIME =     0.09 SECS, INTEGRAL =     13.67 TIME LEFT:1209586.08
 STEP:  65 TIME =     0.08 SECS, INTEGRAL =     13.75 TIME LEFT:1209586.00
 STEP:  66 TIME =     0.08 SECS, INTEGRAL =     13.83 TIME LEFT:1209585.92
 STEP:  67 TIME =     0.08 SECS, INTEGRAL =     13.91 TIME LEFT:1209585.84
 STEP:  68 TIME =     0.08 SECS, INTEGRAL =     13.98 TIME LEFT:1209585.77
 STEP:  69 TIME =     0.08 SECS, INTEGRAL =     14.06 TIME LEFT:1209585.69
 STEP:  70 TIME =     0.08 SECS, INTEGRAL =     14.14 TIME LEFT:1209585.61
 STEP:  71 TIME =     0.08 SECS, INTEGRAL =     14.22 TIME LEFT:1209585.53
 STEP:  72 TIME =     0.08 SECS, INTEGRAL =     14.30 TIME LEFT:1209585.45
 STEP:  73 TIME =     0.12 SECS, INTEGRAL =     14.42 TIME LEFT:1209585.33
 STEP:  74 TIME =     0.08 SECS, INTEGRAL =     14.50 TIME LEFT:1209585.25
 STEP:  75 TIME =     0.09 SECS, INTEGRAL =     14.59 TIME LEFT:1209585.16
 STEP:  76 TIME =     0.08 SECS, INTEGRAL =     14.67 TIME LEFT:1209585.08
 STEP:  77 TIME =     0.08 SECS, INTEGRAL =     14.75 TIME LEFT:1209585.00
 STEP:  78 TIME =     0.08 SECS, INTEGRAL =     14.83 TIME LEFT:1209584.92
 STEP:  79 TIME =     0.08 SECS, INTEGRAL =     14.91 TIME LEFT:1209584.84
 STEP:  80 TIME =     0.08 SECS, INTEGRAL =     14.98 TIME LEFT:1209584.77
 STEP:  81 TIME =     0.08 SECS, INTEGRAL =     15.06 TIME LEFT:1209584.69

(To convert to Hartree/Bohr^2, multiply by (10^(-21) x N x a0^2)/(4.184 x 627.51) =  0.0642)


           FORCE MATRIX IN MILLIDYNES/ANGSTROM


                  C  1       C  2       C  3       C  4       C  5       C  6
 ------------------------------------------------------------------------------
     C    1  15.060018
     C    2   6.082127  14.990376
     C    3   1.981898   5.720449  15.781390
     C    4   1.272429   1.969134   6.190698  15.164331
     C    5   1.954988   1.132916   1.845058   5.719608  16.156755
     C    6   6.133928   2.020738   1.245204   1.842076   5.738366  15.082161
     H    7   3.391209   0.751104   0.082929   0.010449   0.087667   0.767773
     H    8   0.729270   3.390816   0.714921   0.086330   0.038013   0.096285
     H    9   0.023516   0.094600   0.753104   3.342335   0.683843   0.078479
     H   10   0.709679   0.095192   0.023273   0.080890   0.729622   3.352274
     N   11   0.194003   0.029145   0.226122   1.195303   3.299319   1.186151
     O   12   0.029031   0.013896   0.070259   0.118472   1.455241   0.096613
     O   13   0.056623   0.010526   0.034099   0.099946   1.458185   0.127939
     C   14   0.088319   0.771740   3.227663   0.747753   0.097897   0.020126
     H   15   0.014658   0.032410   0.709167   0.020224   0.011870   0.010759
     C   16   0.017228   0.040829   0.644580   0.078746   0.021743   0.009116
     H   17   0.001847   0.007012   0.044669   0.005448   0.003772   0.000870
     H   18   0.003288   0.002940   0.009525   0.023350   0.007823   0.002582
     H   19   0.003780   0.002938   0.014791   0.024692   0.014942   0.002855
     N   20   0.045558   0.065139   0.832702   0.047893   0.024988   0.021531
     O   21   0.019574   0.012572   0.093756   0.012184   0.011977   0.007374
     O   22   0.026848   0.049623   0.090883   0.013378   0.016965   0.014357
     O   23   0.002040   0.002071   0.001796   0.001499   0.001062   0.002096
     H   24   0.001073   0.000956   0.001172   0.000671   0.000459   0.000620
     H   25   0.003309   0.003274   0.004360   0.000867   0.001980   0.002102
     H   26   0.001555   0.002417   0.003744   0.000953   0.001881   0.000776
     O   27   0.006051   0.005224   0.017581   0.003278   0.004031   0.002675


                  H  7       H  8       H  9       H 10       N 11       O 12
 ------------------------------------------------------------------------------
     H    7   4.305702
     H    8   0.038338   4.247377
     H    9   0.010779   0.010517   4.256691
     H   10   0.038151   0.011991   0.009042   4.210444
     N   11   0.039042   0.044037   0.147731   0.116982  18.894012
     O   12   0.013362   0.011429   0.044714   0.046083   9.213468  12.072139
     O   13   0.012846   0.011200   0.072245   0.034718   9.137541   2.630349
     C   14   0.009605   0.035726   0.035893   0.010783   0.030639   0.008864
     H   15   0.004359   0.014174   0.006548   0.003354   0.014598   0.005178
     C   16   0.005172   0.008037   0.078739   0.004566   0.028718   0.010556
     H   17   0.000755   0.001863   0.001949   0.000885   0.005877   0.001960
     H   18   0.001312   0.001402   0.025702   0.001495   0.010182   0.003899
     H   19   0.001672   0.001913   0.025158   0.001952   0.011850   0.004673
     N   20   0.011954   0.061456   0.017842   0.009233   0.048754   0.016284
     O   21   0.006543   0.016835   0.009753   0.005618   0.026794   0.010363
     O   22   0.006058   0.033466   0.007083   0.004905   0.027170   0.008562
     O   23   0.001293   0.001440   0.001116   0.001441   0.001920   0.001320
     H   24   0.000546   0.000660   0.000212   0.000573   0.001286   0.000642
     H   25   0.001561   0.002911   0.000658   0.001555   0.003503   0.001355
     H   26   0.000733   0.002353   0.000506   0.000695   0.002080   0.000784
     O   27   0.003033   0.005106   0.002297   0.002360   0.007606   0.002761


                  O 13       C 14       H 15       C 16       H 17       H 18
 ------------------------------------------------------------------------------
     O   13  11.972781
     C   14   0.018659  11.883256
     H   15   0.004159   2.714401   3.807878
     C   16   0.007507   2.897719   0.647005  11.034512
     H   17   0.002928   0.692002   0.024913   3.315176   4.121640
     H   18   0.003495   0.685574   0.042994   3.359638   0.452938   4.149416
     H   19   0.003822   0.684994   0.025668   3.302468   0.448392   0.449461
     N   20   0.015718   2.471621   0.894916   0.757670   0.110167   0.055912
     O   21   0.008386   1.062755   0.082257   0.113467   0.029991   0.016954
     O   22   0.008268   1.005747   0.082835   0.110952   0.030821   0.019516
     O   23   0.001106   0.006059   0.006107   0.003369   0.002191   0.001960
     H   24   0.000589   0.003678   0.007289   0.001938   0.000774   0.000387
     H   25   0.000866   0.020325   0.062757   0.006723   0.006426   0.000804
     H   26   0.001072   0.019918   0.056618   0.013659   0.011438   0.000820
     O   27   0.002557   0.158533   0.081941   0.016748   0.007640   0.003997


                  H 19       N 20       O 21       O 22       O 23       H 24
 ------------------------------------------------------------------------------
     H   19   4.104530
     N   20   0.078170  18.790259
     O   21   0.016747   9.522806  12.231385
     O   22   0.017760   9.690165   2.695386  12.318902
     O   23   0.002131   0.008493   0.003213   0.006813   4.289729
     H   24   0.000567   0.003720   0.001719   0.001322   4.278126   4.292956
     H   25   0.002437   0.020135   0.005613   0.006681   0.045540   0.047884
     H   26   0.001912   0.020211   0.005191   0.006348   0.085315   0.100857
     O   27   0.007513   0.084371   0.023214   0.026390   0.129509   0.097203


                  H 25       H 26       O 27
 ------------------------------------------
     H   25   4.314062
     H   26   0.801879   4.325793
     O   27   3.903454   3.920083   6.183518


          HEAT OF FORMATION =    -210.245755 KCALS/MOLE


          TRIVIAL VIBRATIONS, SHOULD BE ZERO

  28.6992=TX  34.6274=TY  36.4118=TZ  -3.5568=RX   2.0893=RY   1.7188=RZ


      MOLECULAR POINT GROUP   :   C1  


           EIGENVECTORS  


   Root No.       1         2         3         4         5         6         7         8

                 1 A       2 A       3 A       4 A       5 A       6 A       7 A       8 A   

                  -0.1      -0.0      -0.0      -0.0      -0.0      -0.0       0.0       0.0
  
           1    0.0022    0.0242   -0.0283    0.0385    0.0491    0.0576   -0.0187   -0.0433
           2   -0.0170   -0.0258    0.0024   -0.0043   -0.0272   -0.0098    0.0124    0.0235
           3   -0.0130    0.0000   -0.0265   -0.1823   -0.0542   -0.0389    0.1295   -0.0221
           4    0.0015    0.0246   -0.0284    0.0375    0.0487    0.0577   -0.0176   -0.0436
           5   -0.0140   -0.0139   -0.0039    0.0201   -0.0212    0.0169   -0.0012    0.0077
           6    0.0113    0.0224   -0.0427   -0.1202    0.0714   -0.0679    0.0526   -0.1308
           7   -0.0035    0.0147   -0.0236    0.0170    0.0452    0.0344   -0.0038   -0.0334
           8   -0.0113   -0.0083   -0.0068    0.0332   -0.0188    0.0305   -0.0094    0.0014
           9   -0.0033    0.0048   -0.0218   -0.0067    0.0686   -0.0439   -0.1021   -0.0369
          10   -0.0029    0.0032   -0.0173   -0.0016    0.0406    0.0101    0.0037   -0.0152
          11   -0.0125   -0.0146   -0.0030    0.0222   -0.0219    0.0169   -0.0055    0.0124
          12   -0.0083   -0.0292    0.0151    0.1214    0.0236   -0.0206   -0.2425    0.0955
          13   -0.0026    0.0037   -0.0175   -0.0008    0.0426    0.0103    0.0000   -0.0157
          14   -0.0157   -0.0270    0.0041    0.0009   -0.0288   -0.0096    0.0074    0.0290
          15   -0.0144   -0.0448    0.0280    0.0465   -0.0914   -0.0103   -0.0770    0.1402
          16    0.0004    0.0136   -0.0224    0.0199    0.0455    0.0335   -0.0102   -0.0281
          17   -0.0172   -0.0329    0.0066   -0.0136   -0.0313   -0.0232    0.0160    0.0357
          18   -0.0275   -0.0356    0.0107   -0.1385   -0.1678   -0.0072    0.1007    0.1374
          19    0.0034    0.0327   -0.0336    0.0548    0.0565    0.0757   -0.0292   -0.0578
          20   -0.0177   -0.0304    0.0053   -0.0142   -0.0309   -0.0203    0.0193    0.0310
          21   -0.0160    0.0100   -0.0372   -0.2379   -0.0598   -0.0418    0.2080   -0.0626
          22    0.0080    0.0321   -0.0303    0.0568    0.0520    0.0740   -0.0321   -0.0476
          23   -0.0093   -0.0097   -0.0049    0.0309   -0.0191    0.0259   -0.0094    0.0052
          24    0.0412    0.0513   -0.0664   -0.1515    0.1599   -0.1085    0.1121   -0.2739
          25   -0.0009   -0.0062   -0.0116   -0.0122    0.0338   -0.0108    0.0202   -0.0030
          26   -0.0129   -0.0091   -0.0063    0.0267   -0.0182    0.0278   -0.0131    0.0050
          27   -0.0070   -0.0390    0.0307    0.2568    0.0723   -0.0102   -0.4432    0.1502
          28    0.0004    0.0139   -0.0226    0.0209    0.0470    0.0338   -0.0112   -0.0292
          29   -0.0192   -0.0417    0.0121   -0.0297   -0.0336   -0.0441    0.0243    0.0471
          30   -0.0385   -0.0485    0.0238   -0.2063   -0.2753    0.0122    0.2042    0.2180
          31   -0.0038   -0.0064   -0.0134   -0.0239    0.0415   -0.0102    0.0034   -0.0041
          32   -0.0150   -0.0329    0.0072   -0.0071   -0.0289   -0.0217    0.0127    0.0331
          33    0.0011   -0.0531    0.0487    0.1720   -0.0984   -0.0166    0.0085    0.0953
          34   -0.0032   -0.0065   -0.0132   -0.0207    0.0417   -0.0109    0.0062   -0.0063
          35   -0.0153   -0.0401    0.0093   -0.0382   -0.0252   -0.0376    0.0044    0.0451
          36   -0.0163   -0.0328    0.0107   -0.1682   -0.0564    0.0691   -0.3203    0.2528
          37   -0.0029   -0.0146   -0.0109   -0.0471    0.0435   -0.0265    0.0003    0.0060
          38   -0.0140   -0.0284    0.0074    0.0247   -0.0304   -0.0158    0.0325    0.0160
          39    0.0413   -0.0705    0.0991    0.6494   -0.1215   -0.1261    0.4947   -0.1782
          40   -0.0057    0.0158   -0.0243    0.0180    0.0449    0.0343   -0.0011   -0.0364
          41   -0.0194    0.0040   -0.0164    0.0486   -0.0182    0.0690   -0.0173   -0.0257
          42    0.0058    0.0282   -0.0293   -0.0129    0.0789   -0.0579   -0.0628   -0.0584
          43    0.0057    0.0430   -0.0280    0.0183    0.0383    0.0342    0.0263   -0.0512
          44   -0.0263   -0.0124   -0.0241    0.0146   -0.0716    0.2076   -0.0070   -0.0902
          45    0.0191    0.0463   -0.0273    0.0088    0.1077   -0.1535   -0.0592   -0.0215
          46    0.0073    0.0014   -0.0152    0.0035    0.0415    0.0060    0.0081   -0.0060
          47   -0.0219    0.0102   -0.0212    0.0496   -0.0235    0.0965   -0.0178   -0.0479
          48    0.0101    0.0140   -0.0344   -0.0802   -0.0145    0.1396   -0.0059   -0.1505
          49    0.0068    0.0023   -0.0166    0.0009    0.0385    0.0131    0.0141   -0.0141
          50   -0.0310    0.0218   -0.0294    0.0524   -0.0293    0.1390   -0.0143   -0.0884
          51    0.0217    0.0170   -0.0398   -0.1380   -0.0670    0.2049    0.0968   -0.2515
          52   -0.0018   -0.0095   -0.0052    0.0471    0.0870   -0.0744   -0.0733    0.0962
          53   -0.0142    0.0190   -0.0189    0.0713    0.0139   -0.0058   -0.0179   -0.0198
          54    0.0023    0.0044   -0.0334   -0.0860   -0.0311    0.1958   -0.0256   -0.1465
          55    0.0199   -0.0019   -0.0170   -0.0496   -0.0044    0.0559    0.0935   -0.0739
          56   -0.0234   -0.0046   -0.0185    0.0239   -0.0611    0.1891   -0.0176   -0.0592
          57    0.0042    0.0058   -0.0317   -0.0775   -0.0208    0.1774   -0.0352   -0.1333
          58   -0.0150    0.0073   -0.0278    0.0235    0.0512    0.0699   -0.0399   -0.0514
          59    0.0312    0.0295   -0.0114    0.0942    0.0434   -0.0812   -0.0343    0.0292
          60    0.0414    0.0461   -0.0247    0.0100    0.1086   -0.1660   -0.0517   -0.0181
          61    0.0762    0.0081   -0.0158    0.0191    0.0424    0.0960   -0.0458   -0.0539
          62   -0.4511    0.0238   -0.0818    0.1274    0.1110   -0.2104   -0.0396    0.0296
          63   -0.3329    0.0450   -0.0727    0.0240    0.1415   -0.2771   -0.0158   -0.0050
          64   -0.1215    0.0019   -0.0452    0.0285    0.0679    0.0764   -0.0594   -0.0678
          65    0.6233    0.0545    0.0653    0.0932    0.0169   -0.0637   -0.0428    0.0661
          66    0.4776    0.0636    0.0285    0.0147    0.1017   -0.1431   -0.0799   -0.0001
          67    0.0943   -0.2950   -0.3998   -0.0214   -0.1503   -0.1211    0.0968    0.2344
          68    0.0690    0.0319   -0.1472   -0.1723    0.3031   -0.1525    0.2024    0.1758
          69   -0.1036    0.1071    0.4806    0.0804    0.1546    0.4234    0.0798    0.1826
          70    0.0215   -0.1357   -0.0836    0.0003   -0.1401    0.1497    0.1540    0.3774
          71    0.0105    0.1605    0.1999   -0.1678    0.4064    0.0519    0.2572    0.2712
          72   -0.0196   -0.0787   -0.1133    0.0869   -0.0997    0.1398   -0.0094    0.0655
          73   -0.0309    0.0874    0.3220   -0.0719   -0.2756   -0.1871   -0.0299    0.0099
          74    0.0103    0.5746   -0.1956   -0.0305   -0.2822   -0.0466   -0.1016   -0.0824
          75   -0.0181   -0.0797   -0.0420    0.0291    0.1650   -0.1233    0.0213   -0.0122
          76   -0.0291   -0.1554    0.4588   -0.1130   -0.1071   -0.2617   -0.0230   -0.0553
          77    0.0188   -0.5188    0.2184   -0.1523    0.0228   -0.0694   -0.1253   -0.2609
          78   -0.0146   -0.1520   -0.1716    0.0623   -0.1384    0.0687   -0.0207    0.0445
          79   -0.0239    0.3014    0.1706   -0.0425   -0.3220   -0.2202   -0.0316    0.0132
          80    0.0151   -0.0793    0.0514   -0.1037   -0.0960   -0.0593   -0.1146   -0.1896
          81   -0.0442    0.1980    0.0389    0.0440    0.0423   -0.0183    0.0432    0.1194


   Root No.       9        10        11        12        13        14        15        16

                 9 A      10 A      11 A      12 A      13 A      14 A      15 A      16 A   

                   0.0       0.0       0.0       0.0       0.1       0.1       0.1       0.1
  
           1   -0.0270   -0.0716   -0.0198   -0.0250    0.0270   -0.0301    0.0106   -0.0419
           2   -0.0168    0.0356    0.0197   -0.0090   -0.0118   -0.0121    0.0009   -0.0408
           3    0.0471    0.0798    0.0267   -0.0338   -0.0200   -0.1336   -0.0104   -0.0016
           4   -0.0270   -0.0725   -0.0201   -0.0242    0.0260   -0.0270    0.0089   -0.0339
           5   -0.0406    0.0162    0.0099   -0.0320    0.0060   -0.0468    0.0222   -0.1193
           6    0.0976    0.2221    0.0888   -0.0114   -0.0115    0.0271   -0.0052   -0.0930
           7   -0.0061   -0.0523   -0.0122   -0.0056    0.0121   -0.0013   -0.0031    0.0100
           8   -0.0530    0.0052    0.0053   -0.0440    0.0149   -0.0644    0.0309   -0.1518
           9    0.0528    0.1537    0.0922    0.0022   -0.0155   -0.0860   -0.0028   -0.0191
          10    0.0151   -0.0395   -0.0069    0.0105    0.0025    0.0157   -0.0138    0.0509
          11   -0.0414    0.0122    0.0088   -0.0334    0.0082   -0.0548    0.0244   -0.1265
          12    0.0075    0.1173    0.1115    0.0371   -0.0320   -0.2153   -0.0167    0.0273
          13    0.0154   -0.0384   -0.0057    0.0120    0.0017    0.0164   -0.0158    0.0599
          14   -0.0185    0.0318    0.0196   -0.0095   -0.0104   -0.0160    0.0026   -0.0472
          15   -0.0161   -0.0076    0.0538    0.0162   -0.0231   -0.0695   -0.0122    0.0037
          16   -0.0059   -0.0559   -0.0131   -0.0073    0.0154   -0.0098   -0.0011    0.0029
          17   -0.0059    0.0423    0.0237    0.0014   -0.0190   -0.0005   -0.0068   -0.0109
          18   -0.0209   -0.0937   -0.0152   -0.0327   -0.0232   -0.1549   -0.0111    0.0816
          19   -0.0418   -0.0810   -0.0249   -0.0396    0.0396   -0.0492    0.0237   -0.0946
          20   -0.0079    0.0416    0.0225   -0.0008   -0.0188   -0.0022   -0.0065   -0.0120
          21    0.0558    0.0836    0.0062   -0.0521   -0.0204   -0.1873   -0.0136   -0.0008
          22   -0.0433   -0.0890   -0.0253   -0.0409    0.0386   -0.0554    0.0210   -0.0808
          23   -0.0499    0.0070    0.0070   -0.0412    0.0128   -0.0625    0.0290   -0.1451
          24    0.1609    0.3569    0.1273   -0.0118   -0.0018    0.2405   -0.0086   -0.2138
          25    0.0329   -0.0329   -0.0101    0.0199   -0.0034    0.0340   -0.0204    0.0825
          26   -0.0504    0.0079    0.0105   -0.0381    0.0113   -0.0622    0.0272   -0.1406
          27   -0.0120    0.1647    0.1588    0.0708   -0.0489   -0.3928   -0.0316    0.0715
          28   -0.0054   -0.0543   -0.0123   -0.0068    0.0155   -0.0086   -0.0014    0.0028
          29    0.0132    0.0587    0.0313    0.0196   -0.0320    0.0255   -0.0212    0.0443
          30   -0.0647   -0.2606   -0.0921   -0.0640   -0.0230   -0.1981   -0.0106    0.1861
          31    0.0364   -0.0153    0.0079    0.0386   -0.0196    0.0715   -0.0515    0.1958
          32   -0.0063    0.0433    0.0269    0.0061   -0.0219    0.0280   -0.0176    0.0252
          33   -0.0161   -0.0460    0.0386    0.0257   -0.0045    0.2240   -0.0074   -0.1047
          34    0.0370   -0.0142    0.0078    0.0385   -0.0199    0.0693   -0.0520    0.1989
          35    0.0122    0.0642    0.0409    0.0332   -0.0419    0.0976   -0.0545    0.1624
          36   -0.0786   -0.1273    0.0646    0.0496    0.0208    0.6117   -0.0012   -0.2723
          37    0.0540    0.0045    0.0208    0.0630   -0.0389    0.1276   -0.0868    0.3296
          38   -0.0135    0.0350    0.0175   -0.0092   -0.0106   -0.0091    0.0031   -0.0504
          39    0.0728    0.0320   -0.0093    0.0027   -0.0108    0.1067   -0.0097   -0.0246
          40   -0.0084   -0.0577   -0.0116   -0.0086    0.0110    0.0019   -0.0062    0.0139
          41   -0.0803    0.0005    0.0066   -0.0440    0.0082   -0.0189    0.0077   -0.0536
          42    0.0235   -0.0066    0.0462   -0.0627   -0.0060   -0.0279   -0.0097    0.0069
          43   -0.0518   -0.1817   -0.0412   -0.0529   -0.0083    0.0736   -0.0364    0.1083
          44   -0.1409    0.0657   -0.0047   -0.0305   -0.0065   -0.0123    0.0034   -0.0188
          45    0.0478   -0.0982    0.0450   -0.0908   -0.0054   -0.0041   -0.0246    0.0219
          46    0.0168   -0.0658   -0.0507   -0.0294    0.0414   -0.0792    0.0561   -0.1796
          47   -0.1001    0.0068    0.0235   -0.0360   -0.0098    0.0281   -0.0287    0.0525
          48   -0.0909   -0.0089    0.0063   -0.1047   -0.0229   -0.0055   -0.0404    0.0223
          49    0.0096   -0.0780   -0.0246   -0.0115    0.0393   -0.0783    0.0543   -0.1753
          50   -0.1350    0.0002    0.0966    0.0069   -0.0436    0.1069   -0.0956    0.2472
          51   -0.1701   -0.2240    0.4086    0.1828   -0.0279   -0.0489   -0.0218   -0.0397
          52    0.0986    0.0963   -0.3871   -0.2689    0.0663   -0.0980    0.0782   -0.2508
          53   -0.0530   -0.0717    0.1856    0.0933    0.0066   -0.0247    0.0178   -0.0229
          54   -0.1064    0.0899   -0.1975   -0.2625   -0.0303    0.0318   -0.0733    0.0657
          55   -0.0366   -0.2245    0.2173    0.1666    0.0533   -0.1474    0.1060   -0.3282
          56   -0.1366    0.0910   -0.1822   -0.1980   -0.0119    0.0461   -0.0509    0.0393
          57   -0.0939    0.0970   -0.2119   -0.2722   -0.0281    0.0285   -0.0711    0.0629
          58    0.0151    0.1226    0.0357    0.0737   -0.0067    0.0039   -0.0040    0.0770
          59   -0.0178   -0.0786    0.0264   -0.0681    0.0138    0.0460   -0.0407    0.0447
          60    0.0475   -0.1449    0.0370   -0.1221    0.0059    0.0076   -0.0443    0.0264
          61    0.0110    0.1543    0.0372    0.0936   -0.0093   -0.0009    0.0052    0.0832
          62    0.0395   -0.0826    0.0719   -0.0919    0.0077    0.1026   -0.1002    0.1153
          63    0.0558   -0.3233    0.0188   -0.2223    0.0221    0.0228   -0.0787   -0.0187
          64    0.0392    0.2406    0.0738    0.1282   -0.0196    0.0195   -0.0070    0.1281
          65   -0.0340   -0.1444   -0.0082   -0.0914    0.0244    0.0525   -0.0474    0.0663
          66    0.0582   -0.0811    0.0436   -0.0868    0.0027    0.0290   -0.0525    0.0981
          67    0.0148    0.1109   -0.0162    0.0708   -0.3091    0.0056   -0.2274   -0.1296
          68   -0.1109    0.0597   -0.1464    0.2533    0.1577   -0.0667   -0.2269   -0.0289
          69    0.2919   -0.0594   -0.0872    0.1106   -0.1793    0.0237   -0.1190   -0.0633
          70    0.2733    0.1346    0.2851   -0.2845   -0.1016    0.0943    0.3528    0.0582
          71    0.0391    0.0591    0.0463    0.0168    0.1399   -0.0317    0.0759    0.0529
          72    0.1337   -0.0355   -0.3135    0.4012    0.0467    0.0127   -0.3774   -0.1062
          73   -0.0728    0.1379    0.0479   -0.0107    0.2318    0.0116   -0.1248   -0.0230
          74    0.3685   -0.0624   -0.1325    0.1544   -0.1588   -0.0118    0.1635    0.0180
          75   -0.3546   -0.0121   -0.2790    0.2741   -0.3782    0.0692    0.5390    0.0814
          76   -0.2150    0.0945   -0.0238    0.0336   -0.1020    0.0126   -0.0439   -0.0409
          77    0.3107   -0.1373   -0.1074    0.0812    0.0272   -0.0204    0.1369    0.0567
          78    0.0250    0.0577   -0.0745    0.1322    0.7324    0.0579    0.2515    0.1512
          79   -0.1281    0.1282   -0.0276    0.0671    0.0168    0.0275   -0.0209   -0.0235
          80    0.3298   -0.1067   -0.1192    0.1110   -0.0415   -0.0163    0.1517    0.0437
          81   -0.1536    0.0745   -0.0938    0.1249    0.0821    0.0306    0.2633    0.0507


   Root No.      17        18        19        20        21        22        23        24

                17 A      18 A      19 A      20 A      21 A      22 A      23 A      24 A   

                   0.2       0.2       0.2       0.2       0.3       0.4       0.4       0.5
  
           1    0.0382    0.0207   -0.1082   -0.0327   -0.0353   -0.0357   -0.1115    0.0101
           2   -0.0304   -0.0078   -0.0094   -0.1003    0.0362   -0.0056   -0.0083   -0.0199
           3    0.1808    0.0536    0.0566   -0.0480   -0.0544   -0.0199    0.0080    0.1721
           4    0.0357    0.0196   -0.0994   -0.0301   -0.0303   -0.0278   -0.0910    0.0081
           5   -0.0267   -0.0041   -0.0464   -0.0606   -0.0617   -0.0423   -0.0859   -0.0499
           6   -0.0218   -0.0196   -0.1053    0.0691   -0.0039   -0.0175    0.0046    0.1599
           7    0.0177    0.0092   -0.0568   -0.0564    0.0453    0.0080    0.0010   -0.0002
           8   -0.0150    0.0020   -0.0676   -0.0374   -0.1027   -0.0574   -0.1251   -0.0434
           9   -0.1396   -0.0330   -0.0577   -0.0168   -0.1693   -0.0296    0.0662    0.1836
          10    0.0179    0.0086   -0.0557   -0.0984    0.1269    0.0189    0.0043    0.0733
          11   -0.0231   -0.0022   -0.0618   -0.0833   -0.0392   -0.0476   -0.1158   -0.0124
          12    0.0188   -0.0134   -0.0448    0.0517   -0.0036   -0.0275    0.0079    0.2277
          13    0.0205    0.0095   -0.0559   -0.1003    0.1371    0.0243    0.0126    0.0800
          14   -0.0327   -0.0079   -0.0242   -0.1140    0.0463   -0.0145   -0.0409    0.0051
          15   -0.0730   -0.0270   -0.0760    0.0769   -0.0060   -0.0545   -0.0137    0.4590
          16    0.0296    0.0153   -0.0911   -0.0876    0.0710   -0.0075   -0.0650    0.0646
          17   -0.0364   -0.0106   -0.0033   -0.1183    0.0842    0.0052    0.0073    0.0101
          18   -0.1121   -0.0285   -0.0693    0.0602   -0.0025   -0.0280   -0.0089    0.2124
          19    0.0557    0.0309   -0.1534    0.0130   -0.1553   -0.0896   -0.2293   -0.0212
          20   -0.0341   -0.0111    0.0163   -0.1359    0.1066    0.0239    0.0524   -0.0049
          21    0.5645    0.1750    0.2941   -0.2310   -0.0883    0.0191    0.0379   -0.1348
          22    0.0432    0.0310   -0.1492   -0.0164   -0.1442   -0.0915   -0.2587   -0.0103
          23   -0.0233    0.0017   -0.0727   -0.0553   -0.1271   -0.0786   -0.1799   -0.0646
          24   -0.0538   -0.0671   -0.3175    0.3039    0.3360    0.0411   -0.0805   -0.1812
          25    0.0078    0.0037   -0.0270   -0.1210    0.2276    0.0584    0.0818    0.1853
          26   -0.0181    0.0006   -0.0801   -0.0704   -0.0986   -0.0725   -0.1640   -0.0680
          27    0.2626    0.0215   -0.0223    0.1173    0.2822    0.0521   -0.0490   -0.3626
          28    0.0337    0.0172   -0.0949   -0.0896    0.0699   -0.0097   -0.0715    0.0768
          29   -0.0495   -0.0181    0.0272   -0.1823    0.2155    0.0533    0.1029    0.0821
          30   -0.3464   -0.0938   -0.1767    0.1573    0.1404    0.0346   -0.0296   -0.3872
          31    0.0702    0.0353   -0.0376    0.1007   -0.0327    0.0004   -0.0079    0.0397
          32   -0.0031    0.0072   -0.0088   -0.0068   -0.0551   -0.0306   -0.0588   -0.0433
          33    0.0172    0.0168    0.0049    0.0002   -0.0035   -0.0221    0.0007    0.1097
          34    0.0719    0.0360   -0.0384    0.1079   -0.0408   -0.0019   -0.0115    0.0393
          35    0.0637    0.0420    0.0152    0.2568   -0.3182   -0.0772   -0.1161   -0.1344
          36    0.1159    0.0634    0.0857   -0.0858   -0.0266    0.0032    0.0261   -0.1401
          37    0.1313    0.0665   -0.0208    0.3506   -0.2691   -0.0409   -0.0563   -0.0268
          38   -0.0359   -0.0094   -0.0180   -0.1499    0.0747   -0.0080   -0.0344   -0.0146
          39    0.0419    0.0304    0.0395   -0.0239   -0.0370   -0.0064    0.0104   -0.0937
          40    0.0146    0.0042   -0.0489   -0.0587    0.0539    0.0188    0.0401   -0.0170
          41    0.0146    0.0120   -0.0127    0.1081   -0.0685    0.0449    0.1276    0.0080
          42   -0.1254   -0.0105   -0.0483   -0.0997   -0.2022    0.0196    0.1655   -0.0599
          43    0.0984    0.0178   -0.0644   -0.0883    0.1619    0.0969    0.2227   -0.1792
          44    0.0494    0.0076   -0.0259    0.1926   -0.0328    0.0799    0.3146    0.0751
          45   -0.1109   -0.0238   -0.0388   -0.1656   -0.1836    0.0028    0.1024   -0.1505
          46   -0.0201   -0.0127    0.0739    0.0758    0.0104    0.0246    0.0619   -0.0152
          47    0.0347    0.0169   -0.0518    0.0589   -0.0270    0.0542    0.1473    0.0118
          48   -0.0507   -0.0202    0.0525   -0.0224   -0.0468    0.0041    0.0440   -0.0247
          49   -0.0185   -0.0143    0.0802    0.0779    0.0206    0.0268    0.0620   -0.0163
          50    0.0831    0.0393   -0.2388   -0.1440    0.0463    0.0322    0.0819    0.0068
          51   -0.0382   -0.0398    0.1691    0.0426    0.0326   -0.0094   -0.0687   -0.0050
          52   -0.0649   -0.0205    0.1209    0.1639   -0.0987    0.0725    0.2908   -0.0500
          53   -0.0072    0.0267   -0.1333    0.0646   -0.2053    0.1115    0.4483   -0.0413
          54   -0.0303   -0.0303    0.1268   -0.0094    0.0629   -0.0292   -0.1351    0.0093
          55   -0.0290   -0.0396    0.2804    0.2690    0.0765    0.0504    0.0332    0.0338
          56    0.0717   -0.0016    0.0994    0.1852    0.1137    0.0422   -0.0043    0.0875
          57   -0.0308   -0.0250    0.0947   -0.0058    0.0204   -0.0130   -0.0507    0.0025
          58   -0.1538   -0.0401    0.1154   -0.0958   -0.0216    0.0030    0.0250   -0.0380
          59   -0.0087   -0.0230    0.1477    0.1037    0.0519    0.0202   -0.0238    0.0280
          60   -0.0553   -0.0255   -0.0188   -0.0874   -0.0928   -0.0070    0.0665   -0.0453
          61   -0.1836   -0.0415    0.1280   -0.1172   -0.0535    0.0056    0.0399   -0.0658
          62   -0.0937   -0.0878    0.4058    0.1345    0.1437   -0.0313   -0.1977    0.0490
          63    0.1061   -0.0001   -0.1163    0.0057    0.0527   -0.0005    0.0315    0.0721
          64   -0.3093   -0.0795    0.2926   -0.1493   -0.0928   -0.0143   -0.0128   -0.1203
          65    0.0684   -0.0206    0.1392    0.1425    0.1622    0.0107   -0.0917    0.1120
          66   -0.1416   -0.0588    0.1449   -0.1047   -0.0655   -0.0292   -0.0319   -0.0469
          67   -0.1084    0.4203    0.0253    0.0261    0.0695   -0.2402    0.0699   -0.0269
          68    0.0248   -0.0626   -0.0067   -0.0035   -0.0073    0.0242   -0.0059    0.0047
          69   -0.0475    0.1910    0.0189    0.0233    0.0703   -0.2969    0.0840   -0.0204
          70    0.1238   -0.3226   -0.0153   -0.0304   -0.0709    0.2415   -0.0695    0.0021
          71    0.0397   -0.0712    0.0003    0.0022    0.0170   -0.0860    0.0237   -0.0016
          72    0.1142   -0.4191   -0.0320   -0.0377   -0.1039    0.3558   -0.0993    0.0178
          73   -0.0106    0.0556    0.0005   -0.0054   -0.0113    0.0351   -0.0022   -0.0078
          74    0.0005    0.0601    0.0080    0.0130    0.0252   -0.0296   -0.0098    0.0071
          75    0.0908   -0.2153    0.0089    0.0122    0.0343   -0.1954    0.0312    0.0022
          76    0.0077   -0.0177    0.0001   -0.0061   -0.0280    0.1161   -0.0348    0.0034
          77   -0.0126    0.0755    0.0000   -0.0034    0.0042    0.0842   -0.0349    0.0075
          78    0.0192    0.0637    0.0098    0.0065    0.0840   -0.3164    0.0803   -0.0230
          79    0.0800   -0.2131   -0.0004   -0.0012    0.0139   -0.2422    0.0770   -0.0215
          80   -0.0002    0.0462    0.0025    0.0033    0.0158   -0.0056   -0.0088    0.0037
          81   -0.1544    0.5354    0.0174    0.0112   -0.0261    0.5703   -0.1998    0.0468


   Root No.      25        26        27        28        29        30        31        32

                25 A      26 A      27 A      28 A      29 A      30 A      31 A      32 A   

                   0.6       0.8       0.8       0.9       0.9       0.9       1.0       1.2
  
           1   -0.0570   -0.0383    0.0082   -0.1093   -0.0009    0.0432   -0.0617   -0.0238
           2    0.0692   -0.0076   -0.0248   -0.0562   -0.0113    0.0828   -0.0849    0.0188
           3    0.0628   -0.0123   -0.0008   -0.0026   -0.0330    0.0230   -0.0423    0.0937
           4   -0.0457   -0.0305    0.0062   -0.0836   -0.0051    0.0384   -0.0475    0.0058
           5    0.0920    0.0197   -0.0307    0.1143   -0.0079    0.0043   -0.0502   -0.0409
           6    0.0007    0.0606   -0.0022   -0.0046   -0.1093    0.0295   -0.0539    0.1067
           7    0.0763    0.0243   -0.0283    0.0232   -0.0360    0.0198   -0.1168    0.0402
           8    0.0313    0.0059   -0.0104    0.0509   -0.0018   -0.0284   -0.0323   -0.0780
           9   -0.1247    0.1641   -0.0046   -0.0027   -0.1791    0.0506   -0.0359    0.0577
          10   -0.0923    0.0092    0.0154    0.0532   -0.0070   -0.0413   -0.0790   -0.1194
          11   -0.0377   -0.0176    0.0061    0.0461    0.0100   -0.0296   -0.0289   -0.1648
          12    0.0631   -0.0070    0.0029   -0.0130   -0.0228   -0.0091    0.0056   -0.0230
          13   -0.1259    0.0116    0.0257    0.0831   -0.0070   -0.0501   -0.0717   -0.1385
          14   -0.0267   -0.0578    0.0059   -0.1611    0.0211    0.0910    0.0117    0.0027
          15    0.2745   -0.1887    0.0062   -0.0238    0.1439   -0.0615    0.0479   -0.0972
          16   -0.1664   -0.0417    0.0399   -0.0851    0.0055   -0.0235   -0.0368   -0.1290
          17    0.0035   -0.0202   -0.0048   -0.0574   -0.0038    0.0345   -0.0385   -0.0088
          18    0.1304   -0.0859    0.0018    0.0015    0.0524   -0.0040    0.0034    0.0191
          19   -0.0011   -0.0615   -0.0143    0.2062    0.1899    0.6567    0.0680    0.0160
          20    0.0362   -0.0004   -0.0140   -0.2548   -0.1229   -0.2572   -0.1835   -0.0080
          21   -0.0492    0.0004    0.0002    0.0036    0.0334   -0.0158    0.0412   -0.0739
          22   -0.1654   -0.1405    0.0333   -0.0513   -0.0819   -0.4521    0.3328    0.3658
          23    0.0379   -0.0365   -0.0205    0.1554   -0.0528   -0.2756    0.1567    0.1482
          24    0.0561   -0.0926    0.0081   -0.0044    0.0972   -0.0424    0.0445   -0.0609
          25   -0.2954   -0.0074    0.0975   -0.2340    0.1494    0.0960    0.3298    0.0880
          26    0.0652   -0.0090   -0.0367    0.2121   -0.0723   -0.1124   -0.2617   -0.3361
          27   -0.0430    0.0031    0.0037    0.0018    0.0108    0.0130    0.0038    0.0317
          28   -0.1818   -0.0508    0.0459   -0.0971    0.0097   -0.0210   -0.0466   -0.1647
          29   -0.0618    0.0095    0.0191    0.6702    0.0509    0.0429    0.2622    0.2489
          30   -0.1685    0.0938   -0.0027    0.0047   -0.0543    0.0253   -0.0069   -0.0000
          31   -0.0727    0.0220    0.0180    0.0939   -0.0117   -0.0661   -0.0801   -0.1456
          32    0.0089   -0.0625   -0.0040   -0.2032    0.0211    0.1328    0.0272    0.0532
          33    0.0829   -0.0688    0.0025   -0.0053    0.0622   -0.0293    0.0219   -0.0520
          34   -0.0716    0.0219    0.0182    0.1000   -0.0125   -0.0724   -0.0855   -0.1566
          35    0.1197   -0.0629   -0.0295   -0.2431    0.0276    0.1603    0.1299    0.2264
          36   -0.0991    0.0717   -0.0023    0.0152   -0.0554    0.0152   -0.0227    0.0295
          37    0.0125    0.0410    0.0026    0.1548   -0.0148   -0.1258   -0.0299   -0.0885
          38   -0.0445   -0.0713    0.0041   -0.2454    0.0186    0.1731   -0.0064    0.0201
          39   -0.0654    0.0518   -0.0020    0.0216   -0.0422    0.0049   -0.0180    0.0212
          40    0.1443    0.0794   -0.0564    0.0041   -0.0463    0.0162   -0.1251    0.1237
          41   -0.0473    0.0320    0.0679   -0.0063    0.0198   -0.0055    0.0557   -0.0675
          42   -0.0944    0.0145    0.0125   -0.0006   -0.0771    0.0255    0.0792   -0.0787
          43    0.5166   -0.4993    0.0021    0.0136   -0.1095   -0.0142    0.0801    0.0095
          44   -0.2204   -0.2399   -0.3963    0.0221   -0.3803    0.0990    0.1002   -0.0628
          45    0.1416    0.0256    0.3625   -0.0195    0.1485   -0.0503    0.1526   -0.1542
          46    0.1016    0.1197   -0.0729   -0.0084    0.0064   -0.0042   -0.0479    0.0710
          47   -0.0185    0.0273    0.0820   -0.0021    0.0142   -0.0036    0.0366   -0.0524
          48   -0.0605   -0.0547   -0.0708    0.0055   -0.0130    0.0066    0.0400   -0.0639
          49    0.1313    0.1638   -0.1075   -0.0155    0.0384   -0.0151   -0.0536    0.0964
          50    0.2576    0.5755   -0.2169   -0.0974    0.1749   -0.0637    0.2402   -0.0794
          51   -0.0730   -0.0787   -0.1275    0.0124    0.4299   -0.1102   -0.2110    0.1469
          52   -0.0177    0.0601   -0.2158   -0.0242    0.4270   -0.1235    0.0175   -0.0071
          53   -0.2026   -0.1292    0.1806    0.0317    0.1941   -0.0325   -0.1467    0.0602
          54    0.0412    0.0591   -0.1647   -0.0254   -0.0287   -0.0032    0.2010   -0.1852
          55    0.1294    0.2193    0.2135   -0.0370   -0.2893    0.0631    0.2986   -0.1889
          56    0.0262    0.0959    0.6074    0.0141   -0.0791    0.0314   -0.1198    0.1246
          57   -0.0407   -0.0499    0.1375    0.0271    0.0388    0.0020   -0.1784    0.1312
          58    0.0842    0.0821   -0.0347    0.0047   -0.0903    0.0310   -0.1552    0.1989
          59   -0.0090    0.0091    0.0444   -0.0022    0.0680   -0.0202    0.0091   -0.0212
          60   -0.0050    0.0089    0.0429   -0.0010   -0.0760    0.0226    0.0501   -0.0396
          61    0.0873    0.0553   -0.0011    0.0033   -0.0665    0.0237   -0.1136    0.1493
          62   -0.0875   -0.1185   -0.1129    0.0086    0.0983   -0.0259    0.0617   -0.1169
          63    0.0187    0.1560   -0.1187    0.0046   -0.2305    0.0736   -0.2039    0.2748
          64    0.0416   -0.0609    0.0042    0.0024   -0.0405    0.0138    0.0216   -0.0028
          65   -0.0139    0.0592   -0.1130    0.0070    0.0030    0.0071   -0.1367    0.1312
          66   -0.0591   -0.0810   -0.0646    0.0039   -0.0958    0.0319    0.0996   -0.1031
          67   -0.0058    0.0056    0.0031    0.0007   -0.0017    0.0016    0.0013    0.0010
          68    0.0029   -0.0018   -0.0005   -0.0007    0.0014   -0.0009    0.0017   -0.0014
          69   -0.0055    0.0048    0.0033    0.0004   -0.0010    0.0008    0.0003    0.0014
          70   -0.0035    0.0019   -0.0046    0.0008   -0.0012    0.0020   -0.0018    0.0016
          71    0.0011   -0.0005    0.0011   -0.0006    0.0020   -0.0009    0.0018   -0.0014
          72    0.0001   -0.0011   -0.0063    0.0005   -0.0022    0.0010   -0.0017    0.0017
          73   -0.0026    0.0011    0.0007    0.0004   -0.0043    0.0025    0.0042   -0.0047
          74   -0.0004    0.0053   -0.0031   -0.0003    0.0043   -0.0014   -0.0044    0.0046
          75   -0.0133    0.0142    0.0003   -0.0003    0.0036   -0.0011   -0.0033    0.0034
          76   -0.0039    0.0016   -0.0063    0.0004    0.0005    0.0010   -0.0043    0.0045
          77    0.0135   -0.0039   -0.0004   -0.0010    0.0027   -0.0011   -0.0017    0.0019
          78    0.0102    0.0030    0.0102    0.0001    0.0036   -0.0023   -0.0020    0.0050
          79   -0.0161    0.0111    0.0073    0.0007   -0.0001    0.0004    0.0031   -0.0020
          80    0.0052   -0.0000   -0.0000   -0.0005    0.0003   -0.0001    0.0009   -0.0014
          81    0.0194   -0.0110   -0.0272    0.0002   -0.0040    0.0035   -0.0114    0.0074


   Root No.      33        34        35        36        37        38        39        40

                33 A      34 A      35 A      36 A      37 A      38 A      39 A      40 A   

                   1.2       1.2       1.4       1.6       1.7       1.7       1.7       1.9
  
           1    0.0112   -0.1426   -0.0033   -0.0475    0.0792   -0.0751    0.2125    0.0230
           2   -0.0238    0.0836    0.0077   -0.0540   -0.0065   -0.2724    0.2280    0.0228
           3    0.4580    0.0407    0.2172   -0.1482   -0.0587    0.0323    0.0053   -0.0304
           4    0.0098   -0.1557   -0.0086   -0.0499    0.0762   -0.0778    0.1942    0.0064
           5   -0.0306    0.2852    0.0125   -0.0009   -0.0134    0.0352    0.0093    0.0390
           6    0.4032    0.0498   -0.0275    0.1173    0.0778   -0.0514   -0.0284    0.1190
           7   -0.0249    0.0232    0.0064   -0.0254    0.0116   -0.0736    0.0638    0.0319
           8   -0.0033    0.1393    0.0022   -0.0090    0.0481    0.0890    0.0539    0.0128
           9    0.1159    0.0239   -0.2788    0.2774    0.1454   -0.0827   -0.0305    0.0980
          10    0.0102    0.0524    0.0143    0.0105   -0.0194    0.0515   -0.0294    0.0364
          11    0.0147    0.1276    0.0059    0.0166    0.0332    0.2088    0.0063    0.0461
          12   -0.1330   -0.0073   -0.2488    0.2745    0.1437   -0.0915   -0.0470    0.1639
          13    0.0222    0.0244    0.0044    0.0163   -0.0322    0.0084   -0.0463    0.0053
          14    0.0036   -0.0730   -0.0003    0.0160   -0.0141    0.0237   -0.0354    0.0052
          15   -0.3269   -0.0547    0.0142   -0.0486   -0.0344    0.0142   -0.0028   -0.0340
          16    0.0515   -0.1969   -0.0046    0.0202    0.0622    0.2196   -0.0259    0.0358
          17   -0.0059    0.0198    0.0088   -0.0087   -0.0296   -0.1045    0.0444    0.0098
          18    0.1537   -0.0059    0.2353   -0.2461   -0.1255    0.0757    0.0276   -0.1534
          19   -0.0237    0.0744   -0.0004   -0.0021   -0.0510   -0.2514    0.1244    0.0197
          20   -0.0216   -0.0394    0.0024   -0.1106    0.0887   -0.3168    0.4525    0.0504
          21   -0.3430   -0.0307   -0.1389    0.0895    0.0308   -0.0120   -0.0128    0.0130
          22   -0.0032   -0.1831    0.0103    0.0066   -0.0641   -0.1844   -0.0465   -0.0376
          23   -0.0486    0.3799    0.0283    0.0397   -0.1177    0.0100   -0.1684    0.0338
          24   -0.2283   -0.0338    0.0152   -0.0612   -0.0322    0.0197    0.0108   -0.0485
          25   -0.0440    0.5297   -0.0152   -0.0299    0.0734    0.2119    0.0879    0.0516
          26    0.0465   -0.0763    0.0209    0.0481   -0.0061    0.2327   -0.0565    0.0768
          27    0.1336    0.0246    0.1437   -0.1365   -0.0630    0.0420    0.0209   -0.0632
          28    0.0677   -0.2562   -0.0024    0.0230    0.0887    0.3224   -0.0333    0.0543
          29    0.0089   -0.3411   -0.0281   -0.0281    0.1002    0.0354    0.1028    0.0006
          30   -0.0580    0.0072   -0.1407    0.1447    0.0734   -0.0405   -0.0139    0.0821
          31    0.0155    0.0520    0.0024    0.0353   -0.1473   -0.2185   -0.1933   -0.1268
          32    0.0054   -0.1217   -0.0009    0.0479   -0.0836   -0.0486   -0.1933   -0.0641
          33   -0.1762   -0.0306    0.0083   -0.0336   -0.0222    0.0166    0.0062   -0.0244
          34    0.0157    0.0528    0.0041    0.0345   -0.1517   -0.2251   -0.1963   -0.1338
          35   -0.0059   -0.1639   -0.0057    0.0015    0.1350    0.3273    0.0517    0.1286
          36    0.1247    0.0289   -0.0050    0.0197    0.0083   -0.0199   -0.0041    0.0086
          37   -0.0071    0.1074    0.0006   -0.0411    0.0601    0.0025    0.1739    0.0285
          38    0.0326   -0.1603    0.0008    0.0985   -0.2133   -0.1763   -0.4329   -0.1610
          39    0.0984    0.0206   -0.0016    0.0095    0.0176    0.0005    0.0177    0.0157
          40   -0.0577    0.0198    0.0005   -0.0481    0.0161    0.0019   -0.0097    0.0189
          41    0.0329   -0.0023   -0.1262   -0.1032    0.0435    0.0130    0.0418   -0.1985
          42   -0.0376   -0.0095   -0.0207   -0.0555    0.0231    0.0096    0.0247   -0.1731
          43    0.2107    0.0825   -0.1337    0.2295    0.0669    0.0170   -0.0635    0.1545
          44   -0.0588    0.0221    0.0386    0.0922   -0.0274    0.0757    0.0845   -0.2761
          45    0.1140   -0.0060   -0.2205   -0.1230    0.0968    0.0041    0.0046   -0.2754
          46   -0.0517    0.0269    0.1174    0.0152    0.2983   -0.0030   -0.0849   -0.2198
          47    0.0288   -0.0105   -0.1161   -0.0964   -0.0789    0.0028    0.0561   -0.0600
          48   -0.0434   -0.0075    0.0575   -0.2545    0.1233   -0.0873   -0.1572    0.2185
          49   -0.0536    0.0252    0.1509    0.0626    0.3985    0.0054   -0.1121   -0.3441
          50    0.0069   -0.0746    0.2078    0.1541    0.0010   -0.0123   -0.0432    0.0832
          51    0.0871    0.0146   -0.1147    0.2275   -0.1431    0.0710    0.1357   -0.1246
          52    0.1082   -0.0792   -0.0459    0.1498   -0.2849    0.0173    0.0853    0.1517
          53   -0.0819   -0.0174    0.1852   -0.1984    0.0445   -0.0990   -0.1644    0.3602
          54    0.0789   -0.0283   -0.2390   -0.2620   -0.1166   -0.0351    0.0192    0.0892
          55   -0.0049   -0.0876    0.0513   -0.0785   -0.1244   -0.0557   -0.0480    0.2580
          56   -0.0400   -0.0074    0.0913    0.3122   -0.1876    0.0749    0.1503   -0.1022
          57   -0.1109    0.0296    0.2499   -0.0314    0.3089   -0.0644   -0.2083    0.1163
          58   -0.0971    0.0156   -0.1528   -0.1674   -0.1279    0.1188   -0.0647    0.0201
          59    0.0647    0.0060   -0.1975   -0.1292    0.0618    0.0099   -0.0248   -0.1613
          60   -0.0493   -0.0107    0.0850    0.0425   -0.0686    0.0318    0.0867   -0.1317
          61   -0.0798    0.0145   -0.1404   -0.1586   -0.1080    0.1111   -0.0484   -0.0264
          62    0.0860    0.0088    0.0716    0.0574    0.1857   -0.1225   -0.0449    0.0793
          63   -0.1867    0.0027   -0.0163   -0.0682   -0.2772    0.1758    0.0050    0.0631
          64   -0.0766    0.0003    0.1514    0.0391   -0.1274    0.0772    0.0581   -0.0081
          65    0.0133    0.0191   -0.2083   -0.1506    0.0372    0.0147   -0.1153    0.0671
          66   -0.0842   -0.0190    0.4141    0.2578   -0.1057   -0.0071    0.1426    0.0553
          67    0.0008   -0.0000   -0.0037    0.0022    0.0010    0.0005    0.0005   -0.0000
          68   -0.0067   -0.0010   -0.0021    0.0007    0.0003   -0.0001   -0.0005    0.0001
          69    0.0050    0.0009   -0.0008   -0.0005   -0.0001   -0.0001    0.0003    0.0005
          70    0.0001    0.0005   -0.0008    0.0029    0.0016   -0.0000    0.0004    0.0019
          71   -0.0061   -0.0005   -0.0021    0.0003    0.0002   -0.0004   -0.0004    0.0011
          72    0.0029    0.0002    0.0015    0.0006    0.0007   -0.0005   -0.0003    0.0015
          73    0.0008    0.0007   -0.0033   -0.0060    0.0070   -0.0011   -0.0006   -0.0270
          74   -0.0053   -0.0013    0.0031    0.0076   -0.0052    0.0010    0.0013    0.0192
          75   -0.0018   -0.0016    0.0036   -0.0049    0.0005   -0.0022   -0.0009   -0.0039
          76    0.0002   -0.0002    0.0038    0.0103   -0.0054    0.0018    0.0019    0.0309
          77   -0.0018   -0.0005    0.0010    0.0033   -0.0010    0.0010   -0.0003    0.0070
          78    0.0051   -0.0000   -0.0011    0.0048   -0.0016   -0.0002   -0.0006    0.0147
          79   -0.0002   -0.0007   -0.0027   -0.0036    0.0028   -0.0016    0.0001   -0.0053
          80   -0.0039   -0.0001   -0.0010   -0.0069    0.0050   -0.0023   -0.0025   -0.0197
          81   -0.0013    0.0019    0.0089    0.0084   -0.0016    0.0019   -0.0004    0.0032


   Root No.      41        42        43        44        45        46        47        48

                41 A      42 A      43 A      44 A      45 A      46 A      47 A      48 A   

                   2.0       2.6       2.8       2.9       3.3       3.7       3.8       3.9
  
           1    0.0000    0.0012   -0.0181    0.0220   -0.0123    0.1436   -0.2615   -0.0543
           2   -0.0009   -0.0111    0.0296   -0.0639    0.0307   -0.0904    0.1619    0.0294
           3    0.0003   -0.0492   -0.0367    0.1059    0.4531    0.1824    0.1197   -0.1588
           4    0.0010   -0.0048    0.0303    0.0841   -0.0351    0.1627   -0.2818   -0.0548
           5   -0.0021    0.0288   -0.2018   -0.0601   -0.0280    0.1330   -0.1542   -0.0289
           6   -0.0066    0.4899    0.0617    0.0206   -0.0535   -0.1035   -0.0771    0.1417
           7   -0.0021    0.0334   -0.1578    0.0571   -0.1314    0.3116    0.0473    0.0329
           8    0.0006    0.0041   -0.0198    0.0383    0.0205    0.0267   -0.3255   -0.0780
           9   -0.0044   -0.0863    0.0302   -0.1223   -0.4322   -0.0734   -0.0259   -0.0311
          10   -0.0025    0.0002    0.0787    0.0511   -0.0940    0.1565    0.3466    0.0910
          11   -0.0014   -0.0352    0.1958    0.0829    0.0363   -0.0901   -0.1564   -0.0434
          12   -0.0090   -0.3985   -0.1488    0.2086    0.3808    0.0695    0.0464    0.0063
          13   -0.0008   -0.0064    0.0158    0.0041   -0.0577    0.1101    0.2719    0.0734
          14   -0.0007    0.0062   -0.0145   -0.0791    0.0652   -0.2460    0.0997    0.0105
          15    0.0012    0.2299    0.0417   -0.0200   -0.0023   -0.0208   -0.0311    0.0549
          16   -0.0020    0.0224   -0.1583   -0.1139    0.0329   -0.0417    0.0076   -0.0006
          17   -0.0011   -0.0088    0.0091   -0.0848    0.0366   -0.1979    0.3085    0.0624
          18    0.0074   -0.4169   -0.0184   -0.1161   -0.4223   -0.1154   -0.0727    0.0719
          19   -0.0009   -0.0119    0.0474   -0.1047    0.0487   -0.1244    0.1669    0.0304
          20   -0.0016   -0.0147    0.0027   -0.0874    0.0251    0.0181   -0.0476   -0.0112
          21   -0.0009    0.0259    0.0150   -0.0374   -0.1421   -0.0502   -0.0313    0.0391
          22    0.0010   -0.0334    0.2429    0.0911    0.0095   -0.1227    0.1455    0.0214
          23   -0.0041    0.0498   -0.3809   -0.2296   -0.0061    0.0976    0.0938    0.0241
          24    0.0027   -0.1964   -0.0251   -0.0021    0.0144    0.0268    0.0177   -0.0343
          25   -0.0006   -0.0313    0.2233    0.1447   -0.0051    0.0053   -0.1192   -0.0243
          26   -0.0042   -0.0635    0.4329    0.2206   -0.0434   -0.0011    0.1361    0.0325
          27    0.0030    0.1293    0.0488   -0.0620   -0.1219   -0.0248   -0.0209    0.0059
          28   -0.0033    0.0424   -0.3846   -0.3014    0.0895   -0.1785    0.0082   -0.0076
          29    0.0005    0.0097   -0.0142    0.0351    0.0029    0.0560   -0.1564   -0.0339
          30   -0.0049    0.1398   -0.0021    0.0433    0.1334    0.0286    0.0173   -0.0134
          31    0.0062    0.0030    0.0104    0.0327   -0.0014    0.0764   -0.1255   -0.0210
          32    0.0022    0.0175   -0.0086   -0.0010    0.0391   -0.1278   -0.0959   -0.0390
          33    0.0007    0.4376    0.0919   -0.0615    0.0226    0.1059    0.0726   -0.1518
          34    0.0066    0.0062    0.0101    0.0272    0.0046    0.0647   -0.1477   -0.0290
          35   -0.0070   -0.0067    0.0067    0.0926   -0.1316    0.3255    0.1591    0.0587
          36   -0.0014   -0.1824   -0.0376    0.0229   -0.0024   -0.0428   -0.0296    0.0478
          37   -0.0002    0.0027   -0.0086   -0.0979    0.1050   -0.3059   -0.0478   -0.0321
          38    0.0062   -0.0071    0.0045    0.0908   -0.0318    0.1049   -0.1668   -0.0294
          39   -0.0014   -0.1593   -0.0309    0.0149   -0.0078   -0.0394   -0.0137    0.0471
          40   -0.0006    0.0257   -0.1112    0.1017   -0.1103    0.1933    0.0667    0.0164
          41    0.0147    0.0340   -0.0659    0.1145    0.0439   -0.0691   -0.0838    0.0304
          42    0.0112   -0.0177    0.0617   -0.1598   -0.0267    0.1630    0.0893   -0.0222
          43   -0.0106   -0.0359    0.0511   -0.0244   -0.0481   -0.1146   -0.0756    0.0236
          44    0.0162   -0.0152    0.1047   -0.1833    0.0954    0.0946    0.0463   -0.0958
          45    0.0239   -0.0080    0.0853   -0.1426    0.0824    0.0393    0.0747   -0.3343
          46    0.0150    0.0227   -0.0572    0.1191   -0.0238   -0.0572    0.0298   -0.0200
          47    0.0068    0.0620   -0.1891    0.2907   -0.0975   -0.0696    0.0779   -0.0409
          48   -0.0036   -0.0008    0.0004    0.0091    0.0110   -0.0092   -0.0141    0.0033
          49    0.0190    0.0344   -0.0846    0.2090   -0.0397   -0.2145    0.1088   -0.0504
          50   -0.0076   -0.0351    0.1064   -0.1440    0.0491   -0.0010   -0.0250    0.0097
          51   -0.0046   -0.0028    0.0059   -0.0209   -0.0020    0.0209   -0.0007   -0.0005
          52   -0.0142   -0.0239    0.0623   -0.1145    0.0270    0.0435   -0.0237    0.0094
          53   -0.0121    0.0194   -0.0810    0.1527   -0.0603   -0.0783    0.0426   -0.0157
          54    0.0039    0.0617   -0.1989    0.3134   -0.1089   -0.1061    0.0796   -0.0249
          55   -0.0104   -0.0313    0.0790   -0.1387    0.0365    0.0492   -0.0365    0.0336
          56   -0.0038    0.0017   -0.0230    0.0226   -0.0634    0.0100    0.0783   -0.0803
          57   -0.0036   -0.0544    0.1768   -0.2545    0.1201    0.0547   -0.1138    0.1128
          58   -0.0010   -0.0219    0.0851   -0.0892    0.0431   -0.0114    0.0121   -0.1333
          59    0.0109    0.0117    0.0274   -0.0284    0.1385    0.0095   -0.0864    0.6423
          60    0.0091    0.0205   -0.0259   -0.0011    0.0579    0.1502    0.0058    0.4274
          61    0.0020   -0.0171    0.0815   -0.0949    0.0651    0.0301    0.0101    0.0040
          62   -0.0029   -0.0203   -0.0010   -0.0713   -0.1126    0.1170    0.0813   -0.2202
          63   -0.0066    0.0064    0.0263    0.0704    0.0882   -0.1953   -0.0782   -0.0866
          64   -0.0020    0.0255   -0.0357    0.1333    0.0954   -0.1793   -0.1026    0.0890
          65   -0.0032   -0.0306    0.0819   -0.1100   -0.0089   -0.0214    0.0134   -0.1813
          66   -0.0064    0.0343   -0.1195    0.1867   -0.0406   -0.0599   -0.0155   -0.0925
          67   -0.0082   -0.0007    0.0001    0.0003    0.0007    0.0009   -0.0002    0.0006
          68   -0.0044    0.0009   -0.0001   -0.0002    0.0002    0.0004   -0.0003    0.0006
          69    0.0035   -0.0007   -0.0002    0.0004   -0.0003   -0.0002    0.0004   -0.0019
          70    0.0041   -0.0006   -0.0005    0.0010    0.0003    0.0006    0.0000    0.0003
          71    0.0129    0.0008   -0.0002    0.0002    0.0001    0.0000   -0.0000   -0.0008
          72   -0.0077   -0.0005   -0.0003    0.0003   -0.0004   -0.0000    0.0000   -0.0005
          73   -0.4680   -0.0001    0.0009   -0.0001    0.0017    0.0016    0.0016   -0.0061
          74    0.3582    0.0002   -0.0003   -0.0012    0.0005    0.0006    0.0009   -0.0022
          75   -0.1451   -0.0002   -0.0013    0.0024   -0.0009   -0.0003    0.0004   -0.0008
          76    0.5685   -0.0005   -0.0006   -0.0005   -0.0002    0.0004   -0.0006    0.0042
          77    0.1140    0.0005    0.0009   -0.0010    0.0015    0.0005    0.0011   -0.0064
          78    0.2044   -0.0006   -0.0009    0.0011   -0.0011   -0.0014   -0.0003    0.0003
          79   -0.0962   -0.0000   -0.0014    0.0016   -0.0007   -0.0004   -0.0007    0.0033
          80   -0.4862    0.0010   -0.0022    0.0043   -0.0022   -0.0019   -0.0024    0.0067
          81   -0.0651   -0.0005    0.0009    0.0001    0.0015    0.0012    0.0010   -0.0051


   Root No.      49        50        51        52        53        54        55        56

                49 A      50 A      51 A      52 A      53 A      54 A      55 A      56 A   

                   4.2       4.7       4.9       5.4       6.7       6.9       7.1       7.6
  
           1   -0.0043    0.0085   -0.0117   -0.0383    0.1907   -0.2052    0.0184   -0.0664
           2    0.0036    0.0091   -0.0121   -0.0638   -0.2105    0.0163   -0.0107    0.0977
           3    0.2387    0.2157    0.2382   -0.0345    0.0058    0.0058   -0.0018   -0.0009
           4    0.0068    0.0655   -0.0693   -0.1118    0.0954   -0.1693    0.0110   -0.0202
           5   -0.0016    0.0438   -0.0540   -0.0838   -0.2357   -0.0409   -0.0133    0.1296
           6   -0.3624   -0.2087   -0.2823    0.0739   -0.0041   -0.0100    0.0108    0.0172
           7   -0.0427    0.1010   -0.1447   -0.2474    0.0445    0.0957   -0.0126    0.1664
           8    0.0280    0.0746   -0.0576   -0.0424   -0.3031   -0.1150   -0.0040    0.0237
           9    0.3621    0.1703    0.3264   -0.1314    0.0174    0.0259   -0.0305   -0.0565
          10   -0.0594   -0.0621    0.0234   -0.1779    0.0615   -0.1567    0.0143   -0.0640
          11    0.0304    0.0321   -0.0105    0.0535   -0.2270   -0.1635    0.0049   -0.0787
          12   -0.0276   -0.2181   -0.2873    0.0589   -0.0005   -0.0061    0.0103    0.0224
          13   -0.0387   -0.1080    0.0507   -0.1416   -0.0527   -0.2029    0.0158   -0.1092
          14    0.0265    0.1833   -0.1611   -0.1509    0.0027   -0.1190    0.0092   -0.0714
          15   -0.3518    0.3136    0.3253   -0.0318    0.0031    0.0003   -0.0005   -0.0011
          16    0.0004    0.0090   -0.0112   -0.0568    0.1176   -0.2240    0.0238   -0.1861
          17    0.0002    0.0709   -0.0959   -0.1783   -0.2090   -0.0867    0.0019   -0.0071
          18    0.0353   -0.2417   -0.2503    0.0276    0.0046   -0.0045    0.0020   -0.0001
          19   -0.0081   -0.1182    0.1192    0.1610    0.0529    0.0910   -0.0015   -0.0306
          20   -0.0149   -0.2007    0.2076    0.2870    0.1584    0.1256   -0.0007   -0.0483
          21   -0.0546   -0.0364   -0.0435   -0.0004   -0.0030   -0.0025   -0.0001    0.0006
          22    0.0086    0.0421   -0.0386   -0.0222   -0.2086    0.0711   -0.0124    0.0765
          23   -0.0293   -0.1114    0.0988    0.0664    0.3849   -0.0410    0.0183   -0.1159
          24    0.0879    0.0398    0.0533   -0.0146    0.0008    0.0012   -0.0021   -0.0038
          25    0.0145    0.0121    0.0034    0.1011    0.1077    0.1663   -0.0089    0.0628
          26   -0.0079   -0.0123    0.0225    0.1302    0.2811    0.2716   -0.0105    0.0856
          27   -0.0082    0.0439    0.0577   -0.0102    0.0012    0.0037   -0.0021   -0.0028
          28    0.0141   -0.0673    0.0923    0.2096   -0.1998    0.3351   -0.0325    0.2066
          29    0.0030    0.0008    0.0119    0.0371    0.0473    0.0094    0.0002    0.0018
          30   -0.0266    0.0487    0.0527   -0.0012   -0.0029    0.0040   -0.0006    0.0021
          31   -0.0127   -0.1020    0.1090    0.0949   -0.1630    0.0002   -0.0038    0.0026
          32    0.0602    0.1785   -0.1752   -0.0647    0.2993    0.0620    0.0023    0.0235
          33    0.5875   -0.2585   -0.2218    0.0176   -0.0094    0.0015   -0.0007   -0.0009
          34   -0.0006   -0.1140    0.1157    0.1150   -0.1995   -0.0000   -0.0050   -0.0012
          35   -0.0760   -0.2054    0.1752    0.0330   -0.1450   -0.0492    0.0006   -0.0205
          36   -0.1840    0.0795    0.0620   -0.0040    0.0019    0.0008    0.0002    0.0010
          37    0.0634    0.2285   -0.2042   -0.0866    0.2194    0.0280    0.0029    0.0089
          38   -0.0108   -0.0004    0.0132    0.0506    0.1213    0.0603   -0.0016    0.0234
          39   -0.1692    0.0701    0.0600   -0.0068   -0.0032   -0.0041    0.0005   -0.0014
          40   -0.0238    0.1864   -0.1905   -0.0950    0.0082    0.3036   -0.0229    0.1780
          41    0.0002   -0.1284    0.0684   -0.2558   -0.0829    0.2411    0.0195   -0.3087
          42   -0.0030    0.1866   -0.0919    0.2027   -0.0267   -0.0353    0.1438    0.4298
          43    0.0965    0.0180    0.0722    0.0547   -0.0370   -0.0279    0.0170   -0.0150
          44   -0.1144   -0.0603   -0.0384   -0.0489    0.0524   -0.0571   -0.0382    0.0241
          45   -0.2017   -0.1727   -0.0011   -0.1792    0.0797   -0.0275   -0.0447    0.0133
          46    0.0043    0.0087   -0.0118   -0.0417   -0.0410    0.1895    0.0031   -0.0205
          47    0.0092    0.0096   -0.0054   -0.0736   -0.0327    0.3076    0.0181   -0.2160
          48   -0.0035   -0.0048   -0.0035    0.0106   -0.0073   -0.0143    0.0195    0.0525
          49    0.0371   -0.0240    0.0829    0.2352    0.0552   -0.2809    0.0018    0.0232
          50   -0.0004   -0.0194    0.0168    0.0127    0.0013   -0.0362    0.0015    0.0061
          51   -0.0031    0.0065   -0.0068   -0.0126   -0.0029    0.0176    0.0007    0.0010
          52   -0.0107   -0.0040   -0.0077   -0.0273    0.0006    0.0211    0.0022   -0.0101
          53    0.0265    0.0256    0.0099    0.1280    0.0293   -0.1638   -0.0270    0.0640
          54    0.0374    0.0429    0.0094    0.1475    0.0265   -0.1614   -0.0239    0.0678
          55   -0.0041   -0.0091   -0.0020   -0.0451    0.0015    0.0339   -0.0012   -0.0245
          56   -0.0029    0.0771   -0.0314    0.1570    0.0116   -0.1306    0.0125    0.1321
          57   -0.0037   -0.0839    0.0295   -0.1934   -0.0100    0.1537   -0.0109   -0.1409
          58   -0.0457    0.0467   -0.0522    0.1400   -0.0495   -0.0110   -0.0118   -0.1721
          59    0.1658   -0.0533    0.0919   -0.0783    0.0797   -0.0922   -0.0008    0.2329
          60    0.0868    0.2077   -0.1518    0.2551   -0.0686    0.0201   -0.0680   -0.3475
          61   -0.0172    0.1057   -0.0949    0.2248   -0.0743   -0.0146   -0.0250   -0.2731
          62   -0.0551    0.1222   -0.1008    0.1015   -0.0378    0.0407   -0.0028   -0.0904
          63   -0.0162   -0.1654    0.1163   -0.1045    0.0161   -0.0371    0.0141    0.0483
          64    0.0260   -0.2240    0.1675   -0.2447    0.0708   -0.0436    0.0257    0.2645
          65   -0.0409   -0.0350    0.0276   -0.0164    0.0150   -0.0389    0.0238    0.1150
          66   -0.0162   -0.0359    0.0111   -0.0690   -0.0193    0.0684   -0.0091   -0.0949
          67   -0.0012   -0.0003    0.0005   -0.0001   -0.0000   -0.0002   -0.0026    0.0005
          68    0.0002   -0.0004   -0.0003    0.0004   -0.0002    0.0003   -0.0027   -0.0002
          69   -0.0008   -0.0001    0.0002   -0.0003    0.0001    0.0001   -0.0019    0.0002
          70   -0.0009    0.0002    0.0006    0.0003   -0.0004    0.0007    0.0066   -0.0002
          71    0.0003    0.0001    0.0000   -0.0004   -0.0001   -0.0005   -0.0016    0.0005
          72   -0.0001    0.0007    0.0002   -0.0001   -0.0001   -0.0001    0.0002    0.0004
          73   -0.0059   -0.0028   -0.0030   -0.0036    0.0107   -0.0160   -0.4570    0.0314
          74   -0.0016   -0.0010   -0.0016   -0.0014    0.0051   -0.0078   -0.2123    0.0148
          75   -0.0002   -0.0003   -0.0004   -0.0016    0.0035   -0.0051   -0.1655    0.0123
          76    0.0023    0.0022    0.0022    0.0027   -0.0071    0.0115    0.3203   -0.0209
          77   -0.0040   -0.0033   -0.0022   -0.0029    0.0090   -0.0155   -0.4042    0.0270
          78    0.0012    0.0006    0.0017    0.0005   -0.0023    0.0036    0.0976   -0.0056
          79    0.0019    0.0012    0.0023    0.0009   -0.0039    0.0048    0.1342   -0.0074
          80    0.0057    0.0038    0.0027    0.0044   -0.0143    0.0229    0.6177   -0.0446
          81   -0.0039    0.0000   -0.0036    0.0014   -0.0005    0.0013    0.0631   -0.0125


   Root No.      57        58        59        60        61        62        63        64

                57 A      58 A      59 A      60 A      61 A      62 A      63 A      64 A   

                   7.6       8.5       8.6       8.9       9.0       9.1       9.5      10.2
  
           1    0.0541    0.2010    0.0012   -0.1494    0.0373    0.0022   -0.0302   -0.1395
           2   -0.0877    0.3629    0.0024   -0.1430    0.0292    0.0012    0.0283   -0.2069
           3   -0.0025   -0.0072    0.0002    0.0034   -0.0012   -0.0001   -0.0004    0.0044
           4    0.0062    0.2482    0.0016   -0.1207    0.0273    0.0014   -0.0006   -0.1189
           5   -0.1073   -0.1068   -0.0008    0.2188   -0.1101   -0.0027    0.0977   -0.0301
           6    0.0351    0.0043   -0.0004   -0.0051   -0.0061    0.0002    0.0051   -0.0016
           7   -0.1546    0.0848    0.0003    0.1656   -0.0746   -0.0033    0.1528    0.0281
           8   -0.0069   -0.1322   -0.0007    0.0510   -0.0238   -0.0008   -0.0157    0.0070
           9   -0.1046   -0.0119    0.0003    0.0085    0.0332   -0.0005   -0.0330    0.0039
          10    0.0508   -0.1564   -0.0009    0.1522   -0.0524   -0.0024    0.1463   -0.1834
          11    0.0821   -0.2578   -0.0014    0.0274   -0.0152    0.0000   -0.1015   -0.0625
          12    0.0308    0.0016   -0.0001   -0.0016   -0.0075    0.0002    0.0064   -0.0014
          13    0.0850   -0.1271   -0.0009    0.1091   -0.0355   -0.0021    0.1184   -0.1403
          14    0.0580    0.0601    0.0006   -0.1519    0.0608    0.0035   -0.1856    0.2733
          15    0.0006   -0.0048    0.0002    0.0077   -0.0036   -0.0001    0.0096   -0.0097
          16    0.1578   -0.1635   -0.0014   -0.0655    0.0419    0.0017   -0.1606    0.2962
          17    0.0090    0.1686    0.0013   -0.1352    0.0509    0.0018   -0.0554    0.0525
          18    0.0053   -0.0033   -0.0001    0.0000   -0.0003    0.0003   -0.0008    0.0021
          19    0.0295   -0.1770   -0.0014    0.0655   -0.0098   -0.0009   -0.0110    0.0839
          20    0.0453   -0.3100   -0.0021    0.1370   -0.0308   -0.0015   -0.0008    0.1150
          21   -0.0011    0.0050    0.0000   -0.0021    0.0007   -0.0000   -0.0001   -0.0018
          22   -0.0574   -0.0765   -0.0006    0.0888   -0.0372   -0.0013    0.0295    0.0104
          23    0.0879    0.1554    0.0009   -0.1626    0.0700    0.0023   -0.0484   -0.0143
[...]
 EFFECTIVE MASS      5.0456
 FORCE CONSTANT      0.5827

 VIBRATION         41   41A           ATOM PAIR      ENERGY CONTRIBUTION    RADIAL
 FREQUENCY           985.60         C 16 -- H 17         +11.2% ( 56.5%)     25.6%
 TRANSITION DIPOLE   0.5492         C  3 -- C 14         +10.8% ( 55.6%)     83.9%
 TRAVEL (Ang.)       0.3000         C  2 -- C  3         +10.8% ( 55.5%)      9.2%
 REDUCED MASS        0.7604         C  3 -- C  4          +7.6% ( 46.6%)     12.8%
 EFFECTIVE MASS      8.9050
 FORCE CONSTANT      0.4352

 VIBRATION         42   42A           ATOM PAIR      ENERGY CONTRIBUTION    RADIAL
 FREQUENCY          1015.22         C  1 -- H  7         +34.7% ( 63.8%)      0.0%
 TRANSITION DIPOLE   0.1331         C  2 -- H  8         +21.5% ( 50.3%)      0.0%
 TRAVEL (Ang.)       0.2653         C  1 -- C  2         +13.3% ( 39.5%)      0.0%
 REDUCED MASS        0.9436         C  1 -- C  6         +10.0% ( 34.3%)      0.0%
 EFFECTIVE MASS      4.7786
 FORCE CONSTANT      0.5730

 VIBRATION         43   43A           ATOM PAIR      ENERGY CONTRIBUTION    RADIAL
 FREQUENCY          1030.35         C  5 -- C  6         +13.8% ( 65.0%)     15.5%
 TRANSITION DIPOLE   1.0280         C  4 -- C  5         +12.9% ( 62.8%)     11.9%
 TRAVEL (Ang.)       0.1723         C  3 -- C  4         +12.7% ( 62.4%)      5.2%
 REDUCED MASS        2.2041         C  1 -- C  6         +11.7% ( 59.9%)      3.4%
 EFFECTIVE MASS     13.3195
 FORCE CONSTANT      1.3787

 VIBRATION         44   44A           ATOM PAIR      ENERGY CONTRIBUTION    RADIAL
 FREQUENCY          1088.71         C 16 -- H 18         +25.9% ( 68.5%)     23.0%
 TRANSITION DIPOLE   0.6287         C 16 -- H 19         +19.0% ( 58.7%)      7.6%
 TRAVEL (Ang.)       0.2508         C 14 -- C 16         +16.8% ( 55.1%)      1.5%
 REDUCED MASS        0.9849         C 16 -- H 17         +13.5% ( 49.6%)      1.2%
 EFFECTIVE MASS      5.3310
 FORCE CONSTANT      0.6878

 VIBRATION         45   45A           ATOM PAIR      ENERGY CONTRIBUTION    RADIAL
 FREQUENCY          1134.72         C 14 -- C 16         +26.0% ( 83.0%)     70.8%
 TRANSITION DIPOLE   0.9564         C 14 -- N 20         +15.1% ( 63.4%)     57.5%
 TRAVEL (Ang.)       0.1273         C 14 -- H 15         +14.2% ( 61.4%)      2.2%
 REDUCED MASS        3.6651         C  3 -- C 14         +13.9% ( 60.9%)      2.5%
 EFFECTIVE MASS      9.6117         C 16 -- H 17         +12.0% ( 56.5%)      0.4%
 FORCE CONSTANT      2.7804

 VIBRATION         46   46A           ATOM PAIR      ENERGY CONTRIBUTION    RADIAL
 FREQUENCY          1168.81         C 14 -- C 16         +15.5% ( 59.0%)     63.2%
 TRANSITION DIPOLE   0.4985         C 14 -- H 15         +10.0% ( 47.3%)      1.1%
 TRAVEL (Ang.)       0.2329         C 14 -- N 20          +9.4% ( 45.9%)     10.0%
 REDUCED MASS        1.0639         C  3 -- C 14          +9.2% ( 45.6%)     73.6%
 EFFECTIVE MASS      7.5308
 FORCE CONSTANT      0.8563

 VIBRATION         47   47A           ATOM PAIR      ENERGY CONTRIBUTION    RADIAL
 FREQUENCY          1208.50         C  6 -- H 10         +43.4% ( 77.4%)      2.2%
 TRANSITION DIPOLE   0.7437         C  2 -- H  8         +18.4% ( 50.5%)     14.2%
 TRAVEL (Ang.)       0.3489         C  1 -- C  2          +8.8% ( 34.9%)     93.3%
 REDUCED MASS        0.4585         C  1 -- C  6          +5.7% ( 28.0%)     81.2%
 EFFECTIVE MASS      3.4370
 FORCE CONSTANT      0.3945

 VIBRATION         48   48A           ATOM PAIR      ENERGY CONTRIBUTION    RADIAL
 FREQUENCY          1225.67         C  4 -- H  9         +15.4% ( 56.4%)      0.9%
 TRANSITION DIPOLE   1.7970         C 14 -- C 16         +11.1% ( 47.8%)     50.4%
 TRAVEL (Ang.)       0.2542         C  3 -- C 14         +10.6% ( 46.8%)     85.9%
 REDUCED MASS        0.8511         C  5 -- C  6          +8.5% ( 41.8%)     74.1%
 EFFECTIVE MASS      6.9518
 FORCE CONSTANT      0.7533

 VIBRATION         49   49A           ATOM PAIR      ENERGY CONTRIBUTION    RADIAL
 FREQUENCY          1244.94         C  2 -- H  8         +35.1% ( 69.3%)      0.0%
 TRANSITION DIPOLE   0.1749         C  1 -- H  7         +17.5% ( 48.9%)      1.0%
 TRAVEL (Ang.)       0.4048         C  6 -- H 10         +13.1% ( 42.2%)      3.7%
 REDUCED MASS        0.3305         C  4 -- H  9          +7.3% ( 31.6%)     60.5%
 EFFECTIVE MASS      2.6854
 FORCE CONSTANT      0.3018

 VIBRATION         50   50A           ATOM PAIR      ENERGY CONTRIBUTION    RADIAL
 FREQUENCY          1248.00         C 16 -- H 17         +46.6% ( 58.9%)      0.1%
 TRANSITION DIPOLE   0.7954         C 16 -- H 18         +27.7% ( 45.4%)      5.9%
 TRAVEL (Ang.)       0.3820         C 16 -- H 19         +19.7% ( 38.3%)      8.1%
 REDUCED MASS        0.3702         C 14 -- C 16          +3.4% ( 16.0%)     20.6%
 EFFECTIVE MASS      1.4149
 FORCE CONSTANT      0.3397

 VIBRATION         51   51A           ATOM PAIR      ENERGY CONTRIBUTION    RADIAL
 FREQUENCY          1260.55         C 16 -- H 18         +36.3% ( 54.7%)      1.3%
 TRANSITION DIPOLE   0.4885         C 16 -- H 19         +33.1% ( 52.3%)      1.7%
 TRAVEL (Ang.)       0.3918         C 16 -- H 17          +8.8% ( 27.0%)     37.4%
 REDUCED MASS        0.3485         C 14 -- C 16          +3.9% ( 18.1%)     80.3%
 EFFECTIVE MASS      1.8390
 FORCE CONSTANT      0.3262

 VIBRATION         52   52A           ATOM PAIR      ENERGY CONTRIBUTION    RADIAL
 FREQUENCY          1321.27         C  4 -- H  9         +23.8% ( 59.4%)      0.2%
 TRANSITION DIPOLE   0.9062         C  1 -- H  7         +18.0% ( 51.7%)      0.6%
 TRAVEL (Ang.)       0.3438         C  6 -- H 10         +10.2% ( 39.0%)      1.0%
 REDUCED MASS        0.4318         C  2 -- H  8          +9.7% ( 38.0%)      0.2%
 EFFECTIVE MASS      3.7952
 FORCE CONSTANT      0.4441

 VIBRATION         53   53A           ATOM PAIR      ENERGY CONTRIBUTION    RADIAL
 FREQUENCY          1343.20         C  3 -- C 14         +12.5% ( 49.3%)     98.2%
 TRANSITION DIPOLE   1.4556         C  2 -- C  3          +9.9% ( 43.8%)     92.2%
 TRAVEL (Ang.)       0.2179         C  5 -- C  6          +9.5% ( 42.8%)     78.6%
 REDUCED MASS        1.0577         C  3 -- C  4          +8.6% ( 40.8%)     23.1%
 EFFECTIVE MASS      8.8662
 FORCE CONSTANT      1.1243

 VIBRATION         54   54A           ATOM PAIR      ENERGY CONTRIBUTION    RADIAL
 FREQUENCY          1374.36         C 16 -- H 17         +18.6% ( 48.9%)      0.1%
 TRANSITION DIPOLE   0.8537         C  3 -- C 14         +12.7% ( 40.4%)     81.3%
 TRAVEL (Ang.)       0.3360         C 16 -- H 18         +11.7% ( 38.7%)      0.7%
 REDUCED MASS        0.4345         C 16 -- H 19         +11.1% ( 37.9%)      1.4%
 EFFECTIVE MASS      4.4030
 FORCE CONSTANT      0.4835

 VIBRATION         55   55A           ATOM PAIR      ENERGY CONTRIBUTION    RADIAL
 FREQUENCY          1386.91         H 26 -- O 27         +52.4% ( 56.9%)      8.7%
 TRANSITION DIPOLE   0.9947         H 25 -- O 27         +47.4% ( 54.0%)      8.1%
 TRAVEL (Ang.)       0.2999
 REDUCED MASS        0.5407
 EFFECTIVE MASS      1.6887
 FORCE CONSTANT      0.6128

 VIBRATION         56   56A           ATOM PAIR      ENERGY CONTRIBUTION    RADIAL
 FREQUENCY          1425.30         C  1 -- C  2         +14.8% ( 59.3%)     99.3%
 TRANSITION DIPOLE   0.7852         C  1 -- C  6         +12.0% ( 53.4%)     94.8%
 TRAVEL (Ang.)       0.1826         C  2 -- C  3         +11.1% ( 51.1%)     98.9%
 REDUCED MASS        1.4185         C  3 -- C  4         +10.8% ( 50.5%)     99.9%
 EFFECTIVE MASS      9.4892
 FORCE CONSTANT      1.6979

 VIBRATION         57   57A           ATOM PAIR      ENERGY CONTRIBUTION    RADIAL
 FREQUENCY          1489.18         N 11 -- O 13         +24.6% ( 68.9%)     65.5%
 TRANSITION DIPOLE   8.0521         N 11 -- O 12         +23.6% ( 67.5%)     62.3%
 TRAVEL (Ang.)       0.1173         C  5 -- N 11         +15.2% ( 54.2%)     99.9%
 REDUCED MASS        3.2905         O 12 -- O 13         +12.6% ( 49.3%)    100.0%
 EFFECTIVE MASS     14.7873
 FORCE CONSTANT      4.2993

 VIBRATION         58   58A           ATOM PAIR      ENERGY CONTRIBUTION    RADIAL
 FREQUENCY          1492.57         N 20 -- O 21         +25.3% ( 68.5%)     71.2%
 TRANSITION DIPOLE   3.3353         N 20 -- O 22         +23.5% ( 66.0%)     65.4%
 TRAVEL (Ang.)       0.1178         O 21 -- O 22         +16.1% ( 54.6%)    100.0%
 REDUCED MASS        3.2550         C 14 -- N 20         +10.4% ( 43.9%)     99.5%
 EFFECTIVE MASS     14.8837
 FORCE CONSTANT      4.2724

 VIBRATION         59   59A           ATOM PAIR      ENERGY CONTRIBUTION    RADIAL
 FREQUENCY          1511.20         C  4 -- C  5         +14.1% ( 52.6%)     95.3%
 TRANSITION DIPOLE   0.1571         C  5 -- C  6         +13.3% ( 51.0%)     27.5%
 TRAVEL (Ang.)       0.1796         C  6 -- H 10         +10.3% ( 45.1%)      0.0%
 REDUCED MASS        1.3831         C  1 -- C  6          +9.7% ( 43.7%)     19.9%
 EFFECTIVE MASS      9.9373
 FORCE CONSTANT      1.8609

 VIBRATION         60   60A           ATOM PAIR      ENERGY CONTRIBUTION    RADIAL
 FREQUENCY          1546.59         C  2 -- C  3         +15.7% ( 55.6%)     64.6%
 TRANSITION DIPOLE   1.6364         C  3 -- C  4         +12.0% ( 48.6%)     66.5%
 TRAVEL (Ang.)       0.1735         C  1 -- C  6         +10.0% ( 44.5%)     90.2%
 REDUCED MASS        1.4489         C  1 -- C  2          +9.7% ( 43.8%)      1.9%
 EFFECTIVE MASS     10.0316
 FORCE CONSTANT      2.0419

 VIBRATION         61   61A           ATOM PAIR      ENERGY CONTRIBUTION    RADIAL
 FREQUENCY          1651.65         N 11 -- O 12         +35.2% ( 84.5%)     88.9%
 TRANSITION DIPOLE  11.2909         N 11 -- O 13         +35.2% ( 84.4%)     88.9%
 TRAVEL (Ang.)       0.0785         C  5 -- N 11         +21.1% ( 65.4%)      0.1%
 REDUCED MASS        6.6253         O 12 -- O 13          +6.3% ( 35.6%)      0.0%
 EFFECTIVE MASS     14.5649
 FORCE CONSTANT     10.6485

 VIBRATION         62   62A           ATOM PAIR      ENERGY CONTRIBUTION    RADIAL
 FREQUENCY          1670.35         N 20 -- O 22         +26.4% ( 73.2%)     90.6%
 TRANSITION DIPOLE  10.0444         N 20 -- O 21         +24.9% ( 71.1%)     87.7%
 TRAVEL (Ang.)       0.1045         C 14 -- N 20         +15.2% ( 55.6%)      0.1%
 REDUCED MASS        3.6972         C  5 -- C  6          +5.3% ( 32.7%)     97.4%
 EFFECTIVE MASS     13.8918
 FORCE CONSTANT      6.0776

 VIBRATION         63   63A           ATOM PAIR      ENERGY CONTRIBUTION    RADIAL
 FREQUENCY          1676.57         C  5 -- C  6         +15.2% ( 55.6%)     98.7%
 TRANSITION DIPOLE   3.7252         C  2 -- C  3         +10.5% ( 46.2%)    100.0%
 TRAVEL (Ang.)       0.1480         C  4 -- C  5          +9.7% ( 44.4%)     56.8%
 REDUCED MASS        1.8353         N 20 -- O 22          +9.2% ( 43.3%)     90.4%
 EFFECTIVE MASS     12.6869
 FORCE CONSTANT      3.0395

 VIBRATION         64   64A           ATOM PAIR      ENERGY CONTRIBUTION    RADIAL
 FREQUENCY          1690.52         C  3 -- C  4         +17.6% ( 59.6%)     90.0%
 TRANSITION DIPOLE   2.9106         C  4 -- C  5         +13.5% ( 52.2%)     89.0%
 TRAVEL (Ang.)       0.1325         C  1 -- C  2         +13.2% ( 51.6%)     88.5%
 REDUCED MASS        2.2706         C  1 -- C  6         +12.5% ( 50.1%)     83.7%
 EFFECTIVE MASS     12.0319
 FORCE CONSTANT      3.8233

 VIBRATION         65   65A           ATOM PAIR      ENERGY CONTRIBUTION    RADIAL
 FREQUENCY          1848.69         C 14 -- H 15         +89.5% ( 98.2%)    100.0%
 TRANSITION DIPOLE   1.7439         C 14 -- N 20          +2.8% ( 17.5%)      1.7%
 TRAVEL (Ang.)       0.1486         C  3 -- C 14          +2.6% ( 16.6%)      2.0%
 REDUCED MASS        1.6520         C 14 -- C 16          +2.5% ( 16.4%)      7.7%
 EFFECTIVE MASS      2.9770
 FORCE CONSTANT      3.3265

 VIBRATION         66   66A           ATOM PAIR      ENERGY CONTRIBUTION    RADIAL
 FREQUENCY          2633.49         C 16 -- H 19         +57.6% ( 78.5%)     98.7%
 TRANSITION DIPOLE   1.0655         C 16 -- H 17         +40.1% ( 65.5%)     96.6%
 TRAVEL (Ang.)       0.2243         C 16 -- H 18          +1.4% ( 12.0%)     14.6%
 REDUCED MASS        0.5090         C 14 -- C 16          +0.9% (  9.9%)      0.0%
 EFFECTIVE MASS      1.4488
 FORCE CONSTANT      2.0797

 VIBRATION         67   67A           ATOM PAIR      ENERGY CONTRIBUTION    RADIAL
 FREQUENCY          2644.76         C 16 -- H 18         +61.5% ( 81.0%)     99.4%
 TRANSITION DIPOLE   1.0601         C 16 -- H 17         +25.3% ( 52.0%)     91.8%
 TRAVEL (Ang.)       0.2321         C 16 -- H 19         +12.3% ( 36.2%)     80.7%
 REDUCED MASS        0.4731         C 14 -- C 16          +0.9% (  9.7%)      0.0%
 EFFECTIVE MASS      1.4495
 FORCE CONSTANT      1.9498

 VIBRATION         68   68A           ATOM PAIR      ENERGY CONTRIBUTION    RADIAL
 FREQUENCY          2697.27         C  4 -- H  9         +94.6% ( 98.3%)    100.0%
 TRANSITION DIPOLE   1.3810         C  6 -- H 10          +2.2% ( 15.1%)     99.9%
 TRAVEL (Ang.)       0.1693         C  4 -- C  5          +1.1% ( 10.5%)     19.9%
 REDUCED MASS        0.8723         C  3 -- C  4          +1.1% ( 10.4%)     25.3%
 EFFECTIVE MASS      1.3898
 FORCE CONSTANT      3.7392

 VIBRATION         69   69A           ATOM PAIR      ENERGY CONTRIBUTION    RADIAL
 FREQUENCY          2706.55         H 25 -- O 27         +51.5% ( 73.7%)     96.9%
 TRANSITION DIPOLE   1.6170         H 26 -- O 27         +47.2% ( 70.5%)     96.0%
 TRAVEL (Ang.)       0.2219         C  6 -- H 10          +0.7% (  8.9%)    100.0%
 REDUCED MASS        0.5061         C  2 -- H  8          +0.5% (  7.1%)    100.0%
 EFFECTIVE MASS      1.4970
 FORCE CONSTANT      2.1844

 VIBRATION         70   70A           ATOM PAIR      ENERGY CONTRIBUTION    RADIAL
 FREQUENCY          2709.60         C  6 -- H 10         +85.6% ( 93.5%)    100.0%
 TRANSITION DIPOLE   1.5762         C  2 -- H  8          +7.4% ( 27.5%)    100.0%
 TRAVEL (Ang.)       0.1861         C  1 -- H  7          +2.6% ( 16.3%)     99.1%
 REDUCED MASS        0.7186         C  4 -- H  9          +1.2% ( 11.2%)     99.9%
 EFFECTIVE MASS      1.3806
 FORCE CONSTANT      3.1083

 VIBRATION         71   71A           ATOM PAIR      ENERGY CONTRIBUTION    RADIAL
 FREQUENCY          2712.97         C  2 -- H  8         +78.9% ( 89.8%)    100.0%
 TRANSITION DIPOLE   0.9241         C  1 -- H  7         +14.4% ( 38.4%)     99.9%
 TRAVEL (Ang.)       0.1990         C  6 -- H 10          +3.6% ( 19.3%)     99.8%
 REDUCED MASS        0.6276         C  1 -- C  2          +0.9% (  9.7%)      4.8%
 EFFECTIVE MASS      1.3873
 FORCE CONSTANT      2.7218

 VIBRATION         72   72A           ATOM PAIR      ENERGY CONTRIBUTION    RADIAL
 FREQUENCY          2734.16         C  1 -- H  7         +80.7% ( 90.6%)    100.0%
 TRANSITION DIPOLE   1.5337         C  2 -- H  8         +10.2% ( 32.3%)     99.8%
 TRAVEL (Ang.)       0.1952         C  6 -- H 10          +5.5% ( 23.7%)     99.5%
 REDUCED MASS        0.6475         C  1 -- C  2          +1.1% ( 10.6%)     59.7%
 EFFECTIVE MASS      1.4178
 FORCE CONSTANT      2.8521

 VIBRATION         73   73A           ATOM PAIR      ENERGY CONTRIBUTION    RADIAL
 FREQUENCY          2768.48         C 16 -- H 18         +37.0% ( 58.1%)     96.1%
 TRANSITION DIPOLE   0.7332         C 16 -- H 17         +33.9% ( 55.6%)     95.4%
 TRAVEL (Ang.)       0.2724         C 16 -- H 19         +28.7% ( 51.2%)     94.4%
 REDUCED MASS        0.3281         C 14 -- C 16          +0.3% (  4.9%)     99.0%
 EFFECTIVE MASS      1.1418
 FORCE CONSTANT      1.4818

 VIBRATION         74   74A           ATOM PAIR      ENERGY CONTRIBUTION    RADIAL
 FREQUENCY          2777.23         O 23 -- H 24         +98.5% ( 99.3%)    100.0%
 TRANSITION DIPOLE   0.7360         H 26 -- O 27          +0.9% (  9.6%)     99.7%
 TRAVEL (Ang.)       0.1625         H 25 -- O 27          +0.5% (  7.2%)     99.1%
 REDUCED MASS        0.9198
 EFFECTIVE MASS      1.3870
 FORCE CONSTANT      4.1800

 VIBRATION         75   75A           ATOM PAIR      ENERGY CONTRIBUTION    RADIAL
 FREQUENCY          2830.19         H 26 -- O 27         +51.4% ( 69.0%)    100.0%
 TRANSITION DIPOLE   0.9705         H 25 -- O 27         +47.0% ( 65.9%)    100.0%
 TRAVEL (Ang.)       0.2241         O 23 -- H 24          +1.5% ( 11.9%)     99.6%
 REDUCED MASS        0.4745
 EFFECTIVE MASS      1.1743
 FORCE CONSTANT      2.2392

      SYMMETRY NUMBER FOR POINT-GROUP C1  =  1


          SYSTEM IS A GROUND STATE



 Title: ASE calculation


          MOLECULE IS NOT LINEAR

          THERE ARE 75 GENUINE VIBRATIONS IN THIS SYSTEM
          THIS THERMODYNAMICS CALCULATION IS LIMITED TO
          MOLECULES WHICH HAVE NO INTERNAL ROTATIONS




                    CALCULATED THERMODYNAMIC PROPERTIES
                                          *
   TEMP. (K)   PARTITION FUNCTION   H.O.F.    ENTHALPY  HEAT CAPACITY ENTROPY
                                   KCAL/MOL   CAL/MOLE    CAL/K/MOL  CAL/K/MOL


 298.00  VIB.     0.1248D+10                 10617.9528    60.4402    77.2519
         ROT.     0.5146D+07                   888.2803     2.9808    33.6903
         INT.     0.6420D+16                 11506.2331    63.4211   110.9423
         TRA.     0.3421D+28                  1480.4672     4.9680    42.2268
         TOT.                     -210.246   12986.7003    68.3891   153.1691

   *: NOTE: HEATS OF FORMATION ARE RELATIVE TO THE
            ELEMENTS IN THEIR STANDARD STATE AT 298K
              (=  Standard Enthalpy of Formation).

            Hvib:  Zero-point energy is not included.
                   frequencies of less than zero cm-1 are not included.
            Hrot = (3/2)RT
            Htra = (3/2)RT + pV = (5/2)RT

            Heat capacity is Cp, not Cv

          For more information, see: HTTP://OpenMOPAC.net/Manual/thermochemistry.html


           FORCE CONSTANT IN CARTESIAN COORDINATES (Millidynes/A)

    ATOM   CHEMICAL       X               Y               Z
   NUMBER   SYMBOL  FORCE CONSTANT  FORCE CONSTANT  FORCE CONSTANT

      1       C       11.069590        9.997777        2.176855
      2       C       10.941211        9.724901        2.325503
      3       C       10.392507       11.794312        2.548433
      4       C       10.963426       10.255551        2.173053
      5       C       11.731271       10.684017        2.069012
      6       C        9.659476       11.494069        2.127032
      7       H        1.726562        3.354169        0.379283
      8       H        1.692344        3.367062        0.359792
      9       H        1.629394        3.382515        0.349427
     10       H        4.112710        0.905623        0.330076
     11       N       14.154897       12.096367        2.771539
     12       O       11.875649        1.645933        0.357479
     13       O        4.505602        8.928400        0.274871
     14       C        7.872970        6.976949        5.565470
     15       H        0.994135        1.584977        2.597818
     16       C        6.316271        6.571900        6.146905
     17       H        4.008217        0.762986        0.537478
     18       H        0.725766        1.935567        2.669368
     19       H        0.864970        1.558385        2.834111
     20       N       14.254238        6.369434        8.159585
     21       O       11.762527        0.890641        1.362243
     22       O        5.794591        3.768201        4.585224
     23       O        0.430397        3.307651        0.573863
     24       H        0.444237        3.379116        0.689475
     25       H        3.463082        0.935326        0.482504
     26       H        2.203564        2.441765        0.301360
     27       O        4.493700        3.626481        0.732276

 **********************
 *                    *
 * JOB ENDED NORMALLY *
 *                    *
 **********************



 TOTAL JOB TIME:            15.45 SECONDS

 == MOPAC DONE ==
