
                                 *****************
                                 * O   R   C   A *
                                 *****************

                                            #,                                       
                                            ###                                      
                                            ####                                     
                                            #####                                    
                                            ######                                   
                                           ########,                                 
                                     ,,################,,,,,                         
                               ,,#################################,,                 
                          ,,##########################################,,             
                       ,#########################################, ''#####,          
                    ,#############################################,,   '####,        
                  ,##################################################,,,,####,       
                ,###########''''           ''''###############################       
              ,#####''   ,,,,##########,,,,          '''####'''          '####       
            ,##' ,,,,###########################,,,                        '##       
           ' ,,###''''                  '''############,,,                           
         ,,##''                                '''############,,,,        ,,,,,,###''
      ,#''                                            '''#######################'''  
     '                                                          ''''####''''         
             ,#######,   #######,   ,#######,      ##                                
            ,#'     '#,  ##    ##  ,#'     '#,    #''#        ######   ,####,        
            ##       ##  ##   ,#'  ##            #'  '#       #        #'  '#        
            ##       ##  #######   ##           ,######,      #####,   #    #        
            '#,     ,#'  ##    ##  '#,     ,#' ,#      #,         ##   #,  ,#        
             '#######'   ##     ##  '#######'  #'      '#     #####' # '####'        



                  #######################################################
                  #                        -***-                        #
                  #          Department of theory and spectroscopy      #
                  #    Directorship and core code : Frank Neese         #
                  #        Max Planck Institute fuer Kohlenforschung    #
                  #                Kaiser Wilhelm Platz 1               #
                  #                 D-45470 Muelheim/Ruhr               #
                  #                      Germany                        #
                  #                                                     #
                  #                  All rights reserved                #
                  #                        -***-                        #
                  #######################################################


                         Program Version 5.0.4 -  RELEASE  -


 With contributions from (in alphabetic order):
   Daniel Aravena         : Magnetic Suceptibility
   Michael Atanasov       : Ab Initio Ligand Field Theory (pilot matlab implementation)
   Alexander A. Auer      : GIAO ZORA, VPT2 properties, NMR spectrum
   Ute Becker             : Parallelization
   Giovanni Bistoni       : ED, misc. LED, open-shell LED, HFLD
   Martin Brehm           : Molecular dynamics
   Dmytro Bykov           : SCF Hessian
   Vijay G. Chilkuri      : MRCI spin determinant printing, contributions to CSF-ICE
   Dipayan Datta          : RHF DLPNO-CCSD density
   Achintya Kumar Dutta   : EOM-CC, STEOM-CC
   Dmitry Ganyushin       : Spin-Orbit,Spin-Spin,Magnetic field MRCI
   Miquel Garcia          : C-PCM and meta-GGA Hessian, CC/C-PCM, Gaussian charge scheme
   Yang Guo               : DLPNO-NEVPT2, F12-NEVPT2, CIM, IAO-localization
   Andreas Hansen         : Spin unrestricted coupled pair/coupled cluster methods
   Benjamin Helmich-Paris : MC-RPA, TRAH-SCF, COSX integrals
   Lee Huntington         : MR-EOM, pCC
   Robert Izsak           : Overlap fitted RIJCOSX, COSX-SCS-MP3, EOM
   Marcus Kettner         : VPT2
   Christian Kollmar      : KDIIS, OOCD, Brueckner-CCSD(T), CCSD density, CASPT2, CASPT2-K
   Simone Kossmann        : Meta GGA functionals, TD-DFT gradient, OOMP2, MP2 Hessian
   Martin Krupicka        : Initial AUTO-CI
   Lucas Lang             : DCDCAS
   Marvin Lechner         : AUTO-CI (C++ implementation), FIC-MRCC
   Dagmar Lenk            : GEPOL surface, SMD
   Dimitrios Liakos       : Extrapolation schemes; Compound Job, initial MDCI parallelization
   Dimitrios Manganas     : Further ROCIS development; embedding schemes
   Dimitrios Pantazis     : SARC Basis sets
   Anastasios Papadopoulos: AUTO-CI, single reference methods and gradients
   Taras Petrenko         : DFT Hessian,TD-DFT gradient, ASA, ECA, R-Raman, ABS, FL, XAS/XES, NRVS
   Peter Pinski           : DLPNO-MP2, DLPNO-MP2 Gradient
   Christoph Reimann      : Effective Core Potentials
   Marius Retegan         : Local ZFS, SOC
   Christoph Riplinger    : Optimizer, TS searches, QM/MM, DLPNO-CCSD(T), (RO)-DLPNO pert. Triples
   Tobias Risthaus        : Range-separated hybrids, TD-DFT gradient, RPA, STAB
   Michael Roemelt        : Original ROCIS implementation
   Masaaki Saitow         : Open-shell DLPNO-CCSD energy and density
   Barbara Sandhoefer     : DKH picture change effects
   Avijit Sen             : IP-ROCIS
   Kantharuban Sivalingam : CASSCF convergence, NEVPT2, FIC-MRCI
   Bernardo de Souza      : ESD, SOC TD-DFT
   Georgi Stoychev        : AutoAux, RI-MP2 NMR, DLPNO-MP2 response
   Willem Van den Heuvel  : Paramagnetic NMR
   Boris Wezisla          : Elementary symmetry handling
   Frank Wennmohs         : Technical directorship


 We gratefully acknowledge several colleagues who have allowed us to
 interface, adapt or use parts of their codes:
   Stefan Grimme, W. Hujo, H. Kruse, P. Pracht,  : VdW corrections, initial TS optimization,
                  C. Bannwarth, S. Ehlert          DFT functionals, gCP, sTDA/sTD-DF
   Ed Valeev, F. Pavosevic, A. Kumar             : LibInt (2-el integral package), F12 methods
   Garnet Chan, S. Sharma, J. Yang, R. Olivares  : DMRG
   Ulf Ekstrom                                   : XCFun DFT Library
   Mihaly Kallay                                 : mrcc  (arbitrary order and MRCC methods)
   Jiri Pittner, Ondrej Demel                    : Mk-CCSD
   Frank Weinhold                                : gennbo (NPA and NBO analysis)
   Christopher J. Cramer and Donald G. Truhlar   : smd solvation model
   Lars Goerigk                                  : TD-DFT with DH, B97 family of functionals
   V. Asgeirsson, H. Jonsson                     : NEB implementation
   FAccTs GmbH                                   : IRC, NEB, NEB-TS, DLPNO-Multilevel, CI-OPT
                                                   MM, QMMM, 2- and 3-layer-ONIOM, Crystal-QMMM,
                                                   LR-CPCM, SF, NACMEs, symmetry and pop. for TD-DFT,
                                                   nearIR, NL-DFT gradient (VV10), updates on ESD,
                                                   ML-optimized integration grids
   S Lehtola, MJT Oliveira, MAL Marques          : LibXC Library
   Liviu Ungur et al                             : ANISO software


 Your calculation uses the libint2 library for the computation of 2-el integrals
 For citations please refer to: http://libint.valeyev.net

 Your ORCA version has been built with support for libXC version: 5.1.0
 For citations please refer to: https://tddft.org/programs/libxc/

 This ORCA versions uses:
   CBLAS   interface :  Fast vector & matrix operations
   LAPACKE interface :  Fast linear algebra routines
   SCALAPACK package :  Parallel linear algebra routines
   Shared memory     :  Shared parallel matrices
   BLAS/LAPACK       :  OpenBLAS 0.3.15  USE64BITINT DYNAMIC_ARCH NO_AFFINITY Prescott SINGLE_THREADED
        Core in use  :  Prescott
   Copyright (c) 2011-2014, The OpenBLAS Project


Your calculation utilizes the atom-pairwise dispersion correction
with the Becke-Johnson damping scheme (D3BJ)
Cite in your paper:
S.Grimme, S.Ehrlich, L.Goerigk, J Comput Chem, (2011), 32, 1456–1465 
S.Grimme, J.Antony, S.Ehrlich and H.Krieg, J.Chem.Phys., 132, (2010), 154104 
   

================================================================================

----- Orbital basis set information -----
Your calculation utilizes the basis: def2-TZVP
   F. Weigend and R. Ahlrichs, Phys. Chem. Chem. Phys. 7, 3297 (2005).

----- AuxJ basis set information -----
Your calculation utilizes the auxiliary basis: def2/J
   F. Weigend, Phys. Chem. Chem. Phys. 8, 1057 (2006).

================================================================================
                                        WARNINGS
                       Please study these warnings very carefully!
================================================================================


WARNING: Geometry Optimization
  ===> : Switching off AutoStart
         For restart on a previous wavefunction, please use MOREAD

INFO   : the flag for use of the SHARK integral package has been found!

================================================================================
                                       INPUT FILE
================================================================================
NAME = /home/rudenko/mop_saddle_orca_4_serv/for_orca/m-o2nc6h4chno2ch3_oh/orca/orca_end/end.inp
|  1> !  opt B3LYP def2-TZVP CPCM D3 
|  2> %pal nprocs 102 end
|  3> %cpcm epsilon 78.4 end 
|  4> *xyz -1 1 
|  5> C   0.15645726 1.25695591 0.59098119
|  6> C   0.49931481 1.03348683 -0.73953161
|  7> C   0.30741095 -0.22347396 -1.33868032
|  8> C   -0.19767633 -1.2666193 -0.55426621
|  9> C   -0.51549027 -1.03199573 0.78716835
| 10> C   -0.35789609 0.22765368 1.37237262
| 11> H   0.28593408 2.25166987 1.02659726
| 12> H   0.90469141 1.86304545 -1.32752647
| 13> H   -0.36574439 -2.25765379 -0.98661103
| 14> H   -0.63008972 0.4023669 2.41693377
| 15> N   -1.0331933 -2.1167509 1.58566082
| 16> O   -1.35973413 -1.90537396 2.74716806
| 17> O   -1.13540504 -3.23308274 1.08951565
| 18> C   0.58970252 -0.43873755 -2.75122793
| 19> H   2.52271032 -0.20493824 -2.83039453
| 20> C   0.66320083 -1.84128074 -3.27192811
| 21> H   1.0594912 -1.89916972 -4.29582962
| 22> H   -0.34357922 -2.29365679 -3.31090112
| 23> H   1.28365025 -2.4949995 -2.64370369
| 24> N   0.22954246 0.5197389 -3.65460769
| 25> O   0.39902199 0.34393304 -4.87921524
| 26> O   -0.21797803 1.62698666 -3.28996058
| 27> O   6.625639 1.38568957 -2.92301367
| 28> H   6.09211687 0.66825451 -2.88841406
| 29> H   3.85313432 0.37667215 -2.02573253
| 30> H   3.74962902 0.5797163 -3.59800811
| 31> O   3.58994989 -0.13417489 -2.88071199
| 32> *
| 33> 
| 34>                          ****END OF INPUT****
================================================================================

                       *****************************
                       * Geometry Optimization Run *
                       *****************************

Geometry optimization settings:
Update method            Update   .... BFGS
Choice of coordinates    CoordSys .... Z-matrix Internals
Initial Hessian          InHess   .... Almoef's Model

Convergence Tolerances:
Energy Change            TolE     ....  5.0000e-06 Eh
Max. Gradient            TolMAXG  ....  3.0000e-04 Eh/bohr
RMS Gradient             TolRMSG  ....  1.0000e-04 Eh/bohr
Max. Displacement        TolMAXD  ....  4.0000e-03 bohr
RMS Displacement         TolRMSD  ....  2.0000e-03 bohr
Strict Convergence                ....  False
------------------------------------------------------------------------------
                        ORCA OPTIMIZATION COORDINATE SETUP
------------------------------------------------------------------------------

The optimization will be done in new redundant internal coordinates
Making redundant internal coordinates   ...  (new redundants) done
Evaluating the initial hessian          ...  (Almloef) done
Evaluating the coordinates              ...  done
Calculating the B-matrix                .... done
Calculating the G-matrix                .... done
Diagonalizing the G-matrix              .... done
Small eigenvalue found = 1.165e-02
Small eigenvalue found = 1.883e-02
Small eigenvalue found = 2.742e-02
The first mode is                       ....  127
The number of degrees of freedom        ....   75

    -----------------------------------------------------------------
                    Redundant Internal Coordinates


    -----------------------------------------------------------------
         Definition                    Initial Value    Approx d2E/dq
    -----------------------------------------------------------------
      1. B(C   1,C   0)                  1.3920         0.620149   
      2. B(C   2,C   1)                  1.4056         0.589962   
      3. B(C   3,C   2)                  1.3995         0.603391   
      4. B(C   4,C   3)                  1.3984         0.605828   
      5. B(C   5,C   0)                  1.3909         0.622741   
      6. B(C   5,C   4)                  1.3979         0.607010   
      7. B(H   6,C   0)                  1.0936         0.355357   
      8. B(H   7,C   1)                  1.0946         0.354015   
      9. B(H   8,C   3)                  1.0942         0.354560   
     10. B(H   9,C   5)                  1.0935         0.355512   
     11. B(N  10,C   4)                  1.4430         0.460563   
     12. B(O  11,N  10)                  1.2249         0.919180   
     13. B(O  12,N  10)                  1.2259         0.915885   
     14. B(C  13,C   2)                  1.4565         0.489421   
     15. B(H  14,C  13)                  1.9487         0.015361   
     16. B(C  15,C  13)                  1.4979         0.420354   
     17. B(C  15,H  14)                  2.5160         0.001911   
     18. B(H  16,C  15)                  1.0994         0.347824   
     19. B(H  17,C  15)                  1.1044         0.341506   
     20. B(H  18,C  15)                  1.0986         0.348872   
     21. B(N  19,C  13)                  1.3655         0.612384   
     22. B(O  20,N  19)                  1.2487         0.842209   
     23. B(O  21,N  19)                  1.2487         0.842277   
     24. B(H  23,O  22)                  0.8947         0.660828   
     25. B(H  24,O  22)                  3.0838         0.000213   
     26. B(H  24,H  23)                  2.4171         0.000526   
     27. B(H  25,H  23)                  2.4492         0.000468   
     28. B(H  25,O  22)                  3.0621         0.000230   
     29. B(O  26,H  25)                  1.0245         0.410224   
     30. B(O  26,H  24)                  1.0302         0.401826   
     31. B(O  26,H  14)                  1.0708         0.346136   
     32. B(O  26,H  23)                  2.6277         0.001136   
     33. A(C   1,C   0,C   5)          120.6135         0.434429   
     34. A(C   1,C   0,H   6)          119.8401         0.352132   
     35. A(C   5,C   0,H   6)          119.5453         0.352381   
     36. A(C   2,C   1,H   7)          119.9526         0.348954   
     37. A(C   0,C   1,C   2)          121.1544         0.430228   
     38. A(C   0,C   1,H   7)          118.8797         0.351907   
     39. A(C   1,C   2,C  13)          121.2721         0.412425   
     40. A(C   3,C   2,C  13)          120.2240         0.414077   
     41. A(C   1,C   2,C   3)          118.4834         0.428118   
     42. A(C   2,C   3,H   8)          120.6010         0.350373   
     43. A(C   2,C   3,C   4)          119.6457         0.430162   
     44. A(C   4,C   3,H   8)          119.7406         0.350612   
     45. A(C   3,C   4,N  10)          119.0926         0.407288   
     46. A(C   3,C   4,C   5)          121.8138         0.430624   
     47. A(C   5,C   4,N  10)          119.0906         0.407428   
     48. A(C   0,C   5,C   4)          118.2526         0.432759   
     49. A(C   4,C   5,H   9)          121.0526         0.350886   
     50. A(C   0,C   5,H   9)          120.6948         0.352407   
     51. A(O  11,N  10,O  12)          121.2444         0.487532   
     52. A(C   4,N  10,O  12)          119.3738         0.432714   
     53. A(C   4,N  10,O  11)          119.3817         0.432993   
     54. A(C  15,C  13,N  19)          116.1180         0.401535   
     55. A(C   2,C  13,C  15)          119.0151         0.388540   
     56. A(H  14,C  13,N  19)           98.6585         0.216811   
     57. A(H  14,C  13,C  15)           92.8399         0.207350   
     58. A(C   2,C  13,H  14)          102.3525         0.211496   
     59. A(C   2,C  13,N  19)          119.1286         0.412483   
     60. A(C  13,H  14,C  15)           36.4847         0.119198   
     61. A(C  15,H  14,O  26)          140.4770         0.149406   
     62. A(H  17,C  15,H  18)          106.9340         0.287007   
     63. A(H  16,C  15,H  18)          107.3163         0.287830   
     64. A(C  13,C  15,H  18)          112.7115         0.328961   
     65. A(H  16,C  15,H  17)          105.9112         0.286872   
     66. A(C  13,C  15,H  17)          110.5526         0.327804   
     67. A(C  13,C  15,H  16)          112.9998         0.328797   
     68. A(H  14,C  15,H  17)          161.1391         0.149933   
     69. A(H  14,C  15,H  16)           86.0596         0.150186   
     70. A(C  13,C  15,H  14)           50.6754         0.162843   
     71. A(H  14,C  15,H  18)           82.4872         0.150228   
     72. A(C  13,N  19,O  20)          120.9436         0.448716   
     73. A(O  20,N  19,O  21)          117.3785         0.472382   
     74. A(C  13,N  19,O  21)          121.5848         0.448722   
     75. A(H  24,O  22,H  25)           29.9590         0.095935   
     76. A(H  23,O  22,H  25)           40.3087         0.131807   
     77. A(H  23,O  22,H  24)           35.9333         0.131042   
     78. A(H  24,H  23,O  26)           23.0813         0.098885   
     79. A(O  22,H  23,O  26)          144.3681         0.150432   
     80. A(H  24,H  23,H  25)           38.1023         0.095542   
     81. A(O  22,H  23,H  25)          126.0215         0.129659   
     82. A(O  22,H  23,H  24)          131.5201         0.130759   
     83. A(H  25,H  23,O  26)           22.9380         0.098624   
     84. A(O  22,H  24,H  23)           12.5466         0.095765   
     85. A(H  23,H  24,O  26)           90.0148         0.126312   
     86. A(O  22,H  24,O  26)           98.6534         0.126565   
     87. A(O  22,H  25,H  23)           13.6698         0.095706   
     88. A(H  23,H  25,O  26)           88.3618         0.125499   
     89. A(O  22,H  25,O  26)          100.1052         0.127428   
     90. A(H  23,O  26,H  25)           68.7002         0.144148   
     91. A(H  23,O  26,H  24)           66.9038         0.143890   
     92. A(H  14,O  26,H  23)          165.7920         0.142068   
     93. A(H  24,O  26,H  25)          101.2864         0.297167   
     94. A(H  14,O  26,H  25)          103.5500         0.290255   
     95. A(H  14,O  26,H  24)          104.3834         0.289315   
     96. D(H   7,C   1,C   0,C   5)   -179.8066         0.026613   
     97. D(C   2,C   1,C   0,C   5)      1.5201         0.026613   
     98. D(C   2,C   1,C   0,H   6)   -178.0986         0.026613   
     99. D(H   7,C   1,C   0,H   6)      0.5746         0.026613   
    100. D(C   3,C   2,C   1,H   7)    179.2475         0.023952   
    101. D(C  13,C   2,C   1,H   7)     -2.3954         0.023952   
    102. D(C  13,C   2,C   1,C   0)    176.2637         0.023952   
    103. D(C   3,C   2,C   1,C   0)     -2.0934         0.023952   
    104. D(C   4,C   3,C   2,C   1)      0.9599         0.025114   
    105. D(H   8,C   3,C   2,C   1)    179.6623         0.025114   
    106. D(H   8,C   3,C   2,C  13)      1.2874         0.025114   
    107. D(C   4,C   3,C   2,C  13)   -177.4150         0.025114   
    108. D(N  10,C   4,C   3,C   2)   -179.8883         0.025329   
    109. D(C   5,C   4,C   3,H   8)   -177.9608         0.025329   
    110. D(C   5,C   4,C   3,C   2)      0.7529         0.025329   
    111. D(N  10,C   4,C   3,H   8)      1.3980         0.025329   
    112. D(C   0,C   5,C   4,N  10)    179.2966         0.025433   
    113. D(H   9,C   5,C   4,N  10)     -0.6548         0.025433   
    114. D(C   0,C   5,C   4,C   3)     -1.3446         0.025433   
    115. D(H   9,C   5,C   0,H   6)     -0.2206         0.026850   
    116. D(H   9,C   5,C   0,C   1)   -179.8404         0.026850   
    117. D(H   9,C   5,C   4,C   3)    178.7040         0.025433   
    118. D(C   4,C   5,C   0,C   1)      0.2080         0.026850   
    119. D(C   4,C   5,C   0,H   6)    179.8279         0.026850   
    120. D(O  12,N  10,C   4,C   5)   -177.8008         0.016711   
    121. D(O  11,N  10,C   4,C   5)      2.0556         0.016711   
    122. D(O  11,N  10,C   4,C   3)   -177.3208         0.016711   
    123. D(O  12,N  10,C   4,C   3)      2.8228         0.016711   
    124. D(N  19,C  13,C   2,C   1)    -41.1289         0.017670   
    125. D(C  15,C  13,C   2,C   3)    -15.0964         0.017670   
    126. D(C  15,C  13,C   2,C   1)    166.5748         0.017670   
    127. D(H  14,C  13,C   2,C   3)   -115.4350         0.017670   
    128. D(H  14,C  13,C   2,C   1)     66.2362         0.017670   
    129. D(N  19,C  13,C   2,C   3)    137.1999         0.017670   
    130. D(C  15,H  14,C  13,N  19)   -116.9619         0.001626   
    131. D(C  15,H  14,C  13,C   2)    120.5313         0.001626   
    132. D(H  18,C  15,H  14,C  13)   -127.6953         0.001502   
    133. D(H  17,C  15,H  14,C  13)     -6.1777         0.001502   
    134. D(H  18,C  15,C  13,C   2)    -47.5520         0.014846   
    135. D(H  16,C  15,H  14,O  26)    -56.9189         0.001502   
    136. D(C  13,C  15,H  14,O  26)    178.8367         0.001502   
    137. D(H  14,C  15,C  13,C   2)   -105.8097         0.014846   
    138. D(H  18,C  15,C  13,H  14)     58.2577         0.014846   
    139. D(H  18,C  15,C  13,N  19)    159.3385         0.014846   
    140. D(H  17,C  15,H  14,O  26)    172.6591         0.001502   
    141. D(H  14,C  15,C  13,N  19)    101.0808         0.014846   
    142. D(H  17,C  15,C  13,H  14)    177.8708         0.014846   
    143. D(H  17,C  15,C  13,N  19)    -81.0484         0.014846   
    144. D(H  17,C  15,C  13,C   2)     72.0612         0.014846   
    145. D(H  18,C  15,H  14,O  26)     51.1415         0.001502   
    146. D(H  16,C  15,H  14,C  13)    124.2443         0.001502   
    147. D(H  16,C  15,C  13,N  19)     37.4552         0.014846   
    148. D(H  16,C  15,C  13,C   2)   -169.4353         0.014846   
    149. D(H  16,C  15,C  13,H  14)    -63.6256         0.014846   
    150. D(O  21,N  19,C  13,H  14)   -102.4899         0.032955   
    151. D(O  21,N  19,C  13,C  15)    160.0130         0.032955   
    152. D(O  21,N  19,C  13,C   2)      6.9355         0.032955   
    153. D(O  20,N  19,C  13,H  14)     73.9103         0.032955   
    154. D(O  20,N  19,C  13,C  15)    -23.5868         0.032955   
    155. D(O  20,N  19,C  13,C   2)   -176.6644         0.032955   
    156. D(O  26,H  23,O  22,H  24)     29.0879         0.787065   
    157. D(H  25,H  23,O  22,H  24)     49.0264         0.787065   
    158. D(H  24,H  23,O  22,H  25)    -49.0264         0.787065   
    159. D(O  26,H  23,O  22,H  25)    -19.9385         0.787065   
    160. D(O  22,H  24,H  23,H  25)    -98.2707         0.001503   
    161. D(O  26,H  24,H  23,H  25)     35.4739         0.001503   
    162. D(O  26,H  24,H  23,O  22)    133.7445         0.001503   
    163. D(H  23,H  24,O  22,H  25)     77.9741         0.001500   
    164. D(O  26,H  24,O  22,H  25)     31.0249         0.001500   
    165. D(O  22,H  24,H  23,O  26)   -133.7445         0.001503   
    166. D(O  26,H  24,O  22,H  23)    -46.9492         0.001500   
    167. D(O  22,H  25,H  23,O  26)    149.3533         0.001503   
    168. D(O  22,H  25,H  23,H  24)    113.6379         0.001503   
    169. D(O  26,H  25,H  23,H  24)    -35.7154         0.001503   
    170. D(O  26,H  25,H  23,O  22)   -149.3533         0.001503   
    171. D(H  23,H  25,O  22,H  24)    -62.5292         0.001500   
    172. D(O  26,H  25,O  22,H  24)    -31.3602         0.001500   
    173. D(O  26,H  25,O  22,H  23)     31.1689         0.001500   
    174. D(H  24,O  26,H  25,H  23)     59.5260         0.228646   
    175. D(H  24,O  26,H  25,O  22)     52.4975         0.228646   
    176. D(H  14,O  26,H  25,H  23)    167.5044         0.228646   
    177. D(H  23,O  26,H  24,O  22)      9.1339         0.217083   
    178. D(H  25,O  26,H  24,H  23)    -60.8041         0.217083   
    179. D(H  25,O  26,H  24,O  22)    -51.6702         0.217083   
    180. D(H  14,O  26,H  24,H  23)   -168.1311         0.217083   
    181. D(H  14,O  26,H  24,O  22)   -158.9972         0.217083   
    182. D(H  25,O  26,H  23,H  24)    113.2431         0.001501   
    183. D(H  25,O  26,H  23,O  22)     45.0466         0.001501   
    184. D(H  24,O  26,H  23,O  22)    -68.1965         0.001501   
    185. D(H  14,O  26,H  23,H  25)    -58.9806         0.001501   
    186. D(H  14,O  26,H  23,H  24)     54.2624         0.001501   
    187. D(H  14,O  26,H  23,O  22)    -13.9341         0.001501   
    188. D(H  23,O  26,H  14,C  15)    170.5557         0.149909   
    189. D(H  24,O  26,H  23,H  25)   -113.2431         0.001501   
    190. D(H  25,O  26,H  14,C  15)    115.3391         0.149909   
    191. D(H  24,O  26,H  14,C  15)   -139.0184         0.149909   
    192. D(H  23,O  26,C  13,N  19)     53.3549         0.001500   
    193. D(H  23,O  26,C  13,C  15)    170.1940         0.001500   
    194. D(H  23,O  26,C  13,C   2)    -69.5206         0.001500   
    195. D(H  25,O  26,C  13,N  19)     -2.8075         0.001500   
    196. D(H  25,O  26,C  13,C  15)    114.0315         0.001500   
    197. D(H  14,O  26,H  25,O  22)    160.4758         0.228646   
    198. D(H  25,O  26,C  13,C   2)   -125.6830         0.001500   
    199. D(H  24,O  26,C  13,N  19)    103.6722         0.001500   
    200. D(H  24,O  26,C  13,C  15)   -139.4887         0.001500   
    201. D(H  23,O  26,H  25,O  22)     -7.0285         0.228646   
    202. D(H  24,O  26,C  13,C   2)    -19.2033         0.001500   
    -----------------------------------------------------------------

Number of atoms                         .... 27
Number of degrees of freedom            .... 202

         *************************************************************
         *                GEOMETRY OPTIMIZATION CYCLE   1            *
         *************************************************************
---------------------------------
CARTESIAN COORDINATES (ANGSTROEM)
---------------------------------
  C      0.156457    1.256956    0.590981
  C      0.499315    1.033487   -0.739532
  C      0.307411   -0.223474   -1.338680
  C     -0.197676   -1.266619   -0.554266
  C     -0.515490   -1.031996    0.787168
  C     -0.357896    0.227654    1.372373
  H      0.285934    2.251670    1.026597
  H      0.904691    1.863045   -1.327526
  H     -0.365744   -2.257654   -0.986611
  H     -0.630090    0.402367    2.416934
  N     -1.033193   -2.116751    1.585661
  O     -1.359734   -1.905374    2.747168
  O     -1.135405   -3.233083    1.089516
  C      0.589703   -0.438738   -2.751228
  H      2.522710   -0.204938   -2.830395
  C      0.663201   -1.841281   -3.271928
  H      1.059491   -1.899170   -4.295830
  H     -0.343579   -2.293657   -3.310901
  H      1.283650   -2.495000   -2.643704
  N      0.229542    0.519739   -3.654608
  O      0.399022    0.343933   -4.879215
  O     -0.217978    1.626987   -3.289961
  O      6.625639    1.385690   -2.923014
  H      6.092117    0.668255   -2.888414
  H      3.853134    0.376672   -2.025733
  H      3.749629    0.579716   -3.598008
  O      3.589950   -0.134175   -2.880712

----------------------------
CARTESIAN COORDINATES (A.U.)
----------------------------
  NO LB      ZA    FRAG     MASS         X           Y           Z
   0 C     6.0000    0    12.011    0.295661    2.375302    1.116793
   1 C     6.0000    0    12.011    0.943568    1.953007   -1.397512
   2 C     6.0000    0    12.011    0.580923   -0.422305   -2.529739
   3 C     6.0000    0    12.011   -0.373554   -2.393564   -1.047411
   4 C     6.0000    0    12.011   -0.974135   -1.950189    1.487533
   5 C     6.0000    0    12.011   -0.676326    0.430203    2.593408
   6 H     1.0000    0     1.008    0.540337    4.255039    1.939988
   7 H     1.0000    0     1.008    1.709619    3.520646   -2.508661
   8 H     1.0000    0     1.008   -0.691157   -4.266347   -1.864425
   9 H     1.0000    0     1.008   -1.190697    0.760363    4.567343
  10 N     7.0000    0    14.007   -1.952452   -4.000079    2.996465
  11 O     8.0000    0    15.999   -2.569525   -3.600635    5.191395
  12 O     8.0000    0    15.999   -2.145605   -6.109641    2.058886
  13 C     6.0000    0    12.011    1.114376   -0.829094   -5.199067
  14 H     1.0000    0     1.008    4.767232   -0.387277   -5.348671
  15 C     6.0000    0    12.011    1.253268   -3.479516   -6.183048
  16 H     1.0000    0     1.008    2.002148   -3.588911   -8.117941
  17 H     1.0000    0     1.008   -0.649271   -4.334383   -6.256696
  18 H     1.0000    0     1.008    2.425747   -4.714866   -4.995876
  19 N     7.0000    0    14.007    0.433772    0.982164   -6.906208
  20 O     8.0000    0    15.999    0.754042    0.649939   -9.220381
  21 O     8.0000    0    15.999   -0.411919    3.074559   -6.217124
  22 O     8.0000    0    15.999   12.520643    2.618574   -5.523695
  23 H     1.0000    0     1.008   11.512432    1.262818   -5.458312
  24 H     1.0000    0     1.008    7.281369    0.711807   -3.828080
  25 H     1.0000    0     1.008    7.085772    1.095505   -6.799250
  26 O     8.0000    0    15.999    6.784022   -0.253554   -5.443757

--------------------------------
INTERNAL COORDINATES (ANGSTROEM)
--------------------------------
 C      0   0   0     0.000000000000     0.00000000     0.00000000
 C      1   0   0     1.392032341676     0.00000000     0.00000000
 C      2   1   0     1.405616126748   121.15437297     0.00000000
 C      3   2   1     1.399489498620   118.48342378   357.90660451
 C      4   3   2     1.398392147725   119.64566523     0.95985318
 C      1   2   3     1.390897198292   120.61345420     1.52012449
 H      1   2   3     1.093609377053   119.84014068   181.90136935
 H      2   1   3     1.094639505605   118.87970721   178.67322576
 H      4   3   2     1.094220396695   120.60104861   179.66228088
 H      6   1   2     1.093490776159   120.69476143   180.15957506
 N      5   4   3     1.443017820666   119.09255914   180.11165921
 O     11   5   4     1.224911504148   119.38167411   182.67915120
 O     11   5   4     1.225889084096   119.37379574     2.82280755
 C      3   2   1     1.456474405607   121.27212372   176.26372002
 H     14   3   2     1.948704344628   102.35246407    66.23618169
 C     14   3   2     1.497884534549   119.01509850   166.57476051
 H     16  14   3     1.099441446163   112.99977121   190.56474436
 H     16  14   3     1.104431552972   110.55257631    72.06116192
 H     16  14   3     1.098622602097   112.71145268   312.44799105
 N     14   3   2     1.365462326394   119.12858674   318.87106532
 O     20  14   3     1.248717206983   120.94360136   183.33563398
 O     20  14   3     1.248695201331   121.58480703     6.93545392
 O     15  14   3     4.401442818918   165.66914528   284.26988210
 H     23  15  14     0.894737984848    32.17393116   173.06380646
 H     15  14   3     1.660054095437   144.81754995   344.13204697
 H     25  15  14     1.588707264867    60.84697765   219.35831542
 O     26  25  15     1.024525148293    39.48558928   316.92428103

---------------------------
INTERNAL COORDINATES (A.U.)
---------------------------
 C      0   0   0     0.000000000000     0.00000000     0.00000000
 C      1   0   0     2.630559895329     0.00000000     0.00000000
 C      2   1   0     2.656229528977   121.15437297     0.00000000
 C      3   2   1     2.644651879691   118.48342378   357.90660451
 C      4   3   2     2.642578187027   119.64566523     0.95985318
 C      1   2   3     2.628414785210   120.61345420     1.52012449
 H      1   2   3     2.066622220119   119.84014068   181.90136935
 H      2   1   3     2.068568880964   118.87970721   178.67322576
 H      4   3   2     2.067776879904   120.60104861   179.66228088
 H      6   1   2     2.066398096909   120.69476143   180.15957506
 N      5   4   3     2.726908487427   119.09255914   180.11165921
 O     11   5   4     2.314747281129   119.38167411   182.67915120
 O     11   5   4     2.316594639505   119.37379574     2.82280755
 C      3   2   1     2.752337747664   121.27212372   176.26372002
 H     14   3   2     3.682517527330   102.35246407    66.23618169
 C     14   3   2     2.830591550533   119.01509850   166.57476051
 H     16  14   3     2.077643233530   112.99977121   190.56474436
 H     16  14   3     2.087073168778   110.55257631    72.06116192
 H     16  14   3     2.076095842499   112.71145268   312.44799105
 N     14   3   2     2.580349843072   119.12858674   318.87106532
 O     20  14   3     2.359733539914   120.94360136   183.33563398
 O     20  14   3     2.359691955257   121.58480703     6.93545392
 O     15  14   3     8.317521521870   165.66914528   284.26988210
 H     23  15  14     1.690809752978    32.17393116   173.06380646
 H     15  14   3     3.137047607870   144.81754995   344.13204697
 H     25  15  14     3.002221637570    60.84697765   219.35831542
 O     26  25  15     1.936071947588    39.48558928   316.92428103

---------------------
BASIS SET INFORMATION
---------------------
There are 4 groups of distinct atoms

 Group   1 Type C   : 11s6p2d1f contracted to 5s3p2d1f pattern {62111/411/11/1}
 Group   2 Type H   : 5s1p contracted to 3s1p pattern {311/1}
 Group   3 Type N   : 11s6p2d1f contracted to 5s3p2d1f pattern {62111/411/11/1}
 Group   4 Type O   : 11s6p2d1f contracted to 5s3p2d1f pattern {62111/411/11/1}

Atom   0C    basis set group =>   1
Atom   1C    basis set group =>   1
Atom   2C    basis set group =>   1
Atom   3C    basis set group =>   1
Atom   4C    basis set group =>   1
Atom   5C    basis set group =>   1
Atom   6H    basis set group =>   2
Atom   7H    basis set group =>   2
Atom   8H    basis set group =>   2
Atom   9H    basis set group =>   2
Atom  10N    basis set group =>   3
Atom  11O    basis set group =>   4
Atom  12O    basis set group =>   4
Atom  13C    basis set group =>   1
Atom  14H    basis set group =>   2
Atom  15C    basis set group =>   1
Atom  16H    basis set group =>   2
Atom  17H    basis set group =>   2
Atom  18H    basis set group =>   2
Atom  19N    basis set group =>   3
Atom  20O    basis set group =>   4
Atom  21O    basis set group =>   4
Atom  22O    basis set group =>   4
Atom  23H    basis set group =>   2
Atom  24H    basis set group =>   2
Atom  25H    basis set group =>   2
Atom  26O    basis set group =>   4
---------------------------------
AUXILIARY/J BASIS SET INFORMATION
---------------------------------
There are 4 groups of distinct atoms

 Group   1 Type C   : 12s5p4d2f1g contracted to 6s4p3d1f1g pattern {711111/2111/211/2/1}
 Group   2 Type H   : 5s2p1d contracted to 3s1p1d pattern {311/2/1}
 Group   3 Type N   : 12s5p4d2f1g contracted to 6s4p3d1f1g pattern {711111/2111/211/2/1}
 Group   4 Type O   : 12s5p4d2f1g contracted to 6s4p3d1f1g pattern {711111/2111/211/2/1}

Atom   0C    basis set group =>   1
Atom   1C    basis set group =>   1
Atom   2C    basis set group =>   1
Atom   3C    basis set group =>   1
Atom   4C    basis set group =>   1
Atom   5C    basis set group =>   1
Atom   6H    basis set group =>   2
Atom   7H    basis set group =>   2
Atom   8H    basis set group =>   2
Atom   9H    basis set group =>   2
Atom  10N    basis set group =>   3
Atom  11O    basis set group =>   4
Atom  12O    basis set group =>   4
Atom  13C    basis set group =>   1
Atom  14H    basis set group =>   2
Atom  15C    basis set group =>   1
Atom  16H    basis set group =>   2
Atom  17H    basis set group =>   2
Atom  18H    basis set group =>   2
Atom  19N    basis set group =>   3
Atom  20O    basis set group =>   4
Atom  21O    basis set group =>   4
Atom  22O    basis set group =>   4
Atom  23H    basis set group =>   2
Atom  24H    basis set group =>   2
Atom  25H    basis set group =>   2
Atom  26O    basis set group =>   4


           ************************************************************
           *        Program running with 102 parallel MPI-processes   *
           *              working on a common directory               *
           ************************************************************
------------------------------------------------------------------------------
                           ORCA GTO INTEGRAL CALCULATION
                           -- RI-GTO INTEGRALS CHOSEN --
------------------------------------------------------------------------------
------------------------------------------------------------------------------
                   ___                                                        
                  /   \      - P O W E R E D   B Y -                         
                 /     \                                                     
                 |  |  |   _    _      __       _____    __    __             
                 |  |  |  | |  | |    /  \     |  _  \  |  |  /  |          
                  \  \/   | |  | |   /    \    | | | |  |  | /  /          
                 / \  \   | |__| |  /  /\  \   | |_| |  |  |/  /          
                |  |  |   |  __  | /  /__\  \  |    /   |      \           
                |  |  |   | |  | | |   __   |  |    \   |  |\   \          
                \     /   | |  | | |  |  |  |  | |\  \  |  | \   \       
                 \___/    |_|  |_| |__|  |__|  |_| \__\ |__|  \__/        
                                                                              
                      - O R C A' S   B I G   F R I E N D -                    
                                      &                                       
                       - I N T E G R A L  F E E D E R -                       
                                                                              
 v1 FN, 2020, v2 2021                                                         
------------------------------------------------------------------------------


Reading SHARK input file /home/rudenko/mop_saddle_orca_4_serv/for_orca/m-o2nc6h4chno2ch3_oh/orca/orca_end/end.SHARKINP.tmp ... ok
----------------------
SHARK INTEGRAL PACKAGE
----------------------

Number of atoms                             ...     27
Number of basis functions                   ...    562
Number of shells                            ...    220
Maximum angular momentum                    ...      3
Integral batch strategy                     ... SHARK/LIBINT Hybrid
RI-J (if used) integral strategy            ... SPLIT-RIJ (Revised 2003 algorithm where possible)
Printlevel                                  ...      1
Contraction scheme used                     ... SEGMENTED contraction
Coulomb Range Separation                    ... NOT USED
Exchange Range Separation                   ... NOT USED
Finite Nucleus Model                        ... NOT USED
Auxiliary Coulomb fitting basis             ... AVAILABLE
   # of basis functions in Aux-J            ...    905
   # of shells in Aux-J                     ...    295
   Maximum angular momentum in Aux-J        ...      4
Auxiliary J/K fitting basis                 ... NOT available
Auxiliary Correlation fitting basis         ... NOT available
Auxiliary 'external' fitting basis          ... NOT available
Integral threshold                          ...     2.500000e-11
Primitive cut-off                           ...     2.500000e-12
Primitive pair pre-selection threshold      ...     2.500000e-12

Calculating pre-screening integrals         ... done (  0.1 sec) Dimension = 220
Organizing shell pair data                  ... done (  0.4 sec)
Shell pair information
Total number of shell pairs                 ...     24310
Shell pairs after pre-screening             ...     17709
Total number of primitive shell pairs       ...     75076
Primitive shell pairs kept                  ...     37279
          la=0 lb=0:   4560 shell pairs
          la=1 lb=0:   5081 shell pairs
          la=1 lb=1:   1442 shell pairs
          la=2 lb=0:   2530 shell pairs
          la=2 lb=1:   1431 shell pairs
          la=2 lb=2:    365 shell pairs
          la=3 lb=0:   1191 shell pairs
          la=3 lb=1:    689 shell pairs
          la=3 lb=2:    335 shell pairs
          la=3 lb=3:     85 shell pairs

Calculating one electron integrals          ... done (  0.1 sec)
Calculating RI/J V-Matrix + Cholesky decomp.... done (  0.1 sec)
Calculating Nuclear repulsion               ... done (  0.0 sec) ENN=   1089.159560313366 Eh

SHARK setup successfully completed in   1.1 seconds

Maximum memory used throughout the entire GTOINT-calculation: 30.0 MB


           ************************************************************
           *        Program running with 102 parallel MPI-processes   *
           *              working on a common directory               *
           ************************************************************
-------------------------------------------------------------------------------
                                 ORCA SCF
-------------------------------------------------------------------------------

------------
SCF SETTINGS
------------
Hamiltonian:
 Density Functional     Method          .... DFT(GTOs)
 Exchange Functional    Exchange        .... B88
   X-Alpha parameter    XAlpha          ....  0.666667
   Becke's b parameter  XBeta           ....  0.004200
 Correlation Functional Correlation     .... LYP
 LDA part of GGA corr.  LDAOpt          .... VWN-5
 Gradients option       PostSCFGGA      .... off
 Hybrid DFT is turned on
   Fraction HF Exchange ScalHFX         ....  0.200000
   Scaling of DF-GGA-X  ScalDFX         ....  0.720000
   Scaling of DF-GGA-C  ScalDFC         ....  0.810000
   Scaling of DF-LDA-C  ScalLDAC        ....  1.000000
   Perturbative correction              ....  0.000000
   Density functional embedding theory  .... OFF
   NL short-range parameter             ....  4.800000
 RI-approximation to the Coulomb term is turned on
   Number of AuxJ basis functions       .... 905
   RIJ-COSX (HFX calculated with COS-X)).... on


General Settings:
 Integral files         IntName         .... /home/rudenko/mop_saddle_orca_4_serv/for_orca/m-o2nc6h4chno2ch3_oh/orca/orca_end/end
 Hartree-Fock type      HFTyp           .... RHF
 Total Charge           Charge          ....   -1
 Multiplicity           Mult            ....    1
 Number of Electrons    NEL             ....  122
 Basis Dimension        Dim             ....  562
 Nuclear Repulsion      ENuc            ....   1089.1595603134 Eh

Convergence Acceleration:
 DIIS                   CNVDIIS         .... on
   Start iteration      DIISMaxIt       ....    12
   Startup error        DIISStart       ....  0.200000
   # of expansion vecs  DIISMaxEq       ....     5
   Bias factor          DIISBfac        ....   1.050
   Max. coefficient     DIISMaxC        ....  10.000
 Trust-Rad. Augm. Hess. CNVTRAH         .... auto
   Auto Start mean grad. ratio tolernc. ....  1.125000
   Auto Start start iteration           ....    20
   Auto Start num. interpolation iter.  ....    10
   Max. Number of Micro iterations      ....    16
   Max. Number of Macro iterations      .... Maxiter - #DIIS iter
   Number of Davidson start vectors     ....     2
   Converg. threshold I  (grad. norm)   ....   1.000e-05
   Converg. threshold II (energy diff.) ....   1.000e-08
   Grad. Scal. Fac. for Micro threshold ....   0.100
   Minimum threshold for Micro iter.    ....   0.010
   NR start threshold (gradient norm)   ....   0.001
   Initial trust radius                 ....   0.400
   Minimum AH scaling param. (alpha)    ....   1.000
   Maximum AH scaling param. (alpha)    .... 1000.000
   Orbital update algorithm             .... Taylor
   White noise on init. David. guess    .... on
   Maximum white noise                  ....   0.010
   Quad. conv. algorithm                .... NR
 SOSCF                  CNVSOSCF        .... on
   Start iteration      SOSCFMaxIt      ....   150
   Startup grad/error   SOSCFStart      ....  0.003300
 Level Shifting         CNVShift        .... on
   Level shift para.    LevelShift      ....    0.2500
   Turn off err/grad.   ShiftErr        ....    0.0010
 Zerner damping         CNVZerner       .... off
 Static damping         CNVDamp         .... on
   Fraction old density DampFac         ....    0.7000
   Max. Damping (<1)    DampMax         ....    0.9800
   Min. Damping (>=0)   DampMin         ....    0.0000
   Turn off err/grad.   DampErr         ....    0.1000
 Fernandez-Rico         CNVRico         .... off

SCF Procedure:
 Maximum # iterations   MaxIter         ....   125
 SCF integral mode      SCFMode         .... Direct
   Integral package                     .... SHARK and LIBINT hybrid scheme
 Reset frequency        DirectResetFreq ....    20
 Integral Threshold     Thresh          ....  2.500e-11 Eh
 Primitive CutOff       TCut            ....  2.500e-12 Eh

Convergence Tolerance:
 Convergence Check Mode ConvCheckMode   .... Total+1el-Energy
 Convergence forced     ConvForced      .... 0
 Energy Change          TolE            ....  1.000e-08 Eh
 1-El. energy change                    ....  1.000e-05 Eh
 Orbital Gradient       TolG            ....  1.000e-05
 Orbital Rotation angle TolX            ....  1.000e-05
 DIIS Error             TolErr          ....  5.000e-07


Diagonalization of the overlap matrix:
Smallest eigenvalue                        ... 7.818e-06
Time for diagonalization                   ...    0.105 sec
Threshold for overlap eigenvalues          ... 1.000e-08
Number of eigenvalues below threshold      ... 0
Time for construction of square roots      ...    0.232 sec
Total time needed                          ...    0.340 sec

Time for model grid setup =    0.214 sec

------------------------------
INITIAL GUESS: MODEL POTENTIAL
------------------------------
Loading Hartree-Fock densities                     ... done
Calculating cut-offs                               ... done
Initializing the effective Hamiltonian             ... done
Setting up the integral package (SHARK)            ... done
Starting the Coulomb interaction                   ... done (   0.1 sec)
Reading the grid                                   ... done
Mapping shells                                     ... done
Starting the XC term evaluation                    ... done (   0.0 sec)
  promolecular density results
     # of electrons  =    120.983624214
     EX              =   -106.674094664
     EC              =     -4.213810804
     EX+EC           =   -110.887905469
Transforming the Hamiltonian                       ... done (   0.2 sec)
Diagonalizing the Hamiltonian                      ... done (   0.2 sec)
Back transforming the eigenvectors                 ... done (   0.1 sec)
Now organizing SCF variables                       ... done
                      ------------------
                      INITIAL GUESS DONE (   0.9 sec)
                      ------------------
-------------------
DFT GRID GENERATION
-------------------

General Integration Accuracy     IntAcc      ... 4.388
Radial Grid Type                 RadialGrid  ... OptM3 with GC (2021)
Angular Grid (max. ang.)         AngularGrid ... 4 (Lebedev-302)
Angular grid pruning method      GridPruning ... 4 (adaptive)
Weight generation scheme         WeightScheme... Becke
Basis function cutoff            BFCut       ... 1.0000e-11
Integration weight cutoff        WCut        ... 1.0000e-14
Angular grids for H and He will be reduced by one unit
Partially contracted basis set               ... off
Rotationally invariant grid construction     ... off

Total number of grid points                  ...   131639
Total number of batches                      ...     2068
Average number of points per batch           ...       63
Average number of grid points per atom       ...     4876
Time for grid setup =    1.071 sec

--------------------
COSX GRID GENERATION
--------------------

GRIDX 1
-------
General Integration Accuracy     IntAcc      ... 3.816
Radial Grid Type                 RadialGrid  ... OptM3 with GC (2021)
Angular Grid (max. ang.)         AngularGrid ... 1 (Lebedev-50)
Angular grid pruning method      GridPruning ... 4 (adaptive)
Weight generation scheme         WeightScheme... Becke
Basis function cutoff            BFCut       ... 1.0000e-11
Integration weight cutoff        WCut        ... 1.0000e-14
Angular grids for H and He will be reduced by one unit
Partially contracted basis set               ... on
Rotationally invariant grid construction     ... off

Total number of grid points                  ...    16742
Total number of batches                      ...      274
Average number of points per batch           ...       61
Average number of grid points per atom       ...      620
UseSFitting                                  ... on

GRIDX 2
-------
General Integration Accuracy     IntAcc      ... 4.020
Radial Grid Type                 RadialGrid  ... OptM3 with GC (2021)
Angular Grid (max. ang.)         AngularGrid ... 2 (Lebedev-110)
Angular grid pruning method      GridPruning ... 4 (adaptive)
Weight generation scheme         WeightScheme... Becke
Basis function cutoff            BFCut       ... 1.0000e-11
Integration weight cutoff        WCut        ... 1.0000e-14
Angular grids for H and He will be reduced by one unit
Partially contracted basis set               ... on
Rotationally invariant grid construction     ... off

Total number of grid points                  ...    36878
Total number of batches                      ...      588
Average number of points per batch           ...       62
Average number of grid points per atom       ...     1366
UseSFitting                                  ... on

GRIDX 3
-------
General Integration Accuracy     IntAcc      ... 4.338
Radial Grid Type                 RadialGrid  ... OptM3 with GC (2021)
Angular Grid (max. ang.)         AngularGrid ... 3 (Lebedev-194)
Angular grid pruning method      GridPruning ... 4 (adaptive)
Weight generation scheme         WeightScheme... Becke
Basis function cutoff            BFCut       ... 1.0000e-11
Integration weight cutoff        WCut        ... 1.0000e-14
Angular grids for H and He will be reduced by one unit
Partially contracted basis set               ... on
Rotationally invariant grid construction     ... off

Total number of grid points                  ...    80915
Total number of batches                      ...     1279
Average number of points per batch           ...       63
Average number of grid points per atom       ...     2997
UseSFitting                                  ... on

Time for X-Grid setup             =    1.689 sec


--------------------
CPCM SOLVATION MODEL
--------------------
CPCM parameters:
  Epsilon                                         ...      78.4000
  Refrac                                          ...       1.3300
  Rsolv                                           ...       1.3000
  Surface type                                    ... GAUSSIAN VDW
  Epsilon function type                           ...         CPCM
Radii:
 Radius for C  used is    3.8550 Bohr (=   2.0400 Ang.)
 Radius for H  used is    2.4944 Bohr (=   1.3200 Ang.)
 Radius for N  used is    3.5149 Bohr (=   1.8600 Ang.)
 Radius for O  used is    3.4469 Bohr (=   1.8240 Ang.)
Calculating surface                               ...        done! (  0.0s)
GEPOL surface points                              ...         1575
GEPOL Volume                                      ...    1815.5605
GEPOL Surface-area                                ...    1044.8309
Calculating surface distance matrix               ...        done! (  0.2s)
Performing Cholesky decomposition & store         ...        done! (  0.5s)
Overall time for CPCM initialization              ...                 0.6s
--------------
SCF ITERATIONS
--------------
ITER       Energy         Delta-E        Max-DP      RMS-DP      [F,P]     Damp
               ***  Starting incremental Fock matrix formation  ***
  0   -871.3525517093   0.000000000000 0.31444689  0.00195811  0.5373033 0.7000
  1   -871.7171204520  -0.364568742673 0.28637804  0.00157080  0.1871252 0.7000
                               ***Turning on DIIS***
  2   -871.8330227588  -0.115902306750 0.40510806  0.00212221  0.0414147 0.0000
  3   -872.0556571361  -0.222634377343 0.06160247  0.00038253  0.1080823 0.7000
  4   -872.0704750304  -0.014817894292 0.21676012  0.00132666  0.0654176 0.0000
  5   -872.0909229496  -0.020447919204 0.01834572  0.00014299  0.0293931 0.0000
                      *** Initiating the SOSCF procedure ***
                           *** Shutting down DIIS ***
                      *** Re-Reading the Fockian *** 
                      *** Removing any level shift *** 
ITER      Energy       Delta-E        Grad      Rot      Max-DP    RMS-DP
  6   -872.09219566  -0.0012727120  0.000923  0.000923  0.005791  0.000049
               *** Restarting incremental Fock matrix formation ***
  7   -872.09219088   0.0000047803  0.000544  0.003189  0.005849  0.000052
  8   -872.09219953  -0.0000086462  0.000699  0.002190  0.003426  0.000028
  9   -872.09220531  -0.0000057805  0.000235  0.001138  0.001587  0.000019
 10   -872.09220695  -0.0000016414  0.000055  0.000232  0.000211  0.000004
 11   -872.09220693   0.0000000156  0.000078  0.000260  0.000236  0.000004
 12   -872.09220716  -0.0000002227  0.000018  0.000052  0.000221  0.000002
 13   -872.09220714   0.0000000199  0.000026  0.000046  0.000079  0.000001
 14   -872.09220716  -0.0000000278  0.000012  0.000035  0.000103  0.000001
 15   -872.09220716   0.0000000012  0.000017  0.000024  0.000110  0.000001
 16   -872.09220717  -0.0000000030  0.000003  0.000010  0.000112  0.000001
 17   -872.09220717  -0.0000000081  0.000005  0.000006  0.000067  0.000000
                  ***Gradient check signals convergence***
              ***Rediagonalizing the Fockian in SOSCF/NRSCF***

               *****************************************************
               *                     SUCCESS                       *
               *           SCF CONVERGED AFTER  18 CYCLES          *
               *****************************************************

Old exchange energy                            =    -21.585047598 Eh
New exchange energy                            =    -21.585028393 Eh
Exchange energy change after final integration =      0.000019205 Eh
Total energy after final integration           =   -872.092187964 Eh
Final COS-X integration done in                =     2.038 sec

----------------
TOTAL SCF ENERGY
----------------

Total Energy       :         -872.09218796 Eh          -23730.83489 eV

Components:
Nuclear Repulsion  :         1089.15956031 Eh           29637.53838 eV
Electronic Energy  :        -1961.25174828 Eh          -53368.37327 eV
One Electron Energy:        -3366.80663792 Eh          -91615.46626 eV
Two Electron Energy:         1405.55488964 Eh           38247.09299 eV
Max COSX asymmetry :            0.00000351 Eh               0.00010 eV
CPCM Dielectric    :           -0.16136279 Eh              -4.39090 eV

Virial components:
Potential Energy   :        -1740.65592347 Eh          -47365.65570 eV
Kinetic Energy     :          868.56373551 Eh           23634.82081 eV
Virial Ratio       :            2.00406240


DFT components:
N(Alpha)           :       61.000071766063 electrons
N(Beta)            :       61.000071766063 electrons
N(Total)           :      122.000143532127 electrons
E(X)               :      -86.043060605312 Eh       
E(C)               :       -4.998098253959 Eh       
E(XC)              :      -91.041158859272 Eh       
DFET-embed. en.    :        0.000000000000 Eh       
CPCM Solvation Model Properties:
Surface-charge          :            0.96996595
Charge-correction       :           -0.00280491 Eh              -0.07633 eV
Free-energy (cav+disp)  :  This term is not implemented in the current solvation scheme

---------------
SCF CONVERGENCE
---------------

  Last Energy change         ...    5.5222e-09  Tolerance :   1.0000e-08
  Last MAX-Density change    ...    2.2204e-15  Tolerance :   1.0000e-07
  Last RMS-Density change    ...    1.6776e-17  Tolerance :   5.0000e-09
  Last Orbital Gradient      ...    5.1952e-07  Tolerance :   1.0000e-05
  Last Orbital Rotation      ...    1.7607e-06  Tolerance :   1.0000e-05

             **** THE GBW FILE WAS UPDATED (/home/rudenko/mop_saddle_orca_4_serv/for_orca/m-o2nc6h4chno2ch3_oh/orca/orca_end/end.gbw) ****
             **** DENSITY /home/rudenko/mop_saddle_orca_4_serv/for_orca/m-o2nc6h4chno2ch3_oh/orca/orca_end/end.scfp WAS UPDATED ****
             **** ENERGY FILE WAS UPDATED (/home/rudenko/mop_saddle_orca_4_serv/for_orca/m-o2nc6h4chno2ch3_oh/orca/orca_end/end.en.tmp) ****
             **** THE GBW FILE WAS UPDATED (/home/rudenko/mop_saddle_orca_4_serv/for_orca/m-o2nc6h4chno2ch3_oh/orca/orca_end/end.gbw) ****
             **** DENSITY /home/rudenko/mop_saddle_orca_4_serv/for_orca/m-o2nc6h4chno2ch3_oh/orca/orca_end/end.scfp WAS UPDATED ****
----------------
ORBITAL ENERGIES
----------------

  NO   OCC          E(Eh)            E(eV) 
   0   2.0000     -19.273373      -524.4551 
   1   2.0000     -19.160847      -521.3932 
   2   2.0000     -19.160799      -521.3919 
   3   2.0000     -19.102679      -519.8103 
   4   2.0000     -19.102414      -519.8031 
   5   2.0000     -18.971103      -516.2299 
   6   2.0000     -14.556067      -396.0907 
   7   2.0000     -14.501692      -394.6111 
   8   2.0000     -10.233176      -278.4589 
   9   2.0000     -10.196759      -277.4679 
  10   2.0000     -10.192228      -277.3446 
  11   2.0000     -10.191790      -277.3327 
  12   2.0000     -10.191500      -277.3248 
  13   2.0000     -10.184992      -277.1477 
  14   2.0000     -10.183975      -277.1201 
  15   2.0000     -10.161565      -276.5102 
  16   2.0000      -1.238565       -33.7031 
  17   2.0000      -1.179198       -32.0876 
  18   2.0000      -1.138101       -30.9693 
  19   2.0000      -1.057524       -28.7767 
  20   2.0000      -0.992362       -27.0035 
  21   2.0000      -0.887819       -24.1588 
  22   2.0000      -0.840420       -22.8690 
  23   2.0000      -0.838078       -22.8053 
  24   2.0000      -0.799327       -21.7508 
  25   2.0000      -0.755546       -20.5595 
  26   2.0000      -0.704712       -19.1762 
  27   2.0000      -0.690498       -18.7894 
  28   2.0000      -0.629061       -17.1176 
  29   2.0000      -0.608864       -16.5680 
  30   2.0000      -0.606815       -16.5123 
  31   2.0000      -0.597165       -16.2497 
  32   2.0000      -0.570473       -15.5234 
  33   2.0000      -0.544767       -14.8239 
  34   2.0000      -0.536627       -14.6024 
  35   2.0000      -0.524173       -14.2635 
  36   2.0000      -0.505706       -13.7610 
  37   2.0000      -0.494397       -13.4532 
  38   2.0000      -0.489686       -13.3250 
  39   2.0000      -0.485533       -13.2120 
  40   2.0000      -0.474062       -12.8999 
  41   2.0000      -0.460821       -12.5396 
  42   2.0000      -0.440905       -11.9976 
  43   2.0000      -0.414894       -11.2898 
  44   2.0000      -0.400263       -10.8917 
  45   2.0000      -0.383331       -10.4310 
  46   2.0000      -0.381367       -10.3775 
  47   2.0000      -0.373239       -10.1563 
  48   2.0000      -0.353570        -9.6211 
  49   2.0000      -0.330037        -8.9808 
  50   2.0000      -0.327938        -8.9236 
  51   2.0000      -0.324578        -8.8322 
  52   2.0000      -0.300970        -8.1898 
  53   2.0000      -0.292927        -7.9710 
  54   2.0000      -0.288580        -7.8527 
  55   2.0000      -0.277783        -7.5589 
  56   2.0000      -0.273170        -7.4333 
  57   2.0000      -0.245636        -6.6841 
  58   2.0000      -0.201131        -5.4731 
  59   2.0000      -0.190014        -5.1706 
  60   2.0000      -0.189506        -5.1567 
  61   0.0000      -0.099556        -2.7091 
  62   0.0000      -0.043923        -1.1952 
  63   0.0000      -0.019503        -0.5307 
  64   0.0000      -0.003892        -0.1059 
  65   0.0000       0.019967         0.5433 
  66   0.0000       0.057172         1.5557 
  67   0.0000       0.063851         1.7375 
  68   0.0000       0.067998         1.8503 
  69   0.0000       0.094393         2.5686 
  70   0.0000       0.097513         2.6535 
  71   0.0000       0.108724         2.9585 
  72   0.0000       0.114133         3.1057 
  73   0.0000       0.116583         3.1724 
  74   0.0000       0.124512         3.3882 
  75   0.0000       0.128651         3.5008 
  76   0.0000       0.142656         3.8819 
  77   0.0000       0.148504         4.0410 
  78   0.0000       0.171024         4.6538 
  79   0.0000       0.173536         4.7221 
  80   0.0000       0.183248         4.9864 
  81   0.0000       0.186334         5.0704 
  82   0.0000       0.198724         5.4076 
  83   0.0000       0.205385         5.5888 
  84   0.0000       0.212943         5.7945 
  85   0.0000       0.227117         6.1802 
  86   0.0000       0.229382         6.2418 
  87   0.0000       0.232160         6.3174 
  88   0.0000       0.245163         6.6712 
  89   0.0000       0.248511         6.7623 
  90   0.0000       0.254411         6.9229 
  91   0.0000       0.265548         7.2259 
  92   0.0000       0.271164         7.3787 
  93   0.0000       0.283322         7.7096 
  94   0.0000       0.297499         8.0953 
  95   0.0000       0.300887         8.1876 
  96   0.0000       0.314033         8.5453 
  97   0.0000       0.316015         8.5992 
  98   0.0000       0.325606         8.8602 
  99   0.0000       0.328826         8.9478 
 100   0.0000       0.334030         9.0894 
 101   0.0000       0.351035         9.5521 
 102   0.0000       0.354554         9.6479 
 103   0.0000       0.359765         9.7897 
 104   0.0000       0.361307         9.8317 
 105   0.0000       0.370138        10.0720 
 106   0.0000       0.378876        10.3097 
 107   0.0000       0.381590        10.3836 
 108   0.0000       0.390738        10.6325 
 109   0.0000       0.391861        10.6631 
 110   0.0000       0.399763        10.8781 
 111   0.0000       0.409236        11.1359 
 112   0.0000       0.415959        11.3188 
 113   0.0000       0.417392        11.3578 
 114   0.0000       0.427812        11.6413 
 115   0.0000       0.430476        11.7139 
 116   0.0000       0.437508        11.9052 
 117   0.0000       0.440825        11.9954 
 118   0.0000       0.452156        12.3038 
 119   0.0000       0.457201        12.4411 
 120   0.0000       0.462857        12.5950 
 121   0.0000       0.467960        12.7338 
 122   0.0000       0.468694        12.7538 
 123   0.0000       0.474565        12.9136 
 124   0.0000       0.478106        13.0099 
 125   0.0000       0.486137        13.2285 
 126   0.0000       0.494328        13.4513 
 127   0.0000       0.502167        13.6647 
 128   0.0000       0.504421        13.7260 
 129   0.0000       0.507407        13.8072 
 130   0.0000       0.513455        13.9718 
 131   0.0000       0.526496        14.3267 
 132   0.0000       0.533623        14.5206 
 133   0.0000       0.536866        14.6089 
 134   0.0000       0.543715        14.7952 
 135   0.0000       0.550702        14.9854 
 136   0.0000       0.556420        15.1410 
 137   0.0000       0.576697        15.6927 
 138   0.0000       0.581010        15.8101 
 139   0.0000       0.586859        15.9692 
 140   0.0000       0.601563        16.3694 
 141   0.0000       0.607586        16.5333 
 142   0.0000       0.617651        16.8071 
 143   0.0000       0.623428        16.9643 
 144   0.0000       0.629346        17.1254 
 145   0.0000       0.639434        17.3999 
 146   0.0000       0.646065        17.5803 
 147   0.0000       0.652694        17.7607 
 148   0.0000       0.655097        17.8261 
 149   0.0000       0.663286        18.0489 
 150   0.0000       0.674749        18.3609 
 151   0.0000       0.682085        18.5605 
 152   0.0000       0.699717        19.0403 
 153   0.0000       0.705118        19.1872 
 154   0.0000       0.705918        19.2090 
 155   0.0000       0.715510        19.4700 
 156   0.0000       0.735700        20.0194 
 157   0.0000       0.739400        20.1201 
 158   0.0000       0.745644        20.2900 
 159   0.0000       0.756013        20.5722 
 160   0.0000       0.767956        20.8972 
 161   0.0000       0.778531        21.1849 
 162   0.0000       0.791815        21.5464 
 163   0.0000       0.799869        21.7656 
 164   0.0000       0.805348        21.9146 
 165   0.0000       0.820765        22.3341 
 166   0.0000       0.840894        22.8819 
 167   0.0000       0.855739        23.2858 
 168   0.0000       0.870904        23.6985 
 169   0.0000       0.885105        24.0849 
 170   0.0000       0.890230        24.2244 
 171   0.0000       0.913643        24.8615 
 172   0.0000       0.931097        25.3364 
 173   0.0000       0.937547        25.5119 
 174   0.0000       0.947371        25.7793 
 175   0.0000       0.969571        26.3834 
 176   0.0000       0.985214        26.8090 
 177   0.0000       0.996669        27.1208 
 178   0.0000       1.028029        27.9741 
 179   0.0000       1.032263        28.0893 
 180   0.0000       1.041328        28.3360 
 181   0.0000       1.046476        28.4761 
 182   0.0000       1.054045        28.6820 
 183   0.0000       1.070485        29.1294 
 184   0.0000       1.083270        29.4773 
 185   0.0000       1.094175        29.7740 
 186   0.0000       1.111033        30.2327 
 187   0.0000       1.120488        30.4900 
 188   0.0000       1.139362        31.0036 
 189   0.0000       1.146549        31.1992 
 190   0.0000       1.157575        31.4992 
 191   0.0000       1.174776        31.9673 
 192   0.0000       1.200114        32.6568 
 193   0.0000       1.206929        32.8422 
 194   0.0000       1.239474        33.7278 
 195   0.0000       1.242048        33.7978 
 196   0.0000       1.249968        34.0134 
 197   0.0000       1.265910        34.4472 
 198   0.0000       1.277836        34.7717 
 199   0.0000       1.285031        34.9675 
 200   0.0000       1.288671        35.0665 
 201   0.0000       1.309032        35.6206 
 202   0.0000       1.322905        35.9981 
 203   0.0000       1.333971        36.2992 
 204   0.0000       1.347524        36.6680 
 205   0.0000       1.365597        37.1598 
 206   0.0000       1.373399        37.3721 
 207   0.0000       1.382931        37.6315 
 208   0.0000       1.396512        38.0010 
 209   0.0000       1.398053        38.0430 
 210   0.0000       1.416637        38.5487 
 211   0.0000       1.422515        38.7086 
 212   0.0000       1.428155        38.8621 
 213   0.0000       1.445732        39.3404 
 214   0.0000       1.461391        39.7665 
 215   0.0000       1.467174        39.9238 
 216   0.0000       1.483317        40.3631 
 217   0.0000       1.511831        41.1390 
 218   0.0000       1.520990        41.3882 
 219   0.0000       1.531468        41.6734 
 220   0.0000       1.533214        41.7209 
 221   0.0000       1.547292        42.1040 
 222   0.0000       1.551921        42.2299 
 223   0.0000       1.565592        42.6019 
 224   0.0000       1.580913        43.0188 
 225   0.0000       1.585132        43.1336 
 226   0.0000       1.590568        43.2816 
 227   0.0000       1.593707        43.3670 
 228   0.0000       1.600454        43.5506 
 229   0.0000       1.613059        43.8936 
 230   0.0000       1.619379        44.0655 
 231   0.0000       1.623429        44.1757 
 232   0.0000       1.627035        44.2739 
 233   0.0000       1.631765        44.4026 
 234   0.0000       1.641269        44.6612 
 235   0.0000       1.663356        45.2622 
 236   0.0000       1.672610        45.5140 
 237   0.0000       1.683492        45.8101 
 238   0.0000       1.691225        46.0206 
 239   0.0000       1.703789        46.3625 
 240   0.0000       1.709777        46.5254 
 241   0.0000       1.721246        46.8375 
 242   0.0000       1.730139        47.0795 
 243   0.0000       1.735284        47.2195 
 244   0.0000       1.750078        47.6220 
 245   0.0000       1.761282        47.9269 
 246   0.0000       1.767651        48.1002 
 247   0.0000       1.780175        48.4410 
 248   0.0000       1.801541        49.0224 
 249   0.0000       1.808039        49.1992 
 250   0.0000       1.836046        49.9613 
 251   0.0000       1.845714        50.2244 
 252   0.0000       1.865182        50.7542 
 253   0.0000       1.868475        50.8438 
 254   0.0000       1.889235        51.4087 
 255   0.0000       1.918634        52.2087 
 256   0.0000       1.938891        52.7599 
 257   0.0000       1.949325        53.0438 
 258   0.0000       1.960580        53.3501 
 259   0.0000       1.964585        53.4591 
 260   0.0000       1.967537        53.5394 
 261   0.0000       1.982777        53.9541 
 262   0.0000       2.019781        54.9610 
 263   0.0000       2.032145        55.2975 
 264   0.0000       2.049424        55.7677 
 265   0.0000       2.055899        55.9439 
 266   0.0000       2.061467        56.0954 
 267   0.0000       2.071690        56.3736 
 268   0.0000       2.089207        56.8502 
 269   0.0000       2.102919        57.2233 
 270   0.0000       2.104457        57.2652 
 271   0.0000       2.121916        57.7403 
 272   0.0000       2.134417        58.0805 
 273   0.0000       2.142268        58.2941 
 274   0.0000       2.154031        58.6142 
 275   0.0000       2.164333        58.8945 
 276   0.0000       2.169019        59.0220 
 277   0.0000       2.192703        59.6665 
 278   0.0000       2.201092        59.8948 
 279   0.0000       2.208087        60.0851 
 280   0.0000       2.213712        60.2382 
 281   0.0000       2.221460        60.4490 
 282   0.0000       2.236642        60.8621 
 283   0.0000       2.255169        61.3663 
 284   0.0000       2.260668        61.5159 
 285   0.0000       2.265964        61.6600 
 286   0.0000       2.272874        61.8480 
 287   0.0000       2.288589        62.2757 
 288   0.0000       2.304115        62.6982 
 289   0.0000       2.308960        62.8300 
 290   0.0000       2.330335        63.4116 
 291   0.0000       2.344792        63.8050 
 292   0.0000       2.355248        64.0896 
 293   0.0000       2.365064        64.3567 
 294   0.0000       2.380447        64.7753 
 295   0.0000       2.405567        65.4588 
 296   0.0000       2.408819        65.5473 
 297   0.0000       2.420848        65.8746 
 298   0.0000       2.432160        66.1824 
 299   0.0000       2.460070        66.9419 
 300   0.0000       2.477581        67.4184 
 301   0.0000       2.484404        67.6041 
 302   0.0000       2.507168        68.2235 
 303   0.0000       2.514674        68.4278 
 304   0.0000       2.528008        68.7906 
 305   0.0000       2.540063        69.1186 
 306   0.0000       2.551254        69.4231 
 307   0.0000       2.562860        69.7390 
 308   0.0000       2.578742        70.1711 
 309   0.0000       2.596548        70.6557 
 310   0.0000       2.597430        70.6797 
 311   0.0000       2.612704        71.0953 
 312   0.0000       2.617959        71.2383 
 313   0.0000       2.630588        71.5819 
 314   0.0000       2.644033        71.9478 
 315   0.0000       2.662572        72.4523 
 316   0.0000       2.663068        72.4658 
 317   0.0000       2.671575        72.6972 
 318   0.0000       2.684636        73.0527 
 319   0.0000       2.695020        73.3352 
 320   0.0000       2.705939        73.6323 
 321   0.0000       2.713565        73.8399 
 322   0.0000       2.725749        74.1714 
 323   0.0000       2.730740        74.3072 
 324   0.0000       2.732783        74.3628 
 325   0.0000       2.751772        74.8795 
 326   0.0000       2.762180        75.1627 
 327   0.0000       2.777135        75.5697 
 328   0.0000       2.790141        75.9236 
 329   0.0000       2.792176        75.9790 
 330   0.0000       2.795531        76.0703 
 331   0.0000       2.807471        76.3952 
 332   0.0000       2.810399        76.4748 
 333   0.0000       2.818185        76.6867 
 334   0.0000       2.839410        77.2643 
 335   0.0000       2.848788        77.5195 
 336   0.0000       2.858204        77.7757 
 337   0.0000       2.876778        78.2811 
 338   0.0000       2.882507        78.4370 
 339   0.0000       2.904802        79.0437 
 340   0.0000       2.930588        79.7454 
 341   0.0000       2.951340        80.3100 
 342   0.0000       2.960053        80.5471 
 343   0.0000       2.969158        80.7949 
 344   0.0000       2.972027        80.8730 
 345   0.0000       2.982969        81.1707 
 346   0.0000       2.986640        81.2706 
 347   0.0000       3.001705        81.6806 
 348   0.0000       3.015283        82.0500 
 349   0.0000       3.035433        82.5983 
 350   0.0000       3.057397        83.1960 
 351   0.0000       3.065597        83.4191 
 352   0.0000       3.077785        83.7508 
 353   0.0000       3.089381        84.0663 
 354   0.0000       3.098854        84.3241 
 355   0.0000       3.114741        84.7564 
 356   0.0000       3.118723        84.8648 
 357   0.0000       3.132147        85.2300 
 358   0.0000       3.141125        85.4744 
 359   0.0000       3.161836        86.0379 
 360   0.0000       3.185750        86.6887 
 361   0.0000       3.188025        86.7506 
 362   0.0000       3.193755        86.9065 
 363   0.0000       3.203857        87.1814 
 364   0.0000       3.205568        87.2279 
 365   0.0000       3.219289        87.6013 
 366   0.0000       3.224657        87.7474 
 367   0.0000       3.236117        88.0592 
 368   0.0000       3.254552        88.5609 
 369   0.0000       3.270987        89.0081 
 370   0.0000       3.276632        89.1617 
 371   0.0000       3.289460        89.5108 
 372   0.0000       3.291269        89.5600 
 373   0.0000       3.309770        90.0634 
 374   0.0000       3.324054        90.4521 
 375   0.0000       3.334419        90.7342 
 376   0.0000       3.348902        91.1282 
 377   0.0000       3.364798        91.5608 
 378   0.0000       3.376532        91.8801 
 379   0.0000       3.400968        92.5450 
 380   0.0000       3.409692        92.7824 
 381   0.0000       3.420929        93.0882 
 382   0.0000       3.423461        93.1571 
 383   0.0000       3.444700        93.7351 
 384   0.0000       3.458739        94.1171 
 385   0.0000       3.473181        94.5101 
 386   0.0000       3.480790        94.7171 
 387   0.0000       3.515043        95.6492 
 388   0.0000       3.521944        95.8370 
 389   0.0000       3.539958        96.3272 
 390   0.0000       3.571347        97.1813 
 391   0.0000       3.575254        97.2876 
 392   0.0000       3.605462        98.1096 
 393   0.0000       3.616446        98.4085 
 394   0.0000       3.639835        99.0449 
 395   0.0000       3.658418        99.5506 
 396   0.0000       3.713103       101.0387 
 397   0.0000       3.723866       101.3315 
 398   0.0000       3.734707       101.6265 
 399   0.0000       3.747415       101.9724 
 400   0.0000       3.754862       102.1750 
 401   0.0000       3.764945       102.4494 
 402   0.0000       3.789181       103.1089 
 403   0.0000       3.792535       103.2001 
 404   0.0000       3.820947       103.9733 
 405   0.0000       3.861198       105.0685 
 406   0.0000       3.862976       105.1169 
 407   0.0000       3.892206       105.9123 
 408   0.0000       3.908170       106.3467 
 409   0.0000       3.945554       107.3640 
 410   0.0000       3.949391       107.4684 
 411   0.0000       3.970867       108.0528 
 412   0.0000       3.985612       108.4540 
 413   0.0000       3.996634       108.7539 
 414   0.0000       4.010999       109.1448 
 415   0.0000       4.016337       109.2901 
 416   0.0000       4.047008       110.1247 
 417   0.0000       4.053496       110.3012 
 418   0.0000       4.065159       110.6186 
 419   0.0000       4.086009       111.1860 
 420   0.0000       4.107157       111.7614 
 421   0.0000       4.134870       112.5155 
 422   0.0000       4.172358       113.5356 
 423   0.0000       4.177313       113.6705 
 424   0.0000       4.198135       114.2371 
 425   0.0000       4.218221       114.7836 
 426   0.0000       4.225728       114.9879 
 427   0.0000       4.252292       115.7108 
 428   0.0000       4.255848       115.8075 
 429   0.0000       4.267514       116.1250 
 430   0.0000       4.286314       116.6365 
 431   0.0000       4.297862       116.9508 
 432   0.0000       4.328992       117.7979 
 433   0.0000       4.361840       118.6917 
 434   0.0000       4.386650       119.3668 
 435   0.0000       4.477259       121.8324 
 436   0.0000       4.522715       123.0693 
 437   0.0000       4.530751       123.2880 
 438   0.0000       4.556534       123.9896 
 439   0.0000       4.570118       124.3592 
 440   0.0000       4.595775       125.0574 
 441   0.0000       4.621653       125.7616 
 442   0.0000       4.667104       126.9984 
 443   0.0000       4.672965       127.1579 
 444   0.0000       4.684245       127.4648 
 445   0.0000       4.709086       128.1407 
 446   0.0000       4.738516       128.9416 
 447   0.0000       4.751443       129.2933 
 448   0.0000       4.763460       129.6203 
 449   0.0000       4.796337       130.5150 
 450   0.0000       4.817161       131.0816 
 451   0.0000       4.832254       131.4923 
 452   0.0000       4.855502       132.1249 
 453   0.0000       4.894614       133.1892 
 454   0.0000       4.907340       133.5355 
 455   0.0000       4.927645       134.0880 
 456   0.0000       4.950574       134.7120 
 457   0.0000       4.968696       135.2051 
 458   0.0000       5.026559       136.7796 
 459   0.0000       5.036802       137.0584 
 460   0.0000       5.043025       137.2277 
 461   0.0000       5.063166       137.7758 
 462   0.0000       5.108526       139.0101 
 463   0.0000       5.112128       139.1081 
 464   0.0000       5.122320       139.3854 
 465   0.0000       5.135651       139.7482 
 466   0.0000       5.139407       139.8504 
 467   0.0000       5.178572       140.9161 
 468   0.0000       5.188201       141.1781 
 469   0.0000       5.197181       141.4225 
 470   0.0000       5.198489       141.4581 
 471   0.0000       5.211195       141.8038 
 472   0.0000       5.240145       142.5916 
 473   0.0000       5.240858       142.6110 
 474   0.0000       5.240942       142.6133 
 475   0.0000       5.243240       142.6758 
 476   0.0000       5.254567       142.9840 
 477   0.0000       5.275167       143.5446 
 478   0.0000       5.276703       143.5864 
 479   0.0000       5.276738       143.5873 
 480   0.0000       5.281375       143.7135 
[...]
  11   N   :    0.000284791    0.000344860   -0.000080565
  12   O   :    0.000465834    0.000470521    0.000341273
  13   O   :    0.000029994    0.000023008   -0.000827230
  14   C   :   -0.001560230    0.002898670   -0.001057810
  15   H   :    0.001029598   -0.000797986    0.000439651
  16   C   :    0.000289712   -0.000668820    0.000292162
  17   H   :   -0.000011589    0.000343383   -0.000096976
  18   H   :    0.000042869    0.000111356   -0.000181743
  19   H   :   -0.000349525    0.000302306   -0.000155926
  20   N   :    0.000150419   -0.001692339    0.001581059
  21   O   :    0.000510763   -0.000082175   -0.000702986
  22   O   :   -0.000206003    0.000271233    0.000445737
  23   O   :    0.000353249    0.001837495   -0.001758252
  24   H   :    0.000645396   -0.000345752    0.000104045
  25   H   :    0.001239445    0.000459331    0.001313827
  26   H   :    0.000196444   -0.001317430    0.001779861
  27   O   :   -0.002402005   -0.000719852   -0.001598778

Difference to translation invariance:
           :   -0.0000357700    0.0000220913   -0.0002032901

Difference to rotation invariance:
           :   -0.0001936763    0.0005837816   -0.0005836156

Norm of the cartesian gradient     ...    0.0076971239
RMS gradient                       ...    0.0008552360
MAX gradient                       ...    0.0028986704

-------
TIMINGS
-------

Total SCF gradient time            ...        7.660 sec

One electron gradient       ....       0.112 sec  (  1.5%)
RI-J Coulomb gradient       ....       0.594 sec  (  7.8%)
COSX gradient               ....       2.558 sec  ( 33.4%)
XC gradient                 ....       0.638 sec  (  8.3%)
CPCM gradient               ....       0.365 sec  (  4.8%)
   A-Matrix (El+Nuc)        ....       0.197 sec  (  2.6%)
   Potential                ....       0.168 sec  (  2.2%)

Maximum memory used throughout the entire SCFGRAD-calculation: 80.8 MB
------------------------------------------------------------------------------
                         ORCA GEOMETRY RELAXATION STEP
------------------------------------------------------------------------------

Reading the OPT-File                    .... done
Getting information on internals        .... done
Copying old internal coords+grads       .... done
Making the new internal coordinates     .... (new redundants).... done
Validating the new internal coordinates .... (new redundants).... done
Calculating the B-matrix                .... done
Calculating the G,G- and P matrices     .... done
Transforming gradient to internals      .... done
Projecting the internal gradient        .... done
Number of atoms                         ....  27
Number of internal coordinates          .... 148
Current Energy                          ....  -872.242313506 Eh
Current gradient norm                   ....     0.007697124 Eh/bohr
Maximum allowed component of the step   ....  0.300
Current trust radius                    ....  0.300
Updating the Hessian (BFGS)             .... done
Forming the augmented Hessian           .... done
Diagonalizing the augmented Hessian     .... done
Last element of RFO vector              ....  0.995851410
Lowest eigenvalues of augmented Hessian:
 -0.000108166  0.000209911  0.001072062  0.002136397  0.003090804
Length of the computed step             ....  0.091373408
The final length of the internal step   ....  0.091373408
Converting the step to cartesian space:
 Initial RMS(Int)=    0.0075108478
Transforming coordinates:
 Iter   0:  RMS(Cart)=    0.0145615716 RMS(Int)=    0.5163625370
 Iter   1:  RMS(Cart)=    0.0001397091 RMS(Int)=    0.0000860102
 Iter   2:  RMS(Cart)=    0.0000472258 RMS(Int)=    0.0000279408
 Iter   3:  RMS(Cart)=    0.0000237667 RMS(Int)=    0.0000139483
 Iter   4:  RMS(Cart)=    0.0000118791 RMS(Int)=    0.0000069662
 Iter   5:  RMS(Cart)=    0.0000059329 RMS(Int)=    0.0000034791
 Iter   6:  RMS(Cart)=    0.0000029631 RMS(Int)=    0.0000017376
 Iter   7:  RMS(Cart)=    0.0000014799 RMS(Int)=    0.0000008678
 Iter   8:  RMS(Cart)=    0.0000007391 RMS(Int)=    0.0000004334
 Iter   9:  RMS(Cart)=    0.0000003691 RMS(Int)=    0.0000002165
 Iter  10:  RMS(Cart)=    0.0000001844 RMS(Int)=    0.0000001081
 Iter  11:  RMS(Cart)=    0.0000000921 RMS(Int)=    0.0000000540
done
Storing new coordinates                 .... done

                                .--------------------.
          ----------------------|Geometry convergence|-------------------------
          Item                value                   Tolerance       Converged
          ---------------------------------------------------------------------
          Energy change      -0.0000749955            0.0000050000      NO
          RMS gradient        0.0004281522            0.0001000000      NO
          MAX gradient        0.0023332530            0.0003000000      NO
          RMS step            0.0075108478            0.0020000000      NO
          MAX step            0.0323682511            0.0040000000      NO
          ........................................................
          Max(Bonds)      0.0125      Max(Angles)    0.59
          Max(Dihed)        1.85      Max(Improp)    0.00
          ---------------------------------------------------------------------

The optimization has not yet converged - more geometry cycles are needed


    ---------------------------------------------------------------------------
                         Redundant Internal Coordinates
                            (Angstroem and degrees)

        Definition                    Value    dE/dq     Step     New-Value
    ----------------------------------------------------------------------------
     1. B(C   1,C   0)                1.3919  0.000085 -0.0003    1.3916   
     2. B(C   2,C   1)                1.3927 -0.001377  0.0012    1.3940   
     3. B(C   3,C   2)                1.3923  0.001173  0.0002    1.3925   
     4. B(C   4,C   3)                1.3867 -0.000239 -0.0002    1.3866   
     5. B(C   5,C   4)                1.3909  0.000359 -0.0012    1.3898   
     6. B(C   5,C   0)                1.3863  0.000572 -0.0005    1.3857   
     7. B(H   6,C   0)                1.0818  0.000098 -0.0007    1.0811   
     8. B(H   7,C   1)                1.0815 -0.000351  0.0009    1.0825   
     9. B(H   8,C   3)                1.0798  0.000466  0.0002    1.0800   
    10. B(H   9,C   5)                1.0791 -0.000037  0.0000    1.0791   
    11. B(N  10,C   4)                1.4640 -0.001228  0.0023    1.4663   
    12. B(O  11,N  10)                1.2251  0.000282 -0.0006    1.2245   
    13. B(O  12,N  10)                1.2253  0.000482 -0.0004    1.2248   
    14. B(C  13,C   2)                1.5045 -0.000536  0.0005    1.5050   
    15. B(H  14,C  13)                1.1189  0.000123 -0.0004    1.1185   
    16. B(C  15,C  13)                1.5233 -0.000051  0.0007    1.5240   
    17. B(H  16,C  15)                1.0873  0.000058 -0.0002    1.0871   
    18. B(H  17,C  15)                1.0906 -0.000085  0.0004    1.0910   
    19. B(H  18,C  15)                1.0892 -0.000444  0.0005    1.0896   
    20. B(N  19,C  13)                1.5132 -0.001905  0.0015    1.5147   
    21. B(O  20,N  19)                1.2236  0.000755 -0.0008    1.2228   
    22. B(O  21,N  19)                1.2232  0.000478 -0.0003    1.2229   
    23. B(H  23,O  22)                0.9640  0.000737 -0.0005    0.9634   
    24. B(H  24,H  14)                2.2438  0.000061  0.0125    2.2563   
    25. B(H  24,H   7)                2.4231  0.000247  0.0119    2.4351   
    26. B(H  25,O  22)                1.0407  0.002333 -0.0022    1.0385   
    27. B(O  26,H  25)                1.5264  0.000829 -0.0039    1.5226   
    28. B(O  26,H  14)                1.8476 -0.000455  0.0075    1.8552   
    29. B(O  26,H  24)                0.9660  0.001241 -0.0012    0.9648   
    30. A(C   5,C   0,H   6)          119.77  0.000054   -0.03    119.74   
    31. A(C   1,C   0,C   5)          120.22  0.000190    0.10    120.32   
    32. A(C   1,C   0,H   6)          120.00 -0.000244   -0.07    119.93   
    33. A(C   0,C   1,C   2)          121.05 -0.000148   -0.04    121.01   
    34. A(C   0,C   1,H   7)          120.18 -0.000201   -0.05    120.13   
    35. A(C   2,C   1,H   7)          118.77  0.000347    0.09    118.86   
    36. A(C   1,C   2,C   3)          119.14  0.000384   -0.09    119.05   
    37. A(C   3,C   2,C  13)          121.56 -0.000151   -0.08    121.47   
    38. A(C   1,C   2,C  13)          119.30 -0.000232    0.16    119.46   
    39. A(C   2,C   3,C   4)          119.03 -0.000105    0.03    119.05   
    40. A(C   2,C   3,H   8)          121.32  0.000076    0.05    121.37   
    41. A(C   4,C   3,H   8)          119.65  0.000028   -0.07    119.58   
    42. A(C   3,C   4,N  10)          118.73  0.000162   -0.06    118.66   
    43. A(C   3,C   4,C   5)          122.41 -0.000238    0.07    122.48   
    44. A(C   5,C   4,N  10)          118.86  0.000075   -0.00    118.86   
    45. A(C   4,C   5,H   9)          120.39  0.000143   -0.06    120.33   
    46. A(C   0,C   5,H   9)          121.46 -0.000059    0.13    121.59   
    47. A(C   0,C   5,C   4)          118.15 -0.000084   -0.06    118.09   
    48. A(C   1,H   7,H  24)          135.74  0.000033    0.36    136.10   
    49. A(O  11,N  10,O  12)          123.55  0.001023   -0.07    123.48   
    50. A(C   4,N  10,O  12)          118.30 -0.000451    0.08    118.37   
    51. A(C   4,N  10,O  11)          118.15 -0.000572   -0.01    118.14   
    52. A(C   2,C  13,N  19)          110.53 -0.000175    0.07    110.60   
    53. A(H  14,C  13,C  15)          108.26 -0.000474    0.20    108.46   
    54. A(C   2,C  13,C  15)          115.17  0.000265   -0.15    115.02   
    55. A(C   2,C  13,H  14)          109.28  0.000021    0.03    109.31   
    56. A(C  15,C  13,N  19)          110.09 -0.000206   -0.02    110.07   
    57. A(H  14,C  13,N  19)          102.76  0.000601   -0.14    102.62   
    58. A(H  24,H  14,O  26)           24.99  0.000326   -0.25     24.73   
    59. A(C  13,H  14,H  24)          153.56  0.000109    0.19    153.76   
    60. A(H  17,C  15,H  18)          108.60  0.000091   -0.02    108.58   
    61. A(H  16,C  15,H  18)          108.58  0.000297   -0.01    108.57   
    62. A(C  13,C  15,H  18)          108.01 -0.000083   -0.04    107.97   
    63. A(H  16,C  15,H  17)          108.94  0.000131    0.06    109.00   
    64. A(C  13,C  15,H  17)          112.27  0.000075   -0.06    112.21   
    65. A(C  13,C  15,H  16)          110.36 -0.000494    0.06    110.42   
    66. A(O  20,N  19,O  21)          123.39  0.000435   -0.02    123.36   
    67. A(C  13,N  19,O  21)          119.12 -0.000267   -0.09    119.02   
    68. A(C  13,N  19,O  20)          117.39 -0.000183    0.13    117.52   
    69. A(H  23,O  22,H  25)          105.29 -0.000112    0.08    105.37   
    70. A(H   7,H  24,H  14)           58.41 -0.000447   -0.06     58.34   
    71. A(H  14,H  24,O  26)           53.90 -0.000151   -0.24     53.66   
    72. A(H   7,H  24,O  26)          100.49 -0.000491   -0.41    100.08   
    73. L(O  22,H  25,O  26,H  23, 2) 183.68  0.000313   -0.22    183.46   
    74. L(O  22,H  25,O  26,H  23, 1) 181.97  0.000631   -0.52    181.45   
    75. A(H  14,O  26,H  25)          150.63  0.000637   -0.59    150.04   
    76. A(H  24,O  26,H  25)          104.80 -0.000431   -0.23    104.57   
    77. A(H  14,O  26,H  24)          101.11 -0.000175    0.50    101.61   
    78. D(H   7,C   1,C   0,H   6)      0.38  0.000167    0.06      0.43   
    79. D(C   2,C   1,C   0,H   6)    179.91 -0.000009    0.11    180.01   
    80. D(H   7,C   1,C   0,C   5)   -179.92  0.000082    0.22   -179.70   
    81. D(C   2,C   1,C   0,C   5)     -0.39 -0.000095    0.27     -0.12   
    82. D(C   3,C   2,C   1,H   7)    179.77 -0.000168   -0.20    179.57   
    83. D(C  13,C   2,C   1,C   0)   -179.33 -0.000129    0.16   -179.17   
    84. D(C  13,C   2,C   1,H   7)      0.20 -0.000306    0.22      0.42   
    85. D(C   3,C   2,C   1,C   0)      0.24  0.000009   -0.25     -0.02   
    86. D(C   4,C   3,C   2,C  13)    179.69  0.000242   -0.34    179.35   
    87. D(H   8,C   3,C   2,C   1)    179.89  0.000001    0.09    179.99   
    88. D(H   8,C   3,C   2,C  13)     -0.55  0.000142   -0.33     -0.87   
    89. D(C   4,C   3,C   2,C   1)      0.14  0.000101    0.07      0.21   
    90. D(C   5,C   4,C   3,H   8)    179.87 -0.000031    0.07    179.94   
    91. D(C   5,C   4,C   3,C   2)     -0.37 -0.000130    0.09     -0.28   
    92. D(N  10,C   4,C   3,C   2)    179.34 -0.000262    0.02    179.36   
    93. D(N  10,C   4,C   3,H   8)     -0.43 -0.000164    0.01     -0.42   
    94. D(H   9,C   5,C   4,N  10)      0.43  0.000134    0.00      0.43   
    95. D(C   0,C   5,C   4,N  10)   -179.49  0.000178   -0.01   -179.50   
    96. D(C   0,C   5,C   4,C   3)      0.21  0.000046   -0.07      0.14   
    97. D(H   9,C   5,C   0,H   6)     -0.05  0.000026    0.04     -0.01   
    98. D(H   9,C   5,C   4,C   3)   -179.87  0.000001   -0.06   -179.93   
    99. D(H   9,C   5,C   0,C   1)   -179.75  0.000112   -0.12   -179.87   
   100. D(C   4,C   5,C   0,H   6)    179.87 -0.000019    0.05    179.92   
   101. D(C   4,C   5,C   0,C   1)      0.16  0.000067   -0.11      0.06   
   102. D(H  24,H   7,C   1,C   2)    -48.94 -0.000138    0.79    -48.14   
   103. D(H  24,H   7,C   1,C   0)    130.60 -0.000313    0.85    131.45   
   104. D(O  12,N  10,C   4,C   5)    176.00 -0.000263    0.29    176.29   
   105. D(O  12,N  10,C   4,C   3)     -3.72 -0.000135    0.36     -3.36   
   106. D(O  11,N  10,C   4,C   5)     -3.93 -0.000079    0.27     -3.66   
   107. D(O  11,N  10,C   4,C   3)    176.36  0.000050    0.33    176.69   
   108. D(H  14,C  13,C   2,C   1)     12.92  0.000423   -0.81     12.12   
   109. D(N  19,C  13,C   2,C   3)     80.99 -0.000356   -0.27     80.72   
   110. D(N  19,C  13,C   2,C   1)    -99.46 -0.000213   -0.69   -100.15   
   111. D(C  15,C  13,C   2,C   3)    -44.55 -0.000139   -0.18    -44.73   
   112. D(C  15,C  13,C   2,C   1)    135.01  0.000005   -0.61    134.40   
   113. D(H  14,C  13,C   2,C   3)   -166.63  0.000280   -0.38   -167.01   
   114. D(H  24,H  14,C  13,N  19)    151.28 -0.000010    1.00    152.28   
   115. D(H  24,H  14,C  13,C  15)    -92.26 -0.000152    0.99    -91.28   
   116. D(H  24,H  14,C  13,C   2)     33.88 -0.000126    0.98     34.87   
   117. D(H  18,C  15,C  13,N  19)    179.98  0.000215   -0.34    179.64   
   118. D(H  18,C  15,C  13,C   2)    -54.26  0.000013   -0.37    -54.63   
   119. D(H  17,C  15,C  13,N  19)    -60.32  0.000318   -0.42    -60.74   
   120. D(H  17,C  15,C  13,H  14)   -171.92 -0.000037   -0.35   -172.27   
   121. D(H  17,C  15,C  13,C   2)     65.45  0.000117   -0.46     64.99   
   122. D(H  16,C  15,C  13,N  19)     61.42  0.000187   -0.34     61.08   
   123. D(H  18,C  15,C  13,H  14)     68.37 -0.000141   -0.27     68.11   
   124. D(H  16,C  15,C  13,H  14)    -50.19 -0.000168   -0.27    -50.45   
   125. D(H  16,C  15,C  13,C   2)   -172.82 -0.000014   -0.37   -173.19   
   126. D(O  21,N  19,C  13,C  15)    142.19  0.000128   -0.08    142.11   
   127. D(O  21,N  19,C  13,H  14)   -102.67 -0.000196    0.08   -102.59   
   128. D(O  21,N  19,C  13,C   2)     13.84  0.000071    0.07     13.91   
   129. D(O  20,N  19,C  13,C  15)    -41.38 -0.000110    0.16    -41.22   
   130. D(O  20,N  19,C  13,H  14)     73.77 -0.000433    0.32     74.08   
   131. D(O  20,N  19,C  13,C   2)   -169.73 -0.000166    0.31   -169.42   
   132. D(H   7,H  24,H  14,O  26)    135.49 -0.000010   -0.34    135.14   
   133. D(H   7,H  24,H  14,C  13)    -52.19 -0.000050   -0.25    -52.44   
   134. D(O  26,H  24,H  14,C  13)    172.32 -0.000039    0.09    172.42   
   135. D(H  14,H  24,H   7,C   1)     54.13  0.000149   -0.92     53.21   
   136. D(O  26,H  24,H   7,C   1)     89.31  0.000015   -0.91     88.40   
   137. D(H  25,O  26,C  13,C   2)   -127.09 -0.000116   -1.01   -128.10   
   138. D(H  24,O  26,C  13,N  19)    144.92  0.000010    0.98    145.90   
   139. D(H  24,O  26,C  13,C  15)    -98.60 -0.000273    1.05    -97.55   
   140. D(H  24,O  26,C  13,C   2)     26.42 -0.000120    0.99     27.41   
   141. D(H  25,O  26,H  24,H   7)    128.63  0.000497   -0.78    127.86   
   142. D(H  14,O  26,H  24,H   7)    -37.40  0.000272   -0.13    -37.52   
   143. D(H  14,O  26,O  22,H  23)   -143.37 -0.000324    1.85   -141.52   
   144. D(H  24,O  26,O  22,H  23)     65.29  0.000102   -0.19     65.10   
   145. D(H  25,O  26,H  14,H  24)   -151.59  0.000183   -0.59   -152.18   
   146. D(H  25,O  26,C  13,N  19)     -8.59  0.000014   -1.01     -9.60   
   147. D(H  25,O  26,H  24,H  14)    166.03  0.000226   -0.65    165.38   
   148. D(H  25,O  26,C  13,C  15)    107.89 -0.000269   -0.95    106.94   
    ----------------------------------------------------------------------------




    ----------------------------------------------------------------------------
                                  WARNING !!!
       The optimization did not converge but reached the maximum number of
       optimization cycles.
       Please check your results very carefully.
    ----------------------------------------------------------------------------



                            ***************************************
                            *     ORCA property calculations      *
                            ***************************************

                                    ---------------------
                                    Active property flags
                                    ---------------------
   (+) Dipole Moment


------------------------------------------------------------------------------
                       ORCA ELECTRIC PROPERTIES CALCULATION
------------------------------------------------------------------------------

Dipole Moment Calculation                       ... on
Quadrupole Moment Calculation                   ... off
Polarizability Calculation                      ... off
GBWName                                         ... /home/rudenko/mop_saddle_orca_4_serv/for_orca/m-o2nc6h4chno2ch3_oh/orca/orca_end/end.gbw
Electron density                                ... /home/rudenko/mop_saddle_orca_4_serv/for_orca/m-o2nc6h4chno2ch3_oh/orca/orca_end/end.scfp
The origin for moment calculation is the CENTER OF MASS  = ( 0.719516, -0.608236 -2.453343)

-------------
DIPOLE MOMENT
-------------
                                X             Y             Z
Electronic contribution:    -19.79080      -2.71892       9.24193
Nuclear contribution   :     16.78729       0.33289      -5.07162
                        -----------------------------------------
Total Dipole Moment    :     -3.00352      -2.38602       4.17032
                        -----------------------------------------
Magnitude (a.u.)       :      5.66620
Magnitude (Debye)      :     14.40232



--------------------
Rotational spectrum 
--------------------
 
Rotational constants in cm-1:     0.027990     0.007909     0.006860 
Rotational constants in MHz :   839.126179   237.098475   205.647790 

 Dipole components along the rotational axes: 
x,y,z [a.u.] :     5.552126     0.499577     1.014934 
x,y,z [Debye]:    14.112383     1.269823     2.579758 

 

Timings for individual modules:

Sum of individual times         ...     5079.004 sec (=  84.650 min)
GTO integral calculation        ...      405.463 sec (=   6.758 min)   8.0 %
SCF iterations                  ...     3723.139 sec (=  62.052 min)  73.3 %
SCF Gradient evaluation         ...      945.152 sec (=  15.753 min)  18.6 %
Geometry relaxation             ...        5.249 sec (=   0.087 min)   0.1 %
                             ****ORCA TERMINATED NORMALLY****
TOTAL RUN TIME: 0 days 1 hours 29 minutes 48 seconds 933 msec
