
                                 *****************
                                 * O   R   C   A *
                                 *****************

                                            #,                                       
                                            ###                                      
                                            ####                                     
                                            #####                                    
                                            ######                                   
                                           ########,                                 
                                     ,,################,,,,,                         
                               ,,#################################,,                 
                          ,,##########################################,,             
                       ,#########################################, ''#####,          
                    ,#############################################,,   '####,        
                  ,##################################################,,,,####,       
                ,###########''''           ''''###############################       
              ,#####''   ,,,,##########,,,,          '''####'''          '####       
            ,##' ,,,,###########################,,,                        '##       
           ' ,,###''''                  '''############,,,                           
         ,,##''                                '''############,,,,        ,,,,,,###''
      ,#''                                            '''#######################'''  
     '                                                          ''''####''''         
             ,#######,   #######,   ,#######,      ##                                
            ,#'     '#,  ##    ##  ,#'     '#,    #''#        ######   ,####,        
            ##       ##  ##   ,#'  ##            #'  '#       #        #'  '#        
            ##       ##  #######   ##           ,######,      #####,   #    #        
            '#,     ,#'  ##    ##  '#,     ,#' ,#      #,         ##   #,  ,#        
             '#######'   ##     ##  '#######'  #'      '#     #####' # '####'        



                  #######################################################
                  #                        -***-                        #
                  #          Department of theory and spectroscopy      #
                  #    Directorship and core code : Frank Neese         #
                  #        Max Planck Institute fuer Kohlenforschung    #
                  #                Kaiser Wilhelm Platz 1               #
                  #                 D-45470 Muelheim/Ruhr               #
                  #                      Germany                        #
                  #                                                     #
                  #                  All rights reserved                #
                  #                        -***-                        #
                  #######################################################


                         Program Version 5.0.4 -  RELEASE  -


 With contributions from (in alphabetic order):
   Daniel Aravena         : Magnetic Suceptibility
   Michael Atanasov       : Ab Initio Ligand Field Theory (pilot matlab implementation)
   Alexander A. Auer      : GIAO ZORA, VPT2 properties, NMR spectrum
   Ute Becker             : Parallelization
   Giovanni Bistoni       : ED, misc. LED, open-shell LED, HFLD
   Martin Brehm           : Molecular dynamics
   Dmytro Bykov           : SCF Hessian
   Vijay G. Chilkuri      : MRCI spin determinant printing, contributions to CSF-ICE
   Dipayan Datta          : RHF DLPNO-CCSD density
   Achintya Kumar Dutta   : EOM-CC, STEOM-CC
   Dmitry Ganyushin       : Spin-Orbit,Spin-Spin,Magnetic field MRCI
   Miquel Garcia          : C-PCM and meta-GGA Hessian, CC/C-PCM, Gaussian charge scheme
   Yang Guo               : DLPNO-NEVPT2, F12-NEVPT2, CIM, IAO-localization
   Andreas Hansen         : Spin unrestricted coupled pair/coupled cluster methods
   Benjamin Helmich-Paris : MC-RPA, TRAH-SCF, COSX integrals
   Lee Huntington         : MR-EOM, pCC
   Robert Izsak           : Overlap fitted RIJCOSX, COSX-SCS-MP3, EOM
   Marcus Kettner         : VPT2
   Christian Kollmar      : KDIIS, OOCD, Brueckner-CCSD(T), CCSD density, CASPT2, CASPT2-K
   Simone Kossmann        : Meta GGA functionals, TD-DFT gradient, OOMP2, MP2 Hessian
   Martin Krupicka        : Initial AUTO-CI
   Lucas Lang             : DCDCAS
   Marvin Lechner         : AUTO-CI (C++ implementation), FIC-MRCC
   Dagmar Lenk            : GEPOL surface, SMD
   Dimitrios Liakos       : Extrapolation schemes; Compound Job, initial MDCI parallelization
   Dimitrios Manganas     : Further ROCIS development; embedding schemes
   Dimitrios Pantazis     : SARC Basis sets
   Anastasios Papadopoulos: AUTO-CI, single reference methods and gradients
   Taras Petrenko         : DFT Hessian,TD-DFT gradient, ASA, ECA, R-Raman, ABS, FL, XAS/XES, NRVS
   Peter Pinski           : DLPNO-MP2, DLPNO-MP2 Gradient
   Christoph Reimann      : Effective Core Potentials
   Marius Retegan         : Local ZFS, SOC
   Christoph Riplinger    : Optimizer, TS searches, QM/MM, DLPNO-CCSD(T), (RO)-DLPNO pert. Triples
   Tobias Risthaus        : Range-separated hybrids, TD-DFT gradient, RPA, STAB
   Michael Roemelt        : Original ROCIS implementation
   Masaaki Saitow         : Open-shell DLPNO-CCSD energy and density
   Barbara Sandhoefer     : DKH picture change effects
   Avijit Sen             : IP-ROCIS
   Kantharuban Sivalingam : CASSCF convergence, NEVPT2, FIC-MRCI
   Bernardo de Souza      : ESD, SOC TD-DFT
   Georgi Stoychev        : AutoAux, RI-MP2 NMR, DLPNO-MP2 response
   Willem Van den Heuvel  : Paramagnetic NMR
   Boris Wezisla          : Elementary symmetry handling
   Frank Wennmohs         : Technical directorship


 We gratefully acknowledge several colleagues who have allowed us to
 interface, adapt or use parts of their codes:
   Stefan Grimme, W. Hujo, H. Kruse, P. Pracht,  : VdW corrections, initial TS optimization,
                  C. Bannwarth, S. Ehlert          DFT functionals, gCP, sTDA/sTD-DF
   Ed Valeev, F. Pavosevic, A. Kumar             : LibInt (2-el integral package), F12 methods
   Garnet Chan, S. Sharma, J. Yang, R. Olivares  : DMRG
   Ulf Ekstrom                                   : XCFun DFT Library
   Mihaly Kallay                                 : mrcc  (arbitrary order and MRCC methods)
   Jiri Pittner, Ondrej Demel                    : Mk-CCSD
   Frank Weinhold                                : gennbo (NPA and NBO analysis)
   Christopher J. Cramer and Donald G. Truhlar   : smd solvation model
   Lars Goerigk                                  : TD-DFT with DH, B97 family of functionals
   V. Asgeirsson, H. Jonsson                     : NEB implementation
   FAccTs GmbH                                   : IRC, NEB, NEB-TS, DLPNO-Multilevel, CI-OPT
                                                   MM, QMMM, 2- and 3-layer-ONIOM, Crystal-QMMM,
                                                   LR-CPCM, SF, NACMEs, symmetry and pop. for TD-DFT,
                                                   nearIR, NL-DFT gradient (VV10), updates on ESD,
                                                   ML-optimized integration grids
   S Lehtola, MJT Oliveira, MAL Marques          : LibXC Library
   Liviu Ungur et al                             : ANISO software


 Your calculation uses the libint2 library for the computation of 2-el integrals
 For citations please refer to: http://libint.valeyev.net

 Your ORCA version has been built with support for libXC version: 5.1.0
 For citations please refer to: https://tddft.org/programs/libxc/

 This ORCA versions uses:
   CBLAS   interface :  Fast vector & matrix operations
   LAPACKE interface :  Fast linear algebra routines
   SCALAPACK package :  Parallel linear algebra routines
   Shared memory     :  Shared parallel matrices
   BLAS/LAPACK       :  OpenBLAS 0.3.15  USE64BITINT DYNAMIC_ARCH NO_AFFINITY Prescott SINGLE_THREADED
        Core in use  :  Prescott
   Copyright (c) 2011-2014, The OpenBLAS Project


Your calculation utilizes the atom-pairwise dispersion correction
with the Becke-Johnson damping scheme (D3BJ)
Cite in your paper:
S.Grimme, S.Ehrlich, L.Goerigk, J Comput Chem, (2011), 32, 1456–1465 
S.Grimme, J.Antony, S.Ehrlich and H.Krieg, J.Chem.Phys., 132, (2010), 154104 
   

================================================================================

----- Orbital basis set information -----
Your calculation utilizes the basis: def2-TZVP
   F. Weigend and R. Ahlrichs, Phys. Chem. Chem. Phys. 7, 3297 (2005).

----- AuxJ basis set information -----
Your calculation utilizes the auxiliary basis: def2/J
   F. Weigend, Phys. Chem. Chem. Phys. 8, 1057 (2006).

================================================================================
                                        WARNINGS
                       Please study these warnings very carefully!
================================================================================


WARNING: Geometry Optimization
  ===> : Switching off AutoStart
         For restart on a previous wavefunction, please use MOREAD

INFO   : the flag for use of the SHARK integral package has been found!

================================================================================
                                       INPUT FILE
================================================================================
NAME = /home/rudenko/mop_saddle_orca_4_serv/for_orca/m-o2nc6h4chno2ch3_oh/orca/orca_start/start.inp
|  1> !  opt B3LYP def2-TZVP CPCM D3 
|  2> %pal nprocs 102 end
|  3> %cpcm epsilon 78.4 end 
|  4> *xyz -1 1 
|  5> C   -0.77373 1.16768 -0.07989
|  6> C   0.5823 1.18121 0.23895
|  7> C   1.33178 -0.00286 0.21123
|  8> C   0.70543 -1.20323 -0.10226
|  9> C   -0.66092 -1.20596 -0.40109
| 10> C   -1.41056 -0.02697 -0.40953
| 11> H   -1.34704 2.09974 -0.06523
| 12> H   1.05895 2.13145 0.50553
| 13> H   1.25598 -2.15301 -0.11422
| 14> H   -2.47476 -0.03623 -0.66807
| 15> N   -1.28645 -2.47112 -0.69928
| 16> O   -2.46913 -2.50162 -1.00988
| 17> O   -0.61616 -3.4952 -0.62686
| 18> C   2.7912 0.02949 0.57482
| 19> H   2.90727 0.51356 1.60886
| 20> C   3.45458 -1.34116 0.62395
| 21> H   4.51004 -1.28087 0.92801
| 22> H   3.42967 -1.87408 -0.33605
| 23> H   2.95399 -1.98556 1.36623
| 24> N   3.55824 0.90503 -0.37306
| 25> O   4.74621 1.08582 -0.15242
| 26> O   2.98955 1.42771 -1.31733
| 27> O   2.63422 2.55593 6.05669
| 28> H   2.92583 1.85169 5.58186
| 29> H   2.04886 1.12344 3.70127
| 30> H   3.48935 1.57349 3.56331
| 31> O   2.93472 0.78373 3.52398
| 32> *
| 33> 
| 34>                          ****END OF INPUT****
================================================================================

                       *****************************
                       * Geometry Optimization Run *
                       *****************************

Geometry optimization settings:
Update method            Update   .... BFGS
Choice of coordinates    CoordSys .... Z-matrix Internals
Initial Hessian          InHess   .... Almoef's Model

Convergence Tolerances:
Energy Change            TolE     ....  5.0000e-06 Eh
Max. Gradient            TolMAXG  ....  3.0000e-04 Eh/bohr
RMS Gradient             TolRMSG  ....  1.0000e-04 Eh/bohr
Max. Displacement        TolMAXD  ....  4.0000e-03 bohr
RMS Displacement         TolRMSD  ....  2.0000e-03 bohr
Strict Convergence                ....  False
------------------------------------------------------------------------------
                        ORCA OPTIMIZATION COORDINATE SETUP
------------------------------------------------------------------------------

The optimization will be done in new redundant internal coordinates
Making redundant internal coordinates   ...  (new redundants) done
Evaluating the initial hessian          ...  (Almloef) done
Evaluating the coordinates              ...  done
Calculating the B-matrix                .... done
Calculating the G-matrix                .... done
Diagonalizing the G-matrix              .... done
Small eigenvalue found = 1.116e-02
Small eigenvalue found = 2.192e-02
The first mode is                       ....  116
The number of degrees of freedom        ....   75

    -----------------------------------------------------------------
                    Redundant Internal Coordinates


    -----------------------------------------------------------------
         Definition                    Initial Value    Approx d2E/dq
    -----------------------------------------------------------------
      1. B(C   1,C   0)                  1.3931         0.617777   
      2. B(C   2,C   1)                  1.4016         0.598709   
      3. B(C   3,C   2)                  1.3898         0.625310   
      4. B(C   4,C   3)                  1.3986         0.605257   
      5. B(C   5,C   4)                  1.3972         0.608582   
      6. B(C   5,C   0)                  1.3933         0.617171   
      7. B(H   6,C   0)                  1.0944         0.354371   
      8. B(H   7,C   1)                  1.0960         0.352249   
      9. B(H   8,C   3)                  1.0979         0.349831   
     10. B(H   9,C   5)                  1.0952         0.353294   
     11. B(N  10,C   4)                  1.4425         0.461423   
     12. B(O  11,N  10)                  1.2232         0.925094   
     13. B(O  12,N  10)                  1.2261         0.915241   
     14. B(C  13,C   2)                  1.5044         0.410447   
     15. B(H  14,C  13)                  1.1476         0.291402   
     16. B(C  15,C  13)                  1.5235         0.382549   
     17. B(H  16,C  15)                  1.1000         0.347063   
     18. B(H  17,C  15)                  1.0983         0.349308   
     19. B(H  18,C  15)                  1.1031         0.343185   
     20. B(N  19,C  13)                  1.5011         0.372024   
     21. B(O  20,N  19)                  1.2217         0.929964   
     22. B(O  21,N  19)                  1.2199         0.936129   
     23. B(H  23,O  22)                  0.8980         0.652889   
     24. B(H  24,H  23)                  2.1991         0.001172   
     25. B(H  24,H  14)                  2.3424         0.000692   
     26. B(H  25,H  23)                  2.1141         0.001602   
     27. B(H  25,H  14)                  2.2983         0.000814   
     28. B(O  26,H  23)                  2.3185         0.003536   
     29. B(O  26,H  14)                  1.9343         0.014507   
     30. B(O  26,H  25)                  0.9659         0.508886   
     31. B(O  26,H  24)                  0.9652         0.510145   
     32. A(C   5,C   0,H   6)          119.6018         0.351681   
     33. A(C   1,C   0,C   5)          120.4890         0.433429   
     34. A(C   1,C   0,H   6)          119.9078         0.351739   
     35. A(C   0,C   1,H   7)          119.1714         0.351382   
     36. A(C   2,C   1,H   7)          120.3114         0.349527   
     37. A(C   0,C   1,C   2)          120.5159         0.431069   
     38. A(C   1,C   2,C   3)          119.5464         0.432009   
     39. A(C   1,C   2,C  13)          119.7226         0.400833   
     40. A(C   3,C   2,C  13)          120.6842         0.403917   
     41. A(C   2,C   3,C   4)          119.3509         0.432855   
     42. A(C   4,C   3,H   8)          119.0696         0.349762   
     43. A(C   2,C   3,H   8)          121.5780         0.351693   
     44. A(C   3,C   4,C   5)          121.5875         0.430751   
     45. A(C   5,C   4,N  10)          120.4100         0.407749   
     46. A(C   3,C   4,N  10)          118.0021         0.407354   
     47. A(C   4,C   5,H   9)          121.0411         0.350668   
     48. A(C   0,C   5,H   9)          120.4786         0.351500   
     49. A(C   0,C   5,C   4)          118.4803         0.432262   
     50. A(O  11,N  10,O  12)          121.5182         0.488047   
     51. A(C   4,N  10,O  12)          118.8998         0.432804   
     52. A(C   4,N  10,O  11)          119.5806         0.433638   
     53. A(C   2,C  13,N  19)          110.8323         0.366692   
     54. A(C   2,C  13,C  15)          114.2586         0.370769   
     55. A(H  14,C  13,C  15)          107.8412         0.314519   
     56. A(C   2,C  13,H  14)          108.9629         0.318140   
     57. A(C  15,C  13,N  19)          108.8200         0.362302   
     58. A(H  14,C  13,N  19)          105.7387         0.311255   
     59. A(H  25,H  14,O  26)           24.4974         0.108421   
     60. A(H  24,H  14,O  26)           23.7116         0.107721   
     61. A(C  13,H  14,O  26)          162.2612         0.180918   
     62. A(H  24,H  14,H  25)           38.1046         0.096892   
     63. A(C  13,H  14,H  25)          170.5298         0.127748   
     64. A(C  13,H  14,H  24)          151.3558         0.126352   
     65. A(H  17,C  15,H  18)          107.1234         0.287283   
     66. A(H  16,C  15,H  18)          106.3458         0.286994   
     67. A(C  13,C  15,H  18)          110.4662         0.323024   
     68. A(C  13,C  15,H  17)          113.4828         0.323963   
     69. A(H  16,C  15,H  17)          106.8557         0.287788   
     70. A(C  13,C  15,H  16)          112.1716         0.323620   
     71. A(O  20,N  19,O  21)          121.9828         0.490568   
     72. A(C  13,N  19,O  21)          120.0300         0.418125   
     73. A(C  13,N  19,O  20)          117.9775         0.417633   
     74. A(H  25,H  23,O  26)           24.6187         0.105445   
     75. A(H  24,H  23,O  26)           24.4888         0.104323   
     76. A(O  22,H  23,O  26)          146.2819         0.168224   
     77. A(H  24,H  23,H  25)           41.0805         0.099362   
     78. A(O  22,H  23,H  25)          133.9950         0.142576   
     79. A(O  22,H  23,H  24)          125.6172         0.138921   
     80. A(H  14,H  24,H  23)          134.7462         0.097570   
     81. A(H  23,H  24,O  26)           84.6998         0.136209   
     82. A(H  14,H  24,O  26)           53.6967         0.130905   
     83. A(H  14,H  25,H  23)          143.6228         0.098542   
     84. A(H  23,H  25,O  26)           89.6228         0.139638   
     85. A(H  14,H  25,O  26)           56.1404         0.132448   
     86. A(H  14,O  26,H  23)          160.5753         0.122470   
     87. A(H  23,O  26,H  25)           65.7586         0.163880   
     88. A(H  23,O  26,H  24)           70.8114         0.163921   
     89. A(H  14,O  26,H  25)           99.3622         0.192065   
     90. A(H  14,O  26,H  24)          102.5917         0.192123   
     91. A(H  24,O  26,H  25)          103.4012         0.319706   
     92. D(C   2,C   1,C   0,C   5)      1.0765         0.026398   
     93. D(H   7,C   1,C   0,C   5)   -179.3446         0.026398   
     94. D(C   2,C   1,C   0,H   6)   -179.3590         0.026398   
     95. D(H   7,C   1,C   0,H   6)      0.2199         0.026398   
     96. D(C  13,C   2,C   1,C   0)   -179.2672         0.024705   
     97. D(C  13,C   2,C   1,H   7)      1.1587         0.024705   
     98. D(C   3,C   2,C   1,H   7)    178.6882         0.024705   
     99. D(C   3,C   2,C   1,C   0)     -1.7376         0.024705   
    100. D(H   8,C   3,C   2,C  13)     -1.2665         0.027085   
    101. D(H   8,C   3,C   2,C   1)   -178.7718         0.027085   
    102. D(C   4,C   3,C   2,C   1)      0.7783         0.027085   
    103. D(C   4,C   3,C   2,C  13)    178.2836         0.027085   
    104. D(C   5,C   4,C   3,C   2)      0.8496         0.025278   
    105. D(C   5,C   4,C   3,H   8)   -179.5889         0.025278   
    106. D(N  10,C   4,C   3,C   2)   -178.9273         0.025278   
    107. D(N  10,C   4,C   3,H   8)      0.6342         0.025278   
    108. D(H   9,C   5,C   0,H   6)      0.9326         0.026343   
    109. D(H   9,C   5,C   4,C   3)    178.5294         0.025573   
    110. D(H   9,C   5,C   0,C   1)   -179.5016         0.026343   
    111. D(C   4,C   5,C   0,H   6)   -179.0352         0.026343   
    112. D(C   0,C   5,C   4,C   3)     -1.5030         0.025573   
    113. D(C   0,C   5,C   4,N  10)    178.2686         0.025573   
    114. D(H   9,C   5,C   4,N  10)     -1.6990         0.025573   
    115. D(C   4,C   5,C   0,C   1)      0.5306         0.026343   
    116. D(O  12,N  10,C   4,C   5)   -176.8415         0.016774   
    117. D(O  12,N  10,C   4,C   3)      2.9381         0.016774   
    118. D(O  11,N  10,C   4,C   5)      2.7457         0.016774   
    119. D(O  11,N  10,C   4,C   3)   -177.4746         0.016774   
    120. D(C  15,C  13,C   2,C   1)    174.8107         0.012476   
    121. D(H  14,C  13,C   2,C   3)   -123.3662         0.012476   
    122. D(H  14,C  13,C   2,C   1)     54.1347         0.012476   
    123. D(N  19,C  13,C   2,C   3)    120.6815         0.012476   
    124. D(N  19,C  13,C   2,C   1)    -61.8176         0.012476   
    125. D(C  15,C  13,C   2,C   3)     -2.6902         0.012476   
    126. D(O  26,H  14,C  13,C  15)    -45.2277         0.085838   
    127. D(O  26,H  14,C  13,C   2)     79.3117         0.085838   
    128. D(H  25,H  14,C  13,N  19)    -35.4689         0.085838   
    129. D(H  24,H  14,C  13,N  19)    141.5586         0.085838   
    130. D(H  24,H  14,C  13,C  15)   -102.1587         0.085838   
    131. D(H  25,H  14,C  13,C   2)   -154.6468         0.085838   
    132. D(H  24,H  14,C  13,C   2)     22.3807         0.085838   
    133. D(O  26,H  14,C  13,N  19)   -161.5104         0.085838   
    134. D(H  25,H  14,C  13,C  15)     80.8138         0.085838   
    135. D(H  18,C  15,C  13,N  19)    176.0736         0.011656   
    136. D(H  18,C  15,C  13,H  14)     61.8219         0.011656   
    137. D(H  18,C  15,C  13,C   2)    -59.4755         0.011656   
    138. D(H  17,C  15,C  13,N  19)    -63.6090         0.011656   
    139. D(H  17,C  15,C  13,H  14)   -177.8607         0.011656   
    140. D(H  16,C  15,C  13,H  14)    -56.6333         0.011656   
    141. D(H  16,C  15,C  13,N  19)     57.6184         0.011656   
    142. D(H  16,C  15,C  13,C   2)   -177.9307         0.011656   
    143. D(H  17,C  15,C  13,C   2)     60.8419         0.011656   
    144. D(O  21,N  19,C  13,C  15)    123.4703         0.011871   
    145. D(O  21,N  19,C  13,H  14)   -120.9133         0.011871   
    146. D(O  21,N  19,C  13,C   2)     -2.9788         0.011871   
    147. D(O  20,N  19,C  13,C  15)    -57.6395         0.011871   
    148. D(O  20,N  19,C  13,H  14)     57.9769         0.011871   
    149. D(O  20,N  19,C  13,C   2)    175.9114         0.011871   
    150. D(H  23,H  24,H  14,O  26)     27.1808         0.001505   
    151. D(H  23,H  24,H  14,H  25)    -13.0258         0.001505   
    152. D(H  23,H  24,H  14,C  13)    167.7664         0.001505   
    153. D(O  26,H  24,H  14,H  25)    -40.2067         0.001505   
    154. D(O  26,H  24,H  14,C  13)    140.5856         0.001505   
    155. D(H  14,H  24,H  23,O  26)    -21.6980         0.001515   
    156. D(H  14,H  24,H  23,H  25)     13.3031         0.001515   
    157. D(H  14,H  24,H  23,O  22)    131.8913         0.001515   
    158. D(O  26,H  24,H  23,H  25)     35.0011         0.001515   
    159. D(O  26,H  24,H  23,O  22)    153.5892         0.001515   
    160. D(H  14,H  25,H  23,O  26)     18.4925         0.001528   
    161. D(H  14,H  25,H  23,H  24)    -16.3103         0.001528   
    162. D(H  14,H  25,H  23,O  22)   -113.4542         0.001528   
    163. D(O  26,H  25,H  23,H  24)    -34.8028         0.001528   
    164. D(O  26,H  25,H  23,O  22)   -131.9467         0.001528   
    165. D(H  23,H  25,H  14,O  26)    -22.4546         0.001507   
    166. D(H  23,H  25,H  14,H  24)     16.3052         0.001507   
    167. D(H  23,H  25,H  14,C  13)   -166.0035         0.001507   
    168. D(O  26,H  25,H  14,H  24)     38.7597         0.001507   
    169. D(O  26,H  25,H  14,C  13)   -143.5490         0.001507   
    170. D(H  23,O  26,H  25,H  14)   -166.9066         0.395923   
    171. D(H  14,O  26,H  25,H  23)    166.9066         0.395923   
    172. D(H  24,O  26,H  25,H  23)     61.4558         0.395923   
    173. D(H  24,O  26,H  25,H  14)   -105.4508         0.395923   
    174. D(H  23,O  26,H  24,H  14)    160.9843         0.398461   
    175. D(H  25,O  26,H  24,H  23)    -58.0067         0.398461   
    176. D(H  25,O  26,H  24,H  14)    102.9776         0.398461   
    177. D(H  14,O  26,H  23,H  25)    -42.2301         0.001509   
    178. D(H  14,O  26,H  23,H  24)     72.9738         0.001509   
    179. D(H  14,O  26,H  23,O  22)     32.3271         0.001509   
    180. D(H  25,O  26,H  23,H  24)    115.2038         0.001509   
    181. D(H  25,O  26,H  23,O  22)     74.5572         0.001509   
    182. D(H  24,O  26,H  23,H  25)   -115.2038         0.001509   
    183. D(H  24,O  26,H  23,O  22)    -40.6466         0.001509   
    184. D(H  23,O  26,H  14,H  25)     38.3979         0.001644   
    185. D(H  14,O  26,H  24,H  23)   -160.9843         0.398461   
    186. D(H  23,O  26,H  14,H  24)    -67.7140         0.001644   
    187. D(H  23,O  26,H  14,C  13)   -160.3164         0.001644   
    188. D(H  25,O  26,H  14,H  24)   -106.1119         0.001644   
    189. D(H  25,O  26,H  14,C  13)    161.2857         0.001644   
    190. D(H  24,O  26,H  14,H  25)    106.1119         0.001644   
    191. D(H  24,O  26,H  14,C  13)    -92.6024         0.001644   
    -----------------------------------------------------------------

Number of atoms                         .... 27
Number of degrees of freedom            .... 191

         *************************************************************
         *                GEOMETRY OPTIMIZATION CYCLE   1            *
         *************************************************************
---------------------------------
CARTESIAN COORDINATES (ANGSTROEM)
---------------------------------
  C     -0.773730    1.167680   -0.079890
  C      0.582300    1.181210    0.238950
  C      1.331780   -0.002860    0.211230
  C      0.705430   -1.203230   -0.102260
  C     -0.660920   -1.205960   -0.401090
  C     -1.410560   -0.026970   -0.409530
  H     -1.347040    2.099740   -0.065230
  H      1.058950    2.131450    0.505530
  H      1.255980   -2.153010   -0.114220
  H     -2.474760   -0.036230   -0.668070
  N     -1.286450   -2.471120   -0.699280
  O     -2.469130   -2.501620   -1.009880
  O     -0.616160   -3.495200   -0.626860
  C      2.791200    0.029490    0.574820
  H      2.907270    0.513560    1.608860
  C      3.454580   -1.341160    0.623950
  H      4.510040   -1.280870    0.928010
  H      3.429670   -1.874080   -0.336050
  H      2.953990   -1.985560    1.366230
  N      3.558240    0.905030   -0.373060
  O      4.746210    1.085820   -0.152420
  O      2.989550    1.427710   -1.317330
  O      2.634220    2.555930    6.056690
  H      2.925830    1.851690    5.581860
  H      2.048860    1.123440    3.701270
  H      3.489350    1.573490    3.563310
  O      2.934720    0.783730    3.523980

----------------------------
CARTESIAN COORDINATES (A.U.)
----------------------------
  NO LB      ZA    FRAG     MASS         X           Y           Z
   0 C     6.0000    0    12.011   -1.462138    2.206595   -0.150970
   1 C     6.0000    0    12.011    1.100388    2.232163    0.451550
   2 C     6.0000    0    12.011    2.516699   -0.005405    0.399167
   3 C     6.0000    0    12.011    1.333070   -2.273775   -0.193243
   4 C     6.0000    0    12.011   -1.248958   -2.278934   -0.757950
   5 C     6.0000    0    12.011   -2.665572   -0.050966   -0.773900
   6 H     1.0000    0     1.008   -2.545537    3.967934   -0.123267
   7 H     1.0000    0     1.008    2.001125    4.027857    0.955313
   8 H     1.0000    0     1.008    2.373458   -4.068599   -0.215845
   9 H     1.0000    0     1.008   -4.676619   -0.068465   -1.262469
  10 N     7.0000    0    14.007   -2.431038   -4.669740   -1.321448
  11 O     8.0000    0    15.999   -4.665979   -4.727377   -1.908397
  12 O     8.0000    0    15.999   -1.164374   -6.604971   -1.184594
  13 C     6.0000    0    12.011    5.274604    0.055728    1.086252
  14 H     1.0000    0     1.008    5.493944    0.970488    3.040305
  15 C     6.0000    0    12.011    6.528210   -2.534425    1.179095
  16 H     1.0000    0     1.008    8.522740   -2.420494    1.753685
  17 H     1.0000    0     1.008    6.481137   -3.541498   -0.635042
  18 H     1.0000    0     1.008    5.582232   -3.752165    2.581801
  19 N     7.0000    0    14.007    6.724099    1.710259   -0.704981
  20 O     8.0000    0    15.999    8.969037    2.051902   -0.288032
  21 O     8.0000    0    15.999    5.649431    2.697981   -2.489393
  22 O     8.0000    0    15.999    4.977954    4.830008   11.445485
  23 H     1.0000    0     1.008    5.529017    3.499187   10.548187
  24 H     1.0000    0     1.008    3.871784    2.122994    6.994387
  25 H     1.0000    0     1.008    6.593916    2.973465    6.733680
  26 O     8.0000    0    15.999    5.545817    1.481035    6.659357

--------------------------------
INTERNAL COORDINATES (ANGSTROEM)
--------------------------------
 C      0   0   0     0.000000000000     0.00000000     0.00000000
 C      1   0   0     1.393075506712     0.00000000     0.00000000
 C      2   1   0     1.401609943494   120.51585094     0.00000000
 C      3   2   1     1.389776399102   119.54635630   358.26239713
 C      4   3   2     1.398649042576   119.35085900     0.77831070
 C      1   2   3     1.393342600009   120.48899310     1.07647609
 H      1   2   3     1.094365165427   119.90777914   180.64098383
 H      2   1   3     1.096000080520   119.17143252   179.57896141
 H      4   3   2     1.097875399351   121.57801924   181.22821762
 H      6   1   2     1.095194192461   120.47857628   180.49842543
 N      5   4   3     1.442509924611   118.00210568   181.07272772
 O     11   5   4     1.223165807403   119.58064701   182.52535885
 O     11   5   4     1.226080416164   118.89979191     2.93814213
 C      3   2   1     1.504377262192   119.72262873   180.73283648
 H     14   3   2     1.147621336243   108.96287743    54.13473609
 C     14   3   2     1.523538054595   114.25863503   174.81074564
 H     16  14   3     1.100037808123   112.17160705   182.06931560
 H     16  14   3     1.098282401980   113.48283809    60.84190261
 H     16  14   3     1.103096236282   110.46622609   300.52449097
 N     14   3   2     1.501131955426   110.83231627   298.18238963
 O     20  14   3     1.221736368698   117.97750468   175.91138597
 O     20  14   3     1.219937921125   120.02999086   357.02119498
 O     15  14   3     4.901940761403   170.99216346     7.72743154
 H     23  15  14     0.898027782755    34.45315651   116.89186480
 H     24  23  15     2.199100541471   125.61722143   333.47527391
 H     25  24  23     1.515450231515    66.44961365   118.58817164
 O     25  24  23     0.965185250509    84.69976079   153.58924217

---------------------------
INTERNAL COORDINATES (A.U.)
---------------------------
 C      0   0   0     0.000000000000     0.00000000     0.00000000
 C      1   0   0     2.632531191559     0.00000000     0.00000000
 C      2   1   0     2.648658939784   120.51585094     0.00000000
 C      3   2   1     2.626296781689   119.54635630   358.26239713
 C      4   3   2     2.643063647941   119.35085900     0.77831070
 C      1   2   3     2.633035924743   120.48899310     1.07647609
 H      1   2   3     2.068050453160   119.90777914   180.64098383
 H      2   1   3     2.071139994939   119.17143252   179.57896141
 H      4   3   2     2.074683833943   121.57801924   181.22821762
 H      6   1   2     2.069617087212   120.47857628   180.49842543
 N      5   4   3     2.725948702977   118.00210568   181.07272772
 O     11   5   4     2.311448392368   119.58064701   182.52535885
 O     11   5   4     2.316956204713   118.89979191     2.93814213
 C      3   2   1     2.842861027641   119.72262873   180.73283648
 H     14   3   2     2.168690030944   108.96287743    54.13473609
 C     14   3   2     2.879069677792   114.25863503   174.81074564
 H     16  14   3     2.078770194311   112.17160705   182.06931560
 H     16  14   3     2.075452957448   113.48283809    60.84190261
 H     16  14   3     2.084549785933   110.46622609   300.52449097
 N     14   3   2     2.836728286632   110.83231627   298.18238963
 O     20  14   3     2.308747144691   117.97750468   175.91138597
 O     20  14   3     2.305348571312   120.02999086   357.02119498
 O     15  14   3     9.263325563756   170.99216346     7.72743154
 H     23  15  14     1.697026570060    34.45315651   116.89186480
 H     24  23  15     4.155697764339   125.61722143   333.47527391
 H     25  24  23     2.863785907152    66.44961365   118.58817164
 O     25  24  23     1.823935791962    84.69976079   153.58924217

---------------------
BASIS SET INFORMATION
---------------------
There are 4 groups of distinct atoms

 Group   1 Type C   : 11s6p2d1f contracted to 5s3p2d1f pattern {62111/411/11/1}
 Group   2 Type H   : 5s1p contracted to 3s1p pattern {311/1}
 Group   3 Type N   : 11s6p2d1f contracted to 5s3p2d1f pattern {62111/411/11/1}
 Group   4 Type O   : 11s6p2d1f contracted to 5s3p2d1f pattern {62111/411/11/1}

Atom   0C    basis set group =>   1
Atom   1C    basis set group =>   1
Atom   2C    basis set group =>   1
Atom   3C    basis set group =>   1
Atom   4C    basis set group =>   1
Atom   5C    basis set group =>   1
Atom   6H    basis set group =>   2
Atom   7H    basis set group =>   2
Atom   8H    basis set group =>   2
Atom   9H    basis set group =>   2
Atom  10N    basis set group =>   3
Atom  11O    basis set group =>   4
Atom  12O    basis set group =>   4
Atom  13C    basis set group =>   1
Atom  14H    basis set group =>   2
Atom  15C    basis set group =>   1
Atom  16H    basis set group =>   2
Atom  17H    basis set group =>   2
Atom  18H    basis set group =>   2
Atom  19N    basis set group =>   3
Atom  20O    basis set group =>   4
Atom  21O    basis set group =>   4
Atom  22O    basis set group =>   4
Atom  23H    basis set group =>   2
Atom  24H    basis set group =>   2
Atom  25H    basis set group =>   2
Atom  26O    basis set group =>   4
---------------------------------
AUXILIARY/J BASIS SET INFORMATION
---------------------------------
There are 4 groups of distinct atoms

 Group   1 Type C   : 12s5p4d2f1g contracted to 6s4p3d1f1g pattern {711111/2111/211/2/1}
 Group   2 Type H   : 5s2p1d contracted to 3s1p1d pattern {311/2/1}
 Group   3 Type N   : 12s5p4d2f1g contracted to 6s4p3d1f1g pattern {711111/2111/211/2/1}
 Group   4 Type O   : 12s5p4d2f1g contracted to 6s4p3d1f1g pattern {711111/2111/211/2/1}

Atom   0C    basis set group =>   1
Atom   1C    basis set group =>   1
Atom   2C    basis set group =>   1
Atom   3C    basis set group =>   1
Atom   4C    basis set group =>   1
Atom   5C    basis set group =>   1
Atom   6H    basis set group =>   2
Atom   7H    basis set group =>   2
Atom   8H    basis set group =>   2
Atom   9H    basis set group =>   2
Atom  10N    basis set group =>   3
Atom  11O    basis set group =>   4
Atom  12O    basis set group =>   4
Atom  13C    basis set group =>   1
Atom  14H    basis set group =>   2
Atom  15C    basis set group =>   1
Atom  16H    basis set group =>   2
Atom  17H    basis set group =>   2
Atom  18H    basis set group =>   2
Atom  19N    basis set group =>   3
Atom  20O    basis set group =>   4
Atom  21O    basis set group =>   4
Atom  22O    basis set group =>   4
Atom  23H    basis set group =>   2
Atom  24H    basis set group =>   2
Atom  25H    basis set group =>   2
Atom  26O    basis set group =>   4


           ************************************************************
           *        Program running with 102 parallel MPI-processes   *
           *              working on a common directory               *
           ************************************************************
------------------------------------------------------------------------------
                           ORCA GTO INTEGRAL CALCULATION
                           -- RI-GTO INTEGRALS CHOSEN --
------------------------------------------------------------------------------
------------------------------------------------------------------------------
                   ___                                                        
                  /   \      - P O W E R E D   B Y -                         
                 /     \                                                     
                 |  |  |   _    _      __       _____    __    __             
                 |  |  |  | |  | |    /  \     |  _  \  |  |  /  |          
                  \  \/   | |  | |   /    \    | | | |  |  | /  /          
                 / \  \   | |__| |  /  /\  \   | |_| |  |  |/  /          
                |  |  |   |  __  | /  /__\  \  |    /   |      \           
                |  |  |   | |  | | |   __   |  |    \   |  |\   \          
                \     /   | |  | | |  |  |  |  | |\  \  |  | \   \       
                 \___/    |_|  |_| |__|  |__|  |_| \__\ |__|  \__/        
                                                                              
                      - O R C A' S   B I G   F R I E N D -                    
                                      &                                       
                       - I N T E G R A L  F E E D E R -                       
                                                                              
 v1 FN, 2020, v2 2021                                                         
------------------------------------------------------------------------------


Reading SHARK input file /home/rudenko/mop_saddle_orca_4_serv/for_orca/m-o2nc6h4chno2ch3_oh/orca/orca_start/start.SHARKINP.tmp ... ok
----------------------
SHARK INTEGRAL PACKAGE
----------------------

Number of atoms                             ...     27
Number of basis functions                   ...    562
Number of shells                            ...    220
Maximum angular momentum                    ...      3
Integral batch strategy                     ... SHARK/LIBINT Hybrid
RI-J (if used) integral strategy            ... SPLIT-RIJ (Revised 2003 algorithm where possible)
Printlevel                                  ...      1
Contraction scheme used                     ... SEGMENTED contraction
Coulomb Range Separation                    ... NOT USED
Exchange Range Separation                   ... NOT USED
Finite Nucleus Model                        ... NOT USED
Auxiliary Coulomb fitting basis             ... AVAILABLE
   # of basis functions in Aux-J            ...    905
   # of shells in Aux-J                     ...    295
   Maximum angular momentum in Aux-J        ...      4
Auxiliary J/K fitting basis                 ... NOT available
Auxiliary Correlation fitting basis         ... NOT available
Auxiliary 'external' fitting basis          ... NOT available
Integral threshold                          ...     2.500000e-11
Primitive cut-off                           ...     2.500000e-12
Primitive pair pre-selection threshold      ...     2.500000e-12

Calculating pre-screening integrals         ... done (  0.1 sec) Dimension = 220
Organizing shell pair data                  ... done (  0.5 sec)
Shell pair information
Total number of shell pairs                 ...     24310
Shell pairs after pre-screening             ...     17682
Total number of primitive shell pairs       ...     75076
Primitive shell pairs kept                  ...     37223
          la=0 lb=0:   4559 shell pairs
          la=1 lb=0:   5063 shell pairs
          la=1 lb=1:   1440 shell pairs
          la=2 lb=0:   2527 shell pairs
          la=2 lb=1:   1431 shell pairs
          la=2 lb=2:    366 shell pairs
          la=3 lb=0:   1193 shell pairs
          la=3 lb=1:    684 shell pairs
          la=3 lb=2:    333 shell pairs
          la=3 lb=3:     86 shell pairs

Calculating one electron integrals          ... done (  0.1 sec)
Calculating RI/J V-Matrix + Cholesky decomp.... done (  0.1 sec)
Calculating Nuclear repulsion               ... done (  0.0 sec) ENN=   1087.353064057099 Eh

SHARK setup successfully completed in   1.2 seconds

Maximum memory used throughout the entire GTOINT-calculation: 29.9 MB


           ************************************************************
           *        Program running with 102 parallel MPI-processes   *
           *              working on a common directory               *
           ************************************************************
-------------------------------------------------------------------------------
                                 ORCA SCF
-------------------------------------------------------------------------------

------------
SCF SETTINGS
------------
Hamiltonian:
 Density Functional     Method          .... DFT(GTOs)
 Exchange Functional    Exchange        .... B88
   X-Alpha parameter    XAlpha          ....  0.666667
   Becke's b parameter  XBeta           ....  0.004200
 Correlation Functional Correlation     .... LYP
 LDA part of GGA corr.  LDAOpt          .... VWN-5
 Gradients option       PostSCFGGA      .... off
 Hybrid DFT is turned on
   Fraction HF Exchange ScalHFX         ....  0.200000
   Scaling of DF-GGA-X  ScalDFX         ....  0.720000
   Scaling of DF-GGA-C  ScalDFC         ....  0.810000
   Scaling of DF-LDA-C  ScalLDAC        ....  1.000000
   Perturbative correction              ....  0.000000
   Density functional embedding theory  .... OFF
   NL short-range parameter             ....  4.800000
 RI-approximation to the Coulomb term is turned on
   Number of AuxJ basis functions       .... 905
   RIJ-COSX (HFX calculated with COS-X)).... on


General Settings:
 Integral files         IntName         .... /home/rudenko/mop_saddle_orca_4_serv/for_orca/m-o2nc6h4chno2ch3_oh/orca/orca_start/start
 Hartree-Fock type      HFTyp           .... RHF
 Total Charge           Charge          ....   -1
 Multiplicity           Mult            ....    1
 Number of Electrons    NEL             ....  122
 Basis Dimension        Dim             ....  562
 Nuclear Repulsion      ENuc            ....   1087.3530640571 Eh

Convergence Acceleration:
 DIIS                   CNVDIIS         .... on
   Start iteration      DIISMaxIt       ....    12
   Startup error        DIISStart       ....  0.200000
   # of expansion vecs  DIISMaxEq       ....     5
   Bias factor          DIISBfac        ....   1.050
   Max. coefficient     DIISMaxC        ....  10.000
 Trust-Rad. Augm. Hess. CNVTRAH         .... auto
   Auto Start mean grad. ratio tolernc. ....  1.125000
   Auto Start start iteration           ....    20
   Auto Start num. interpolation iter.  ....    10
   Max. Number of Micro iterations      ....    16
   Max. Number of Macro iterations      .... Maxiter - #DIIS iter
   Number of Davidson start vectors     ....     2
   Converg. threshold I  (grad. norm)   ....   1.000e-05
   Converg. threshold II (energy diff.) ....   1.000e-08
   Grad. Scal. Fac. for Micro threshold ....   0.100
   Minimum threshold for Micro iter.    ....   0.010
   NR start threshold (gradient norm)   ....   0.001
   Initial trust radius                 ....   0.400
   Minimum AH scaling param. (alpha)    ....   1.000
   Maximum AH scaling param. (alpha)    .... 1000.000
   Orbital update algorithm             .... Taylor
   White noise on init. David. guess    .... on
   Maximum white noise                  ....   0.010
   Quad. conv. algorithm                .... NR
 SOSCF                  CNVSOSCF        .... on
   Start iteration      SOSCFMaxIt      ....   150
   Startup grad/error   SOSCFStart      ....  0.003300
 Level Shifting         CNVShift        .... on
   Level shift para.    LevelShift      ....    0.2500
   Turn off err/grad.   ShiftErr        ....    0.0010
 Zerner damping         CNVZerner       .... off
 Static damping         CNVDamp         .... on
   Fraction old density DampFac         ....    0.7000
   Max. Damping (<1)    DampMax         ....    0.9800
   Min. Damping (>=0)   DampMin         ....    0.0000
   Turn off err/grad.   DampErr         ....    0.1000
 Fernandez-Rico         CNVRico         .... off

SCF Procedure:
 Maximum # iterations   MaxIter         ....   125
 SCF integral mode      SCFMode         .... Direct
   Integral package                     .... SHARK and LIBINT hybrid scheme
 Reset frequency        DirectResetFreq ....    20
 Integral Threshold     Thresh          ....  2.500e-11 Eh
 Primitive CutOff       TCut            ....  2.500e-12 Eh

Convergence Tolerance:
 Convergence Check Mode ConvCheckMode   .... Total+1el-Energy
 Convergence forced     ConvForced      .... 0
 Energy Change          TolE            ....  1.000e-08 Eh
 1-El. energy change                    ....  1.000e-05 Eh
 Orbital Gradient       TolG            ....  1.000e-05
 Orbital Rotation angle TolX            ....  1.000e-05
 DIIS Error             TolErr          ....  5.000e-07


Diagonalization of the overlap matrix:
Smallest eigenvalue                        ... 7.708e-06
Time for diagonalization                   ...    0.174 sec
Threshold for overlap eigenvalues          ... 1.000e-08
Number of eigenvalues below threshold      ... 0
Time for construction of square roots      ...    0.232 sec
Total time needed                          ...    0.410 sec

Time for model grid setup =    0.214 sec

------------------------------
INITIAL GUESS: MODEL POTENTIAL
------------------------------
Loading Hartree-Fock densities                     ... done
Calculating cut-offs                               ... done
Initializing the effective Hamiltonian             ... done
Setting up the integral package (SHARK)            ... done
Starting the Coulomb interaction                   ... done (   0.1 sec)
Reading the grid                                   ... done
Mapping shells                                     ... done
Starting the XC term evaluation                    ... done (   0.0 sec)
  promolecular density results
     # of electrons  =    121.002515078
     EX              =   -106.664300709
     EC              =     -4.211719458
     EX+EC           =   -110.876020167
Transforming the Hamiltonian                       ... done (   0.2 sec)
Diagonalizing the Hamiltonian                      ... done (   0.2 sec)
Back transforming the eigenvectors                 ... done (   0.1 sec)
Now organizing SCF variables                       ... done
                      ------------------
                      INITIAL GUESS DONE (   0.9 sec)
                      ------------------
-------------------
DFT GRID GENERATION
-------------------

General Integration Accuracy     IntAcc      ... 4.388
Radial Grid Type                 RadialGrid  ... OptM3 with GC (2021)
Angular Grid (max. ang.)         AngularGrid ... 4 (Lebedev-302)
Angular grid pruning method      GridPruning ... 4 (adaptive)
Weight generation scheme         WeightScheme... Becke
Basis function cutoff            BFCut       ... 1.0000e-11
Integration weight cutoff        WCut        ... 1.0000e-14
Angular grids for H and He will be reduced by one unit
Partially contracted basis set               ... off
Rotationally invariant grid construction     ... off

Total number of grid points                  ...   131655
Total number of batches                      ...     2069
Average number of points per batch           ...       63
Average number of grid points per atom       ...     4876
Time for grid setup =    1.074 sec

--------------------
COSX GRID GENERATION
--------------------

GRIDX 1
-------
General Integration Accuracy     IntAcc      ... 3.816
Radial Grid Type                 RadialGrid  ... OptM3 with GC (2021)
Angular Grid (max. ang.)         AngularGrid ... 1 (Lebedev-50)
Angular grid pruning method      GridPruning ... 4 (adaptive)
Weight generation scheme         WeightScheme... Becke
Basis function cutoff            BFCut       ... 1.0000e-11
Integration weight cutoff        WCut        ... 1.0000e-14
Angular grids for H and He will be reduced by one unit
Partially contracted basis set               ... on
Rotationally invariant grid construction     ... off

Total number of grid points                  ...    16747
Total number of batches                      ...      272
Average number of points per batch           ...       61
Average number of grid points per atom       ...      620
UseSFitting                                  ... on

GRIDX 2
-------
General Integration Accuracy     IntAcc      ... 4.020
Radial Grid Type                 RadialGrid  ... OptM3 with GC (2021)
Angular Grid (max. ang.)         AngularGrid ... 2 (Lebedev-110)
Angular grid pruning method      GridPruning ... 4 (adaptive)
Weight generation scheme         WeightScheme... Becke
Basis function cutoff            BFCut       ... 1.0000e-11
Integration weight cutoff        WCut        ... 1.0000e-14
Angular grids for H and He will be reduced by one unit
Partially contracted basis set               ... on
Rotationally invariant grid construction     ... off

Total number of grid points                  ...    36905
Total number of batches                      ...      589
Average number of points per batch           ...       62
Average number of grid points per atom       ...     1367
UseSFitting                                  ... on

GRIDX 3
-------
General Integration Accuracy     IntAcc      ... 4.338
Radial Grid Type                 RadialGrid  ... OptM3 with GC (2021)
Angular Grid (max. ang.)         AngularGrid ... 3 (Lebedev-194)
Angular grid pruning method      GridPruning ... 4 (adaptive)
Weight generation scheme         WeightScheme... Becke
Basis function cutoff            BFCut       ... 1.0000e-11
Integration weight cutoff        WCut        ... 1.0000e-14
Angular grids for H and He will be reduced by one unit
Partially contracted basis set               ... on
Rotationally invariant grid construction     ... off

Total number of grid points                  ...    80964
Total number of batches                      ...     1276
Average number of points per batch           ...       63
Average number of grid points per atom       ...     2999
UseSFitting                                  ... on

Time for X-Grid setup             =    1.698 sec


--------------------
CPCM SOLVATION MODEL
--------------------
CPCM parameters:
  Epsilon                                         ...      78.4000
  Refrac                                          ...       1.3300
  Rsolv                                           ...       1.3000
  Surface type                                    ... GAUSSIAN VDW
  Epsilon function type                           ...         CPCM
Radii:
 Radius for C  used is    3.8550 Bohr (=   2.0400 Ang.)
 Radius for H  used is    2.4944 Bohr (=   1.3200 Ang.)
 Radius for N  used is    3.5149 Bohr (=   1.8600 Ang.)
 Radius for O  used is    3.4469 Bohr (=   1.8240 Ang.)
Calculating surface                               ...        done! (  0.0s)
GEPOL surface points                              ...         1547
GEPOL Volume                                      ...    1813.5152
GEPOL Surface-area                                ...    1038.3814
Calculating surface distance matrix               ...        done! (  0.1s)
Performing Cholesky decomposition & store         ...        done! (  0.5s)
Overall time for CPCM initialization              ...                 0.6s
--------------
SCF ITERATIONS
--------------
ITER       Energy         Delta-E        Max-DP      RMS-DP      [F,P]     Damp
               ***  Starting incremental Fock matrix formation  ***
  0   -871.4014759105   0.000000000000 0.64785639  0.00203318  0.5344210 0.7000
  1   -871.7762039981  -0.374728087587 0.46259810  0.00141407  0.1894020 0.7000
                               ***Turning on DIIS***
  2   -871.8914234350  -0.115219436929 0.27655743  0.00134234  0.0372136 0.0000
  3   -872.1193195384  -0.227896103361 0.13117112  0.00037108  0.1088471 0.7000
  4   -872.1337543354  -0.014434797047 0.42264022  0.00120254  0.0682715 0.0000
  5   -872.1530526440  -0.019298308561 0.01059846  0.00009773  0.0262238 0.0000
                      *** Initiating the SOSCF procedure ***
                           *** Shutting down DIIS ***
                      *** Re-Reading the Fockian *** 
                      *** Removing any level shift *** 
ITER      Energy       Delta-E        Grad      Rot      Max-DP    RMS-DP
  6   -872.15424956  -0.0011969115  0.000690  0.000690  0.005494  0.000039
               *** Restarting incremental Fock matrix formation ***
  7   -872.15426297  -0.0000134106  0.000436  0.001890  0.011564  0.000044
  8   -872.15425879   0.0000041736  0.000764  0.000582  0.000744  0.000011
  9   -872.15426974  -0.0000109506  0.000044  0.000089  0.001597  0.000006
 10   -872.15426973   0.0000000170  0.000042  0.000064  0.000163  0.000002
 11   -872.15426986  -0.0000001350  0.000015  0.000025  0.000106  0.000001
 12   -872.15426986   0.0000000058  0.000016  0.000020  0.000046  0.000001
 13   -872.15426986  -0.0000000097  0.000007  0.000023  0.000271  0.000002
 14   -872.15426985   0.0000000122  0.000015  0.000016  0.000113  0.000001
                  ***Gradient check signals convergence***
              ***Rediagonalizing the Fockian in SOSCF/NRSCF***

               *****************************************************
               *                     SUCCESS                       *
               *           SCF CONVERGED AFTER  15 CYCLES          *
               *****************************************************

Old exchange energy                            =    -21.594779697 Eh
New exchange energy                            =    -21.594767436 Eh
Exchange energy change after final integration =      0.000012261 Eh
Total energy after final integration           =   -872.154257592 Eh
Final COS-X integration done in                =     2.027 sec

----------------
TOTAL SCF ENERGY
----------------

Total Energy       :         -872.15425759 Eh          -23732.52389 eV

Components:
Nuclear Repulsion  :         1087.35306406 Eh           29588.38112 eV
Electronic Energy  :        -1959.50732165 Eh          -53320.90500 eV
One Electron Energy:        -3362.48384738 Eh          -91497.83715 eV
Two Electron Energy:         1402.97652573 Eh           38176.93214 eV
Max COSX asymmetry :            0.00000130 Eh               0.00004 eV
CPCM Dielectric    :           -0.14691320 Eh              -3.99771 eV

Virial components:
Potential Energy   :        -1740.86170257 Eh          -47371.25524 eV
Kinetic Energy     :          868.70744498 Eh           23638.73135 eV
Virial Ratio       :            2.00396775


DFT components:
N(Alpha)           :       60.999934022645 electrons
N(Beta)            :       60.999934022645 electrons
N(Total)           :      121.999868045290 electrons
E(X)               :      -86.063645676902 Eh       
E(C)               :       -4.994714070596 Eh       
E(XC)              :      -91.058359747498 Eh       
DFET-embed. en.    :        0.000000000000 Eh       
CPCM Solvation Model Properties:
Surface-charge          :            0.97164732
Charge-correction       :           -0.00344914 Eh              -0.09386 eV
Free-energy (cav+disp)  :  This term is not implemented in the current solvation scheme

---------------
SCF CONVERGENCE
---------------

  Last Energy change         ...   -3.6948e-11  Tolerance :   1.0000e-08
  Last MAX-Density change    ...    1.5543e-15  Tolerance :   1.0000e-07
  Last RMS-Density change    ...    1.5106e-17  Tolerance :   5.0000e-09
  Last Orbital Gradient      ...    7.9978e-07  Tolerance :   1.0000e-05
  Last Orbital Rotation      ...    2.4992e-06  Tolerance :   1.0000e-05

             **** THE GBW FILE WAS UPDATED (/home/rudenko/mop_saddle_orca_4_serv/for_orca/m-o2nc6h4chno2ch3_oh/orca/orca_start/start.gbw) ****
             **** DENSITY /home/rudenko/mop_saddle_orca_4_serv/for_orca/m-o2nc6h4chno2ch3_oh/orca/orca_start/start.scfp WAS UPDATED ****
             **** ENERGY FILE WAS UPDATED (/home/rudenko/mop_saddle_orca_4_serv/for_orca/m-o2nc6h4chno2ch3_oh/orca/orca_start/start.en.tmp) ****
             **** THE GBW FILE WAS UPDATED (/home/rudenko/mop_saddle_orca_4_serv/for_orca/m-o2nc6h4chno2ch3_oh/orca/orca_start/start.gbw) ****
             **** DENSITY /home/rudenko/mop_saddle_orca_4_serv/for_orca/m-o2nc6h4chno2ch3_oh/orca/orca_start/start.scfp WAS UPDATED ****
----------------
ORBITAL ENERGIES
----------------

  NO   OCC          E(Eh)            E(eV) 
   0   2.0000     -19.169036      -521.6160 
   1   2.0000     -19.166665      -521.5515 
   2   2.0000     -19.166168      -521.5379 
   3   2.0000     -19.165115      -521.5093 
   4   2.0000     -19.130625      -520.5708 
   5   2.0000     -18.966197      -516.0965 
   6   2.0000     -14.561213      -396.2308 
   7   2.0000     -14.554173      -396.0392 
   8   2.0000     -10.241360      -278.6816 
   9   2.0000     -10.237345      -278.5723 
  10   2.0000     -10.206763      -277.7401 
  11   2.0000     -10.205093      -277.6947 
  12   2.0000     -10.203492      -277.6511 
  13   2.0000     -10.199695      -277.5478 
  14   2.0000     -10.194220      -277.3988 
  15   2.0000     -10.175225      -276.8820 
  16   2.0000      -1.243650       -33.8414 
  17   2.0000      -1.242688       -33.8153 
  18   2.0000      -1.064289       -28.9608 
  19   2.0000      -1.062906       -28.9231 
  20   2.0000      -1.016150       -27.6508 
  21   2.0000      -0.898980       -24.4625 
  22   2.0000      -0.851720       -23.1765 
  23   2.0000      -0.834557       -22.7095 
  24   2.0000      -0.808922       -22.0119 
  25   2.0000      -0.763377       -20.7725 
  26   2.0000      -0.715370       -19.4662 
  27   2.0000      -0.698343       -19.0029 
  28   2.0000      -0.641947       -17.4683 
  29   2.0000      -0.604764       -16.4565 
  30   2.0000      -0.588253       -16.0072 
  31   2.0000      -0.570338       -15.5197 
  32   2.0000      -0.555154       -15.1065 
  33   2.0000      -0.549566       -14.9544 
  34   2.0000      -0.531001       -14.4493 
  35   2.0000      -0.529677       -14.4133 
  36   2.0000      -0.528878       -14.3915 
  37   2.0000      -0.521280       -14.1847 
  38   2.0000      -0.508209       -13.8291 
  39   2.0000      -0.481446       -13.1008 
  40   2.0000      -0.457084       -12.4379 
  41   2.0000      -0.450440       -12.2571 
  42   2.0000      -0.415568       -11.3082 
  43   2.0000      -0.402485       -10.9522 
  44   2.0000      -0.395045       -10.7497 
  45   2.0000      -0.392296       -10.6749 
  46   2.0000      -0.389680       -10.6037 
  47   2.0000      -0.369256       -10.0480 
  48   2.0000      -0.363080        -9.8799 
  49   2.0000      -0.335962        -9.1420 
  50   2.0000      -0.331669        -9.0252 
  51   2.0000      -0.328748        -8.9457 
  52   2.0000      -0.328063        -8.9270 
  53   2.0000      -0.323072        -8.7912 
  54   2.0000      -0.312845        -8.5129 
  55   2.0000      -0.305361        -8.3093 
  56   2.0000      -0.300663        -8.1815 
  57   2.0000      -0.281363        -7.6563 
  58   2.0000      -0.273105        -7.4316 
  59   2.0000      -0.185803        -5.0560 
  60   2.0000      -0.185770        -5.0550 
  61   0.0000      -0.105309        -2.8656 
  62   0.0000      -0.080421        -2.1884 
  63   0.0000      -0.034737        -0.9452 
  64   0.0000      -0.009673        -0.2632 
  65   0.0000       0.029610         0.8057 
  66   0.0000       0.056121         1.5271 
  67   0.0000       0.063956         1.7403 
  68   0.0000       0.088770         2.4156 
  69   0.0000       0.094735         2.5779 
  70   0.0000       0.098652         2.6845 
  71   0.0000       0.104641         2.8474 
  72   0.0000       0.107862         2.9351 
  73   0.0000       0.120576         3.2810 
  74   0.0000       0.124929         3.3995 
  75   0.0000       0.133761         3.6398 
  76   0.0000       0.143900         3.9157 
  77   0.0000       0.148576         4.0429 
  78   0.0000       0.162633         4.4255 
  79   0.0000       0.170709         4.6452 
  80   0.0000       0.177870         4.8401 
  81   0.0000       0.184371         5.0170 
  82   0.0000       0.188842         5.1387 
  83   0.0000       0.195490         5.3196 
  84   0.0000       0.205874         5.6021 
  85   0.0000       0.219371         5.9694 
  86   0.0000       0.227570         6.1925 
  87   0.0000       0.228934         6.2296 
  88   0.0000       0.240375         6.5409 
  89   0.0000       0.244723         6.6592 
  90   0.0000       0.251287         6.8379 
  91   0.0000       0.257647         7.0109 
  92   0.0000       0.270826         7.3696 
  93   0.0000       0.273739         7.4488 
  94   0.0000       0.289413         7.8753 
  95   0.0000       0.301020         8.1912 
  96   0.0000       0.308079         8.3832 
  97   0.0000       0.314168         8.5489 
  98   0.0000       0.318011         8.6535 
  99   0.0000       0.329324         8.9614 
 100   0.0000       0.329475         8.9655 
 101   0.0000       0.335686         9.1345 
 102   0.0000       0.343990         9.3604 
 103   0.0000       0.355641         9.6775 
 104   0.0000       0.368113        10.0169 
 105   0.0000       0.372893        10.1469 
 106   0.0000       0.377797        10.2804 
 107   0.0000       0.383562        10.4372 
 108   0.0000       0.392183        10.6718 
 109   0.0000       0.396361        10.7855 
 110   0.0000       0.405796        11.0423 
 111   0.0000       0.411270        11.1912 
 112   0.0000       0.413499        11.2519 
 113   0.0000       0.416713        11.3393 
 114   0.0000       0.423147        11.5144 
 115   0.0000       0.431117        11.7313 
 116   0.0000       0.438873        11.9423 
 117   0.0000       0.441474        12.0131 
 118   0.0000       0.445659        12.1270 
 119   0.0000       0.450383        12.2555 
 120   0.0000       0.455492        12.3946 
 121   0.0000       0.459970        12.5164 
 122   0.0000       0.464061        12.6277 
 123   0.0000       0.471040        12.8176 
 124   0.0000       0.478305        13.0153 
 125   0.0000       0.479403        13.0452 
 126   0.0000       0.483664        13.1612 
 127   0.0000       0.488459        13.2916 
 128   0.0000       0.490830        13.3562 
 129   0.0000       0.497494        13.5375 
 130   0.0000       0.504938        13.7401 
 131   0.0000       0.511453        13.9174 
 132   0.0000       0.519162        14.1271 
 133   0.0000       0.528232        14.3739 
 134   0.0000       0.535964        14.5843 
 135   0.0000       0.552814        15.0428 
 136   0.0000       0.555399        15.1132 
 137   0.0000       0.570177        15.5153 
 138   0.0000       0.572742        15.5851 
 139   0.0000       0.583210        15.8699 
 140   0.0000       0.589386        16.0380 
 141   0.0000       0.597421        16.2566 
 142   0.0000       0.608873        16.5683 
 143   0.0000       0.612874        16.6771 
 144   0.0000       0.626093        17.0369 
 145   0.0000       0.633378        17.2351 
 146   0.0000       0.640704        17.4344 
 147   0.0000       0.644781        17.5454 
 148   0.0000       0.653228        17.7752 
 149   0.0000       0.661609        18.0033 
 150   0.0000       0.670287        18.2394 
 151   0.0000       0.682917        18.5831 
 152   0.0000       0.697938        18.9919 
 153   0.0000       0.700107        19.0509 
 154   0.0000       0.716544        19.4982 
 155   0.0000       0.729144        19.8410 
 156   0.0000       0.736516        20.0416 
 157   0.0000       0.740814        20.1586 
 158   0.0000       0.743712        20.2374 
 159   0.0000       0.750005        20.4087 
 160   0.0000       0.769020        20.9261 
 161   0.0000       0.781534        21.2666 
 162   0.0000       0.795022        21.6336 
 163   0.0000       0.797712        21.7068 
 164   0.0000       0.802456        21.8359 
 165   0.0000       0.821951        22.3664 
 166   0.0000       0.826201        22.4821 
 167   0.0000       0.839744        22.8506 
 168   0.0000       0.857119        23.3234 
 169   0.0000       0.875666        23.8281 
 170   0.0000       0.884813        24.0770 
 171   0.0000       0.902199        24.5501 
 172   0.0000       0.914940        24.8968 
 173   0.0000       0.931428        25.3454 
 174   0.0000       0.951963        25.9042 
 175   0.0000       0.972679        26.4679 
 176   0.0000       0.977497        26.5991 
 177   0.0000       0.999751        27.2046 
 178   0.0000       1.001782        27.2599 
 179   0.0000       1.025506        27.9054 
 180   0.0000       1.039450        28.2849 
 181   0.0000       1.045732        28.4558 
 182   0.0000       1.057827        28.7849 
 183   0.0000       1.062249        28.9053 
 184   0.0000       1.091885        29.7117 
 185   0.0000       1.106353        30.1054 
 186   0.0000       1.108925        30.1754 
 187   0.0000       1.127791        30.6887 
 188   0.0000       1.143490        31.1159 
 189   0.0000       1.147505        31.2252 
 190   0.0000       1.166262        31.7356 
 191   0.0000       1.180689        32.1282 
 192   0.0000       1.196148        32.5489 
 193   0.0000       1.215440        33.0738 
 194   0.0000       1.218798        33.1652 
 195   0.0000       1.231245        33.5039 
 196   0.0000       1.247160        33.9370 
 197   0.0000       1.259573        34.2747 
 198   0.0000       1.271652        34.6034 
 199   0.0000       1.273307        34.6484 
 200   0.0000       1.280226        34.8367 
 201   0.0000       1.287778        35.0422 
 202   0.0000       1.304739        35.5037 
 203   0.0000       1.312245        35.7080 
 204   0.0000       1.343356        36.5546 
 205   0.0000       1.357215        36.9317 
 206   0.0000       1.371749        37.3272 
 207   0.0000       1.384152        37.6647 
 208   0.0000       1.387147        37.7462 
 209   0.0000       1.401939        38.1487 
 210   0.0000       1.409044        38.3420 
 211   0.0000       1.411943        38.4209 
 212   0.0000       1.418077        38.5878 
 213   0.0000       1.430635        38.9296 
 214   0.0000       1.443152        39.2702 
 215   0.0000       1.460876        39.7524 
 216   0.0000       1.474780        40.1308 
 217   0.0000       1.483352        40.3641 
 218   0.0000       1.510417        41.1005 
 219   0.0000       1.518213        41.3127 
 220   0.0000       1.524619        41.4870 
 221   0.0000       1.536923        41.8218 
 222   0.0000       1.550543        42.1924 
 223   0.0000       1.560067        42.4516 
 224   0.0000       1.567275        42.6477 
 225   0.0000       1.580384        43.0044 
 226   0.0000       1.590941        43.2917 
 227   0.0000       1.591426        43.3049 
 228   0.0000       1.595372        43.4123 
 229   0.0000       1.597694        43.4755 
 230   0.0000       1.616774        43.9947 
 231   0.0000       1.618026        44.0287 
 232   0.0000       1.625800        44.2403 
 233   0.0000       1.631834        44.4045 
 234   0.0000       1.636864        44.5413 
 235   0.0000       1.653318        44.9891 
 236   0.0000       1.665954        45.3329 
 237   0.0000       1.682481        45.7826 
 238   0.0000       1.689823        45.9824 
 239   0.0000       1.702163        46.3182 
 240   0.0000       1.703496        46.3545 
 241   0.0000       1.717166        46.7265 
 242   0.0000       1.726026        46.9676 
 243   0.0000       1.739324        47.3294 
 244   0.0000       1.751302        47.6553 
 245   0.0000       1.754909        47.7535 
 246   0.0000       1.775696        48.3191 
 247   0.0000       1.780084        48.4386 
 248   0.0000       1.806064        49.1455 
 249   0.0000       1.814130        49.3650 
 250   0.0000       1.834133        49.9093 
 251   0.0000       1.844398        50.1886 
 252   0.0000       1.856650        50.5220 
 253   0.0000       1.890130        51.4331 
 254   0.0000       1.894698        51.5574 
 255   0.0000       1.903826        51.8057 
 256   0.0000       1.931287        52.5530 
 257   0.0000       1.934405        52.6378 
 258   0.0000       1.951283        53.0971 
 259   0.0000       1.954931        53.1964 
 260   0.0000       1.963769        53.4369 
 261   0.0000       1.985496        54.0281 
 262   0.0000       2.013202        54.7820 
 263   0.0000       2.026231        55.1366 
 264   0.0000       2.032252        55.3004 
 265   0.0000       2.047453        55.7140 
 266   0.0000       2.056237        55.9531 
 267   0.0000       2.065276        56.1990 
 268   0.0000       2.069476        56.3133 
 269   0.0000       2.093175        56.9582 
 270   0.0000       2.094863        57.0041 
 271   0.0000       2.115984        57.5789 
 272   0.0000       2.121254        57.7223 
 273   0.0000       2.135668        58.1145 
 274   0.0000       2.141469        58.2723 
 275   0.0000       2.150184        58.5095 
 276   0.0000       2.158360        58.7320 
 277   0.0000       2.174658        59.1754 
 278   0.0000       2.184740        59.4498 
 279   0.0000       2.200200        59.8705 
 280   0.0000       2.211279        60.1720 
 281   0.0000       2.219593        60.3982 
 282   0.0000       2.229704        60.6733 
 283   0.0000       2.242997        61.0350 
 284   0.0000       2.245234        61.0959 
 285   0.0000       2.254017        61.3349 
 286   0.0000       2.265697        61.6527 
 287   0.0000       2.276076        61.9352 
 288   0.0000       2.302261        62.6477 
 289   0.0000       2.316791        63.0431 
 290   0.0000       2.331185        63.4348 
 291   0.0000       2.342837        63.7518 
 292   0.0000       2.356818        64.1323 
 293   0.0000       2.378670        64.7269 
 294   0.0000       2.408815        65.5472 
 295   0.0000       2.427807        66.0640 
 296   0.0000       2.437292        66.3221 
 297   0.0000       2.447211        66.5920 
 298   0.0000       2.461042        66.9684 
 299   0.0000       2.474537        67.3356 
 300   0.0000       2.476631        67.3925 
 301   0.0000       2.508170        68.2508 
 302   0.0000       2.523491        68.6677 
 303   0.0000       2.535846        69.0039 
 304   0.0000       2.543415        69.2098 
 305   0.0000       2.556757        69.5729 
 306   0.0000       2.565530        69.8116 
 307   0.0000       2.575398        70.0801 
 308   0.0000       2.583843        70.3099 
 309   0.0000       2.598129        70.6987 
 310   0.0000       2.601166        70.7813 
 311   0.0000       2.603840        70.8541 
 312   0.0000       2.623191        71.3807 
 313   0.0000       2.630625        71.5829 
 314   0.0000       2.634535        71.6893 
 315   0.0000       2.638531        71.7981 
 316   0.0000       2.649750        72.1034 
 317   0.0000       2.667034        72.5737 
 318   0.0000       2.675558        72.8056 
 319   0.0000       2.687788        73.1384 
 320   0.0000       2.699289        73.4514 
 321   0.0000       2.711512        73.7840 
 322   0.0000       2.721092        74.0447 
 323   0.0000       2.723676        74.1150 
 324   0.0000       2.728962        74.2588 
 325   0.0000       2.732242        74.3481 
 326   0.0000       2.738312        74.5133 
 327   0.0000       2.747858        74.7730 
 328   0.0000       2.758375        75.0592 
 329   0.0000       2.768387        75.3316 
 330   0.0000       2.783252        75.7361 
 331   0.0000       2.793368        76.0114 
 332   0.0000       2.805869        76.3516 
 333   0.0000       2.809396        76.4476 
 334   0.0000       2.833902        77.1144 
 335   0.0000       2.840875        77.3041 
 336   0.0000       2.850777        77.5736 
 337   0.0000       2.863465        77.9188 
 338   0.0000       2.885799        78.5266 
 339   0.0000       2.894748        78.7701 
 340   0.0000       2.913972        79.2932 
 341   0.0000       2.930017        79.7298 
 342   0.0000       2.942706        80.0751 
 343   0.0000       2.953702        80.3743 
 344   0.0000       2.957607        80.4806 
 345   0.0000       2.970578        80.8335 
 346   0.0000       2.977447        81.0204 
 347   0.0000       2.984562        81.2140 
 348   0.0000       3.008327        81.8607 
 349   0.0000       3.033177        82.5369 
 350   0.0000       3.038252        82.6750 
 351   0.0000       3.062716        83.3407 
 352   0.0000       3.068059        83.4861 
 353   0.0000       3.080252        83.8179 
 354   0.0000       3.084088        83.9223 
 355   0.0000       3.096572        84.2620 
 356   0.0000       3.105029        84.4921 
 357   0.0000       3.126447        85.0749 
 358   0.0000       3.132034        85.2270 
 359   0.0000       3.142571        85.5137 
 360   0.0000       3.164884        86.1209 
 361   0.0000       3.174283        86.3766 
 362   0.0000       3.183074        86.6158 
 363   0.0000       3.196733        86.9875 
 364   0.0000       3.201663        87.1217 
 365   0.0000       3.221971        87.6743 
 366   0.0000       3.234256        88.0086 
 367   0.0000       3.237921        88.1083 
 368   0.0000       3.248629        88.3997 
 369   0.0000       3.259021        88.6825 
 370   0.0000       3.270918        89.0062 
 371   0.0000       3.285647        89.4070 
 372   0.0000       3.291284        89.5604 
 373   0.0000       3.302135        89.8557 
 374   0.0000       3.317254        90.2671 
 375   0.0000       3.334135        90.7264 
 376   0.0000       3.338741        90.8518 
 377   0.0000       3.351146        91.1893 
 378   0.0000       3.371572        91.7451 
 379   0.0000       3.382499        92.0425 
 380   0.0000       3.395552        92.3977 
 381   0.0000       3.401340        92.5552 
 382   0.0000       3.404807        92.6495 
 383   0.0000       3.431373        93.3724 
 384   0.0000       3.461850        94.2017 
 385   0.0000       3.475739        94.5797 
 386   0.0000       3.477760        94.6347 
 387   0.0000       3.488020        94.9138 
 388   0.0000       3.512316        95.5750 
 389   0.0000       3.545755        96.4849 
 390   0.0000       3.554946        96.7350 
 391   0.0000       3.576108        97.3108 
 392   0.0000       3.598685        97.9252 
 393   0.0000       3.633742        98.8791 
 394   0.0000       3.637732        98.9877 
 395   0.0000       3.678284       100.0912 
 396   0.0000       3.696707       100.5925 
 397   0.0000       3.711421       100.9929 
 398   0.0000       3.721738       101.2736 
 399   0.0000       3.725063       101.3641 
 400   0.0000       3.734549       101.6222 
 401   0.0000       3.752466       102.1098 
 402   0.0000       3.762584       102.3851 
 403   0.0000       3.799134       103.3797 
 404   0.0000       3.805446       103.5514 
 405   0.0000       3.844427       104.6122 
 406   0.0000       3.860794       105.0576 
 407   0.0000       3.913075       106.4802 
 408   0.0000       3.924094       106.7800 
 409   0.0000       3.941148       107.2441 
 410   0.0000       3.946969       107.4025 
 411   0.0000       3.956204       107.6538 
 412   0.0000       3.977216       108.2255 
 413   0.0000       3.987692       108.5106 
 414   0.0000       3.991144       108.6045 
 415   0.0000       4.017417       109.3195 
 416   0.0000       4.036160       109.8295 
 417   0.0000       4.053225       110.2939 
 418   0.0000       4.070680       110.7688 
 419   0.0000       4.076827       110.9361 
 420   0.0000       4.092924       111.3741 
 421   0.0000       4.133858       112.4880 
 422   0.0000       4.145903       112.8158 
 423   0.0000       4.163915       113.3059 
 424   0.0000       4.166769       113.3836 
 425   0.0000       4.207386       114.4888 
 426   0.0000       4.213210       114.6473 
 427   0.0000       4.236847       115.2905 
 428   0.0000       4.247254       115.5736 
 429   0.0000       4.265305       116.0649 
 430   0.0000       4.281578       116.5077 
 431   0.0000       4.306738       117.1923 
 432   0.0000       4.314508       117.4037 
 433   0.0000       4.327584       117.7596 
 434   0.0000       4.366936       118.8304 
 435   0.0000       4.466624       121.5430 
 436   0.0000       4.482359       121.9712 
 437   0.0000       4.505246       122.5940 
 438   0.0000       4.522937       123.0754 
 439   0.0000       4.558866       124.0531 
 440   0.0000       4.574936       124.4903 
 441   0.0000       4.594717       125.0286 
 442   0.0000       4.599534       125.1597 
 443   0.0000       4.631528       126.0303 
 444   0.0000       4.650390       126.5435 
 445   0.0000       4.665860       126.9645 
 446   0.0000       4.708993       128.1382 
 447   0.0000       4.732180       128.7692 
 448   0.0000       4.738830       128.9501 
 449   0.0000       4.748355       129.2093 
 450   0.0000       4.777128       129.9922 
 451   0.0000       4.789259       130.3224 
 452   0.0000       4.808234       130.8387 
 453   0.0000       4.817688       131.0959 
 454   0.0000       4.876230       132.6890 
 455   0.0000       4.911717       133.6546 
 456   0.0000       4.923945       133.9874 
 457   0.0000       4.956417       134.8710 
 458   0.0000       4.990790       135.8063 
 459   0.0000       5.016508       136.5061 
 460   0.0000       5.024782       136.7313 
 461   0.0000       5.068080       137.9095 
 462   0.0000       5.092512       138.5743 
 463   0.0000       5.096310       138.6776 
 464   0.0000       5.100598       138.7943 
 465   0.0000       5.117884       139.2647 
 466   0.0000       5.119070       139.2970 
 467   0.0000       5.133619       139.6929 
 468   0.0000       5.134504       139.7170 
 469   0.0000       5.139307       139.8477 
 470   0.0000       5.149244       140.1181 
 471   0.0000       5.188433       141.1844 
 472   0.0000       5.197061       141.4192 
 473   0.0000       5.229112       142.2914 
 474   0.0000       5.245486       142.7369 
 475   0.0000       5.245837       142.7465 
 476   0.0000       5.246179       142.7558 
 477   0.0000       5.269279       143.3844 
 478   0.0000       5.280073       143.6781 
 479   0.0000       5.280681       143.6946 
 480   0.0000       5.280743       143.6963 
 481   0.0000       5.300671       144.2386 
 482   0.0000       5.337699       145.2462 
 483   0.0000       5.364734       145.9818 
 484   0.0000       5.387086       146.5901 
 485   0.0000       5.400802       146.9633 
 486   0.0000       5.407365       147.1419 
 487   0.0000       5.424772       147.6156 
 488   0.0000       5.436768       147.9420 
 489   0.0000       5.436993       147.9481 
 490   0.0000       5.484713       149.2466 
 491   0.0000       5.504356       149.7811 
 492   0.0000       5.586250       152.0096 
 493   0.0000       5.595285       152.2554 
 494   0.0000       5.603482       152.4785 
 495   0.0000       5.636178       153.3682 
 496   0.0000       5.642412       153.5378 
 497   0.0000       5.648340       153.6991 
 498   0.0000       5.722423       155.7150 
 499   0.0000       5.760494       156.7510 
 500   0.0000       5.832906       158.7214 
 501   0.0000       5.964947       162.3144 
 502   0.0000       5.971037       162.4802 
 503   0.0000       6.020785       163.8339 
 504   0.0000       6.232040       169.5824 
 505   0.0000       6.241362       169.8361 
 506   0.0000       6.259944       170.3417 
 507   0.0000       6.262373       170.4078 
[...]
  16   C   :   -0.000101061    0.000509946   -0.001083844
  17   H   :    0.001345155    0.000133296    0.000514294
  18   H   :   -0.000107460   -0.000173292   -0.000579069
  19   H   :   -0.001159494   -0.000833925    0.001395995
  20   N   :    0.000744500   -0.000770134   -0.000345767
  21   O   :   -0.001143016    0.000613743    0.000260219
  22   O   :    0.000205505    0.000086831   -0.000014695
  23   O   :    0.000788548    0.000080443   -0.000711420
  24   H   :   -0.000472114   -0.000456594   -0.000292666
  25   H   :    0.003366424   -0.000019243   -0.000970832
  26   H   :   -0.000275803    0.000038697    0.001377603
  27   O   :   -0.003610604   -0.000420246    0.000980861

Difference to translation invariance:
           :    0.0000693866   -0.0000434518   -0.0000195562

Difference to rotation invariance:
           :    0.0014606458   -0.0005514029   -0.0017295878

Norm of the cartesian gradient     ...    0.0125732370
RMS gradient                       ...    0.0013970263
MAX gradient                       ...    0.0055476684

-------
TIMINGS
-------

Total SCF gradient time            ...        7.899 sec

One electron gradient       ....       0.140 sec  (  1.8%)
RI-J Coulomb gradient       ....       0.674 sec  (  8.5%)
COSX gradient               ....       2.619 sec  ( 33.2%)
XC gradient                 ....       0.988 sec  ( 12.5%)
CPCM gradient               ....       0.370 sec  (  4.7%)
   A-Matrix (El+Nuc)        ....       0.202 sec  (  2.6%)
   Potential                ....       0.168 sec  (  2.1%)

Maximum memory used throughout the entire SCFGRAD-calculation: 80.7 MB
------------------------------------------------------------------------------
                         ORCA GEOMETRY RELAXATION STEP
------------------------------------------------------------------------------

Reading the OPT-File                    .... done
Getting information on internals        .... done
Copying old internal coords+grads       .... done
Making the new internal coordinates     .... (new redundants).... done
Validating the new internal coordinates .... (new redundants).... done
Calculating the B-matrix                .... done
Calculating the G,G- and P matrices     .... done
Transforming gradient to internals      .... done
Projecting the internal gradient        .... done
Number of atoms                         ....  27
Number of internal coordinates          .... 148
Current Energy                          ....  -872.242322369 Eh
Current gradient norm                   ....     0.012573237 Eh/bohr
Maximum allowed component of the step   ....  0.300
Current trust radius                    ....  0.300
Updating the Hessian (BFGS)             .... done
Forming the augmented Hessian           .... done
Diagonalizing the augmented Hessian     .... done
Last element of RFO vector              ....  0.987367176
Lowest eigenvalues of augmented Hessian:
 -0.000388255  0.000885269  0.001915286  0.003420427  0.004418779
Length of the computed step             ....  0.160476183
The final length of the internal step   ....  0.160476183
Converting the step to cartesian space:
 Initial RMS(Int)=    0.0131910610
Transforming coordinates:
 Iter   0:  RMS(Cart)=    0.0222292944 RMS(Int)=    1.1537619517
 Iter   1:  RMS(Cart)=    0.0026533388 RMS(Int)=    0.0015931973
 Iter   2:  RMS(Cart)=    0.0013014401 RMS(Int)=    0.0007961460
 Iter   3:  RMS(Cart)=    0.0006553085 RMS(Int)=    0.0004019956
 Iter   4:  RMS(Cart)=    0.0003305812 RMS(Int)=    0.0002028165
 Iter   5:  RMS(Cart)=    0.0001666917 RMS(Int)=    0.0001022721
 Iter   6:  RMS(Cart)=    0.0000840299 RMS(Int)=    0.0000515568
 Iter   7:  RMS(Cart)=    0.0000423536 RMS(Int)=    0.0000259864
 Iter   8:  RMS(Cart)=    0.0000213458 RMS(Int)=    0.0000130970
 Iter   9:  RMS(Cart)=    0.0000107577 RMS(Int)=    0.0000066005
 Iter  10:  RMS(Cart)=    0.0000054214 RMS(Int)=    0.0000033264
 Iter  11:  RMS(Cart)=    0.0000027322 RMS(Int)=    0.0000016763
 Iter  12:  RMS(Cart)=    0.0000013769 RMS(Int)=    0.0000008448
 Iter  13:  RMS(Cart)=    0.0000006939 RMS(Int)=    0.0000004257
 Iter  14:  RMS(Cart)=    0.0000003497 RMS(Int)=    0.0000002145
 Iter  15:  RMS(Cart)=    0.0000001762 RMS(Int)=    0.0000001081
 Iter  16:  RMS(Cart)=    0.0000000888 RMS(Int)=    0.0000000545
done
Storing new coordinates                 .... done

                                .--------------------.
          ----------------------|Geometry convergence|-------------------------
          Item                value                   Tolerance       Converged
          ---------------------------------------------------------------------
          Energy change      -0.0003021278            0.0000050000      NO
          RMS gradient        0.0006907550            0.0001000000      NO
          MAX gradient        0.0043293999            0.0003000000      NO
          RMS step            0.0131910610            0.0020000000      NO
          MAX step            0.0789908407            0.0040000000      NO
          ........................................................
          Max(Bonds)      0.0077      Max(Angles)    4.53
          Max(Dihed)        2.56      Max(Improp)    0.00
          ---------------------------------------------------------------------

The optimization has not yet converged - more geometry cycles are needed


    ---------------------------------------------------------------------------
                         Redundant Internal Coordinates
                            (Angstroem and degrees)

        Definition                    Value    dE/dq     Step     New-Value
    ----------------------------------------------------------------------------
     1. B(C   1,C   0)                1.3920  0.001129 -0.0020    1.3900   
     2. B(C   2,C   1)                1.4009  0.003444 -0.0075    1.3933   
     3. B(C   3,C   2)                1.3845 -0.004329  0.0077    1.3922   
     4. B(C   4,C   3)                1.3872 -0.000446  0.0003    1.3875   
     5. B(C   5,C   4)                1.3874 -0.000539  0.0031    1.3906   
     6. B(C   5,C   0)                1.3894  0.001555 -0.0037    1.3857   
     7. B(H   6,C   0)                1.0791 -0.001680  0.0038    1.0829   
     8. B(H   7,C   1)                1.0837  0.000877 -0.0005    1.0831   
     9. B(H   8,C   3)                1.0815  0.001515 -0.0007    1.0807   
    10. B(H   9,C   5)                1.0796  0.000291 -0.0008    1.0789   
    11. B(N  10,C   4)                1.4677  0.000400 -0.0023    1.4654   
    12. B(O  11,N  10)                1.2241 -0.000679  0.0008    1.2249   
    13. B(O  12,N  10)                1.2252  0.000316 -0.0005    1.2247   
    14. B(C  13,C   2)                1.5076 -0.000161 -0.0005    1.5070   
    15. B(H  14,C  13)                1.1175  0.000478 -0.0015    1.1161   
    16. B(C  15,C  13)                1.5187  0.000327 -0.0018    1.5169   
    17. B(H  16,C  15)                1.0897  0.001451 -0.0032    1.0865   
    18. B(H  17,C  15)                1.0914  0.000564 -0.0020    1.0894   
    19. B(H  18,C  15)                1.0932  0.001986 -0.0048    1.0885   
    20. B(N  19,C  13)                1.5186 -0.000054  0.0020    1.5206   
    21. B(O  20,N  19)                1.2210 -0.001274  0.0028    1.2238   
    22. B(O  21,N  19)                1.2241 -0.000014  0.0004    1.2245   
    23. B(H  23,O  22)                0.9631 -0.000227  0.0002    0.9634   
    24. B(H  24,H  14)                2.3006 -0.000429  0.0059    2.3065   
    25. B(H  24,H   7)                2.3223 -0.000050 -0.0051    2.3172   
    26. B(H  25,O  22)                1.0391 -0.000464 -0.0008    1.0384   
    27. B(O  26,H  25)                1.5100 -0.000086  0.0059    1.5159   
    28. B(O  26,H  14)                1.8656  0.000475  0.0003    1.8659   
    29. B(O  26,H  24)                0.9601 -0.002454  0.0065    0.9666   
    30. A(C   5,C   0,H   6)          119.74  0.000554   -0.03    119.70   
    31. A(C   1,C   0,H   6)          120.22  0.000835   -0.16    120.06   
    32. A(C   1,C   0,C   5)          120.04 -0.001391    0.21    120.26   
    33. A(C   2,C   1,H   7)          119.01 -0.000225   -0.18    118.83   
    34. A(C   0,C   1,C   2)          121.03 -0.000143    0.04    121.07   
    35. A(C   0,C   1,H   7)          119.96  0.000368    0.15    120.11   
    36. A(C   1,C   2,C   3)          119.03  0.000195    0.11    119.15   
    37. A(C   3,C   2,C  13)          121.17  0.000139    0.09    121.26   
    38. A(C   1,C   2,C  13)          119.78 -0.000340   -0.17    119.61   
    39. A(C   2,C   3,C   4)          119.16  0.000427   -0.20    118.96   
    40. A(C   2,C   3,H   8)          121.25 -0.000527    0.31    121.56   
    41. A(C   4,C   3,H   8)          119.58  0.000099   -0.10    119.48   
    42. A(C   3,C   4,N  10)          118.53 -0.000601    0.22    118.75   
    43. A(C   3,C   4,C   5)          122.60  0.000952   -0.19    122.41   
    44. A(C   5,C   4,N  10)          118.87 -0.000352   -0.03    118.84   
    45. A(C   4,C   5,H   9)          120.30 -0.000184   -0.05    120.25   
    46. A(C   0,C   5,H   9)          121.58  0.000228    0.01    121.58   
    47. A(C   0,C   5,C   4)          118.12 -0.000045    0.05    118.17   
    48. A(C   1,H   7,H  24)          133.73 -0.000475    1.49    135.22   
    49. A(O  11,N  10,O  12)          123.33 -0.000625    0.17    123.51   
    50. A(C   4,N  10,O  12)          118.37  0.000422   -0.05    118.32   
    51. A(C   4,N  10,O  11)          118.30  0.000203   -0.06    118.24   
    52. A(C   2,C  13,N  19)          109.88 -0.000021   -0.04    109.83   
    53. A(H  14,C  13,C  15)          108.77 -0.000157    0.53    109.31   
    54. A(C   2,C  13,C  15)          114.85 -0.000174    0.19    115.03   
    55. A(C   2,C  13,H  14)          108.68  0.000087   -0.45    108.23   
    56. A(C  15,C  13,N  19)          111.19  0.000200   -0.16    111.03   
    57. A(H  14,C  13,N  19)          102.75  0.000091   -0.08    102.67   
    58. A(H  24,H  14,O  26)           23.84 -0.000606   -0.23     23.61   
    59. A(C  13,H  14,O  26)          164.71 -0.000424    0.49    165.20   
    60. A(C  13,H  14,H  24)          146.85  0.000261    0.61    147.47   
    61. A(H  17,C  15,H  18)          108.56  0.000179   -0.06    108.50   
    62. A(H  16,C  15,H  18)          108.36  0.000047    0.02    108.38   
    63. A(C  13,C  15,H  18)          107.77 -0.000130    0.05    107.83   
    64. A(H  16,C  15,H  17)          108.88  0.000120   -0.07    108.81   
    65. A(C  13,C  15,H  17)          112.30 -0.000325    0.08    112.38   
    66. A(C  13,C  15,H  16)          110.86  0.000120   -0.03    110.84   
    67. A(O  20,N  19,O  21)          123.36 -0.000297    0.03    123.38   
    68. A(C  13,N  19,O  21)          118.09  0.000139   -0.03    118.07   
    69. A(C  13,N  19,O  20)          118.42  0.000139    0.04    118.45   
    70. A(H  23,O  22,H  25)          104.95 -0.001189    1.19    106.14   
    71. A(H   7,H  24,H  14)           59.39  0.000403   -0.54     58.85   
    72. A(H  14,H  24,O  26)           51.76  0.000146   -0.51     51.25   
    73. A(H   7,H  24,O  26)          104.99  0.000607   -2.27    102.72   
    74. L(O  22,H  25,O  26,H  23, 2) 184.61  0.000157   -4.53    180.08   
    75. L(O  22,H  25,O  26,H  23, 1) 183.24  0.000756   -1.44    181.79   
    76. A(H  14,O  26,H  25)          130.04 -0.000153   -0.14    129.90   
    77. A(H  24,O  26,H  25)          110.14 -0.000116    0.22    110.36   
    78. A(H  14,O  26,H  24)          104.39  0.000460    0.74    105.13   
    79. D(H   7,C   1,C   0,H   6)      0.66  0.000148   -0.32      0.34   
    80. D(H   7,C   1,C   0,C   5)   -179.94 -0.000122    0.30   -179.65   
    81. D(C   2,C   1,C   0,H   6)   -179.65  0.000176   -0.76   -180.40   
    82. D(C   2,C   1,C   0,C   5)     -0.25 -0.000094   -0.14     -0.39   
    83. D(C  13,C   2,C   1,H   7)      0.80  0.000102   -0.82     -0.02   
    84. D(C   3,C   2,C   1,C   0)     -0.49 -0.000171    0.86      0.36   
    85. D(C  13,C   2,C   1,C   0)   -178.90  0.000073   -0.39   -179.29   
    86. D(C   3,C   2,C   1,H   7)    179.21 -0.000142    0.43    179.63   
    87. D(H   8,C   3,C   2,C   1)   -179.78  0.000103   -0.46   -180.24   
    88. D(H   8,C   3,C   2,C  13)     -1.40 -0.000153    0.81     -0.59   
    89. D(C   4,C   3,C   2,C   1)      0.80  0.000263   -0.80     -0.00   
    90. D(C   4,C   3,C   2,C  13)    179.19  0.000007    0.47    179.65   
    91. D(N  10,C   4,C   3,C   2)    179.41 -0.000230    0.45    179.87   
    92. D(C   5,C   4,C   3,H   8)   -179.83  0.000063   -0.30   -180.12   
    93. D(C   5,C   4,C   3,C   2)     -0.41 -0.000098    0.04     -0.37   
    94. D(N  10,C   4,C   3,H   8)     -0.01 -0.000069    0.12      0.11   
    95. D(H   9,C   5,C   4,N  10)      0.32  0.000104   -0.19      0.13   
    96. D(C   0,C   5,C   4,N  10)    179.86 -0.000045    0.28    180.13   
    97. D(H   9,C   5,C   0,H   6)     -0.42 -0.000167    0.45      0.03   
    98. D(H   9,C   5,C   0,C   1)   -179.82  0.000099   -0.16   -179.99   
    99. D(C   0,C   5,C   4,C   3)     -0.33 -0.000179    0.69      0.36   
   100. D(H   9,C   5,C   4,C   3)   -179.87 -0.000030    0.22   -179.65   
   101. D(C   4,C   5,C   0,C   1)      0.64  0.000252   -0.62      0.03   
   102. D(C   4,C   5,C   0,H   6)   -179.95 -0.000014   -0.01   -179.96   
   103. D(H  24,H   7,C   1,C   2)    -54.21  0.000101    0.14    -54.08   
   104. D(H  24,H   7,C   1,C   0)    125.49  0.000129   -0.29    125.19   
   105. D(O  12,N  10,C   4,C   5)   -179.98 -0.000231   -0.04   -180.02   
   106. D(O  12,N  10,C   4,C   3)      0.20 -0.000106   -0.43     -0.24   
   107. D(O  11,N  10,C   4,C   5)      0.14  0.000022    0.19      0.32   
   108. D(O  11,N  10,C   4,C   3)   -179.69  0.000147   -0.21   -179.89   
   109. D(H  14,C  13,C   2,C   1)      9.82  0.000115   -0.05      9.77   
   110. D(N  19,C  13,C   2,C   3)     79.75  0.000222   -0.96     78.78   
   111. D(N  19,C  13,C   2,C   1)   -101.88 -0.000027    0.33   -101.56   
   112. D(C  15,C  13,C   2,C   3)    -46.48  0.000106   -0.85    -47.33   
   113. D(C  15,C  13,C   2,C   1)    131.89 -0.000143    0.44    132.33   
   114. D(H  14,C  13,C   2,C   3)   -168.55  0.000364   -1.34   -169.89   
   115. D(O  26,H  14,C  13,N  19)   -162.77 -0.000516   -0.24   -163.01   
   116. D(O  26,H  14,C  13,C  15)    -44.85 -0.000310   -0.24    -45.09   
   117. D(O  26,H  14,C  13,C   2)     80.84 -0.000573    0.04     80.89   
   118. D(H  24,H  14,C  13,N  19)    155.16  0.000291   -0.08    155.08   
   119. D(H  24,H  14,C  13,C  15)    -86.92  0.000497   -0.08    -87.00   
   120. D(H  24,H  14,C  13,C   2)     38.77  0.000234    0.21     38.98   
   121. D(H  18,C  15,C  13,N  19)    179.19  0.000074   -0.01    179.18   
   122. D(H  18,C  15,C  13,H  14)     66.75 -0.000052   -0.14     66.61   
   123. D(H  18,C  15,C  13,C   2)    -55.26  0.000074   -0.08    -55.34   
   124. D(H  17,C  15,C  13,N  19)    -61.29  0.000015    0.00    -61.29   
   125. D(H  17,C  15,C  13,H  14)   -173.73 -0.000112   -0.13   -173.85   
   126. D(H  17,C  15,C  13,C   2)     64.26  0.000015   -0.07     64.19   
   127. D(H  16,C  15,C  13,N  19)     60.75  0.000027   -0.05     60.70   
   128. D(H  16,C  15,C  13,H  14)    -51.68 -0.000099   -0.18    -51.86   
   129. D(H  16,C  15,C  13,C   2)   -173.70  0.000028   -0.12   -173.82   
   130. D(O  21,N  19,C  13,C  15)    158.82  0.000045    1.68    160.50   
   131. D(O  21,N  19,C  13,H  14)    -84.97  0.000000    2.18    -82.79   
   132. D(O  21,N  19,C  13,C   2)     30.55  0.000137    1.58     32.14   
   133. D(O  20,N  19,C  13,C  15)    -25.29 -0.000246    2.05    -23.23   
   134. D(O  20,N  19,C  13,H  14)     90.92 -0.000290    2.56     93.47   
   135. D(O  20,N  19,C  13,C   2)   -153.56 -0.000154    1.96   -151.60   
   136. D(H   7,H  24,H  14,O  26)    148.08  0.000309    0.92    149.00   
   137. D(H   7,H  24,H  14,C  13)    -57.84 -0.000677    0.22    -57.62   
   138. D(O  26,H  24,H  14,C  13)    154.08 -0.000986   -0.70    153.38   
   139. D(H  14,H  24,H   7,C   1)     60.62 -0.000076    0.31     60.93   
   140. D(O  26,H  24,H   7,C   1)     86.08 -0.000179    0.86     86.95   
   141. D(H  24,O  26,H  14,C  13)    -65.01 -0.000169   -0.77    -65.78   
   142. D(H  25,O  26,H  24,H  14)    143.28  0.000118    0.06    143.33   
   143. D(H  25,O  26,H  24,H   7)    115.17  0.000169    0.20    115.36   
   144. D(H  14,O  26,H  24,H   7)    -28.11  0.000051    0.14    -27.97   
   145. D(H  14,O  26,O  22,H  23)   -175.69  0.000024    1.72   -173.96   
   146. D(H  24,O  26,O  22,H  23)     52.88 -0.000342    2.26     55.14   
   147. D(H  25,O  26,H  14,H  24)   -132.84 -0.000263    0.26   -132.58   
   148. D(H  25,O  26,H  14,C  13)    162.15 -0.000433   -0.51    161.64   
    ----------------------------------------------------------------------------




    ----------------------------------------------------------------------------
                                  WARNING !!!
       The optimization did not converge but reached the maximum number of
       optimization cycles.
       Please check your results very carefully.
    ----------------------------------------------------------------------------



                            ***************************************
                            *     ORCA property calculations      *
                            ***************************************

                                    ---------------------
                                    Active property flags
                                    ---------------------
   (+) Dipole Moment


------------------------------------------------------------------------------
                       ORCA ELECTRIC PROPERTIES CALCULATION
------------------------------------------------------------------------------

Dipole Moment Calculation                       ... on
Quadrupole Moment Calculation                   ... off
Polarizability Calculation                      ... off
GBWName                                         ... /home/rudenko/mop_saddle_orca_4_serv/for_orca/m-o2nc6h4chno2ch3_oh/orca/orca_start/start.gbw
Electron density                                ... /home/rudenko/mop_saddle_orca_4_serv/for_orca/m-o2nc6h4chno2ch3_oh/orca/orca_start/start.scfp
The origin for moment calculation is the CENTER OF MASS  = ( 2.465050, -0.280432  0.426776)

-------------
DIPOLE MOMENT
-------------
                                X             Y             Z
Electronic contribution:    -10.67318      -6.10498     -18.74443
Nuclear contribution   :      5.48060       3.53600      16.20891
                        -----------------------------------------
Total Dipole Moment    :     -5.19258      -2.56897      -2.53552
                        -----------------------------------------
Magnitude (a.u.)       :      6.32387
Magnitude (Debye)      :     16.07401



--------------------
Rotational spectrum 
--------------------
 
Rotational constants in cm-1:     0.027165     0.008206     0.007086 
Rotational constants in MHz :   814.374437   245.995415   212.425922 

 Dipole components along the rotational axes: 
x,y,z [a.u.] :    -6.124708     1.565132     0.172294 
x,y,z [Debye]:   -15.567770     3.978249     0.437936 

 

Timings for individual modules:

Sum of individual times         ...     5180.037 sec (=  86.334 min)
GTO integral calculation        ...      405.234 sec (=   6.754 min)   7.8 %
SCF iterations                  ...     3822.942 sec (=  63.716 min)  73.8 %
SCF Gradient evaluation         ...      947.206 sec (=  15.787 min)  18.3 %
Geometry relaxation             ...        4.655 sec (=   0.078 min)   0.1 %
                             ****ORCA TERMINATED NORMALLY****
TOTAL RUN TIME: 0 days 1 hours 31 minutes 28 seconds 902 msec
