 *******************************************************************************
 **                                                                           **
 **                              MOPAC v22.0.6                                **
 **                                                                           **
 *******************************************************************************
 **          Digital Object Identifier (DOI): 10.5281/zenodo.6511958          **
 **    Visit the DOI location for information on how to cite this program.    **
 *******************************************************************************

                              PM7 CALCULATION RESULTS

 *******************************************************************************
 *  CALCULATION DONE:                                Tue Mar 26 11:44:03 2024  *
 *  PM7        - The PM7 Hamiltonian to be used
 *  SINGLET    - SPIN STATE DEFINED AS A SINGLET
 *
 *
 *
 *                 CHARGE ON SYSTEM = 0
 *
 *
 *
 *  EPS=78.4   - USE ANDREAS KLAMT'S COSMO IMPLICIT SOLVATION MODEL
 *  T=         - A TIME OF 14.0 DAYS REQUESTED
 *  DUMP=N     - RESTART FILE WRITTEN EVERY 30.0 MINUTES REQUESTED
 *  RELSCF     - DEFAULT SCF CRITERION MULTIPLIED BY 1.0000
 *              (DEFAULT SCF CRITERION = 0.00010)
 *  ITRY=      - DO A MAXIMUM OF 15000 ITERATIONS FOR SCF
 *  AUX        - OUTPUT AUXILIARY INFORMATION
 *  BONDS      - FINAL BOND-ORDER MATRIX TO BE PRINTED
 *******************************************************************************
PM7 BONDS AUX DUMP=30M ITRY=15000 T=14D CHARGE=0 SINGLET eps=78.4 RELSCF=1
 Title: ASE calculation

   ATOM   CHEMICAL          X               Y               Z
  NUMBER   SYMBOL      (ANGSTROMS)     (ANGSTROMS)     (ANGSTROMS)

     1       C         -0.10189000  *   0.05190000  *   0.14134000  *
     2       H         -1.14386000  *   0.17402000  *   0.44525000  *
     3       N         -0.22720000  *  -2.37867000  *   0.18199000  *
     4       O         -1.41804000  *  -2.57110000  *   0.35820000  *
     5       O          0.62529000  *  -3.12396000  *   0.64517000  *
     6       H          1.87775000  *   0.85951000  *   0.10187000  *
     7       C          0.20305000  *  -1.20609000  *  -0.61092000  *
     8       H         -0.34017000  *  -1.21506000  *  -1.59621000  *
     9       H          1.29163000  *  -1.30062000  *  -0.86766000  *
    10       C          0.83768000  *   0.96210000  *   0.38844000  *
    11       H          0.64114000  *   1.89565000  *   0.90081000  *
    12       C          6.53960000  *  -2.73916000  *   0.25285000  *
    13       C          7.91656000  *  -2.73222000  *  -0.02148000  *
    14       C          8.52901000  *  -1.50219000  *  -0.27685000  *
    15       C          7.76531000  *  -0.33872000  *  -0.24515000  *
    16       C          6.40015000  *  -0.43313000  *   0.05046000  *
    17       N          5.79890000  *  -1.61513000  *   0.28781000  *
    18       H          5.99752000  *  -3.67465000  *   0.44714000  *
    19       H          8.21705000  *   0.63148000  *  -0.44864000  *
    20       H          5.76067000  *   0.45737000  *   0.09949000  *
    21       C          8.68107000  *  -4.00249000  *  -0.06315000  *
    22       H          9.74894000  *  -3.86665000  *   0.16885000  *
    23       H          8.63196000  *  -4.46016000  *  -1.06673000  *
    24       H          8.29856000  *  -4.75428000  *   0.64447000  *
    25       H          9.59758000  *  -1.45501000  *  -0.50037000  *
    26       H          2.51964000  *  -2.99355000  *  -0.23081000  *
    27       O          3.17164000  *  -2.66951000  *  -0.85693000  *
    28       H          3.88518000  *  -2.30811000  *  -0.31179000  *



          CARTESIAN COORDINATES 

    NO.       ATOM           X           Y           Z

     1         C         -0.1019      0.0519      0.1413
     2         H         -1.1439      0.1740      0.4452
     3         N         -0.2272     -2.3787      0.1820
     4         O         -1.4180     -2.5711      0.3582
     5         O          0.6253     -3.1240      0.6452
     6         H          1.8778      0.8595      0.1019
     7         C          0.2031     -1.2061     -0.6109
     8         H         -0.3402     -1.2151     -1.5962
     9         H          1.2916     -1.3006     -0.8677
    10         C          0.8377      0.9621      0.3884
    11         H          0.6411      1.8957      0.9008
    12         C          6.5396     -2.7392      0.2529
    13         C          7.9166     -2.7322     -0.0215
    14         C          8.5290     -1.5022     -0.2769
    15         C          7.7653     -0.3387     -0.2452
    16         C          6.4002     -0.4331      0.0505
    17         N          5.7989     -1.6151      0.2878
    18         H          5.9975     -3.6747      0.4471
    19         H          8.2171      0.6315     -0.4486
    20         H          5.7607      0.4574      0.0995
    21         C          8.6811     -4.0025     -0.0631
    22         H          9.7489     -3.8666      0.1689
    23         H          8.6320     -4.4602     -1.0667
    24         H          8.2986     -4.7543      0.6445
    25         H          9.5976     -1.4550     -0.5004
    26         H          2.5196     -2.9935     -0.2308
    27         O          3.1716     -2.6695     -0.8569
    28         H          3.8852     -2.3081     -0.3118

 General Reference for PM7:
 "Optimization of Parameters for Semiempirical Methods VI: More Modifications to the 
 NDDO Approximations and Re-optimization of Parameters", J. J. P. Stewart, J. Mol. Mod., 1:32, 19 (2013)
 https://link.springer.com/article/10.1007/s00894-012-1667-x

           Empirical Formula: C9 H14 N2 O3  =    28 atoms



      MOLECULAR POINT GROUP   :   C1  


 SINGLET STATE CALCULATION


      RHF CALCULATION, NO. OF DOUBLY OCCUPIED LEVELS = 39


          Geometry optimization using EF
  SCF CRITERION =    0.1000E-03

          DIAGONAL MATRIX USED AS START HESSIAN

 CYCLE:     1 TIME:   0.066 TIME LEFT:  2.00W  GRAD.:     2.205 HEAT: -60.17145

     TRUST RADIUS NOW LESS THAN  0.00010 OPTIMIZATION TERMINATING
      THE GEOMETRY MAY NOT BE COMPLETELY OPTIMIZED
      (TO CONTINUE, ADD 'LET DDMIN=0.0' TO THE KEYWORD LINE)

 -------------------------------------------------------------------------------
 PM7 BONDS AUX DUMP=30M ITRY=15000 T=14D CHARGE=0 SINGLET eps=78.4 RELSCF=1
 Title: ASE calculation



     GEOMETRY OPTIMISED USING EIGENVECTOR FOLLOWING (EF).     
     SCF FIELD WAS ACHIEVED                                   


                              PM7 CALCULATION
                                                       MOPAC v22.0.6 Linux
                                                       Tue Mar 26 11:44:03 2024




          FINAL HEAT OF FORMATION =        -60.17145 KCAL/MOL =    -251.75736 KJ/MOL
          VAN DER WAALS AREA      =        267.55 SQUARE ANGSTROMS



          DIELECTRIC ENERGY       =         -0.71709 EV
          COSMO AREA              =        267.55 SQUARE ANGSTROMS
          COSMO VOLUME            =        264.23 CUBIC ANGSTROMS

          GRADIENT NORM           =          2.20453          =       0.41662 PER ATOM
          IONIZATION POTENTIAL    =          9.972512 EV
          HOMO LUMO ENERGIES (EV) =         -9.973 -0.580
          NO. OF FILLED LEVELS    =         39
          MOLECULAR WEIGHT        =        198.2212         POINT GROUP:  C1  

          MOLECULAR DIMENSIONS (Angstroms)

            Atom       Atom       Distance
            H    22    H     2    11.62138
            H    19    O     4     6.38366
            H     8    H    11     2.79626


          SCF CALCULATIONS        =         10

          WALL-CLOCK TIME         =      0.297 SECONDS
          COMPUTATION TIME        =     20.147 SECONDS



       FINAL  POINT  AND  DERIVATIVES

   PARAMETER     ATOM    TYPE            VALUE        GRADIENT
      1          1  C    CARTESIAN X    -0.101890     -0.251479  KCAL/ANGSTROM
      2          1  C    CARTESIAN Y     0.051900      0.133808  KCAL/ANGSTROM
      3          1  C    CARTESIAN Z     0.141340     -0.053074  KCAL/ANGSTROM
      4          2  H    CARTESIAN X    -1.143860     -0.269607  KCAL/ANGSTROM
      5          2  H    CARTESIAN Y     0.174020     -0.278512  KCAL/ANGSTROM
      6          2  H    CARTESIAN Z     0.445250      0.131437  KCAL/ANGSTROM
      7          3  N    CARTESIAN X    -0.227200      0.364980  KCAL/ANGSTROM
      8          3  N    CARTESIAN Y    -2.378670      0.023859  KCAL/ANGSTROM
      9          3  N    CARTESIAN Z     0.181990     -0.047303  KCAL/ANGSTROM
     10          4  O    CARTESIAN X    -1.418040      0.310799  KCAL/ANGSTROM
     11          4  O    CARTESIAN Y    -2.571100      0.091656  KCAL/ANGSTROM
     12          4  O    CARTESIAN Z     0.358200      0.194568  KCAL/ANGSTROM
     13          5  O    CARTESIAN X     0.625290     -0.071184  KCAL/ANGSTROM
     14          5  O    CARTESIAN Y    -3.123960     -0.003785  KCAL/ANGSTROM
     15          5  O    CARTESIAN Z     0.645170     -0.691891  KCAL/ANGSTROM
     16          6  H    CARTESIAN X     1.877750      0.202105  KCAL/ANGSTROM
     17          6  H    CARTESIAN Y     0.859510     -0.455214  KCAL/ANGSTROM
     18          6  H    CARTESIAN Z     0.101870      0.066644  KCAL/ANGSTROM
     19          7  C    CARTESIAN X     0.203050     -0.153281  KCAL/ANGSTROM
     20          7  C    CARTESIAN Y    -1.206090      0.093276  KCAL/ANGSTROM
     21          7  C    CARTESIAN Z    -0.610920     -0.057328  KCAL/ANGSTROM
     22          8  H    CARTESIAN X    -0.340170      0.079968  KCAL/ANGSTROM
     23          8  H    CARTESIAN Y    -1.215060      0.071642  KCAL/ANGSTROM
     24          8  H    CARTESIAN Z    -1.596210      0.151620  KCAL/ANGSTROM
     25          9  H    CARTESIAN X     1.291630      0.153051  KCAL/ANGSTROM
     26          9  H    CARTESIAN Y    -1.300620      0.104414  KCAL/ANGSTROM
     27          9  H    CARTESIAN Z    -0.867660      0.108166  KCAL/ANGSTROM
     28         10  C    CARTESIAN X     0.837680     -0.086666  KCAL/ANGSTROM
     29         10  C    CARTESIAN Y     0.962100      0.011735  KCAL/ANGSTROM
     30         10  C    CARTESIAN Z     0.388440     -0.265156  KCAL/ANGSTROM
     31         11  H    CARTESIAN X     0.641140      0.056513  KCAL/ANGSTROM
     32         11  H    CARTESIAN Y     1.895650      0.011230  KCAL/ANGSTROM
     33         11  H    CARTESIAN Z     0.900810     -0.144312  KCAL/ANGSTROM
     34         12  C    CARTESIAN X     6.539600     -0.022311  KCAL/ANGSTROM
     35         12  C    CARTESIAN Y    -2.739160      0.091372  KCAL/ANGSTROM
     36         12  C    CARTESIAN Z     0.252850     -0.153500  KCAL/ANGSTROM
     37         13  C    CARTESIAN X     7.916560      0.055840  KCAL/ANGSTROM
     38         13  C    CARTESIAN Y    -2.732220     -0.012813  KCAL/ANGSTROM
     39         13  C    CARTESIAN Z    -0.021480      0.229373  KCAL/ANGSTROM
     40         14  C    CARTESIAN X     8.529010      0.166181  KCAL/ANGSTROM
     41         14  C    CARTESIAN Y    -1.502190      0.054369  KCAL/ANGSTROM
     42         14  C    CARTESIAN Z    -0.276850      0.027609  KCAL/ANGSTROM
     43         15  C    CARTESIAN X     7.765310      0.009206  KCAL/ANGSTROM
     44         15  C    CARTESIAN Y    -0.338720     -0.208569  KCAL/ANGSTROM
     45         15  C    CARTESIAN Z    -0.245150     -0.234922  KCAL/ANGSTROM
     46         16  C    CARTESIAN X     6.400150     -0.129372  KCAL/ANGSTROM
     47         16  C    CARTESIAN Y    -0.433130      0.042918  KCAL/ANGSTROM
     48         16  C    CARTESIAN Z     0.050460      0.148359  KCAL/ANGSTROM
     49         17  N    CARTESIAN X     5.798900     -0.031831  KCAL/ANGSTROM
     50         17  N    CARTESIAN Y    -1.615130      0.138830  KCAL/ANGSTROM
     51         17  N    CARTESIAN Z     0.287810      0.174319  KCAL/ANGSTROM
     52         18  H    CARTESIAN X     5.997520     -0.796014  KCAL/ANGSTROM
     53         18  H    CARTESIAN Y    -3.674650      0.302924  KCAL/ANGSTROM
     54         18  H    CARTESIAN Z     0.447140     -0.299756  KCAL/ANGSTROM
     55         19  H    CARTESIAN X     8.217050     -0.219550  KCAL/ANGSTROM
     56         19  H    CARTESIAN Y     0.631480     -0.158720  KCAL/ANGSTROM
     57         19  H    CARTESIAN Z    -0.448640     -0.370547  KCAL/ANGSTROM
     58         20  H    CARTESIAN X     5.760670      0.317432  KCAL/ANGSTROM
     59         20  H    CARTESIAN Y     0.457370      0.304841  KCAL/ANGSTROM
     60         20  H    CARTESIAN Z     0.099490      0.274265  KCAL/ANGSTROM
     61         21  C    CARTESIAN X     8.681070      0.140865  KCAL/ANGSTROM
     62         21  C    CARTESIAN Y    -4.002490      0.026479  KCAL/ANGSTROM
     63         21  C    CARTESIAN Z    -0.063150      0.174113  KCAL/ANGSTROM
     64         22  H    CARTESIAN X     9.748940      0.105856  KCAL/ANGSTROM
     65         22  H    CARTESIAN Y    -3.866650     -0.141894  KCAL/ANGSTROM
     66         22  H    CARTESIAN Z     0.168850      0.143089  KCAL/ANGSTROM
     67         23  H    CARTESIAN X     8.631960     -0.356705  KCAL/ANGSTROM
     68         23  H    CARTESIAN Y    -4.460160      0.216910  KCAL/ANGSTROM
     69         23  H    CARTESIAN Z    -1.066730     -0.102791  KCAL/ANGSTROM
     70         24  H    CARTESIAN X     8.298560      0.149726  KCAL/ANGSTROM
     71         24  H    CARTESIAN Y    -4.754280     -0.045734  KCAL/ANGSTROM
     72         24  H    CARTESIAN Z     0.644470     -0.075277  KCAL/ANGSTROM
     73         25  H    CARTESIAN X     9.597580      0.286631  KCAL/ANGSTROM
     74         25  H    CARTESIAN Y    -1.455010     -0.061009  KCAL/ANGSTROM
     75         25  H    CARTESIAN Z    -0.500370     -0.030691  KCAL/ANGSTROM
     76         26  H    CARTESIAN X     2.519640      0.433203  KCAL/ANGSTROM
     77         26  H    CARTESIAN Y    -2.993550     -0.383900  KCAL/ANGSTROM
     78         26  H    CARTESIAN Z    -0.230810     -0.210762  KCAL/ANGSTROM
     79         27  O    CARTESIAN X     3.171640     -0.446885  KCAL/ANGSTROM
     80         27  O    CARTESIAN Y    -2.669510      0.436235  KCAL/ANGSTROM
     81         27  O    CARTESIAN Z    -0.856930      0.373352  KCAL/ANGSTROM
     82         28  H    CARTESIAN X     3.885180      0.002611  KCAL/ANGSTROM
     83         28  H    CARTESIAN Y    -2.308110     -0.406202  KCAL/ANGSTROM
     84         28  H    CARTESIAN Z    -0.311790      0.540587  KCAL/ANGSTROM




   ATOM   CHEMICAL          X               Y               Z
  NUMBER   SYMBOL      (ANGSTROMS)     (ANGSTROMS)     (ANGSTROMS)

     1       C         -0.10189000  *   0.05190000  *   0.14134000  *
     2       H         -1.14386000  *   0.17402000  *   0.44525000  *
     3       N         -0.22720000  *  -2.37867000  *   0.18199000  *
     4       O         -1.41804000  *  -2.57110000  *   0.35820000  *
     5       O          0.62529000  *  -3.12396000  *   0.64517000  *
     6       H          1.87775000  *   0.85951000  *   0.10187000  *
     7       C          0.20305000  *  -1.20609000  *  -0.61092000  *
     8       H         -0.34017000  *  -1.21506000  *  -1.59621000  *
     9       H          1.29163000  *  -1.30062000  *  -0.86766000  *
    10       C          0.83768000  *   0.96210000  *   0.38844000  *
    11       H          0.64114000  *   1.89565000  *   0.90081000  *
    12       C          6.53960000  *  -2.73916000  *   0.25285000  *
    13       C          7.91656000  *  -2.73222000  *  -0.02148000  *
    14       C          8.52901000  *  -1.50219000  *  -0.27685000  *
    15       C          7.76531000  *  -0.33872000  *  -0.24515000  *
    16       C          6.40015000  *  -0.43313000  *   0.05046000  *
    17       N          5.79890000  *  -1.61513000  *   0.28781000  *
    18       H          5.99752000  *  -3.67465000  *   0.44714000  *
    19       H          8.21705000  *   0.63148000  *  -0.44864000  *
    20       H          5.76067000  *   0.45737000  *   0.09949000  *
    21       C          8.68107000  *  -4.00249000  *  -0.06315000  *
    22       H          9.74894000  *  -3.86665000  *   0.16885000  *
    23       H          8.63196000  *  -4.46016000  *  -1.06673000  *
    24       H          8.29856000  *  -4.75428000  *   0.64447000  *
    25       H          9.59758000  *  -1.45501000  *  -0.50037000  *
    26       H          2.51964000  *  -2.99355000  *  -0.23081000  *
    27       O          3.17164000  *  -2.66951000  *  -0.85693000  *
    28       H          3.88518000  *  -2.30811000  *  -0.31179000  *

                             CARTESIAN COORDINATES

   1    C       -0.101890000     0.051900000     0.141340000
   2    H       -1.143860000     0.174020000     0.445250000
   3    N       -0.227200000    -2.378670000     0.181990000
   4    O       -1.418040000    -2.571100000     0.358200000
   5    O        0.625290000    -3.123960000     0.645170000
   6    H        1.877750000     0.859510000     0.101870000
   7    C        0.203050000    -1.206090000    -0.610920000
   8    H       -0.340170000    -1.215060000    -1.596210000
   9    H        1.291630000    -1.300620000    -0.867660000
  10    C        0.837680000     0.962100000     0.388440000
  11    H        0.641140000     1.895650000     0.900810000
  12    C        6.539600000    -2.739160000     0.252850000
  13    C        7.916560000    -2.732220000    -0.021480000
  14    C        8.529010000    -1.502190000    -0.276850000
  15    C        7.765310000    -0.338720000    -0.245150000
  16    C        6.400150000    -0.433130000     0.050460000
  17    N        5.798900000    -1.615130000     0.287810000
  18    H        5.997520000    -3.674650000     0.447140000
  19    H        8.217050000     0.631480000    -0.448640000
  20    H        5.760670000     0.457370000     0.099490000
  21    C        8.681070000    -4.002490000    -0.063150000
  22    H        9.748940000    -3.866650000     0.168850000
  23    H        8.631960000    -4.460160000    -1.066730000
  24    H        8.298560000    -4.754280000     0.644470000
  25    H        9.597580000    -1.455010000    -0.500370000
  26    H        2.519640000    -2.993550000    -0.230810000
  27    O        3.171640000    -2.669510000    -0.856930000
  28    H        3.885180000    -2.308110000    -0.311790000


           Empirical Formula: C9 H14 N2 O3  =    28 atoms



      MOLECULAR POINT GROUP   :   C1  


                  EIGENVALUES  
 -37.55235 -36.14559 -30.97871 -29.31354 -29.10191 -28.95922 -27.17053 -26.47708
 -24.41148 -23.06513 -22.41114 -21.17909 -20.22395 -18.67233 -18.45756 -17.94220
 -17.77068 -17.51722 -16.90181 -15.94938 -15.73154 -15.20491 -15.01341 -14.45550
 -14.37507 -13.91790 -13.77463 -13.75586 -13.46415 -12.66458 -12.56839 -12.29220
 -12.10979 -12.05660 -11.90101 -10.94837 -10.87848 -10.71907  -9.97251  -0.57993
  -0.32364  -0.26899   0.00801   0.80876   2.13115   3.21824   3.24108   3.69452
   3.81697   3.93266   4.07157   4.32363   4.42950   4.62219   4.80457   5.00786
   5.15956   5.17105   5.29367   5.47040   5.54900   5.59824   5.62425   5.79625
   5.85800   6.00083   6.05165   6.12075   6.73642   6.77353


              NET ATOMIC CHARGES AND DIPOLE CONTRIBUTIONS

  ATOM NO.   TYPE          CHARGE      No. of ELECS.   s-Pop       p-Pop       
    1          C          -0.176210        4.1762     1.08684     3.08937
    2          H           0.174472        0.8255     0.82553
    3          N           0.663923        4.3361     1.46311     2.87297
    4          O          -0.445997        6.4460     1.93936     4.50664
    5          O          -0.472334        6.4723     1.93952     4.53281
    6          H           0.164343        0.8357     0.83566
    7          C          -0.243379        4.2434     1.09352     3.14986
    8          H           0.224316        0.7757     0.77568
    9          H           0.212113        0.7879     0.78789
   10          C          -0.257885        4.2579     1.10571     3.15217
   11          H           0.160870        0.8391     0.83913
   12          C           0.003684        3.9963     1.10092     2.89540
   13          C          -0.034082        4.0341     1.07372     2.96036
   14          C          -0.117551        4.1176     1.09426     3.02329
   15          C          -0.222646        4.2226     1.09247     3.13018
   16          C           0.027188        3.9728     1.09741     2.87541
   17          N          -0.438571        5.4386     1.73649     3.70208
   18          H           0.188589        0.8114     0.81141
   19          H           0.180980        0.8190     0.81902
   20          H           0.184779        0.8152     0.81522
   21          C          -0.463641        4.4636     1.04829     3.41535
   22          H           0.172513        0.8275     0.82749
   23          H           0.177832        0.8222     0.82217
   24          H           0.172837        0.8272     0.82716
   25          H           0.177492        0.8225     0.82251
   26          H           0.367212        0.6328     0.63279
   27          O          -0.761437        6.7614     1.81271     4.94873
   28          H           0.380587        0.6194     0.61941
 DIPOLE           X         Y         Z       TOTAL
 POINT-CHG.     4.820     4.396    -1.427     6.678
 HYBRID         0.568    -0.436     0.319     0.784
 SUM            5.388     3.960    -1.107     6.777


          ATOMIC ORBITAL ELECTRON POPULATIONS

     Atom    s        px        py        pz   
    1  C   1.08684   1.09450   0.96846   1.02640
    2  H   0.82553
    3  N   1.46311   0.95629   0.98015   0.93653
    4  O   1.93936   1.04870   1.79839   1.65954
    5  O   1.93952   1.46591   1.50479   1.56210
    6  H   0.83566
    7  C   1.09352   1.19196   0.89826   1.05963
    8  H   0.77568
    9  H   0.78789
   10  C   1.10571   1.09109   1.06705   0.99403
   11  H   0.83913
   12  C   1.10092   0.96152   0.98587   0.94801
   13  C   1.07372   0.98581   0.98638   0.98817
   14  C   1.09426   1.09190   0.97870   0.95269
   15  C   1.09247   1.01605   1.08270   1.03143
   16  C   1.09741   0.98027   0.96677   0.92837
   17  N   1.73649   1.43034   1.07695   1.19478
   18  H   0.81141
   19  H   0.81902
   20  H   0.81522
   21  C   1.04829   1.15509   1.06279   1.19747
   22  H   0.82749
   23  H   0.82217
   24  H   0.82716
   25  H   0.82251
   26  H   0.63279
   27  O   1.81271   1.52770   1.87973   1.54130
   28  H   0.61941

          BONDING CONTRIBUTION OF EACH M.O.

  1.3312  1.3613  0.9681  1.4164  1.7922  1.4791  1.9096  1.3872  1.9746  1.1459
  1.8328  1.9401  1.7868  1.2927  1.4420  1.7742  1.6452  1.7493  2.0278  1.8160
  1.9130  1.9206  1.8756  1.3019  1.5242  1.7144  1.8445  1.7737  1.8717  1.7506
  2.0095  0.2337  0.8672  0.4405  0.6957  1.9439  1.8193  1.2692  2.0560 -2.3601
 -2.0205 -1.9521 -2.0574 -2.0321 -1.9963 -1.9607 -1.9457 -1.9459 -1.9522 -1.9240
 -1.9879 -1.9857 -1.8861 -2.0170 -1.8885 -1.9948 -1.9006 -1.9025 -1.9301 -1.9774
 -1.9537 -1.9532 -1.9584 -1.9652 -1.9517 -1.9696 -1.9595 -1.9523 -1.7246 -1.8919





            (VALENCIES)   BOND ORDERS

     1  C     (3.961)    10  C 1.984     7  C 0.995     2  H 0.956

     2  H     (0.970)     1  C 0.956

     3  N     (3.760)     4  O 1.455     5  O 1.425     7  C 0.855    10  C 0.012

     4  O     (1.839)     3  N 1.455     5  O 0.293     7  C 0.069

     5  O     (1.818)     3  N 1.425     4  O 0.293     7  C 0.068

     6  H     (0.973)    10  C 0.963

     7  C     (3.867)     1  C 0.995     9  H 0.936     8  H 0.921     3  N 0.855     4  O 0.069     5  O 0.068

     8  H     (0.950)     7  C 0.921

     9  H     (0.955)     7  C 0.936

    10  C     (3.946)     1  C 1.984    11  H 0.963     6  H 0.963     3  N 0.012

    11  H     (0.974)    10  C 0.963

    12  C     (3.937)    17  N 1.410    13  C 1.403    18  H 0.944    15  C 0.119    16  C 0.016    20  H 0.012

    13  C     (3.994)    14  C 1.425    12  C 1.403    21  C 1.018    16  C 0.120    17  N 0.013

    14  C     (3.965)    15  C 1.450    13  C 1.425    25  H 0.956    17  N 0.094

    15  C     (3.967)    14  C 1.450    16  C 1.419    19  H 0.955    12  C 0.119    17  N 0.013

    16  C     (3.936)    15  C 1.419    17  N 1.408    20  H 0.946    13  C 0.120    12  C 0.016    18  H 0.011

    17  N     (2.972)    12  C 1.410    16  C 1.408    14  C 0.094    15  C 0.013    13  C 0.013    28  H 0.013

    18  H     (0.964)    12  C 0.944    16  C 0.011

    19  H     (0.967)    15  C 0.955

    20  H     (0.966)    16  C 0.946    12  C 0.012

    21  C     (3.909)    13  C 1.018    22  H 0.958    24  H 0.957    23  H 0.947

    22  H     (0.970)    21  C 0.958

    23  H     (0.968)    21  C 0.947

    24  H     (0.970)    21  C 0.957

    25  H     (0.968)    14  C 0.956

    26  H     (0.865)    27  O 0.855

    27  O     (1.711)    26  H 0.855    28  H 0.840

    28  H     (0.855)    27  O 0.840    17  N 0.013


 **********************
 *                    *
 * JOB ENDED NORMALLY *
 *                    *
 **********************



 TOTAL JOB TIME:             0.30 SECONDS

 == MOPAC DONE ==
