
                                 *****************
                                 * O   R   C   A *
                                 *****************

                                            #,                                       
                                            ###                                      
                                            ####                                     
                                            #####                                    
                                            ######                                   
                                           ########,                                 
                                     ,,################,,,,,                         
                               ,,#################################,,                 
                          ,,##########################################,,             
                       ,#########################################, ''#####,          
                    ,#############################################,,   '####,        
                  ,##################################################,,,,####,       
                ,###########''''           ''''###############################       
              ,#####''   ,,,,##########,,,,          '''####'''          '####       
            ,##' ,,,,###########################,,,                        '##       
           ' ,,###''''                  '''############,,,                           
         ,,##''                                '''############,,,,        ,,,,,,###''
      ,#''                                            '''#######################'''  
     '                                                          ''''####''''         
             ,#######,   #######,   ,#######,      ##                                
            ,#'     '#,  ##    ##  ,#'     '#,    #''#        ######   ,####,        
            ##       ##  ##   ,#'  ##            #'  '#       #        #'  '#        
            ##       ##  #######   ##           ,######,      #####,   #    #        
            '#,     ,#'  ##    ##  '#,     ,#' ,#      #,         ##   #,  ,#        
             '#######'   ##     ##  '#######'  #'      '#     #####' # '####'        



                  #######################################################
                  #                        -***-                        #
                  #          Department of theory and spectroscopy      #
                  #    Directorship and core code : Frank Neese         #
                  #        Max Planck Institute fuer Kohlenforschung    #
                  #                Kaiser Wilhelm Platz 1               #
                  #                 D-45470 Muelheim/Ruhr               #
                  #                      Germany                        #
                  #                                                     #
                  #                  All rights reserved                #
                  #                        -***-                        #
                  #######################################################


                         Program Version 5.0.4 -  RELEASE  -


 With contributions from (in alphabetic order):
   Daniel Aravena         : Magnetic Suceptibility
   Michael Atanasov       : Ab Initio Ligand Field Theory (pilot matlab implementation)
   Alexander A. Auer      : GIAO ZORA, VPT2 properties, NMR spectrum
   Ute Becker             : Parallelization
   Giovanni Bistoni       : ED, misc. LED, open-shell LED, HFLD
   Martin Brehm           : Molecular dynamics
   Dmytro Bykov           : SCF Hessian
   Vijay G. Chilkuri      : MRCI spin determinant printing, contributions to CSF-ICE
   Dipayan Datta          : RHF DLPNO-CCSD density
   Achintya Kumar Dutta   : EOM-CC, STEOM-CC
   Dmitry Ganyushin       : Spin-Orbit,Spin-Spin,Magnetic field MRCI
   Miquel Garcia          : C-PCM and meta-GGA Hessian, CC/C-PCM, Gaussian charge scheme
   Yang Guo               : DLPNO-NEVPT2, F12-NEVPT2, CIM, IAO-localization
   Andreas Hansen         : Spin unrestricted coupled pair/coupled cluster methods
   Benjamin Helmich-Paris : MC-RPA, TRAH-SCF, COSX integrals
   Lee Huntington         : MR-EOM, pCC
   Robert Izsak           : Overlap fitted RIJCOSX, COSX-SCS-MP3, EOM
   Marcus Kettner         : VPT2
   Christian Kollmar      : KDIIS, OOCD, Brueckner-CCSD(T), CCSD density, CASPT2, CASPT2-K
   Simone Kossmann        : Meta GGA functionals, TD-DFT gradient, OOMP2, MP2 Hessian
   Martin Krupicka        : Initial AUTO-CI
   Lucas Lang             : DCDCAS
   Marvin Lechner         : AUTO-CI (C++ implementation), FIC-MRCC
   Dagmar Lenk            : GEPOL surface, SMD
   Dimitrios Liakos       : Extrapolation schemes; Compound Job, initial MDCI parallelization
   Dimitrios Manganas     : Further ROCIS development; embedding schemes
   Dimitrios Pantazis     : SARC Basis sets
   Anastasios Papadopoulos: AUTO-CI, single reference methods and gradients
   Taras Petrenko         : DFT Hessian,TD-DFT gradient, ASA, ECA, R-Raman, ABS, FL, XAS/XES, NRVS
   Peter Pinski           : DLPNO-MP2, DLPNO-MP2 Gradient
   Christoph Reimann      : Effective Core Potentials
   Marius Retegan         : Local ZFS, SOC
   Christoph Riplinger    : Optimizer, TS searches, QM/MM, DLPNO-CCSD(T), (RO)-DLPNO pert. Triples
   Tobias Risthaus        : Range-separated hybrids, TD-DFT gradient, RPA, STAB
   Michael Roemelt        : Original ROCIS implementation
   Masaaki Saitow         : Open-shell DLPNO-CCSD energy and density
   Barbara Sandhoefer     : DKH picture change effects
   Avijit Sen             : IP-ROCIS
   Kantharuban Sivalingam : CASSCF convergence, NEVPT2, FIC-MRCI
   Bernardo de Souza      : ESD, SOC TD-DFT
   Georgi Stoychev        : AutoAux, RI-MP2 NMR, DLPNO-MP2 response
   Willem Van den Heuvel  : Paramagnetic NMR
   Boris Wezisla          : Elementary symmetry handling
   Frank Wennmohs         : Technical directorship


 We gratefully acknowledge several colleagues who have allowed us to
 interface, adapt or use parts of their codes:
   Stefan Grimme, W. Hujo, H. Kruse, P. Pracht,  : VdW corrections, initial TS optimization,
                  C. Bannwarth, S. Ehlert          DFT functionals, gCP, sTDA/sTD-DF
   Ed Valeev, F. Pavosevic, A. Kumar             : LibInt (2-el integral package), F12 methods
   Garnet Chan, S. Sharma, J. Yang, R. Olivares  : DMRG
   Ulf Ekstrom                                   : XCFun DFT Library
   Mihaly Kallay                                 : mrcc  (arbitrary order and MRCC methods)
   Jiri Pittner, Ondrej Demel                    : Mk-CCSD
   Frank Weinhold                                : gennbo (NPA and NBO analysis)
   Christopher J. Cramer and Donald G. Truhlar   : smd solvation model
   Lars Goerigk                                  : TD-DFT with DH, B97 family of functionals
   V. Asgeirsson, H. Jonsson                     : NEB implementation
   FAccTs GmbH                                   : IRC, NEB, NEB-TS, DLPNO-Multilevel, CI-OPT
                                                   MM, QMMM, 2- and 3-layer-ONIOM, Crystal-QMMM,
                                                   LR-CPCM, SF, NACMEs, symmetry and pop. for TD-DFT,
                                                   nearIR, NL-DFT gradient (VV10), updates on ESD,
                                                   ML-optimized integration grids
   S Lehtola, MJT Oliveira, MAL Marques          : LibXC Library
   Liviu Ungur et al                             : ANISO software


 Your calculation uses the libint2 library for the computation of 2-el integrals
 For citations please refer to: http://libint.valeyev.net

 Your ORCA version has been built with support for libXC version: 5.1.0
 For citations please refer to: https://tddft.org/programs/libxc/

 This ORCA versions uses:
   CBLAS   interface :  Fast vector & matrix operations
   LAPACKE interface :  Fast linear algebra routines
   SCALAPACK package :  Parallel linear algebra routines
   Shared memory     :  Shared parallel matrices
   BLAS/LAPACK       :  OpenBLAS 0.3.15  USE64BITINT DYNAMIC_ARCH NO_AFFINITY Prescott SINGLE_THREADED
        Core in use  :  Prescott
   Copyright (c) 2011-2014, The OpenBLAS Project


Your calculation utilizes the atom-pairwise dispersion correction
with the Becke-Johnson damping scheme (D3BJ)
Cite in your paper:
S.Grimme, S.Ehrlich, L.Goerigk, J Comput Chem, (2011), 32, 1456–1465 
S.Grimme, J.Antony, S.Ehrlich and H.Krieg, J.Chem.Phys., 132, (2010), 154104 
   

================================================================================

----- Orbital basis set information -----
Your calculation utilizes the basis: def2-TZVP
   F. Weigend and R. Ahlrichs, Phys. Chem. Chem. Phys. 7, 3297 (2005).

----- AuxJ basis set information -----
Your calculation utilizes the auxiliary basis: def2/J
   F. Weigend, Phys. Chem. Chem. Phys. 8, 1057 (2006).

================================================================================
                                        WARNINGS
                       Please study these warnings very carefully!
================================================================================

WARNING: Gradients needed for Numerical Frequencies
  ===> : Setting RunTyp to EnGrad

INFO   : the flag for use of the SHARK integral package has been found!

================================================================================
                                       INPUT FILE
================================================================================
NAME = /home/rudenko/mop_saddle_orca_4_serv/for_orca/p-o2nc6h4chno2ch3_oh/orca/start_freq_H/start_f_H.inp
|  1> !  NUMFREQ B3LYP def2-TZVP CPCM D3 
|  2> %pal nprocs 102 end
|  3> %cpcm epsilon 78.4 end 
|  4> *xyz -1 1 
|  5> C   -1.05752749526519 0.36360180290992 0.77781671393328
|  6> C   0.26368209241689 0.28698929561525 1.19129891956666
|  7> C   1.24370936285987 -0.22424773044633 0.341536361228
|  8> C   0.88955697432901 -0.65979650520693 -0.93751073535811
|  9> C   -0.42327158676595 -0.58379600975235 -1.36929995806454
| 10> C   -1.38069449636238 -0.0733683625047 -0.499672442824
| 11> H   -1.82373400265124 0.75754757645676 1.42789087943566
| 12> H   0.54885456900215 0.62662874444079 2.17892295089569
| 13> H   1.64387099466792 -1.05691235293547 -1.6045458064792
| 14> C   2.66541893354119 -0.33619091482923 0.83486679524581
| 15> H   2.72600148882527 0.11524701193926 1.85119360905003
| 16> C   3.19830444535229 -1.75525043865316 0.86190804171285
| 17> H   4.20090501132005 -1.78453114819516 1.28444748239862
| 18> H   3.21655762411401 -2.20711523390506 -0.13009326515417
| 19> H   2.53920261631332 -2.34656159038351 1.49866523562834
| 20> N   3.5513074859882 0.57806696746375 0.00834453005727
| 21> O   4.63848371444898 0.17307203248405 -0.37128935891798
| 22> O   3.14457220404662 1.71556976574568 -0.19041776876125
| 23> O   2.52516355048578 2.65058556683422 5.27727201819149
| 24> H   2.90797688578389 2.33992749061378 6.10463717095215
| 25> H   -0.70585486603868 -0.91390216680189 -2.35715182409814
| 26> N   -2.7729293685859 0.00646102787105 -0.94632967360963
| 27> O   -3.042500120266 -0.37788193834496 -2.07795612563574
| 28> O   -3.60797579629772 0.45333807174945 -0.16907173182872
| 29> H   2.02583932764821 0.03567598651541 3.93054757944119
| 30> H   2.5808078568775 1.84147190486383 4.62696918755246
| 31> O   2.67550259421184 0.68989114645554 3.64866121544191
| 32> *
| 33> 
| 34>                          ****END OF INPUT****
================================================================================

                     *******************************
                     * Energy+Gradient Calculation *
                     *******************************

---------------------------------
CARTESIAN COORDINATES (ANGSTROEM)
---------------------------------
  C     -1.057527    0.363602    0.777817
  C      0.263682    0.286989    1.191299
  C      1.243709   -0.224248    0.341536
  C      0.889557   -0.659797   -0.937511
  C     -0.423272   -0.583796   -1.369300
  C     -1.380694   -0.073368   -0.499672
  H     -1.823734    0.757548    1.427891
  H      0.548855    0.626629    2.178923
  H      1.643871   -1.056912   -1.604546
  C      2.665419   -0.336191    0.834867
  H      2.726001    0.115247    1.851194
  C      3.198304   -1.755250    0.861908
  H      4.200905   -1.784531    1.284447
  H      3.216558   -2.207115   -0.130093
  H      2.539203   -2.346562    1.498665
  N      3.551307    0.578067    0.008345
  O      4.638484    0.173072   -0.371289
  O      3.144572    1.715570   -0.190418
  O      2.525164    2.650586    5.277272
  H      2.907977    2.339927    6.104637
  H     -0.705855   -0.913902   -2.357152
  N     -2.772929    0.006461   -0.946330
  O     -3.042500   -0.377882   -2.077956
  O     -3.607976    0.453338   -0.169072
  H      2.025839    0.035676    3.930548
  H      2.580808    1.841472    4.626969
  O      2.675503    0.689891    3.648661

----------------------------
CARTESIAN COORDINATES (A.U.)
----------------------------
  NO LB      ZA    FRAG     MASS         X           Y           Z
   0 C     6.0000    0    12.011   -1.998437    0.687108    1.469861
   1 C     6.0000    0    12.011    0.498287    0.542331    2.251229
   2 C     6.0000    0    12.011    2.350270   -0.423767    0.645410
   3 C     6.0000    0    12.011    1.681019   -1.246835   -1.771639
   4 C     6.0000    0    12.011   -0.799867   -1.103215   -2.587602
   5 C     6.0000    0    12.011   -2.609134   -0.138646   -0.944244
   6 H     1.0000    0     1.008   -3.446358    1.431557    2.698323
   7 H     1.0000    0     1.008    1.037185    1.184157    4.117568
   8 H     1.0000    0     1.008    3.106466   -1.997275   -3.032152
   9 C     6.0000    0    12.011    5.036912   -0.635309    1.577670
  10 H     1.0000    0     1.008    5.151396    0.217785    3.498249
  11 C     6.0000    0    12.011    6.043919   -3.316943    1.628770
  12 H     1.0000    0     1.008    7.938560   -3.372275    2.427254
  13 H     1.0000    0     1.008    6.078413   -4.170843   -0.245841
  14 H     1.0000    0     1.008    4.798398   -4.434359    2.832067
  15 N     7.0000    0    14.007    6.710999    1.092388    0.015769
  16 O     8.0000    0    15.999    8.765464    0.327059   -0.701635
  17 O     8.0000    0    15.999    5.942380    3.241957   -0.359837
  18 O     8.0000    0    15.999    4.771868    5.008881    9.972599
  19 H     1.0000    0     1.008    5.495280    4.421822   11.536092
  20 H     1.0000    0     1.008   -1.333872   -1.727025   -4.454371
  21 N     7.0000    0    14.007   -5.240077    0.012210   -1.788304
  22 O     8.0000    0    15.999   -5.749492   -0.714093   -3.926768
  23 O     8.0000    0    15.999   -6.818086    0.856685   -0.319499
  24 H     1.0000    0     1.008    3.828282    0.067418    7.427658
  25 H     1.0000    0     1.008    4.877020    3.479878    8.743705
  26 O     8.0000    0    15.999    5.055967    1.303705    6.894970

--------------------------------
INTERNAL COORDINATES (ANGSTROEM)
--------------------------------
 C      0   0   0     0.000000000000     0.00000000     0.00000000
 C      1   0   0     1.386517863294     0.00000000     0.00000000
 C      2   1   0     1.394242860187   120.55102048     0.00000000
 C      3   2   1     1.396813561211   119.61778325     0.12722741
 C      4   3   2     1.384101455451   120.59904637     0.22915355
 C      1   2   3     1.388293334167   118.60956582   359.71905771
 H      1   2   3     1.079287776781   121.13306054   179.99225793
 H      2   1   3     1.082626216133   120.37873751   179.82103659
 H      4   3   2     1.082416936260   120.13237596   179.91827901
 C      3   2   1     1.509027599822   119.35288925   181.94019508
 H     10   3   2     1.113726465604   108.63321489   355.33226510
 C     10   3   2     1.516056770000   113.98032451   118.51558706
 H     12  10   3     1.088395531857   110.84819255   183.64008471
 H     12  10   3     1.090220878790   112.18561637    61.44454584
 H     12  10   3     1.090652934350   107.78667844   302.10735469
 N     10   3   2     1.517829060713   109.09755919   244.01260570
 O     16  10   3     1.220694449380   119.29618890   223.07951751
 O     16  10   3     1.224276381013   117.01058612    46.11666322
 O      8   2   1     4.195469622345   161.64379658   233.27394605
 H     19   8   2     0.963113485528   131.76193688   228.70345584
 H      5   4   3     1.079200951571   121.13947071   179.73888691
 N      6   1   2     1.464306440885   119.00251240   180.13739816
 O     22   6   1     1.225139311575   118.28435285   179.71832154
 O     22   6   1     1.225206732287   118.31942581   359.67871974
 H     11  10   3     2.195511679361   146.32832386    61.08222335
 H     19   8   2     1.039545563387    35.68424708   279.34642196
 O     25  11  10     0.964116049875    58.90925694   178.63370190

---------------------------
INTERNAL COORDINATES (A.U.)
---------------------------
 C      0   0   0     0.000000000000     0.00000000     0.00000000
 C      1   0   0     2.620139041415     0.00000000     0.00000000
 C      2   1   0     2.634737169929   120.55102048     0.00000000
 C      3   2   1     2.639595090836   119.61778325     0.12722741
 C      4   3   2     2.615572692364   120.59904637     0.22915355
 C      1   2   3     2.623494195124   118.60956582   359.71905771
 H      1   2   3     2.039558317806   121.13306054   179.99225793
 H      2   1   3     2.045867053895   120.37873751   179.82103659
 H      4   3   2     2.045471572250   120.13237596   179.91827901
 C      3   2   1     2.851648892192   119.35288925   181.94019508
 H     10   3   2     2.104638008092   108.63321489   355.33226510
 C     10   3   2     2.864932098778   113.98032451   118.51558706
 H     12  10   3     2.056769480592   110.84819255   183.64008471
 H     12  10   3     2.060218886395   112.18561637    61.44454584
 H     12  10   3     2.061035353079   107.78667844   302.10735469
 N     10   3   2     2.868281242854   109.09755919   244.01260570
 O     16  10   3     2.306778202527   119.29618890   223.07951751
 O     16  10   3     2.313547072343   117.01058612    46.11666322
 O      8   2   1     7.928288589418   161.64379658   233.27394605
 H     19   8   2     1.820020723534   131.76193688   228.70345584
 H      5   4   3     2.039394241937   121.13947071   179.73888691
 N      6   1   2     2.767138149409   119.00251240   180.13739816
 O     22   6   1     2.315177774777   118.28435285   179.71832154
 O     22   6   1     2.315305181459   118.31942581   359.67871974
 H     11  10   3     4.148915797819   146.32832386    61.08222335
 H     19   8   2     1.964456418535    35.68424708   279.34642196
 O     25  11  10     1.821915295581    58.90925694   178.63370190

---------------------
BASIS SET INFORMATION
---------------------
There are 4 groups of distinct atoms

 Group   1 Type C   : 11s6p2d1f contracted to 5s3p2d1f pattern {62111/411/11/1}
 Group   2 Type H   : 5s1p contracted to 3s1p pattern {311/1}
 Group   3 Type N   : 11s6p2d1f contracted to 5s3p2d1f pattern {62111/411/11/1}
 Group   4 Type O   : 11s6p2d1f contracted to 5s3p2d1f pattern {62111/411/11/1}

Atom   0C    basis set group =>   1
Atom   1C    basis set group =>   1
Atom   2C    basis set group =>   1
Atom   3C    basis set group =>   1
Atom   4C    basis set group =>   1
Atom   5C    basis set group =>   1
Atom   6H    basis set group =>   2
Atom   7H    basis set group =>   2
Atom   8H    basis set group =>   2
Atom   9C    basis set group =>   1
Atom  10H    basis set group =>   2
Atom  11C    basis set group =>   1
Atom  12H    basis set group =>   2
Atom  13H    basis set group =>   2
Atom  14H    basis set group =>   2
Atom  15N    basis set group =>   3
Atom  16O    basis set group =>   4
Atom  17O    basis set group =>   4
Atom  18O    basis set group =>   4
Atom  19H    basis set group =>   2
Atom  20H    basis set group =>   2
Atom  21N    basis set group =>   3
Atom  22O    basis set group =>   4
Atom  23O    basis set group =>   4
Atom  24H    basis set group =>   2
Atom  25H    basis set group =>   2
Atom  26O    basis set group =>   4
---------------------------------
AUXILIARY/J BASIS SET INFORMATION
---------------------------------
There are 4 groups of distinct atoms

 Group   1 Type C   : 12s5p4d2f1g contracted to 6s4p3d1f1g pattern {711111/2111/211/2/1}
 Group   2 Type H   : 5s2p1d contracted to 3s1p1d pattern {311/2/1}
 Group   3 Type N   : 12s5p4d2f1g contracted to 6s4p3d1f1g pattern {711111/2111/211/2/1}
 Group   4 Type O   : 12s5p4d2f1g contracted to 6s4p3d1f1g pattern {711111/2111/211/2/1}

Atom   0C    basis set group =>   1
Atom   1C    basis set group =>   1
Atom   2C    basis set group =>   1
Atom   3C    basis set group =>   1
Atom   4C    basis set group =>   1
Atom   5C    basis set group =>   1
Atom   6H    basis set group =>   2
Atom   7H    basis set group =>   2
Atom   8H    basis set group =>   2
Atom   9C    basis set group =>   1
Atom  10H    basis set group =>   2
Atom  11C    basis set group =>   1
Atom  12H    basis set group =>   2
Atom  13H    basis set group =>   2
Atom  14H    basis set group =>   2
Atom  15N    basis set group =>   3
Atom  16O    basis set group =>   4
Atom  17O    basis set group =>   4
Atom  18O    basis set group =>   4
Atom  19H    basis set group =>   2
Atom  20H    basis set group =>   2
Atom  21N    basis set group =>   3
Atom  22O    basis set group =>   4
Atom  23O    basis set group =>   4
Atom  24H    basis set group =>   2
Atom  25H    basis set group =>   2
Atom  26O    basis set group =>   4


           ************************************************************
           *        Program running with 102 parallel MPI-processes   *
           *              working on a common directory               *
           ************************************************************
------------------------------------------------------------------------------
                           ORCA GTO INTEGRAL CALCULATION
                           -- RI-GTO INTEGRALS CHOSEN --
------------------------------------------------------------------------------
------------------------------------------------------------------------------
                   ___                                                        
                  /   \      - P O W E R E D   B Y -                         
                 /     \                                                     
                 |  |  |   _    _      __       _____    __    __             
                 |  |  |  | |  | |    /  \     |  _  \  |  |  /  |          
                  \  \/   | |  | |   /    \    | | | |  |  | /  /          
                 / \  \   | |__| |  /  /\  \   | |_| |  |  |/  /          
                |  |  |   |  __  | /  /__\  \  |    /   |      \           
                |  |  |   | |  | | |   __   |  |    \   |  |\   \          
                \     /   | |  | | |  |  |  |  | |\  \  |  | \   \       
                 \___/    |_|  |_| |__|  |__|  |_| \__\ |__|  \__/        
                                                                              
                      - O R C A' S   B I G   F R I E N D -                    
                                      &                                       
                       - I N T E G R A L  F E E D E R -                       
                                                                              
 v1 FN, 2020, v2 2021                                                         
------------------------------------------------------------------------------


Reading SHARK input file /home/rudenko/mop_saddle_orca_4_serv/for_orca/p-o2nc6h4chno2ch3_oh/orca/start_freq_H/start_f_H.SHARKINP.tmp ... ok
----------------------
SHARK INTEGRAL PACKAGE
----------------------

Number of atoms                             ...     27
Number of basis functions                   ...    562
Number of shells                            ...    220
Maximum angular momentum                    ...      3
Integral batch strategy                     ... SHARK/LIBINT Hybrid
RI-J (if used) integral strategy            ... SPLIT-RIJ (Revised 2003 algorithm where possible)
Printlevel                                  ...      1
Contraction scheme used                     ... SEGMENTED contraction
Coulomb Range Separation                    ... NOT USED
Exchange Range Separation                   ... NOT USED
Finite Nucleus Model                        ... NOT USED
Auxiliary Coulomb fitting basis             ... AVAILABLE
   # of basis functions in Aux-J            ...    905
   # of shells in Aux-J                     ...    295
   Maximum angular momentum in Aux-J        ...      4
Auxiliary J/K fitting basis                 ... NOT available
Auxiliary Correlation fitting basis         ... NOT available
Auxiliary 'external' fitting basis          ... NOT available
Integral threshold                          ...     2.500000e-11
Primitive cut-off                           ...     2.500000e-12
Primitive pair pre-selection threshold      ...     2.500000e-12

Calculating pre-screening integrals         ... done (  0.1 sec) Dimension = 220
Organizing shell pair data                  ... done (  0.5 sec)
Shell pair information
Total number of shell pairs                 ...     24310
Shell pairs after pre-screening             ...     17548
Total number of primitive shell pairs       ...     75076
Primitive shell pairs kept                  ...     37011
          la=0 lb=0:   4518 shell pairs
          la=1 lb=0:   5039 shell pairs
          la=1 lb=1:   1427 shell pairs
          la=2 lb=0:   2502 shell pairs
          la=2 lb=1:   1405 shell pairs
          la=2 lb=2:    364 shell pairs
          la=3 lb=0:   1185 shell pairs
          la=3 lb=1:    687 shell pairs
          la=3 lb=2:    334 shell pairs
          la=3 lb=3:     87 shell pairs

Calculating one electron integrals          ... done (  0.1 sec)
Calculating RI/J V-Matrix + Cholesky decomp.... done (  0.1 sec)
Calculating Nuclear repulsion               ... done (  0.0 sec) ENN=   1087.430823350095 Eh

SHARK setup successfully completed in   1.2 seconds

Maximum memory used throughout the entire GTOINT-calculation: 29.8 MB


           ************************************************************
           *        Program running with 102 parallel MPI-processes   *
           *              working on a common directory               *
           ************************************************************
-------------------------------------------------------------------------------
                                 ORCA SCF
-------------------------------------------------------------------------------

------------
SCF SETTINGS
------------
Hamiltonian:
 Density Functional     Method          .... DFT(GTOs)
 Exchange Functional    Exchange        .... B88
   X-Alpha parameter    XAlpha          ....  0.666667
   Becke's b parameter  XBeta           ....  0.004200
 Correlation Functional Correlation     .... LYP
 LDA part of GGA corr.  LDAOpt          .... VWN-5
 Gradients option       PostSCFGGA      .... off
 Hybrid DFT is turned on
   Fraction HF Exchange ScalHFX         ....  0.200000
   Scaling of DF-GGA-X  ScalDFX         ....  0.720000
   Scaling of DF-GGA-C  ScalDFC         ....  0.810000
   Scaling of DF-LDA-C  ScalLDAC        ....  1.000000
   Perturbative correction              ....  0.000000
   Density functional embedding theory  .... OFF
   NL short-range parameter             ....  4.800000
 RI-approximation to the Coulomb term is turned on
   Number of AuxJ basis functions       .... 905
   RIJ-COSX (HFX calculated with COS-X)).... on


General Settings:
 Integral files         IntName         .... /home/rudenko/mop_saddle_orca_4_serv/for_orca/p-o2nc6h4chno2ch3_oh/orca/start_freq_H/start_f_H
 Hartree-Fock type      HFTyp           .... RHF
 Total Charge           Charge          ....   -1
 Multiplicity           Mult            ....    1
 Number of Electrons    NEL             ....  122
 Basis Dimension        Dim             ....  562
 Nuclear Repulsion      ENuc            ....   1087.4308233501 Eh

Convergence Acceleration:
 DIIS                   CNVDIIS         .... on
   Start iteration      DIISMaxIt       ....    12
   Startup error        DIISStart       ....  0.200000
   # of expansion vecs  DIISMaxEq       ....     5
   Bias factor          DIISBfac        ....   1.050
   Max. coefficient     DIISMaxC        ....  10.000
 Trust-Rad. Augm. Hess. CNVTRAH         .... auto
   Auto Start mean grad. ratio tolernc. ....  1.125000
   Auto Start start iteration           ....    20
   Auto Start num. interpolation iter.  ....    10
   Max. Number of Micro iterations      ....    16
   Max. Number of Macro iterations      .... Maxiter - #DIIS iter
   Number of Davidson start vectors     ....     2
   Converg. threshold I  (grad. norm)   ....   1.000e-05
   Converg. threshold II (energy diff.) ....   1.000e-08
   Grad. Scal. Fac. for Micro threshold ....   0.100
   Minimum threshold for Micro iter.    ....   0.010
   NR start threshold (gradient norm)   ....   0.001
   Initial trust radius                 ....   0.400
   Minimum AH scaling param. (alpha)    ....   1.000
   Maximum AH scaling param. (alpha)    .... 1000.000
   Orbital update algorithm             .... Taylor
   White noise on init. David. guess    .... on
   Maximum white noise                  ....   0.010
   Quad. conv. algorithm                .... NR
 SOSCF                  CNVSOSCF        .... on
   Start iteration      SOSCFMaxIt      ....   150
   Startup grad/error   SOSCFStart      ....  0.003300
 Level Shifting         CNVShift        .... on
   Level shift para.    LevelShift      ....    0.2500
   Turn off err/grad.   ShiftErr        ....    0.0010
 Zerner damping         CNVZerner       .... off
 Static damping         CNVDamp         .... on
   Fraction old density DampFac         ....    0.7000
   Max. Damping (<1)    DampMax         ....    0.9800
   Min. Damping (>=0)   DampMin         ....    0.0000
   Turn off err/grad.   DampErr         ....    0.1000
 Fernandez-Rico         CNVRico         .... off

SCF Procedure:
 Maximum # iterations   MaxIter         ....   125
 SCF integral mode      SCFMode         .... Direct
   Integral package                     .... SHARK and LIBINT hybrid scheme
 Reset frequency        DirectResetFreq ....    20
 Integral Threshold     Thresh          ....  2.500e-11 Eh
 Primitive CutOff       TCut            ....  2.500e-12 Eh

Convergence Tolerance:
 Convergence Check Mode ConvCheckMode   .... Total+1el-Energy
 Convergence forced     ConvForced      .... 0
 Energy Change          TolE            ....  1.000e-08 Eh
 1-El. energy change                    ....  1.000e-05 Eh
 Orbital Gradient       TolG            ....  1.000e-05
 Orbital Rotation angle TolX            ....  1.000e-05
 DIIS Error             TolErr          ....  5.000e-07


Diagonalization of the overlap matrix:
Smallest eigenvalue                        ... 6.843e-06
Time for diagonalization                   ...    0.177 sec
Threshold for overlap eigenvalues          ... 1.000e-08
Number of eigenvalues below threshold      ... 0
Time for construction of square roots      ...    0.230 sec
Total time needed                          ...    0.411 sec

Time for model grid setup =    0.208 sec

------------------------------
INITIAL GUESS: MODEL POTENTIAL
------------------------------
Loading Hartree-Fock densities                     ... done
Calculating cut-offs                               ... done
Initializing the effective Hamiltonian             ... done
Setting up the integral package (SHARK)            ... done
Starting the Coulomb interaction                   ... done (   0.1 sec)
Reading the grid                                   ... done
Mapping shells                                     ... done
Starting the XC term evaluation                    ... done (   0.1 sec)
  promolecular density results
     # of electrons  =    120.997672829
     EX              =   -106.671855663
     EC              =     -4.215986082
     EX+EC           =   -110.887841745
Transforming the Hamiltonian                       ... done (   0.2 sec)
Diagonalizing the Hamiltonian                      ... done (   0.2 sec)
Back transforming the eigenvectors                 ... done (   0.1 sec)
Now organizing SCF variables                       ... done
                      ------------------
                      INITIAL GUESS DONE (   0.9 sec)
                      ------------------
-------------------
DFT GRID GENERATION
-------------------

General Integration Accuracy     IntAcc      ... 4.388
Radial Grid Type                 RadialGrid  ... OptM3 with GC (2021)
Angular Grid (max. ang.)         AngularGrid ... 4 (Lebedev-302)
Angular grid pruning method      GridPruning ... 4 (adaptive)
Weight generation scheme         WeightScheme... Becke
Basis function cutoff            BFCut       ... 1.0000e-11
Integration weight cutoff        WCut        ... 1.0000e-14
Angular grids for H and He will be reduced by one unit
Partially contracted basis set               ... off
Rotationally invariant grid construction     ... off

Total number of grid points                  ...   131688
Total number of batches                      ...     2074
Average number of points per batch           ...       63
Average number of grid points per atom       ...     4877
Time for grid setup =    1.068 sec

--------------------
COSX GRID GENERATION
--------------------

GRIDX 1
-------
General Integration Accuracy     IntAcc      ... 3.816
Radial Grid Type                 RadialGrid  ... OptM3 with GC (2021)
Angular Grid (max. ang.)         AngularGrid ... 1 (Lebedev-50)
Angular grid pruning method      GridPruning ... 4 (adaptive)
Weight generation scheme         WeightScheme... Becke
Basis function cutoff            BFCut       ... 1.0000e-11
Integration weight cutoff        WCut        ... 1.0000e-14
Angular grids for H and He will be reduced by one unit
Partially contracted basis set               ... on
Rotationally invariant grid construction     ... off

Total number of grid points                  ...    16708
Total number of batches                      ...      272
Average number of points per batch           ...       61
Average number of grid points per atom       ...      619
UseSFitting                                  ... on

GRIDX 2
-------
General Integration Accuracy     IntAcc      ... 4.020
Radial Grid Type                 RadialGrid  ... OptM3 with GC (2021)
Angular Grid (max. ang.)         AngularGrid ... 2 (Lebedev-110)
Angular grid pruning method      GridPruning ... 4 (adaptive)
Weight generation scheme         WeightScheme... Becke
Basis function cutoff            BFCut       ... 1.0000e-11
Integration weight cutoff        WCut        ... 1.0000e-14
Angular grids for H and He will be reduced by one unit
Partially contracted basis set               ... on
Rotationally invariant grid construction     ... off

Total number of grid points                  ...    36873
Total number of batches                      ...      588
Average number of points per batch           ...       62
Average number of grid points per atom       ...     1366
UseSFitting                                  ... on

GRIDX 3
-------
General Integration Accuracy     IntAcc      ... 4.338
Radial Grid Type                 RadialGrid  ... OptM3 with GC (2021)
Angular Grid (max. ang.)         AngularGrid ... 3 (Lebedev-194)
Angular grid pruning method      GridPruning ... 4 (adaptive)
Weight generation scheme         WeightScheme... Becke
Basis function cutoff            BFCut       ... 1.0000e-11
Integration weight cutoff        WCut        ... 1.0000e-14
Angular grids for H and He will be reduced by one unit
Partially contracted basis set               ... on
Rotationally invariant grid construction     ... off

Total number of grid points                  ...    80985
Total number of batches                      ...     1281
Average number of points per batch           ...       63
Average number of grid points per atom       ...     2999
UseSFitting                                  ... on

Time for X-Grid setup             =    1.635 sec


--------------------
CPCM SOLVATION MODEL
--------------------
CPCM parameters:
  Epsilon                                         ...      78.4000
  Refrac                                          ...       1.3300
  Rsolv                                           ...       1.3000
  Surface type                                    ... GAUSSIAN VDW
  Epsilon function type                           ...         CPCM
Radii:
 Radius for C  used is    3.8550 Bohr (=   2.0400 Ang.)
 Radius for H  used is    2.4944 Bohr (=   1.3200 Ang.)
 Radius for N  used is    3.5149 Bohr (=   1.8600 Ang.)
 Radius for O  used is    3.4469 Bohr (=   1.8240 Ang.)
Calculating surface                               ...        done! (  0.0s)
GEPOL surface points                              ...         1539
GEPOL Volume                                      ...    1789.4391
GEPOL Surface-area                                ...    1013.5284
Calculating surface distance matrix               ...        done! (  0.1s)
Performing Cholesky decomposition & store         ...        done! (  0.5s)
Overall time for CPCM initialization              ...                 0.6s
--------------
SCF ITERATIONS
--------------
ITER       Energy         Delta-E        Max-DP      RMS-DP      [F,P]     Damp
               ***  Starting incremental Fock matrix formation  ***
  0   -871.4817479760   0.000000000000 1.09545023  0.00561469  0.4466709 0.7000
  1   -871.8349642284  -0.353216252391 0.82556171  0.00434828  0.1573319 0.7000
                               ***Turning on DIIS***
  2   -871.9458686919  -0.110904463520 0.42336804  0.00300933  0.0388998 0.0000
  3   -872.1605955606  -0.214726868730 0.80045476  0.00415942  0.0916266 0.0000
  4   -872.1918935386  -0.031297978041 0.12144295  0.00077547  0.0255108 0.0000
  5   -872.1949848743  -0.003091335707 0.03289658  0.00023943  0.0038271 0.0000
                      *** Initiating the SOSCF procedure ***
                           *** Shutting down DIIS ***
                      *** Re-Reading the Fockian *** 
                      *** Removing any level shift *** 
ITER      Energy       Delta-E        Grad      Rot      Max-DP    RMS-DP
  6   -872.19509044  -0.0001055653  0.001103  0.001103  0.008934  0.000076
               *** Restarting incremental Fock matrix formation ***
  7   -872.19510610  -0.0000156643  0.000679  0.004677  0.009019  0.000054
  8   -872.19511493  -0.0000088301  0.000339  0.002832  0.006420  0.000047
  9   -872.19511687  -0.0000019327  0.000220  0.001546  0.005192  0.000034
 10   -872.19511815  -0.0000012841  0.000082  0.000293  0.000913  0.000008
 11   -872.19511798   0.0000001683  0.000151  0.000313  0.000898  0.000008
 12   -872.19511827  -0.0000002853  0.000038  0.000098  0.001276  0.000011
 13   -872.19511822   0.0000000436  0.000053  0.000058  0.000669  0.000003
 14   -872.19511829  -0.0000000653  0.000003  0.000011  0.001387  0.000009
 15   -872.19511828   0.0000000062  0.000004  0.000007  0.000411  0.000003
                  ***Gradient check signals convergence***
              ***Rediagonalizing the Fockian in SOSCF/NRSCF***

               *****************************************************
               *                     SUCCESS                       *
               *           SCF CONVERGED AFTER  16 CYCLES          *
               *****************************************************

Old exchange energy                            =    -21.595661807 Eh
New exchange energy                            =    -21.595672960 Eh
Exchange energy change after final integration =     -0.000011153 Eh
Total energy after final integration           =   -872.195129426 Eh
Final COS-X integration done in                =     1.945 sec

----------------
TOTAL SCF ENERGY
----------------

Total Energy       :         -872.19512943 Eh          -23733.63607 eV

Components:
Nuclear Repulsion  :         1087.43082335 Eh           29590.49706 eV
Electronic Energy  :        -1959.62595278 Eh          -53324.13312 eV
One Electron Energy:        -3366.61341498 Eh          -91610.20839 eV
Two Electron Energy:         1406.98746220 Eh           38286.07527 eV
Max COSX asymmetry :            0.00000207 Eh               0.00006 eV
CPCM Dielectric    :           -0.10749950 Eh              -2.92521 eV

Virial components:
Potential Energy   :        -1740.95216384 Eh          -47373.71681 eV
Kinetic Energy     :          868.75703442 Eh           23640.08074 eV
Virial Ratio       :            2.00395749


DFT components:
N(Alpha)           :       60.999863866544 electrons
N(Beta)            :       60.999863866544 electrons
N(Total)           :      121.999727733088 electrons
E(X)               :      -86.076156000332 Eh       
E(C)               :       -5.000105813682 Eh       
E(XC)              :      -91.076261814014 Eh       
DFET-embed. en.    :        0.000000000000 Eh       
CPCM Solvation Model Properties:
Surface-charge          :            0.97349784
Charge-correction       :           -0.00313662 Eh              -0.08535 eV
Free-energy (cav+disp)  :  This term is not implemented in the current solvation scheme

---------------
SCF CONVERGENCE
---------------

  Last Energy change         ...    1.0661e-08  Tolerance :   1.0000e-08
  Last MAX-Density change    ...    2.3315e-15  Tolerance :   1.0000e-07
  Last RMS-Density change    ...    1.6359e-17  Tolerance :   5.0000e-09
  Last Orbital Gradient      ...    1.3402e-06  Tolerance :   1.0000e-05
  Last Orbital Rotation      ...    3.4873e-06  Tolerance :   1.0000e-05

             **** THE GBW FILE WAS UPDATED (/home/rudenko/mop_saddle_orca_4_serv/for_orca/p-o2nc6h4chno2ch3_oh/orca/start_freq_H/start_f_H.gbw) ****
             **** DENSITY /home/rudenko/mop_saddle_orca_4_serv/for_orca/p-o2nc6h4chno2ch3_oh/orca/start_freq_H/start_f_H.scfp WAS UPDATED ****
             **** ENERGY FILE WAS UPDATED (/home/rudenko/mop_saddle_orca_4_serv/for_orca/p-o2nc6h4chno2ch3_oh/orca/start_freq_H/start_f_H.en.tmp) ****
             **** THE GBW FILE WAS UPDATED (/home/rudenko/mop_saddle_orca_4_serv/for_orca/p-o2nc6h4chno2ch3_oh/orca/start_freq_H/start_f_H.gbw) ****
             **** DENSITY /home/rudenko/mop_saddle_orca_4_serv/for_orca/p-o2nc6h4chno2ch3_oh/orca/start_freq_H/start_f_H.scfp WAS UPDATED ****
----------------
ORBITAL ENERGIES
----------------

  NO   OCC          E(Eh)            E(eV) 
   0   2.0000     -19.167953      -521.5865 
   1   2.0000     -19.167898      -521.5850 
   2   2.0000     -19.165867      -521.5298 
   3   2.0000     -19.162100      -521.4273 
   4   2.0000     -19.067881      -518.8634 
   5   2.0000     -19.019202      -517.5388 
   6   2.0000     -14.561298      -396.2331 
   7   2.0000     -14.547102      -395.8468 
   8   2.0000     -10.237954      -278.5889 
   9   2.0000     -10.221087      -278.1299 
  10   2.0000     -10.206507      -277.7332 
  11   2.0000     -10.198999      -277.5289 
  12   2.0000     -10.198302      -277.5099 
  13   2.0000     -10.191387      -277.3217 
  14   2.0000     -10.187694      -277.2213 
  15   2.0000     -10.165601      -276.6201 
  16   2.0000      -1.241347       -33.7788 
  17   2.0000      -1.234126       -33.5823 
  18   2.0000      -1.065745       -29.0004 
  19   2.0000      -1.060387       -28.8546 
  20   2.0000      -0.948110       -25.7994 
  21   2.0000      -0.896506       -24.3952 
  22   2.0000      -0.865287       -23.5457 
  23   2.0000      -0.845694       -23.0125 
  24   2.0000      -0.793186       -21.5837 
  25   2.0000      -0.771223       -20.9861 
  26   2.0000      -0.702917       -19.1273 
  27   2.0000      -0.698194       -18.9988 
  28   2.0000      -0.635713       -17.2986 
  29   2.0000      -0.609110       -16.5747 
  30   2.0000      -0.582834       -15.8597 
  31   2.0000      -0.570545       -15.5253 
  32   2.0000      -0.549374       -14.9492 
  33   2.0000      -0.547772       -14.9056 
  34   2.0000      -0.541083       -14.7236 
  35   2.0000      -0.529141       -14.3986 
  36   2.0000      -0.523106       -14.2344 
  37   2.0000      -0.483599       -13.1594 
  38   2.0000      -0.474437       -12.9101 
  39   2.0000      -0.466327       -12.6894 
  40   2.0000      -0.458134       -12.4665 
  41   2.0000      -0.443343       -12.0640 
  42   2.0000      -0.422906       -11.5079 
  43   2.0000      -0.406052       -11.0492 
  44   2.0000      -0.394458       -10.7338 
  45   2.0000      -0.381084       -10.3698 
  46   2.0000      -0.368634       -10.0310 
  47   2.0000      -0.365433        -9.9439 
  48   2.0000      -0.359908        -9.7936 
  49   2.0000      -0.337514        -9.1842 
  50   2.0000      -0.330361        -8.9896 
  51   2.0000      -0.328730        -8.9452 
  52   2.0000      -0.325250        -8.8505 
  53   2.0000      -0.316249        -8.6056 
  54   2.0000      -0.308744        -8.4014 
  55   2.0000      -0.304193        -8.2775 
  56   2.0000      -0.277497        -7.5511 
  57   2.0000      -0.277056        -7.5391 
  58   2.0000      -0.272039        -7.4026 
  59   2.0000      -0.224501        -6.1090 
  60   2.0000      -0.218450        -5.9443 
  61   0.0000      -0.103453        -2.8151 
  62   0.0000      -0.073848        -2.0095 
  63   0.0000      -0.030218        -0.8223 
  64   0.0000      -0.009738        -0.2650 
  65   0.0000       0.043629         1.1872 
  66   0.0000       0.061945         1.6856 
  67   0.0000       0.068986         1.8772 
  68   0.0000       0.083858         2.2819 
  69   0.0000       0.092927         2.5287 
  70   0.0000       0.103678         2.8212 
  71   0.0000       0.108185         2.9439 
  72   0.0000       0.115877         3.1532 
  73   0.0000       0.121853         3.3158 
  74   0.0000       0.131413         3.5759 
  75   0.0000       0.140600         3.8259 
  76   0.0000       0.147051         4.0015 
  77   0.0000       0.163754         4.4560 
  78   0.0000       0.168208         4.5772 
  79   0.0000       0.177713         4.8358 
  80   0.0000       0.184874         5.0307 
  81   0.0000       0.201057         5.4710 
  82   0.0000       0.205169         5.5829 
  83   0.0000       0.207069         5.6346 
  84   0.0000       0.213798         5.8177 
  85   0.0000       0.217040         5.9060 
  86   0.0000       0.225410         6.1337 
  87   0.0000       0.233936         6.3657 
  88   0.0000       0.240880         6.5547 
  89   0.0000       0.246345         6.7034 
  90   0.0000       0.248580         6.7642 
  91   0.0000       0.264224         7.1899 
  92   0.0000       0.276948         7.5361 
  93   0.0000       0.280336         7.6283 
  94   0.0000       0.284549         7.7430 
  95   0.0000       0.302545         8.2327 
  96   0.0000       0.304963         8.2985 
  97   0.0000       0.316232         8.6051 
  98   0.0000       0.318008         8.6534 
  99   0.0000       0.320745         8.7279 
 100   0.0000       0.331841         9.0299 
 101   0.0000       0.339709         9.2440 
 102   0.0000       0.354780         9.6541 
 103   0.0000       0.355947         9.6858 
 104   0.0000       0.364411         9.9161 
 105   0.0000       0.370081        10.0704 
 106   0.0000       0.372124        10.1260 
 107   0.0000       0.383053        10.4234 
 108   0.0000       0.386746        10.5239 
 109   0.0000       0.395186        10.7536 
 110   0.0000       0.399125        10.8607 
 111   0.0000       0.402721        10.9586 
 112   0.0000       0.410081        11.1589 
 113   0.0000       0.413731        11.2582 
 114   0.0000       0.427374        11.6294 
 115   0.0000       0.430287        11.7087 
 116   0.0000       0.432840        11.7782 
 117   0.0000       0.439825        11.9683 
 118   0.0000       0.448616        12.2075 
 119   0.0000       0.451607        12.2888 
 120   0.0000       0.456569        12.4239 
 121   0.0000       0.463480        12.6119 
 122   0.0000       0.466063        12.6822 
 123   0.0000       0.479674        13.0526 
 124   0.0000       0.481242        13.0953 
 125   0.0000       0.489912        13.3312 
 126   0.0000       0.490280        13.3412 
 127   0.0000       0.496285        13.5046 
 128   0.0000       0.507306        13.8045 
 129   0.0000       0.510694        13.8967 
 130   0.0000       0.515328        14.0228 
 131   0.0000       0.517067        14.0701 
 132   0.0000       0.531842        14.4722 
 133   0.0000       0.536142        14.5892 
 134   0.0000       0.554676        15.0935 
 135   0.0000       0.558138        15.1877 
 136   0.0000       0.561920        15.2906 
 137   0.0000       0.571790        15.5592 
 138   0.0000       0.579182        15.7604 
 139   0.0000       0.589188        16.0326 
 140   0.0000       0.593825        16.1588 
 141   0.0000       0.602522        16.3954 
 142   0.0000       0.606052        16.4915 
 143   0.0000       0.618923        16.8417 
 144   0.0000       0.629780        17.1372 
 145   0.0000       0.632230        17.2039 
 146   0.0000       0.643542        17.5117 
 147   0.0000       0.648554        17.6481 
 148   0.0000       0.656060        17.8523 
 149   0.0000       0.662282        18.0216 
 150   0.0000       0.672948        18.3118 
 151   0.0000       0.683196        18.5907 
 152   0.0000       0.698615        19.0103 
 153   0.0000       0.711400        19.3582 
 154   0.0000       0.715367        19.4661 
 155   0.0000       0.734528        19.9875 
 156   0.0000       0.738614        20.0987 
 157   0.0000       0.745368        20.2825 
 158   0.0000       0.755750        20.5650 
 159   0.0000       0.773788        21.0559 
 160   0.0000       0.782144        21.2832 
 161   0.0000       0.792225        21.5575 
 162   0.0000       0.809755        22.0346 
 163   0.0000       0.823378        22.4053 
 164   0.0000       0.825028        22.4502 
 165   0.0000       0.842308        22.9204 
 166   0.0000       0.846889        23.0450 
 167   0.0000       0.857053        23.3216 
 168   0.0000       0.863194        23.4887 
 169   0.0000       0.890663        24.2362 
 170   0.0000       0.894367        24.3370 
 171   0.0000       0.909964        24.7614 
 172   0.0000       0.915120        24.9017 
 173   0.0000       0.938357        25.5340 
 174   0.0000       0.972867        26.4730 
 175   0.0000       0.978358        26.6225 
 176   0.0000       0.989755        26.9326 
 177   0.0000       0.996620        27.1194 
 178   0.0000       1.002957        27.2919 
 179   0.0000       1.026142        27.9227 
 180   0.0000       1.038568        28.2609 
 181   0.0000       1.058094        28.7922 
 182   0.0000       1.059682        28.8354 
 183   0.0000       1.063056        28.9272 
 184   0.0000       1.070407        29.1273 
 185   0.0000       1.094362        29.7791 
 186   0.0000       1.111337        30.2410 
 187   0.0000       1.124739        30.6057 
 188   0.0000       1.141982        31.0749 
 189   0.0000       1.178606        32.0715 
 190   0.0000       1.180356        32.1191 
 191   0.0000       1.197524        32.5863 
 192   0.0000       1.202845        32.7311 
 193   0.0000       1.219833        33.1934 
 194   0.0000       1.233187        33.5567 
 195   0.0000       1.250217        34.0201 
 196   0.0000       1.255684        34.1689 
 197   0.0000       1.258635        34.2492 
 198   0.0000       1.263012        34.3683 
 199   0.0000       1.274290        34.6752 
 200   0.0000       1.289733        35.0954 
 201   0.0000       1.299357        35.3573 
 202   0.0000       1.307268        35.5726 
 203   0.0000       1.316770        35.8311 
 204   0.0000       1.326868        36.1059 
 205   0.0000       1.341852        36.5136 
 206   0.0000       1.356250        36.9054 
 207   0.0000       1.367370        37.2080 
 208   0.0000       1.382071        37.6081 
 209   0.0000       1.386393        37.7257 
 210   0.0000       1.413125        38.4531 
 211   0.0000       1.417594        38.5747 
 212   0.0000       1.431709        38.9588 
 213   0.0000       1.440237        39.1908 
 214   0.0000       1.462272        39.7904 
 215   0.0000       1.473767        40.1032 
 216   0.0000       1.488495        40.5040 
 217   0.0000       1.495253        40.6879 
 218   0.0000       1.509821        41.0843 
 219   0.0000       1.515754        41.2458 
 220   0.0000       1.531826        41.6831 
 221   0.0000       1.539309        41.8867 
 222   0.0000       1.545526        42.0559 
 223   0.0000       1.567136        42.6439 
 224   0.0000       1.570709        42.7412 
 225   0.0000       1.581611        43.0378 
 226   0.0000       1.582904        43.0730 
 227   0.0000       1.593954        43.3737 
 228   0.0000       1.600341        43.5475 
 229   0.0000       1.611580        43.8533 
 230   0.0000       1.624464        44.2039 
 231   0.0000       1.630371        44.3647 
 232   0.0000       1.642448        44.6933 
 233   0.0000       1.655883        45.0589 
 234   0.0000       1.659891        45.1679 
 235   0.0000       1.667852        45.3846 
 236   0.0000       1.678442        45.6727 
 237   0.0000       1.704621        46.3851 
 238   0.0000       1.711448        46.5709 
 239   0.0000       1.721359        46.8405 
 240   0.0000       1.729358        47.0582 
 241   0.0000       1.744620        47.4735 
 242   0.0000       1.749732        47.6126 
 243   0.0000       1.761949        47.9451 
 244   0.0000       1.774964        48.2992 
 245   0.0000       1.783598        48.5342 
 246   0.0000       1.797324        48.9077 
 247   0.0000       1.811921        49.3049 
 248   0.0000       1.815497        49.4022 
 249   0.0000       1.835157        49.9372 
 250   0.0000       1.845310        50.2134 
 251   0.0000       1.849909        50.3386 
 252   0.0000       1.881080        51.1868 
 253   0.0000       1.902473        51.7689 
 254   0.0000       1.919715        52.2381 
 255   0.0000       1.936837        52.7040 
 256   0.0000       1.953951        53.1697 
 257   0.0000       1.958796        53.3015 
 258   0.0000       1.977506        53.8107 
 259   0.0000       1.984939        54.0129 
 260   0.0000       2.001054        54.4514 
 261   0.0000       2.012666        54.7674 
 262   0.0000       2.020623        54.9839 
 263   0.0000       2.030073        55.2411 
 264   0.0000       2.037348        55.4391 
 265   0.0000       2.055338        55.9286 
 266   0.0000       2.069621        56.3172 
 267   0.0000       2.076093        56.4934 
 268   0.0000       2.106524        57.3214 
 269   0.0000       2.113738        57.5177 
 270   0.0000       2.115069        57.5540 
 271   0.0000       2.128268        57.9131 
 272   0.0000       2.131453        57.9998 
 273   0.0000       2.146515        58.4097 
 274   0.0000       2.148430        58.4618 
 275   0.0000       2.155172        58.6452 
 276   0.0000       2.158182        58.7271 
 277   0.0000       2.167952        58.9930 
 278   0.0000       2.173923        59.1555 
 279   0.0000       2.191125        59.6235 
 280   0.0000       2.217556        60.3428 
 281   0.0000       2.226288        60.5804 
 282   0.0000       2.235513        60.8314 
 283   0.0000       2.243366        61.0451 
 284   0.0000       2.253087        61.3096 
 285   0.0000       2.260667        61.5159 
 286   0.0000       2.266685        61.6796 
 287   0.0000       2.271349        61.8065 
 288   0.0000       2.301789        62.6349 
 289   0.0000       2.332264        63.4641 
 290   0.0000       2.341594        63.7180 
 291   0.0000       2.351305        63.9822 
 292   0.0000       2.372946        64.5711 
 293   0.0000       2.391057        65.0640 
 294   0.0000       2.396566        65.2139 
 295   0.0000       2.413532        65.6755 
 296   0.0000       2.424751        65.9808 
 297   0.0000       2.441519        66.4371 
 298   0.0000       2.450908        66.6926 
 299   0.0000       2.466932        67.1286 
 300   0.0000       2.477084        67.4049 
 301   0.0000       2.483952        67.5918 
 302   0.0000       2.517479        68.5041 
 303   0.0000       2.522225        68.6332 
 304   0.0000       2.544624        69.2427 
 305   0.0000       2.570613        69.9499 
 306   0.0000       2.578319        70.1596 
 307   0.0000       2.582020        70.2603 
 308   0.0000       2.600268        70.7569 
 309   0.0000       2.606659        70.9308 
 310   0.0000       2.614572        71.1461 
 311   0.0000       2.622195        71.3536 
 312   0.0000       2.630331        71.5749 
 313   0.0000       2.638213        71.7894 
 314   0.0000       2.652382        72.1750 
 315   0.0000       2.658487        72.3411 
 316   0.0000       2.675163        72.7949 
 317   0.0000       2.678827        72.8946 
 318   0.0000       2.680952        72.9524 
 319   0.0000       2.697969        73.4155 
 320   0.0000       2.702482        73.5383 
 321   0.0000       2.706601        73.6504 
 322   0.0000       2.719242        73.9943 
 323   0.0000       2.722337        74.0786 
 324   0.0000       2.726459        74.1907 
 325   0.0000       2.734307        74.4043 
 326   0.0000       2.751160        74.8629 
 327   0.0000       2.753615        74.9297 
 328   0.0000       2.770731        75.3954 
 329   0.0000       2.792888        75.9984 
 330   0.0000       2.795582        76.0717 
 331   0.0000       2.804165        76.3052 
 332   0.0000       2.822046        76.7918 
 333   0.0000       2.830645        77.0258 
 334   0.0000       2.835099        77.1470 
 335   0.0000       2.841062        77.3092 
 336   0.0000       2.859779        77.8185 
 337   0.0000       2.870385        78.1071 
 338   0.0000       2.883827        78.4729 
 339   0.0000       2.899462        78.8984 
 340   0.0000       2.912088        79.2419 
 341   0.0000       2.929756        79.7227 
 342   0.0000       2.947045        80.1932 
 343   0.0000       2.958531        80.5057 
 344   0.0000       2.968388        80.7739 
 345   0.0000       2.985048        81.2273 
 346   0.0000       2.996386        81.5358 
 347   0.0000       3.004535        81.7576 
 348   0.0000       3.013964        82.0141 
 349   0.0000       3.043467        82.8169 
 350   0.0000       3.068674        83.5029 
 351   0.0000       3.081136        83.8420 
 352   0.0000       3.089129        84.0595 
 353   0.0000       3.100317        84.3639 
 354   0.0000       3.113039        84.7101 
 355   0.0000       3.121336        84.9359 
 356   0.0000       3.137933        85.3875 
 357   0.0000       3.143275        85.5329 
 358   0.0000       3.151623        85.7600 
 359   0.0000       3.157455        85.9187 
 360   0.0000       3.163955        86.0956 
 361   0.0000       3.165948        86.1498 
 362   0.0000       3.179228        86.5112 
 363   0.0000       3.200592        87.0925 
 364   0.0000       3.214859        87.4808 
 365   0.0000       3.232343        87.9565 
 366   0.0000       3.249282        88.4175 
 367   0.0000       3.257118        88.6307 
 368   0.0000       3.265051        88.8466 
 369   0.0000       3.282871        89.3315 
 370   0.0000       3.284227        89.3684 
 371   0.0000       3.288999        89.4982 
 372   0.0000       3.296982        89.7154 
 373   0.0000       3.322848        90.4193 
 374   0.0000       3.329508        90.6005 
 375   0.0000       3.335146        90.7539 
 376   0.0000       3.360962        91.4564 
 377   0.0000       3.366016        91.5940 
 378   0.0000       3.384608        92.0999 
 379   0.0000       3.395350        92.3922 
 380   0.0000       3.409011        92.7639 
 381   0.0000       3.411677        92.8364 
 382   0.0000       3.435760        93.4918 
 383   0.0000       3.449162        93.8565 
 384   0.0000       3.451999        93.9337 
 385   0.0000       3.466409        94.3258 
 386   0.0000       3.489391        94.9511 
 387   0.0000       3.508271        95.4649 
 388   0.0000       3.528343        96.0111 
 389   0.0000       3.549663        96.5912 
 390   0.0000       3.557687        96.8096 
 391   0.0000       3.586377        97.5903 
 392   0.0000       3.624389        98.6246 
 393   0.0000       3.627247        98.7024 
 394   0.0000       3.635027        98.9141 
 395   0.0000       3.667938        99.8097 
 396   0.0000       3.682901       100.2168 
 397   0.0000       3.700833       100.7048 
 398   0.0000       3.736233       101.6681 
 399   0.0000       3.749096       102.0181 
 400   0.0000       3.755458       102.1912 
 401   0.0000       3.760948       102.3406 
 402   0.0000       3.796272       103.3018 
 403   0.0000       3.814696       103.8032 
 404   0.0000       3.850662       104.7818 
 405   0.0000       3.852579       104.8340 
 406   0.0000       3.860916       105.0609 
 407   0.0000       3.890531       105.8667 
 408   0.0000       3.894149       105.9652 
 409   0.0000       3.935890       107.1010 
 410   0.0000       3.951518       107.5263 
 411   0.0000       3.982712       108.3751 
 412   0.0000       4.001112       108.8758 
 413   0.0000       4.017787       109.3296 
 414   0.0000       4.025539       109.5405 
 415   0.0000       4.042933       110.0138 
 416   0.0000       4.049970       110.2053 
 417   0.0000       4.059224       110.4571 
 418   0.0000       4.081182       111.0546 
 419   0.0000       4.094188       111.4085 
 420   0.0000       4.118907       112.0812 
 421   0.0000       4.159652       113.1899 
 422   0.0000       4.171913       113.5235 
 423   0.0000       4.179495       113.7298 
 424   0.0000       4.191357       114.0526 
 425   0.0000       4.204043       114.3978 
 426   0.0000       4.218261       114.7847 
 427   0.0000       4.226714       115.0147 
 428   0.0000       4.233175       115.1906 
 429   0.0000       4.242946       115.4564 
 430   0.0000       4.270775       116.2137 
 431   0.0000       4.306049       117.1735 
 432   0.0000       4.314742       117.4101 
 433   0.0000       4.380410       119.1970 
 434   0.0000       4.436152       120.7138 
 435   0.0000       4.447658       121.0269 
 436   0.0000       4.515036       122.8604 
 437   0.0000       4.530963       123.2938 
 438   0.0000       4.544321       123.6572 
 439   0.0000       4.548351       123.7669 
 440   0.0000       4.598554       125.1330 
 441   0.0000       4.607717       125.3823 
 442   0.0000       4.627772       125.9281 
 443   0.0000       4.651190       126.5653 
 444   0.0000       4.658679       126.7691 
 445   0.0000       4.675231       127.2195 
 446   0.0000       4.690975       127.6479 
 447   0.0000       4.700471       127.9063 
 448   0.0000       4.711580       128.2086 
 449   0.0000       4.742778       129.0576 
 450   0.0000       4.761069       129.5553 
 451   0.0000       4.800107       130.6175 
 452   0.0000       4.812312       130.9497 
 453   0.0000       4.874423       132.6398 
 454   0.0000       4.890296       133.0717 
 455   0.0000       4.905089       133.4742 
 456   0.0000       4.918222       133.8316 
 457   0.0000       4.931776       134.2004 
 458   0.0000       4.969810       135.2354 
 459   0.0000       5.010658       136.3469 
 460   0.0000       5.023559       136.6980 
 461   0.0000       5.070362       137.9716 
 462   0.0000       5.079604       138.2231 
 463   0.0000       5.097780       138.7176 
 464   0.0000       5.114551       139.1740 
 465   0.0000       5.119704       139.3142 
 466   0.0000       5.129499       139.5808 
 467   0.0000       5.132200       139.6543 
 468   0.0000       5.137189       139.7900 
 469   0.0000       5.146594       140.0459 
 470   0.0000       5.152082       140.1953 
 471   0.0000       5.168562       140.6437 
 472   0.0000       5.192193       141.2867 
 473   0.0000       5.210126       141.7747 
 474   0.0000       5.221151       142.0748 
 475   0.0000       5.229509       142.3022 
 476   0.0000       5.245513       142.7377 
 477   0.0000       5.287041       143.8677 
 478   0.0000       5.288091       143.8963 
 479   0.0000       5.294883       144.0811 
 480   0.0000       5.301852       144.2707 
 481   0.0000       5.338103       145.2572 
 482   0.0000       5.356193       145.7494 
 483   0.0000       5.379295       146.3781 
 484   0.0000       5.393275       146.7585 
 485   0.0000       5.399610       146.9309 
 486   0.0000       5.436068       147.9229 
 487   0.0000       5.448845       148.2706 
 488   0.0000       5.467491       148.7780 
 489   0.0000       5.470728       148.8661 
 490   0.0000       5.493693       149.4910 
 491   0.0000       5.500646       149.6802 
 492   0.0000       5.541539       150.7929 
 493   0.0000       5.548905       150.9934 
 494   0.0000       5.603022       152.4660 
 495   0.0000       5.606430       152.5587 
 496   0.0000       5.624503       153.0505 
 497   0.0000       5.628806       153.1676 
 498   0.0000       5.738057       156.1405 
 499   0.0000       5.780151       157.2859 
 500   0.0000       5.806048       157.9906 
 501   0.0000       5.951714       161.9544 
 502   0.0000       5.954713       162.0360 
 503   0.0000       6.078288       165.3986 
 504   0.0000       6.222176       169.3140 
 505   0.0000       6.222352       169.3188 
 506   0.0000       6.245589       169.9511 
 507   0.0000       6.262717       170.4172 
 508   0.0000       6.288776       171.1263 
 509   0.0000       6.312375       171.7685 
 510   0.0000       6.320522       171.9901 
 511   0.0000       6.332161       172.3069 
 512   0.0000       6.355806       172.9503 
 513   0.0000       6.376980       173.5265 
 514   0.0000       6.382951       173.6889 
 515   0.0000       6.391172       173.9126 
 516   0.0000       6.391865       173.9315 
 517   0.0000       6.410894       174.4493 
 518   0.0000       6.423901       174.8032 
 519   0.0000       6.427096       174.8902 
 520   0.0000       6.434448       175.0902 
 521   0.0000       6.445184       175.3824 
 522   0.0000       6.511920       177.1983 
 523   0.0000       6.563390       178.5989 
 524   0.0000       6.676096       181.6658 
 525   0.0000       6.734501       183.2551 
 526   0.0000       6.823193       185.6685 
 527   0.0000       6.834762       185.9833 
 528   0.0000       6.849700       186.3898 
 529   0.0000       6.860059       186.6717 
 530   0.0000       6.879905       187.2117 
 531   0.0000       6.918040       188.2494 
 532   0.0000       6.924710       188.4309 
 533   0.0000       6.990506       190.2213 
 534   0.0000       7.095609       193.0813 
 535   0.0000       7.101827       193.2505 
 536   0.0000       7.116053       193.6376 
 537   0.0000       7.192367       195.7142 
 538   0.0000       7.250482       197.2956 
 539   0.0000       7.257364       197.4829 
 540   0.0000       7.335509       199.6093 
 541   0.0000       7.387167       201.0150 
 542   0.0000       7.395910       201.2529 
 543   0.0000       7.447546       202.6580 
 544   0.0000       7.475249       203.4119 
 545   0.0000       7.538587       205.1354 
 546   0.0000      22.218931       604.6079 
 547   0.0000      22.401111       609.5652 
 548   0.0000      22.656105       616.5040 
 549   0.0000      22.700972       617.7249 
 550   0.0000      22.752937       619.1389 
 551   0.0000      22.792047       620.2031 
 552   0.0000      22.924254       623.8007 
 553   0.0000      23.301825       634.0749 
 554   0.0000      32.473680       883.6538 
 555   0.0000      32.501500       884.4108 
 556   0.0000      43.403117      1181.0589 
 557   0.0000      43.549074      1185.0306 
 558   0.0000      44.010138      1197.5767 
 559   0.0000      44.036839      1198.3033 
 560   0.0000      44.052463      1198.7285 
 561   0.0000      44.093423      1199.8430 

                    ********************************
                    * MULLIKEN POPULATION ANALYSIS *
                    ********************************

-----------------------
MULLIKEN ATOMIC CHARGES
-----------------------
   0 C :   -0.181250
   1 C :   -0.150644
   2 C :    0.148538
   3 C :   -0.188932
   4 C :   -0.170560
   5 C :    0.143669
   6 H :    0.166502
   7 H :    0.093546
   8 H :    0.159078
   9 C :    0.043285
  10 H :    0.134175
  11 C :   -0.366505
  12 H :    0.135115
  13 H :    0.135108
  14 H :    0.136398
  15 N :    0.413371
  16 O :   -0.348578
  17 O :   -0.365176
  18 O :   -0.824378
  19 H :    0.318744
  20 H :    0.167614
  21 N :    0.447092
  22 O :   -0.354989
  23 O :   -0.354857
  24 H :    0.286763
  25 H :    0.358329
  26 O :   -0.981458
Sum of atomic charges:   -1.0000000

--------------------------------
MULLIKEN REDUCED ORBITAL CHARGES
--------------------------------
  0 C s       :     3.276301  s :     3.276301
      pz      :     0.924871  p :     2.809786
      px      :     0.953743
      py      :     0.931172
      dz2     :     0.018287  d :     0.087659
      dxz     :     0.026933
      dyz     :     0.013770
      dx2y2   :     0.011427
      dxy     :     0.017241
      f0      :     0.001392  f :     0.007504
      f+1     :     0.001408
      f-1     :     0.000810
      f+2     :     0.001247
      f-2     :     0.000810
      f+3     :     0.000535
      f-3     :     0.001303
  1 C s       :     3.251486  s :     3.251486
      pz      :     0.946249  p :     2.810984
      px      :     0.943559
      py      :     0.921177
      dz2     :     0.018826  d :     0.080779
      dxz     :     0.021305
      dyz     :     0.007388
      dx2y2   :     0.014044
      dxy     :     0.019217
      f0      :     0.000743  f :     0.007395
      f+1     :     0.001648
      f-1     :     0.000567
      f+2     :     0.001359
      f-2     :     0.000802
      f+3     :     0.000914
      f-3     :     0.001362
  2 C s       :     3.215963  s :     3.215963
      pz      :     0.816330  p :     2.499611
      px      :     0.818530
      py      :     0.864752
      dz2     :     0.032923  d :     0.125825
      dxz     :     0.031720
      dyz     :     0.019945
      dx2y2   :     0.019973
      dxy     :     0.021264
      f0      :     0.001621  f :     0.010063
      f+1     :     0.002272
      f-1     :     0.000975
      f+2     :     0.001820
      f-2     :     0.001031
      f+3     :     0.001226
      f-3     :     0.001119
  3 C s       :     3.273349  s :     3.273349
      pz      :     0.930186  p :     2.829023
      px      :     0.941026
      py      :     0.957812
      dz2     :     0.015632  d :     0.079175
      dxz     :     0.027700
      dyz     :     0.011282
      dx2y2   :     0.008795
      dxy     :     0.015765
      f0      :     0.001285  f :     0.007385
      f+1     :     0.001464
      f-1     :     0.000731
      f+2     :     0.001245
      f-2     :     0.000846
      f+3     :     0.000544
      f-3     :     0.001271
  4 C s       :     3.265809  s :     3.265809
      pz      :     0.974571  p :     2.810006
      px      :     0.912043
      py      :     0.923391
      dz2     :     0.017187  d :     0.087171
      dxz     :     0.025331
      dyz     :     0.007497
      dx2y2   :     0.015094
      dxy     :     0.022063
      f0      :     0.000784  f :     0.007575
      f+1     :     0.001674
      f-1     :     0.000588
      f+2     :     0.001373
      f-2     :     0.000911
      f+3     :     0.000889
      f-3     :     0.001355
  5 C s       :     3.078827  s :     3.078827
      pz      :     0.880929  p :     2.647089
      px      :     0.763129
      py      :     1.003031
      dz2     :     0.030619  d :     0.118499
      dxz     :     0.029294
      dyz     :     0.020946
      dx2y2   :     0.021777
      dxy     :     0.015863
      f0      :     0.001804  f :     0.011917
      f+1     :     0.002504
      f-1     :     0.001026
      f+2     :     0.002286
      f-2     :     0.001147
      f+3     :     0.001749
      f-3     :     0.001401
  6 H s       :     0.810709  s :     0.810709
      pz      :     0.007453  p :     0.022789
      px      :     0.009700
      py      :     0.005636
  7 H s       :     0.882412  s :     0.882412
      pz      :     0.013716  p :     0.024042
      px      :     0.004842
      py      :     0.005484
  8 H s       :     0.818503  s :     0.818503
      pz      :     0.007830  p :     0.022419
      px      :     0.008707
      py      :     0.005883
  9 C s       :     3.147135  s :     3.147135
      pz      :     0.963609  p :     2.661768
      px      :     0.808412
      py      :     0.889747
      dz2     :     0.017374  d :     0.138349
      dxz     :     0.019941
      dyz     :     0.034012
      dx2y2   :     0.027501
      dxy     :     0.039522
      f0      :     0.001003  f :     0.009462
      f+1     :     0.001022
      f-1     :     0.000984
      f+2     :     0.001383
      f-2     :     0.001561
      f+3     :     0.001519
      f-3     :     0.001990
 10 H s       :     0.831136  s :     0.831136
      pz      :     0.024213  p :     0.034689
      px      :     0.003759
      py      :     0.006717
 11 C s       :     3.305892  s :     3.305892
      pz      :     1.066350  p :     3.010232
      px      :     1.047529
      py      :     0.896353
      dz2     :     0.003738  d :     0.046523
      dxz     :     0.004839
      dyz     :     0.017190
      dx2y2   :     0.011277
      dxy     :     0.009479
      f0      :     0.000686  f :     0.003858
      f+1     :     0.000061
      f-1     :     0.000626
      f+2     :     0.000617
      f-2     :     0.000367
      f+3     :     0.000741
      f-3     :     0.000760
 12 H s       :     0.843109  s :     0.843109
      pz      :     0.005584  p :     0.021776
      px      :     0.011926
      py      :     0.004266
 13 H s       :     0.843323  s :     0.843323
      pz      :     0.011192  p :     0.021569
      px      :     0.004350
      py      :     0.006027
 14 H s       :     0.841850  s :     0.841850
      pz      :     0.007318  p :     0.021751
      px      :     0.007165
      py      :     0.007268
 15 N s       :     3.326456  s :     3.326456
      pz      :     1.076168  p :     3.008296
      px      :     0.966614
      py      :     0.965514
      dz2     :     0.021309  d :     0.237683
      dxz     :     0.036701
      dyz     :     0.044535
      dx2y2   :     0.061716
      dxy     :     0.073421
      f0      :     0.001192  f :     0.014193
      f+1     :     0.001596
      f-1     :     0.001151
      f+2     :     0.002484
      f-2     :     0.001226
      f+3     :     0.003252
      f-3     :     0.003292
 16 O s       :     3.874899  s :     3.874899
      pz      :     1.464950  p :     4.428744
      px      :     1.225434
      py      :     1.738359
      dz2     :     0.005625  d :     0.041656
      dxz     :     0.011103
      dyz     :     0.002765
      dx2y2   :     0.012099
      dxy     :     0.010063
      f0      :     0.000273  f :     0.003279
      f+1     :     0.000525
      f-1     :     0.000100
      f+2     :     0.000435
      f-2     :     0.000445
      f+3     :     0.000732
      f-3     :     0.000767
 17 O s       :     3.875242  s :     3.875242
      pz      :     1.531842  p :     4.445500
      px      :     1.704793
      py      :     1.208865
      dz2     :     0.005090  d :     0.041178
      dxz     :     0.001870
      dyz     :     0.010158
      dx2y2   :     0.012986
      dxy     :     0.011074
      f0      :     0.000306  f :     0.003256
      f+1     :     0.000096
      f-1     :     0.000484
      f+2     :     0.000347
      f-2     :     0.000314
      f+3     :     0.000883
      f-3     :     0.000825
 18 O s       :     3.801253  s :     3.801253
      pz      :     1.395085  p :     5.004399
      px      :     1.887535
      py      :     1.721778
      dz2     :     0.001681  d :     0.017625
      dxz     :     0.002764
      dyz     :     0.007422
      dx2y2   :     0.003696
      dxy     :     0.002062
      f0      :     0.000120  f :     0.001102
      f+1     :     0.000342
      f-1     :     0.000197
      f+2     :     0.000211
      f-2     :     0.000118
      f+3     :     0.000032
      f-3     :     0.000081
 19 H s       :     0.634797  s :     0.634797
      pz      :     0.017470  p :     0.046459
      px      :     0.016094
      py      :     0.012894
 20 H s       :     0.809587  s :     0.809587
      pz      :     0.013030  p :     0.022799
      px      :     0.004587
      py      :     0.005182
 21 N s       :     3.265415  s :     3.265415
      pz      :     0.907272  p :     3.028895
      px      :     1.048420
      py      :     1.073203
      dz2     :     0.068438  d :     0.244340
      dxz     :     0.066823
      dyz     :     0.047057
      dx2y2   :     0.033935
      dxy     :     0.028088
      f0      :     0.002495  f :     0.014258
      f+1     :     0.003606
      f-1     :     0.001860
      f+2     :     0.002218
      f-2     :     0.001882
      f+3     :     0.001129
      f-3     :     0.001069
 22 O s       :     3.881600  s :     3.881600
      pz      :     1.186616  p :     4.429082
      px      :     1.815053
      py      :     1.427414
      dz2     :     0.016308  d :     0.041071
      dxz     :     0.008971
      dyz     :     0.012075
      dx2y2   :     0.001693
      dxy     :     0.002023
      f0      :     0.001072  f :     0.003237
      f+1     :     0.000697
      f-1     :     0.000843
      f+2     :     0.000255
      f-2     :     0.000307
      f+3     :     0.000037
      f-3     :     0.000026
 23 O s       :     3.881657  s :     3.881657
      pz      :     1.510040  p :     4.428912
      px      :     1.516233
      py      :     1.402638
      dz2     :     0.006933  d :     0.041053
      dxz     :     0.012994
      dyz     :     0.006520
      dx2y2   :     0.006468
      dxy     :     0.008138
      f0      :     0.000366  f :     0.003235
      f+1     :     0.000732
      f-1     :     0.000203
      f+2     :     0.000627
      f-2     :     0.000761
      f+3     :     0.000276
      f-3     :     0.000270
 24 H s       :     0.664684  s :     0.664684
      pz      :     0.015859  p :     0.048553
      px      :     0.015651
      py      :     0.017043
 25 H s       :     0.575787  s :     0.575787
      pz      :     0.023518  p :     0.065885
      px      :     0.010883
      py      :     0.031484
 26 O s       :     3.871369  s :     3.871369
      pz      :     1.803826  p :     5.096423
      px      :     1.681904
      py      :     1.610693
      dz2     :     0.001637  d :     0.012808
      dxz     :     0.001866
      dyz     :     0.002863
      dx2y2   :     0.001171
      dxy     :     0.005271
      f0      :     0.000094  f :     0.000858
      f+1     :     0.000048
      f-1     :     0.000062
      f+2     :     0.000041
      f-2     :     0.000199
      f+3     :     0.000219
      f-3     :     0.000197


                     *******************************
                     * LOEWDIN POPULATION ANALYSIS *
                     *******************************

----------------------
LOEWDIN ATOMIC CHARGES
----------------------
   0 C :   -0.081251
   1 C :   -0.084964
   2 C :   -0.110135
   3 C :   -0.080475
   4 C :   -0.082178
   5 C :   -0.157048
   6 H :    0.161734
   7 H :    0.151809
   8 H :    0.163107
   9 C :   -0.222726
  10 H :    0.172020
  11 C :   -0.271547
  12 H :    0.128133
  13 H :    0.128193
  14 H :    0.138011
  15 N :   -0.030595
  16 O :   -0.049500
  17 O :   -0.062555
[...]
     68      -0.000017   0.000012   0.000010  -0.000001  -0.000025   0.000007
     69      -0.000017   0.000010   0.000015  -0.000037   0.000044  -0.000109
     70       0.000005  -0.000004  -0.000001  -0.000019  -0.000015  -0.000251
     71       0.000003  -0.000003   0.000000  -0.000092  -0.000013  -0.000693
     72       0.000146  -0.000043   0.000187  -0.002047   0.000156   0.000307
     73       0.000181   0.000047   0.000146   0.001082   0.000120  -0.000078
     74      -0.000072  -0.000026  -0.000099  -0.002077  -0.000018   0.000263
     75       0.000001   0.000035  -0.000007  -0.000348  -0.000018  -0.000017
     76       0.000136  -0.000780   0.000742  -0.004074   0.000158   0.000548
     77       0.000185  -0.000530   0.000527  -0.003909   0.000129   0.000487
     78      -0.000004   0.000003  -0.000017   0.000275  -0.000013  -0.000050
     79       0.000001  -0.000020  -0.000000   0.000005  -0.000009  -0.000004
     80       0.000095  -0.000008  -0.000006   0.000084  -0.000006  -0.000023
                 78         79         80    
      0       0.001217  -0.000011  -0.000002
      1      -0.000351   0.000017  -0.000001
      2      -0.000326   0.000035  -0.000001
      3      -0.000053   0.000056   0.000003
      4       0.000299  -0.000049  -0.000007
      5       0.000755   0.000006  -0.000014
      6       0.000423   0.000009  -0.000006
      7       0.000285   0.000004  -0.000005
      8       0.000904  -0.000002  -0.000016
      9       0.011440   0.000010  -0.000000
     10      -0.004454   0.000004  -0.000003
     11      -0.006064   0.000006  -0.000002
     12      -0.022120   0.000006  -0.000001
     13      -0.026687   0.000005  -0.000001
     14      -0.079542   0.000012  -0.000003
     15      -0.002364   0.000014   0.000002
     16       0.001143   0.000005  -0.000002
     17       0.001838   0.000005  -0.000001
     18      -0.011694   0.000035   0.000002
     19       0.006052  -0.000051   0.000002
     20       0.009934  -0.000007   0.000005
     21      -0.001737  -0.000548  -0.000063
     22      -0.002364  -0.000057   0.000240
     23      -0.007060  -0.000001   0.000086
     24      -0.096629  -0.000106  -0.000002
     25       0.049813   0.000076  -0.000002
     26       0.082270   0.000141  -0.000019
     27       0.000027  -0.000035  -0.000018
     28      -0.000060   0.000017   0.000020
     29      -0.000103   0.000173   0.000095
     30      -0.000376   0.000821   0.000073
     31       0.000312  -0.000620  -0.000489
     32       0.000578  -0.003613  -0.001343
     33       0.000040   0.000018   0.000004
     34      -0.000060   0.000012  -0.000009
     35      -0.000201  -0.000004  -0.000002
     36      -0.000242  -0.000048  -0.000025
     37       0.000153  -0.000068   0.000006
     38      -0.000110  -0.000115  -0.000016
     39      -0.000024  -0.000031  -0.000003
     40       0.000990  -0.000013   0.000011
     41       0.002303  -0.000156   0.000010
     42      -0.000417  -0.000110   0.000010
     43      -0.000402  -0.000134   0.000017
     44       0.000362   0.000141  -0.000025
     45       0.000009   0.000043   0.000030
     46       0.000018   0.000060   0.000028
     47      -0.000037   0.000013  -0.000016
     48      -0.000015  -0.000031  -0.000019
     49       0.000001   0.000001  -0.000002
     50       0.000010   0.000013  -0.000004
     51      -0.000007   0.000002   0.000002
     52      -0.000013  -0.000027  -0.000018
     53       0.000008   0.000009  -0.000005
     54       0.000000  -0.000142  -0.024053
     55      -0.000007  -0.000131   0.017360
     56       0.000000  -0.000369  -0.054164
     57      -0.000001   0.001720   0.392757
     58      -0.000006  -0.001195  -0.302103
     59       0.000012   0.003937   0.865919
     60       0.253258  -0.000042  -0.000005
     61       0.302795  -0.000040  -0.000008
     62       0.904168  -0.000130  -0.000006
     63      -0.000132  -0.000024  -0.000004
     64      -0.000443   0.000006  -0.000002
     65      -0.001192  -0.000003  -0.000005
     66      -0.000462   0.000009  -0.000001
     67       0.000290   0.000005  -0.000001
     68       0.000511   0.000008   0.000000
     69       0.000185   0.000008   0.000001
     70       0.000023  -0.000000  -0.000001
     71       0.000135   0.000001  -0.000001
     72      -0.000069  -0.671914   0.003244
     73      -0.000092  -0.679071   0.002955
     74       0.000052   0.288806  -0.001445
     75       0.000015   0.002867  -0.011408
     76       0.000042   0.003089   0.024202
     77       0.000042  -0.001871  -0.010365
     78       0.000006   0.042132  -0.000169
     79       0.000001   0.042807  -0.000017
     80      -0.000009  -0.017935   0.000421


-----------
IR SPECTRUM
-----------

 Mode   freq       eps      Int      T**2         TX        TY        TZ
       cm**-1   L/(mol*cm) km/mol    a.u.
----------------------------------------------------------------------------
  7:     21.86   0.000181    0.91  0.002577  ( 0.018788  0.045529  0.012297)
  8:     35.12   0.004899   24.76  0.043529  (-0.187062  0.074756 -0.054297)
  9:     37.29   0.001127    5.70  0.009432  (-0.096814  0.006716 -0.003717)
 10:     41.99   0.001049    5.30  0.007796  (-0.065401 -0.035254 -0.047706)
 11:     52.02   0.000403    2.03  0.002415  ( 0.030114  0.037793 -0.008921)
 12:     60.53   0.002329   11.77  0.012006  ( 0.047630 -0.095483  0.024901)
 13:     75.12   0.005043   25.48  0.020949  (-0.089393 -0.111846 -0.021169)
 14:     97.74   0.026119  132.00  0.083395  ( 0.285087  0.045948  0.003073)
 15:    118.25   0.023959  121.08  0.063230  ( 0.106017  0.026790 -0.226435)
 16:    146.56   0.001655    8.36  0.003524  (-0.039766 -0.027894 -0.034127)
 17:    170.53   0.000477    2.41  0.000873  ( 0.021134  0.012414 -0.016489)
 18:    236.31   0.000125    0.63  0.000165  ( 0.004747  0.005942  0.010346)
 19:    239.85   0.000265    1.34  0.000344  (-0.010452  0.013172 -0.007849)
 20:    261.17   0.027632  139.64  0.033016  (-0.106867  0.106236 -0.101534)
 21:    292.00   0.000132    0.67  0.000141  (-0.010080  0.006066 -0.001704)
 22:    315.05   0.058060  293.41  0.057509  (-0.005312 -0.152552 -0.184957)
 23:    334.67   0.002349   11.87  0.002191  ( 0.031985 -0.031638  0.012910)
 24:    345.22   0.000161    0.81  0.000145  ( 0.010367  0.004945 -0.003641)
 25:    420.70   0.000184    0.93  0.000137  ( 0.000238 -0.011428 -0.002470)
 26:    444.21   0.007725   39.04  0.005427  ( 0.036564  0.029345  0.056825)
 27:    472.72   0.016425   83.00  0.010843  (-0.007690 -0.052381 -0.089666)
 28:    489.90   0.000250    1.26  0.000159  (-0.000651 -0.001904 -0.012457)
 29:    528.83   0.000138    0.70  0.000081  (-0.006969  0.005298 -0.002198)
 30:    556.52   0.007171   36.24  0.004021  ( 0.004226 -0.055439 -0.030493)
 31:    562.05   0.032581  164.65  0.018090  ( 0.024640  0.062477  0.116531)
 32:    573.16   0.005157   26.06  0.002808  (-0.017533 -0.048208  0.013274)
 33:    645.01   0.000515    2.60  0.000249  ( 0.001937  0.011327  0.010820)
 34:    671.70   0.001081    5.46  0.000502  (-0.011781 -0.017262  0.008097)
 35:    725.18   0.004432   22.40  0.001907  ( 0.001204 -0.040618  0.015999)
 36:    759.30   0.010835   54.75  0.004453  ( 0.033487  0.055434 -0.016081)
 37:    791.76   0.002571   12.99  0.001013  ( 0.024503 -0.013931  0.014796)
 38:    818.10   0.005402   27.30  0.002060  ( 0.040401  0.000818  0.020677)
 39:    854.16   0.000474    2.40  0.000173  ( 0.002126  0.012207 -0.004437)
 40:    874.87   0.007761   39.22  0.002768  ( 0.044793 -0.012276  0.024723)
 41:    882.54   0.010360   52.35  0.003663  (-0.050647 -0.016626  0.028665)
 42:    897.52   0.009609   48.56  0.003341  ( 0.024216  0.049069 -0.018627)
 43:    998.82   0.000034    0.17  0.000011  ( 0.001661  0.002768  0.000536)
 44:   1023.78   0.003054   15.44  0.000931  ( 0.022340  0.000191  0.020782)
 45:   1037.24   0.003671   18.55  0.001105  (-0.032411  0.001314 -0.007232)
 46:   1042.47   0.001060    5.36  0.000317  (-0.013590 -0.002357 -0.011273)
 47:   1079.16   0.010481   52.96  0.003031  (-0.053254 -0.001171 -0.013903)
 48:   1116.01   0.005765   29.13  0.001612  (-0.016293  0.026813  0.025053)
 49:   1122.38   0.026011  131.45  0.007232  (-0.074283 -0.011765  0.039695)
 50:   1124.02   0.021910  110.72  0.006083  ( 0.073634  0.001394  0.025669)
 51:   1142.06   0.000536    2.71  0.000146  ( 0.005266  0.010811 -0.001348)
 52:   1202.95   0.000705    3.56  0.000183  ( 0.013255 -0.002696  0.000067)
 53:   1243.68   0.005569   28.14  0.001397  (-0.023862  0.013700 -0.025303)
 54:   1317.01   0.004872   24.62  0.001154  (-0.030396  0.015027  0.002148)
 55:   1349.86   0.014022   70.86  0.003242  (-0.051205  0.014988  0.019877)
 56:   1358.31   0.161096  814.11  0.037011  ( 0.186531 -0.001249  0.047069)
 57:   1374.96   0.051762  261.58  0.011748  ( 0.041831  0.027009 -0.096273)
 58:   1393.52   0.000753    3.80  0.000169  ( 0.010505  0.005945 -0.004782)
 59:   1411.62   0.006561   33.15  0.001450  ( 0.009916  0.023789 -0.028037)
 60:   1431.64   0.015616   78.92  0.003404  (-0.004839 -0.057981  0.004331)
 61:   1462.15   0.006817   34.45  0.001455  ( 0.002653 -0.032241 -0.020209)
 62:   1475.68   0.001204    6.08  0.000255  (-0.011930  0.010011 -0.003473)
 63:   1486.30   0.008068   40.77  0.001694  ( 0.009578 -0.012547 -0.038011)
 64:   1528.08   0.002185   11.04  0.000446  (-0.017447 -0.003410 -0.011410)
 65:   1533.46   0.086287  436.06  0.017560  (-0.012907  0.034222  0.127365)
 66:   1545.13   0.155176  784.19  0.031340  (-0.129498  0.114421  0.038450)
 67:   1636.57   0.013629   68.88  0.002599  ( 0.016824 -0.045724 -0.015003)
 68:   1637.34   0.009739   49.22  0.001856  ( 0.003411 -0.032391  0.028202)
 69:   1639.42   0.010566   53.40  0.002011  (-0.040092  0.006487 -0.019019)
 70:   2333.99   0.779715  3940.36  0.104251  ( 0.002877  0.212210  0.243330)
 71:   2723.44   0.155576  786.22  0.017827  ( 0.013798 -0.005619 -0.132682)
 72:   3050.44   0.002410   12.18  0.000247  (-0.002697  0.015290 -0.002345)
 73:   3114.91   0.002665   13.47  0.000267  ( 0.009511  0.000154 -0.013284)
 74:   3129.53   0.003986   20.14  0.000397  ( 0.016845  0.002772  0.010299)
 75:   3177.43   0.002147   10.85  0.000211  ( 0.010545  0.000986  0.009932)
 76:   3187.65   0.000679    3.43  0.000066  ( 0.006452 -0.002989 -0.003983)
 77:   3228.34   0.000458    2.31  0.000044  ( 0.004787 -0.002251 -0.004035)
 78:   3230.35   0.000587    2.97  0.000057  ( 0.004099  0.001551  0.006126)
 79:   3787.80   0.000289    1.46  0.000024  ( 0.003036  0.001439  0.003543)
 80:   3817.14   0.005935   30.00  0.000485  ( 0.006871  0.000526  0.020923)

* The epsilon (eps) is given for a Dirac delta lineshape.
** The dipole moment derivative (T) already includes vibrational overlap.

The first frequency considered to be a vibration is 7
The total number of vibrations considered is 74


--------------------------
THERMOCHEMISTRY AT 298.15K
--------------------------

Temperature         ... 298.15 K
Pressure            ... 1.00 atm
Total Mass          ... 231.18 AMU

Throughout the following assumptions are being made:
  (1) The electronic state is orbitally nondegenerate
  (2) There are no thermally accessible electronically excited states
  (3) Hindered rotations indicated by low frequency modes are not
      treated as such but are treated as vibrations and this may
      cause some error
  (4) All equations used are the standard statistical mechanics
      equations for an ideal gas
  (5) All vibrations are strictly harmonic

freq.      21.86  E(vib)   ...       0.56 
freq.      35.12  E(vib)   ...       0.54 
freq.      37.29  E(vib)   ...       0.54 
freq.      41.99  E(vib)   ...       0.53 
freq.      52.02  E(vib)   ...       0.52 
freq.      60.53  E(vib)   ...       0.51 
freq.      75.12  E(vib)   ...       0.49 
freq.      97.74  E(vib)   ...       0.46 
freq.     118.25  E(vib)   ...       0.44 
freq.     146.56  E(vib)   ...       0.41 
freq.     170.53  E(vib)   ...       0.38 
freq.     236.31  E(vib)   ...       0.32 
freq.     239.85  E(vib)   ...       0.31 
freq.     261.17  E(vib)   ...       0.30 
freq.     292.00  E(vib)   ...       0.27 
freq.     315.05  E(vib)   ...       0.25 
freq.     334.67  E(vib)   ...       0.24 
freq.     345.22  E(vib)   ...       0.23 
freq.     420.70  E(vib)   ...       0.18 
freq.     444.21  E(vib)   ...       0.17 
freq.     472.72  E(vib)   ...       0.15 
freq.     489.90  E(vib)   ...       0.15 
freq.     528.83  E(vib)   ...       0.13 
freq.     556.52  E(vib)   ...       0.12 
freq.     562.05  E(vib)   ...       0.11 
freq.     573.16  E(vib)   ...       0.11 
freq.     645.01  E(vib)   ...       0.09 
freq.     671.70  E(vib)   ...       0.08 
freq.     725.18  E(vib)   ...       0.06 
freq.     759.30  E(vib)   ...       0.06 
freq.     791.76  E(vib)   ...       0.05 
freq.     818.10  E(vib)   ...       0.05 
freq.     854.16  E(vib)   ...       0.04 
freq.     874.87  E(vib)   ...       0.04 
freq.     882.54  E(vib)   ...       0.04 
freq.     897.52  E(vib)   ...       0.03 
freq.     998.82  E(vib)   ...       0.02 
freq.    1023.78  E(vib)   ...       0.02 
freq.    1037.24  E(vib)   ...       0.02 
freq.    1042.47  E(vib)   ...       0.02 
freq.    1079.16  E(vib)   ...       0.02 
freq.    1116.01  E(vib)   ...       0.01 
freq.    1122.38  E(vib)   ...       0.01 
freq.    1124.02  E(vib)   ...       0.01 
freq.    1142.06  E(vib)   ...       0.01 
freq.    1202.95  E(vib)   ...       0.01 
freq.    1243.68  E(vib)   ...       0.01 
freq.    1317.01  E(vib)   ...       0.01 
freq.    1349.86  E(vib)   ...       0.01 
freq.    1358.31  E(vib)   ...       0.01 
freq.    1374.96  E(vib)   ...       0.01 
freq.    1393.52  E(vib)   ...       0.00 
freq.    1411.62  E(vib)   ...       0.00 
freq.    1431.64  E(vib)   ...       0.00 
freq.    1462.15  E(vib)   ...       0.00 
freq.    1475.68  E(vib)   ...       0.00 
freq.    1486.30  E(vib)   ...       0.00 
freq.    1528.08  E(vib)   ...       0.00 
freq.    1533.46  E(vib)   ...       0.00 
freq.    1545.13  E(vib)   ...       0.00 
freq.    1636.57  E(vib)   ...       0.00 
freq.    1637.34  E(vib)   ...       0.00 
freq.    1639.42  E(vib)   ...       0.00 
freq.    2333.99  E(vib)   ...       0.00 
freq.    2723.44  E(vib)   ...       0.00 
freq.    3050.44  E(vib)   ...       0.00 
freq.    3114.91  E(vib)   ...       0.00 
freq.    3129.53  E(vib)   ...       0.00 
freq.    3177.43  E(vib)   ...       0.00 
freq.    3187.65  E(vib)   ...       0.00 
freq.    3228.34  E(vib)   ...       0.00 
freq.    3230.35  E(vib)   ...       0.00 
freq.    3787.80  E(vib)   ...       0.00 
freq.    3817.14  E(vib)   ...       0.00 

------------
INNER ENERGY
------------

The inner energy is: U= E(el) + E(ZPE) + E(vib) + E(rot) + E(trans)
    E(el)   - is the total energy from the electronic structure calculation
              = E(kin-el) + E(nuc-el) + E(el-el) + E(nuc-nuc)
    E(ZPE)  - the the zero temperature vibrational energy from the frequency calculation
    E(vib)  - the the finite temperature correction to E(ZPE) due to population
              of excited vibrational states
    E(rot)  - is the rotational thermal energy
    E(trans)- is the translational thermal energy

Summary of contributions to the inner energy U:
Electronic energy                ...   -872.24343540 Eh
Zero point energy                ...      0.19442837 Eh     122.01 kcal/mol
Thermal vibrational correction   ...      0.01465874 Eh       9.20 kcal/mol
Thermal rotational correction    ...      0.00141627 Eh       0.89 kcal/mol
Thermal translational correction ...      0.00141627 Eh       0.89 kcal/mol
-----------------------------------------------------------------------
Total thermal energy                   -872.03151575 Eh


Summary of corrections to the electronic energy:
(perhaps to be used in another calculation)
Total thermal correction                  0.01749129 Eh      10.98 kcal/mol
Non-thermal (ZPE) correction              0.19442837 Eh     122.01 kcal/mol
-----------------------------------------------------------------------
Total correction                          0.21191965 Eh     132.98 kcal/mol


--------
ENTHALPY
--------

The enthalpy is H = U + kB*T
                kB is Boltzmann's constant
Total free energy                 ...   -872.03151575 Eh 
Thermal Enthalpy correction       ...      0.00094421 Eh       0.59 kcal/mol
-----------------------------------------------------------------------
Total Enthalpy                    ...   -872.03057154 Eh


Note: Only C1 symmetry has been detected, increase convergence thresholds 
      if your molecule has a higher symmetry. Symmetry factor of 1.0 is   
      used for the rotational entropy correction. 
 

Note: Rotational entropy computed according to Herzberg 
Infrared and Raman Spectra, Chapter V,1, Van Nostrand Reinhold, 1945 
Point Group:  C1, Symmetry Number:   1  
Rotational constants in cm-1:     0.020837     0.008581     0.006745 

Vibrational entropy computed according to the QRRHO of S. Grimme
Chem.Eur.J. 2012 18 9955


-------
ENTROPY
-------

The entropy contributions are T*S = T*(S(el)+S(vib)+S(rot)+S(trans))
     S(el)   - electronic entropy
     S(vib)  - vibrational entropy
     S(rot)  - rotational entropy
     S(trans)- translational entropy
The entropies will be listed as multiplied by the temperature to get
units of energy

Electronic entropy                ...      0.00000000 Eh      0.00 kcal/mol
Vibrational entropy               ...      0.02688707 Eh     16.87 kcal/mol
Rotational entropy                ...      0.01594456 Eh     10.01 kcal/mol
Translational entropy             ...      0.02005814 Eh     12.59 kcal/mol
-----------------------------------------------------------------------
Final entropy term                ...      0.06288977 Eh     39.46 kcal/mol

In case the symmetry of your molecule has not been determined correctly
or in case you have a reason to use a different symmetry number we print 
out the resulting rotational entropy values for sn=1,12 :
 --------------------------------------------------------
|  sn= 1 | S(rot)=       0.01594456 Eh     10.01 kcal/mol|
|  sn= 2 | S(rot)=       0.01529010 Eh      9.59 kcal/mol|
|  sn= 3 | S(rot)=       0.01490727 Eh      9.35 kcal/mol|
|  sn= 4 | S(rot)=       0.01463565 Eh      9.18 kcal/mol|
|  sn= 5 | S(rot)=       0.01442496 Eh      9.05 kcal/mol|
|  sn= 6 | S(rot)=       0.01425281 Eh      8.94 kcal/mol|
|  sn= 7 | S(rot)=       0.01410727 Eh      8.85 kcal/mol|
|  sn= 8 | S(rot)=       0.01398119 Eh      8.77 kcal/mol|
|  sn= 9 | S(rot)=       0.01386998 Eh      8.70 kcal/mol|
|  sn=10 | S(rot)=       0.01377050 Eh      8.64 kcal/mol|
|  sn=11 | S(rot)=       0.01368051 Eh      8.58 kcal/mol|
|  sn=12 | S(rot)=       0.01359836 Eh      8.53 kcal/mol|
 --------------------------------------------------------


-------------------
GIBBS FREE ENERGY
-------------------

The Gibbs free energy is G = H - T*S

Total enthalpy                    ...   -872.03057154 Eh 
Total entropy correction          ...     -0.06288977 Eh    -39.46 kcal/mol
-----------------------------------------------------------------------
Final Gibbs free energy         ...   -872.09346131 Eh

For completeness - the Gibbs free energy minus the electronic energy
G-E(el)                           ...      0.14997409 Eh     94.11 kcal/mol



Timings for individual modules:

Sum of individual times         ...     1879.181 sec (=  31.320 min)
GTO integral calculation        ...        9.621 sec (=   0.160 min)   0.5 %
SCF iterations                  ...      108.295 sec (=   1.805 min)   5.8 %
SCF Gradient evaluation         ...       23.441 sec (=   0.391 min)   1.2 %
Numerical frequency calculation ...     1737.824 sec (=  28.964 min)  92.5 %
                             ****ORCA TERMINATED NORMALLY****
TOTAL RUN TIME: 0 days 0 hours 30 minutes 12 seconds 826 msec
