
                                 *****************
                                 * O   R   C   A *
                                 *****************

                                            #,                                       
                                            ###                                      
                                            ####                                     
                                            #####                                    
                                            ######                                   
                                           ########,                                 
                                     ,,################,,,,,                         
                               ,,#################################,,                 
                          ,,##########################################,,             
                       ,#########################################, ''#####,          
                    ,#############################################,,   '####,        
                  ,##################################################,,,,####,       
                ,###########''''           ''''###############################       
              ,#####''   ,,,,##########,,,,          '''####'''          '####       
            ,##' ,,,,###########################,,,                        '##       
           ' ,,###''''                  '''############,,,                           
         ,,##''                                '''############,,,,        ,,,,,,###''
      ,#''                                            '''#######################'''  
     '                                                          ''''####''''         
             ,#######,   #######,   ,#######,      ##                                
            ,#'     '#,  ##    ##  ,#'     '#,    #''#        ######   ,####,        
            ##       ##  ##   ,#'  ##            #'  '#       #        #'  '#        
            ##       ##  #######   ##           ,######,      #####,   #    #        
            '#,     ,#'  ##    ##  '#,     ,#' ,#      #,         ##   #,  ,#        
             '#######'   ##     ##  '#######'  #'      '#     #####' # '####'        



                  #######################################################
                  #                        -***-                        #
                  #          Department of theory and spectroscopy      #
                  #    Directorship and core code : Frank Neese         #
                  #        Max Planck Institute fuer Kohlenforschung    #
                  #                Kaiser Wilhelm Platz 1               #
                  #                 D-45470 Muelheim/Ruhr               #
                  #                      Germany                        #
                  #                                                     #
                  #                  All rights reserved                #
                  #                        -***-                        #
                  #######################################################


                         Program Version 5.0.4 -  RELEASE  -


 With contributions from (in alphabetic order):
   Daniel Aravena         : Magnetic Suceptibility
   Michael Atanasov       : Ab Initio Ligand Field Theory (pilot matlab implementation)
   Alexander A. Auer      : GIAO ZORA, VPT2 properties, NMR spectrum
   Ute Becker             : Parallelization
   Giovanni Bistoni       : ED, misc. LED, open-shell LED, HFLD
   Martin Brehm           : Molecular dynamics
   Dmytro Bykov           : SCF Hessian
   Vijay G. Chilkuri      : MRCI spin determinant printing, contributions to CSF-ICE
   Dipayan Datta          : RHF DLPNO-CCSD density
   Achintya Kumar Dutta   : EOM-CC, STEOM-CC
   Dmitry Ganyushin       : Spin-Orbit,Spin-Spin,Magnetic field MRCI
   Miquel Garcia          : C-PCM and meta-GGA Hessian, CC/C-PCM, Gaussian charge scheme
   Yang Guo               : DLPNO-NEVPT2, F12-NEVPT2, CIM, IAO-localization
   Andreas Hansen         : Spin unrestricted coupled pair/coupled cluster methods
   Benjamin Helmich-Paris : MC-RPA, TRAH-SCF, COSX integrals
   Lee Huntington         : MR-EOM, pCC
   Robert Izsak           : Overlap fitted RIJCOSX, COSX-SCS-MP3, EOM
   Marcus Kettner         : VPT2
   Christian Kollmar      : KDIIS, OOCD, Brueckner-CCSD(T), CCSD density, CASPT2, CASPT2-K
   Simone Kossmann        : Meta GGA functionals, TD-DFT gradient, OOMP2, MP2 Hessian
   Martin Krupicka        : Initial AUTO-CI
   Lucas Lang             : DCDCAS
   Marvin Lechner         : AUTO-CI (C++ implementation), FIC-MRCC
   Dagmar Lenk            : GEPOL surface, SMD
   Dimitrios Liakos       : Extrapolation schemes; Compound Job, initial MDCI parallelization
   Dimitrios Manganas     : Further ROCIS development; embedding schemes
   Dimitrios Pantazis     : SARC Basis sets
   Anastasios Papadopoulos: AUTO-CI, single reference methods and gradients
   Taras Petrenko         : DFT Hessian,TD-DFT gradient, ASA, ECA, R-Raman, ABS, FL, XAS/XES, NRVS
   Peter Pinski           : DLPNO-MP2, DLPNO-MP2 Gradient
   Christoph Reimann      : Effective Core Potentials
   Marius Retegan         : Local ZFS, SOC
   Christoph Riplinger    : Optimizer, TS searches, QM/MM, DLPNO-CCSD(T), (RO)-DLPNO pert. Triples
   Tobias Risthaus        : Range-separated hybrids, TD-DFT gradient, RPA, STAB
   Michael Roemelt        : Original ROCIS implementation
   Masaaki Saitow         : Open-shell DLPNO-CCSD energy and density
   Barbara Sandhoefer     : DKH picture change effects
   Avijit Sen             : IP-ROCIS
   Kantharuban Sivalingam : CASSCF convergence, NEVPT2, FIC-MRCI
   Bernardo de Souza      : ESD, SOC TD-DFT
   Georgi Stoychev        : AutoAux, RI-MP2 NMR, DLPNO-MP2 response
   Willem Van den Heuvel  : Paramagnetic NMR
   Boris Wezisla          : Elementary symmetry handling
   Frank Wennmohs         : Technical directorship


 We gratefully acknowledge several colleagues who have allowed us to
 interface, adapt or use parts of their codes:
   Stefan Grimme, W. Hujo, H. Kruse, P. Pracht,  : VdW corrections, initial TS optimization,
                  C. Bannwarth, S. Ehlert          DFT functionals, gCP, sTDA/sTD-DF
   Ed Valeev, F. Pavosevic, A. Kumar             : LibInt (2-el integral package), F12 methods
   Garnet Chan, S. Sharma, J. Yang, R. Olivares  : DMRG
   Ulf Ekstrom                                   : XCFun DFT Library
   Mihaly Kallay                                 : mrcc  (arbitrary order and MRCC methods)
   Jiri Pittner, Ondrej Demel                    : Mk-CCSD
   Frank Weinhold                                : gennbo (NPA and NBO analysis)
   Christopher J. Cramer and Donald G. Truhlar   : smd solvation model
   Lars Goerigk                                  : TD-DFT with DH, B97 family of functionals
   V. Asgeirsson, H. Jonsson                     : NEB implementation
   FAccTs GmbH                                   : IRC, NEB, NEB-TS, DLPNO-Multilevel, CI-OPT
                                                   MM, QMMM, 2- and 3-layer-ONIOM, Crystal-QMMM,
                                                   LR-CPCM, SF, NACMEs, symmetry and pop. for TD-DFT,
                                                   nearIR, NL-DFT gradient (VV10), updates on ESD,
                                                   ML-optimized integration grids
   S Lehtola, MJT Oliveira, MAL Marques          : LibXC Library
   Liviu Ungur et al                             : ANISO software


 Your calculation uses the libint2 library for the computation of 2-el integrals
 For citations please refer to: http://libint.valeyev.net

 Your ORCA version has been built with support for libXC version: 5.1.0
 For citations please refer to: https://tddft.org/programs/libxc/

 This ORCA versions uses:
   CBLAS   interface :  Fast vector & matrix operations
   LAPACKE interface :  Fast linear algebra routines
   SCALAPACK package :  Parallel linear algebra routines
   Shared memory     :  Shared parallel matrices
   BLAS/LAPACK       :  OpenBLAS 0.3.15  USE64BITINT DYNAMIC_ARCH NO_AFFINITY Prescott SINGLE_THREADED
        Core in use  :  Prescott
   Copyright (c) 2011-2014, The OpenBLAS Project


Your calculation utilizes the atom-pairwise dispersion correction
with the Becke-Johnson damping scheme (D3BJ)
Cite in your paper:
S.Grimme, S.Ehrlich, L.Goerigk, J Comput Chem, (2011), 32, 1456–1465 
S.Grimme, J.Antony, S.Ehrlich and H.Krieg, J.Chem.Phys., 132, (2010), 154104 
   

================================================================================

----- Orbital basis set information -----
Your calculation utilizes the basis: def2-TZVP
   F. Weigend and R. Ahlrichs, Phys. Chem. Chem. Phys. 7, 3297 (2005).

----- AuxJ basis set information -----
Your calculation utilizes the auxiliary basis: def2/J
   F. Weigend, Phys. Chem. Chem. Phys. 8, 1057 (2006).

================================================================================
                                        WARNINGS
                       Please study these warnings very carefully!
================================================================================


WARNING: your system is open-shell and RHF/RKS was chosen
  ===> : WILL SWITCH to UHF/UKS


WARNING: Geometry Optimization
  ===> : Switching off AutoStart
         For restart on a previous wavefunction, please use MOREAD

INFO   : the flag for use of the SHARK integral package has been found!

================================================================================
                                       INPUT FILE
================================================================================
NAME = /home/rudenko/mop_saddle_orca_4_serv/for_orca/m-o2nc6h4chno2ch3_piperazine/orca/orca_end/end.inp
|  1> !  opt B3LYP def2-TZVP CPCM D3 
|  2> %pal nprocs 102 end
|  3> %cpcm epsilon 78.4 end 
|  4> *xyz 0 2 
|  5> C   0.63945149 0.99302873 -0.73394264
|  6> C   0.75412755 -0.28601012 -1.27370177
|  7> C   -0.21331345 -1.26483411 -1.0046492
|  8> C   -1.31129008 -0.94998894 -0.1972446
|  9> C   -1.41714247 0.34334302 0.32406471
| 10> C   -0.44916917 1.32201552 0.06833698
| 11> H   1.40964669 1.74134599 -0.93841433
| 12> H   1.60582278 -0.52983677 -1.91328867
| 13> H   -2.07528974 -1.70695917 0.01179701
| 14> H   -0.5444723 2.32682093 0.49099037
| 15> N   -2.55661519 0.67106916 1.14562988
| 16> O   -2.65995883 1.80485528 1.59802424
| 17> O   -3.39874607 -0.18658001 1.37765755
| 18> C   -0.09437958 -2.61201871 -1.54237301
| 19> C   -0.07681666 -3.74551384 -0.57611385
| 20> H   0.13839554 -4.71052325 -1.05946984
| 21> H   -1.04538038 -3.85443642 -0.06119597
| 22> H   0.68976045 -3.59877467 0.20001129
| 23> N   -0.0547339 -2.81267261 -2.85992584
| 24> O   0.02930051 -3.96990061 -3.3581216
| 25> O   -0.10485068 -1.84224533 -3.66657516
| 26> H   2.21469504 -2.90189429 -1.92848409
| 27> C   5.09894266 -6.45053007 -5.06054057
| 28> N   4.12139023 -6.90349298 -5.88149658
| 29> C   2.74316051 -6.40609739 -5.75356018
| 30> C   2.5160312 -5.61984058 -4.45645609
| 31> N   3.61994168 -4.60317362 -4.30155514
| 32> C   4.93247268 -5.33015663 -4.10072245
| 33> H   6.06812358 -6.92990399 -5.09695282
| 34> H   4.21098007 -7.84133129 -6.26727725
| 35> H   2.01759956 -7.25287956 -5.81406903
| 36> H   2.5278561 -5.76103252 -6.64412751
| 37> H   1.5270363 -5.09507923 -4.4836701
| 38> H   2.49932804 -6.29160445 -3.56740737
| 39> H   3.67411076 -4.0077803 -5.15859011
| 40> H   5.76731542 -4.59000366 -4.1995914
| 41> H   4.98095883 -5.70894538 -3.04617157
| 42> H   3.51112679 -3.36681421 -1.23808856
| 43> H   3.42897493 -3.96602386 -3.4805076
| 44> O   3.17005583 -2.97765819 -2.05879457
| 45> *
| 46> 
| 47>                          ****END OF INPUT****
================================================================================

                       *****************************
                       * Geometry Optimization Run *
                       *****************************

Geometry optimization settings:
Update method            Update   .... BFGS
Choice of coordinates    CoordSys .... Z-matrix Internals
Initial Hessian          InHess   .... Almoef's Model

Convergence Tolerances:
Energy Change            TolE     ....  5.0000e-06 Eh
Max. Gradient            TolMAXG  ....  3.0000e-04 Eh/bohr
RMS Gradient             TolRMSG  ....  1.0000e-04 Eh/bohr
Max. Displacement        TolMAXD  ....  4.0000e-03 bohr
RMS Displacement         TolRMSD  ....  2.0000e-03 bohr
Strict Convergence                ....  False
------------------------------------------------------------------------------
                        ORCA OPTIMIZATION COORDINATE SETUP
------------------------------------------------------------------------------

The optimization will be done in new redundant internal coordinates
Making redundant internal coordinates   ...  (new redundants) done
Evaluating the initial hessian          ...  (Almloef) done
Evaluating the coordinates              ...  done
Calculating the B-matrix                .... done
Calculating the G-matrix                .... done
Diagonalizing the G-matrix              .... done
Small eigenvalue found = 2.029e-03
Small eigenvalue found = 3.125e-03
Small eigenvalue found = 9.141e-03
Small eigenvalue found = 1.612e-02
Small eigenvalue found = 1.840e-02
Small eigenvalue found = 2.932e-02
The first mode is                       ....  103
The number of degrees of freedom        ....  114

    -----------------------------------------------------------------
                    Redundant Internal Coordinates


    -----------------------------------------------------------------
         Definition                    Initial Value    Approx d2E/dq
    -----------------------------------------------------------------
      1. B(C   1,C   0)                  1.3930         0.617963   
      2. B(C   2,C   1)                  1.4023         0.597207   
      3. B(C   3,C   2)                  1.3988         0.604968   
      4. B(C   4,C   3)                  1.3985         0.605689   
      5. B(C   5,C   4)                  1.4001         0.602127   
      6. B(C   5,C   0)                  1.3918         0.620783   
      7. B(H   6,C   0)                  1.0932         0.355950   
      8. B(H   7,C   1)                  1.0927         0.356597   
      9. B(H   8,C   3)                  1.0956         0.352733   
     10. B(H   9,C   5)                  1.0942         0.354540   
     11. B(N  10,C   4)                  1.4425         0.461460   
     12. B(O  11,N  10)                  1.2251         0.918624   
     13. B(O  12,N  10)                  1.2242         0.921699   
     14. B(C  13,C   2)                  1.4554         0.491351   
     15. B(C  14,C  13)                  1.4896         0.433415   
     16. B(H  15,C  14)                  1.1005         0.346421   
     17. B(H  16,C  14)                  1.1023         0.344159   
     18. B(H  17,C  14)                  1.1007         0.346218   
     19. B(N  18,C  13)                  1.3333         0.689101   
     20. B(O  19,N  18)                  1.2627         0.800009   
     21. B(O  20,N  18)                  1.2629         0.799443   
     22. B(N  23,C  22)                  1.3545         0.637477   
     23. B(C  24,N  23)                  1.4708         0.415858   
     24. B(C  25,C  24)                  1.5337         0.368518   
     25. B(N  26,C  25)                  1.5087         0.361802   
     26. B(C  27,N  26)                  1.5138         0.355114   
     27. B(C  27,C  22)                  1.4847         0.441289   
     28. B(H  28,C  22)                  1.0819         0.371021   
     29. B(H  29,N  23)                  1.0180         0.420123   
     30. B(H  30,C  24)                  1.1168         0.326391   
     31. B(H  31,C  24)                  1.1205         0.321902   
     32. B(H  32,O  19)                  2.1854         0.005766   
     33. B(H  32,C  25)                  1.1199         0.322615   
     34. B(H  33,C  25)                  1.1144         0.329190   
     35. B(H  34,N  26)                  1.0450         0.380559   
     36. B(H  35,C  27)                  1.1201         0.322436   
     37. B(H  36,C  27)                  1.1216         0.320673   
     38. B(H  37,H   7)                  3.4835         0.000010   
     39. B(H  38,H  21)                  2.2396         0.001010   
     40. B(H  38,N  26)                  1.0567         0.364535   
     41. B(O  39,H  38)                  1.7508         0.028468   
     42. B(O  39,H  37)                  0.9702         0.500793   
     43. B(O  39,H  21)                  0.9672         0.506423   
     44. A(C   1,C   0,H   6)          119.8723         0.352022   
     45. A(C   1,C   0,C   5)          120.3183         0.433908   
     46. A(C   5,C   0,H   6)          119.8091         0.352293   
     47. A(C   0,C   1,C   2)          120.6489         0.430898   
     48. A(C   0,C   1,H   7)          119.7274         0.352130   
     49. A(C   2,C   1,H   7)          119.6237         0.350103   
     50. A(C   3,C   2,C  13)          119.0622         0.414559   
     51. A(C   1,C   2,C   3)          119.6812         0.429258   
     52. A(C   1,C   2,C  13)          121.2550         0.413609   
     53. A(C   2,C   3,C   4)          118.8655         0.430345   
     54. A(C   4,C   3,H   8)          121.0015         0.350292   
     55. A(C   2,C   3,H   8)          120.1312         0.350222   
     56. A(C   5,C   4,N  10)          119.4301         0.406987   
     57. A(C   3,C   4,N  10)          118.8306         0.407412   
     58. A(C   3,C   4,C   5)          121.7393         0.429982   
     59. A(C   0,C   5,H   9)          120.5205         0.352056   
     60. A(C   4,C   5,H   9)          120.7387         0.350246   
     61. A(C   0,C   5,C   4)          118.7408         0.431887   
     62. A(O  11,N  10,O  12)          121.3569         0.488048   
     63. A(C   4,N  10,O  11)          119.1582         0.433098   
     64. A(C   4,N  10,O  12)          119.4848         0.433358   
     65. A(C   2,C  13,N  18)          120.4525         0.421537   
     66. A(C   2,C  13,C  14)          117.7538         0.390890   
     67. A(C  14,C  13,N  18)          121.7453         0.412227   
     68. A(H  16,C  14,H  17)          107.2015         0.287012   
     69. A(H  15,C  14,H  17)          106.8815         0.287306   
     70. A(C  13,C  14,H  17)          111.3564         0.330211   
     71. A(H  15,C  14,H  16)          106.8781         0.287038   
     72. A(C  13,C  14,H  16)          111.5829         0.329886   
     73. A(C  13,C  14,H  15)          112.6221         0.330243   
     74. A(C  13,N  18,O  19)          121.9901         0.454181   
     75. A(O  19,N  18,O  20)          117.0556         0.463496   
     76. A(C  13,N  18,O  20)          120.9539         0.454122   
     77. A(N  18,O  19,H  32)          136.1086         0.195603   
     78. A(H  38,H  21,O  39)           48.2285         0.134572   
     79. A(C  27,C  22,H  28)          117.1670         0.335019   
     80. A(N  23,C  22,H  28)          118.5514         0.354177   
     81. A(N  23,C  22,C  27)          124.2816         0.407877   
     82. A(C  24,N  23,H  29)          115.2750         0.333721   
     83. A(C  22,N  23,H  29)          118.3089         0.358564   
     84. A(C  22,N  23,C  24)          120.6942         0.401033   
     85. A(H  30,C  24,H  31)          105.5816         0.281452   
     86. A(C  25,C  24,H  31)          110.4010         0.317715   
     87. A(N  23,C  24,H  31)          107.7943         0.322123   
     88. A(C  25,C  24,H  30)          109.7750         0.318433   
     89. A(N  23,C  24,H  30)          110.3450         0.322855   
     90. A(N  23,C  24,C  25)          112.6873         0.366920   
     91. A(H  32,C  25,H  33)          106.7740         0.281921   
     92. A(N  26,C  25,H  33)          109.5881         0.316038   
     93. A(C  24,C  25,H  33)          111.5856         0.318877   
     94. A(N  26,C  25,H  32)          109.4444         0.315004   
     95. A(C  24,C  25,H  32)          110.5142         0.317829   
     96. A(C  24,C  25,N  26)          108.9008         0.358297   
     97. A(C  27,N  26,H  38)          110.0711         0.317665   
     98. A(C  25,N  26,H  38)          110.7241         0.318632   
     99. A(H  34,N  26,H  38)          107.6429         0.289198   
    100. A(C  27,N  26,H  34)          109.7242         0.319902   
    101. A(C  25,N  26,H  34)          109.7353         0.320879   
    102. A(C  25,N  26,C  27)          108.9301         0.353851   
    103. A(H  35,C  27,H  36)          105.8994         0.280755   
    104. A(N  26,C  27,H  36)          108.9302         0.313744   
    105. A(C  22,C  27,H  36)          110.3743         0.327030   
    106. A(N  26,C  27,H  35)          108.4933         0.314023   
    107. A(C  22,C  27,H  35)          110.9792         0.327326   
    108. A(C  22,C  27,N  26)          111.9536         0.368326   
    109. A(O  19,H  32,C  25)          146.5054         0.165333   
    110. A(H  21,H  38,O  39)           24.3310         0.112754   
    111. A(H  21,H  38,N  26)          157.3643         0.131304   
    112. A(H  37,O  39,H  38)          114.1099         0.208620   
    113. A(H  21,O  39,H  38)          107.4405         0.208923   
    114. A(H  21,O  39,H  37)          105.3488         0.318489   
    115. D(H   7,C   1,C   0,H   6)     -1.0313         0.026414   
    116. D(H   7,C   1,C   0,C   5)    179.1752         0.026414   
    117. D(C   2,C   1,C   0,C   5)     -0.8124         0.026414   
    118. D(C   2,C   1,C   0,H   6)    178.9811         0.026414   
    119. D(C  13,C   2,C   1,H   7)      1.1071         0.024575   
    120. D(C   3,C   2,C   1,C   0)      0.6432         0.024575   
    121. D(C   3,C   2,C   1,H   7)   -179.3444         0.024575   
    122. D(C  13,C   2,C   1,C   0)   -178.9053         0.024575   
    123. D(H   8,C   3,C   2,C   1)    179.5560         0.025253   
    124. D(C   4,C   3,C   2,C  13)    179.6064         0.025253   
    125. D(C   4,C   3,C   2,C   1)      0.0479         0.025253   
    126. D(H   8,C   3,C   2,C  13)     -0.8856         0.025253   
    127. D(N  10,C   4,C   3,C   2)    179.3871         0.025317   
    128. D(N  10,C   4,C   3,H   8)     -0.1165         0.025317   
    129. D(C   5,C   4,C   3,H   8)    179.9131         0.025317   
    130. D(C   5,C   4,C   3,C   2)     -0.5833         0.025317   
    131. D(H   9,C   5,C   4,N  10)      0.5027         0.025003   
    132. D(C   0,C   5,C   4,N  10)   -179.5492         0.025003   
    133. D(C   0,C   5,C   4,C   3)      0.4211         0.025003   
    134. D(H   9,C   5,C   0,H   6)      0.4349         0.026671   
    135. D(C   4,C   5,C   0,H   6)   -179.5133         0.026671   
    136. D(H   9,C   5,C   4,C   3)   -179.5271         0.025003   
    137. D(C   4,C   5,C   0,C   1)      0.2803         0.026671   
    138. D(H   9,C   5,C   0,C   1)   -179.7715         0.026671   
    139. D(O  12,N  10,C   4,C   5)   -179.4864         0.016777   
    140. D(O  11,N  10,C   4,C   5)      0.4571         0.016777   
    141. D(O  11,N  10,C   4,C   3)   -179.5140         0.016777   
    142. D(O  12,N  10,C   4,C   3)      0.5425         0.016777   
    143. D(C  14,C  13,C   2,C   3)    -57.1052         0.016440   
    144. D(C  14,C  13,C   2,C   1)    122.4461         0.016440   
    145. D(N  18,C  13,C   2,C   1)    -60.0394         0.016440   
    146. D(N  18,C  13,C   2,C   3)    120.4093         0.016440   
    147. D(H  17,C  14,C  13,N  18)    129.5701         0.013869   
    148. D(H  17,C  14,C  13,C   2)    -52.9494         0.013869   
    149. D(H  16,C  14,C  13,N  18)   -110.6836         0.013869   
    150. D(H  16,C  14,C  13,C   2)     66.7968         0.013869   
    151. D(H  15,C  14,C  13,N  18)      9.5215         0.013869   
    152. D(H  15,C  14,C  13,C   2)   -172.9980         0.013869   
    153. D(O  19,N  18,C  13,C   2)   -178.9991         0.039174   
    154. D(O  19,N  18,C  13,C  14)     -1.5856         0.039174   
    155. D(O  20,N  18,C  13,C  14)    178.1723         0.039174   
    156. D(O  20,N  18,C  13,C   2)      0.7589         0.039174   
    157. D(H  32,O  19,N  18,O  20)     67.7350         0.058428   
    158. D(H  32,O  19,N  18,C  13)   -112.4981         0.058428   
    159. D(H  29,N  23,C  22,H  28)     20.0564         0.033055   
    160. D(H  29,N  23,C  22,C  27)   -159.8491         0.033055   
    161. D(C  24,N  23,C  22,H  28)    172.1512         0.033055   
    162. D(C  24,N  23,C  22,C  27)     -7.7543         0.033055   
    163. D(H  31,C  24,N  23,H  29)    -97.7147         0.014749   
    164. D(H  31,C  24,N  23,C  22)    109.3926         0.014749   
    165. D(H  30,C  24,N  23,H  29)     17.1128         0.014749   
    166. D(H  30,C  24,N  23,C  22)   -135.7799         0.014749   
    167. D(C  25,C  24,N  23,H  29)    140.2135         0.014749   
    168. D(C  25,C  24,N  23,C  22)    -12.6791         0.014749   
    169. D(H  33,C  25,C  24,H  30)     51.2213         0.010862   
    170. D(H  33,C  25,C  24,N  23)    -72.1967         0.010862   
    171. D(H  32,C  25,C  24,H  31)     48.5672         0.010862   
    172. D(H  32,C  25,C  24,H  30)    -67.4257         0.010862   
    173. D(H  32,C  25,C  24,N  23)    169.1562         0.010862   
    174. D(N  26,C  25,C  24,H  31)    -71.6845         0.010862   
    175. D(N  26,C  25,C  24,H  30)    172.3225         0.010862   
    176. D(H  33,C  25,C  24,H  31)    167.2143         0.010862   
    177. D(N  26,C  25,C  24,N  23)     48.9045         0.010862   
    178. D(H  38,N  26,C  25,H  33)    -64.6154         0.012028   
    179. D(H  38,N  26,C  25,C  24)    173.0688         0.012028   
    180. D(H  34,N  26,C  25,H  33)    176.6989         0.012028   
    181. D(H  34,N  26,C  25,H  32)    -66.5267         0.012028   
    182. D(H  34,N  26,C  25,C  24)     54.3832         0.012028   
    183. D(C  27,N  26,C  25,H  33)     56.5605         0.012028   
    184. D(H  38,N  26,C  25,H  32)     52.1589         0.012028   
    185. D(C  27,N  26,C  25,H  32)    173.3349         0.012028   
    186. D(C  27,N  26,C  25,C  24)    -65.7552         0.012028   
    187. D(H  36,C  27,N  26,H  34)    163.0774         0.011608   
    188. D(H  36,C  27,N  26,C  25)    -76.7773         0.011608   
    189. D(H  35,C  27,N  26,H  38)    -70.0437         0.011608   
    190. D(H  35,C  27,N  26,H  34)     48.2369         0.011608   
    191. D(H  35,C  27,N  26,C  25)    168.3822         0.011608   
    192. D(C  22,C  27,N  26,H  38)    167.1460         0.011608   
    193. D(C  22,C  27,N  26,H  34)    -74.5734         0.011608   
    194. D(C  22,C  27,N  26,C  25)     45.5719         0.011608   
    195. D(H  36,C  27,C  22,H  28)    -67.7581         0.014368   
    196. D(H  36,C  27,C  22,N  23)    112.1486         0.014368   
    197. D(H  35,C  27,C  22,H  28)     49.3318         0.014368   
    198. D(H  35,C  27,C  22,N  23)   -130.7615         0.014368   
    199. D(N  26,C  27,C  22,H  28)    170.7201         0.014368   
    200. D(H  36,C  27,N  26,H  38)     44.7968         0.011608   
    201. D(N  26,C  27,C  22,N  23)     -9.3732         0.014368   
    202. D(O  19,H  32,C  25,H  33)     48.3043         0.093130   
    203. D(O  19,H  32,C  25,N  26)    -70.2338         0.093130   
    204. D(O  19,H  32,C  25,C  24)    169.8406         0.093130   
    205. D(C  25,H  32,O  19,N  18)     71.3466         0.001515   
    206. D(H  21,H  38,N  26,H  34)     97.2074         0.170334   
    207. D(H  21,H  38,N  26,C  27)   -143.2379         0.170334   
    208. D(H  21,H  38,N  26,C  25)    -22.7387         0.170334   
    209. D(N  26,H  38,H  21,O  39)    172.2343         0.001509   
    210. D(H  37,O  39,N  26,H  34)   -153.0669         0.001501   
    211. D(H  37,O  39,N  26,C  27)    -33.5526         0.001501   
    212. D(H  37,O  39,N  26,C  25)     85.7568         0.001501   
    213. D(H  21,O  39,N  26,H  34)     90.8404         0.001501   
    214. D(H  21,O  39,N  26,C  27)   -149.6452         0.001501   
    215. D(H  21,O  39,N  26,C  25)    -30.3359         0.001501   
    216. D(H  37,O  39,H  38,H  21)    116.3952         0.001988   
    217. D(H  37,O  39,H  21,H  38)   -122.0217         0.323019   
    -----------------------------------------------------------------

Number of atoms                         .... 40
Number of degrees of freedom            .... 217

         *************************************************************
         *                GEOMETRY OPTIMIZATION CYCLE   1            *
         *************************************************************
---------------------------------
CARTESIAN COORDINATES (ANGSTROEM)
---------------------------------
  C      0.639451    0.993029   -0.733943
  C      0.754128   -0.286010   -1.273702
  C     -0.213313   -1.264834   -1.004649
  C     -1.311290   -0.949989   -0.197245
  C     -1.417142    0.343343    0.324065
  C     -0.449169    1.322016    0.068337
  H      1.409647    1.741346   -0.938414
  H      1.605823   -0.529837   -1.913289
  H     -2.075290   -1.706959    0.011797
  H     -0.544472    2.326821    0.490990
  N     -2.556615    0.671069    1.145630
  O     -2.659959    1.804855    1.598024
  O     -3.398746   -0.186580    1.377658
  C     -0.094380   -2.612019   -1.542373
  C     -0.076817   -3.745514   -0.576114
  H      0.138396   -4.710523   -1.059470
  H     -1.045380   -3.854436   -0.061196
  H      0.689760   -3.598775    0.200011
  N     -0.054734   -2.812673   -2.859926
  O      0.029301   -3.969901   -3.358122
  O     -0.104851   -1.842245   -3.666575
  H      2.214695   -2.901894   -1.928484
  C      5.098943   -6.450530   -5.060541
  N      4.121390   -6.903493   -5.881497
  C      2.743161   -6.406097   -5.753560
  C      2.516031   -5.619841   -4.456456
  N      3.619942   -4.603174   -4.301555
  C      4.932473   -5.330157   -4.100722
  H      6.068124   -6.929904   -5.096953
  H      4.210980   -7.841331   -6.267277
  H      2.017600   -7.252880   -5.814069
  H      2.527856   -5.761033   -6.644128
  H      1.527036   -5.095079   -4.483670
  H      2.499328   -6.291604   -3.567407
  H      3.674111   -4.007780   -5.158590
  H      5.767315   -4.590004   -4.199591
  H      4.980959   -5.708945   -3.046172
  H      3.511127   -3.366814   -1.238089
  H      3.428975   -3.966024   -3.480508
  O      3.170056   -2.977658   -2.058795

----------------------------
CARTESIAN COORDINATES (A.U.)
----------------------------
  NO LB      ZA    FRAG     MASS         X           Y           Z
   0 C     6.0000    0    12.011    1.208388    1.876552   -1.386951
   1 C     6.0000    0    12.011    1.425095   -0.540481   -2.406948
   2 C     6.0000    0    12.011   -0.403104   -2.390190   -1.898512
   3 C     6.0000    0    12.011   -2.477979   -1.795219   -0.372738
   4 C     6.0000    0    12.011   -2.678011    0.648824    0.612394
   5 C     6.0000    0    12.011   -0.848807    2.498247    0.129138
   6 H     1.0000    0     1.008    2.663846    3.290667   -1.773346
   7 H     1.0000    0     1.008    3.034565   -1.001246   -3.615592
   8 H     1.0000    0     1.008   -3.921729   -3.225685    0.022293
   9 H     1.0000    0     1.008   -1.028904    4.397054    0.927837
  10 N     7.0000    0    14.007   -4.831303    1.268137    2.164927
  11 O     8.0000    0    15.999   -5.026594    3.410682    3.019828
  12 O     8.0000    0    15.999   -6.422699   -0.352585    2.603395
  13 C     6.0000    0    12.011   -0.178352   -4.936000   -2.914663
  14 C     6.0000    0    12.011   -0.145162   -7.077995   -1.088697
  15 H     1.0000    0     1.008    0.261530   -8.901599   -2.002108
  16 H     1.0000    0     1.008   -1.975483   -7.283829   -0.115644
  17 H     1.0000    0     1.008    1.303458   -6.800699    0.377967
  18 N     7.0000    0    14.007   -0.103432   -5.315181   -5.404477
  19 O     8.0000    0    15.999    0.055370   -7.502025   -6.345930
  20 O     8.0000    0    15.999   -0.198139   -3.481339   -6.928823
  21 H     1.0000    0     1.008    4.185167   -5.483785   -3.644307
  22 C     6.0000    0    12.011    9.635605  -12.189735   -9.563036
  23 N     7.0000    0    14.007    7.788299  -13.045711  -11.114418
  24 C     6.0000    0    12.011    5.183822  -12.105770  -10.872653
  25 C     6.0000    0    12.011    4.754610  -10.619960   -8.421482
  26 N     7.0000    0    14.007    6.840698   -8.698737   -8.128761
  27 C     6.0000    0    12.011    9.321023  -10.072536   -7.749242
  28 H     1.0000    0     1.008   11.467092  -13.095621   -9.631845
  29 H     1.0000    0     1.008    7.957599  -14.817969  -11.843438
  30 H     1.0000    0     1.008    3.812711  -13.705956  -10.986998
  31 H     1.0000    0     1.008    4.776956  -10.886774  -12.555581
  32 H     1.0000    0     1.008    2.885680   -9.628304   -8.472909
  33 H     1.0000    0     1.008    4.723046  -11.889409   -6.741423
  34 H     1.0000    0     1.008    6.943063   -7.573607   -9.748323
  35 H     1.0000    0     1.008   10.898647   -8.673850   -7.936078
  36 H     1.0000    0     1.008    9.412648  -10.788343   -5.756430
  37 H     1.0000    0     1.008    6.635068   -6.362357   -2.339648
  38 H     1.0000    0     1.008    6.479824   -7.494699   -6.577206
  39 O     8.0000    0    15.999    5.990537   -5.626958   -3.890558

--------------------------------
INTERNAL COORDINATES (ANGSTROEM)
--------------------------------
 C      0   0   0     0.000000000000     0.00000000     0.00000000
 C      1   0   0     1.392993502126     0.00000000     0.00000000
 C      2   1   0     1.402293755710   120.64886468     0.00000000
 C      3   2   1     1.398778877879   119.68124615     0.64315954
 C      4   3   2     1.398454748613   118.86546606     0.04791429
 C      1   2   3     1.391754230473   120.31825764   359.18759197
 H      1   2   3     1.093155084939   119.87232443   178.98107177
 H      2   1   3     1.092660790322   119.72744483   179.98757912
 H      4   3   2     1.095626671954   120.13118433   179.55595630
 H      6   1   2     1.094236028758   120.52047306   180.22851389
 N      5   4   3     1.442488069629   118.83061788   179.38711295
 O     11   5   4     1.225076132652   119.15822686   180.48595410
 O     11   5   4     1.224166392896   119.48483117     0.54252121
 C      3   2   1     1.455403211399   121.25503478   181.09465081
 C     14   3   2     1.489555782835   117.75381504   122.44607627
 H     15  14   3     1.100541896288   112.62209647   187.00196313
 H     15  14   3     1.102324920918   111.58294032    66.79678603
 H     15  14   3     1.100701177672   111.35636892   307.05056133
 N     14   3   2     1.333333876930   120.45254791   299.96057620
 O     19  14   3     1.262710355279   121.99010440   181.00093210
 O     19  14   3     1.262902974445   120.95389693     0.75893027
 H     14   3   2     2.359011491856   104.72646403    24.41997736
 C     22  14   3     5.542695916833   132.88390656   198.77838806
 N     23  22  14     1.354530517039   100.43014494    16.95069092
 C     24  23  22     1.470811767864   120.69417918     0.18310135
 C     25  24  23     1.533710049203   112.68726649   347.32086121
 N     26  25  24     1.508716129602   108.90079351    48.90447971
 C     23  22  14     1.484654748680    24.93162431   181.24581228
 H     23  22  14     1.081867303701   140.25292877   208.01730716
 H     24  23  22     1.018034262921   118.30888203   208.08836400
 H     25  24  23     1.116754250730   110.34495792   224.22014377
 H     25  24  23     1.120524361510   107.79433817   109.39263800
 H     26  25  24     1.119922313833   110.51419825   169.15624144
 H     26  25  24     1.114429593615   111.58560585   287.80325624
 H     27  26  25     1.044957623319   109.73526108    54.38320129
 H     28  23  22     1.120073162255   110.97923580   210.44374941
 H     28  23  22     1.121565594327   110.37431318    93.35388664
 H     22  14   3     1.540627080855   141.94484722    88.30512991
 H     27  26  25     1.056667960721   110.72405754   173.06881602
 O     22  14   3     0.967179005567   176.91307712    12.60796856

---------------------------
INTERNAL COORDINATES (A.U.)
---------------------------
 C      0   0   0     0.000000000000     0.00000000     0.00000000
 C      1   0   0     2.632376225350     0.00000000     0.00000000
 C      2   1   0     2.649951157600   120.64886468     0.00000000
 C      3   2   1     2.643309001104   119.68124615     0.64315954
 C      4   3   2     2.642696485561   118.86546606     0.04791429
 C      1   2   3     2.630034341321   120.31825764   359.18759197
 H      1   2   3     2.065763732438   119.87232443   178.98107177
 H      2   1   3     2.064829650982   119.72744483   179.98757912
 H      4   3   2     2.070434355013   120.13118433   179.55595630
 H      6   1   2     2.067806420222   120.52047306   180.22851389
 N      5   4   3     2.725907403047   118.83061788   179.38711295
 O     11   5   4     2.315058383915   119.15822686   180.48595410
 O     11   5   4     2.313339224924   119.48483117     0.54252121
 C      3   2   1     2.750313483974   121.25503478   181.09465081
 C     14   3   2     2.814852490756   117.75381504   122.44607627
 H     15  14   3     2.079722782892   112.62209647   187.00196313
 H     15  14   3     2.083092211132   111.58294032    66.79678603
 H     15  14   3     2.080023781084   111.35636892   307.05056133
 N     14   3   2     2.519635872477   120.45254791   299.96057620
 O     19  14   3     2.386176757945   121.99010440   181.00093210
 O     19  14   3     2.386540755416   120.95389693     0.75893027
 H     14   3   2     4.457885666380   104.72646403    24.41997736
 C     22  14   3    10.474177326419   132.88390656   198.77838806
 N     23  22  14     2.559691717242   100.43014494    16.95069092
 C     24  23  22     2.779431435812   120.69417918     0.18310135
 C     25  24  23     2.898291961837   112.68726649   347.32086121
 N     26  25  24     2.851060298777   108.90079351    48.90447971
 C     23  22  14     2.805590878431    24.93162431   181.24581228
 H     23  22  14     2.044432917240   140.25292877   208.01730716
 H     24  23  22     1.923805951869   118.30888203   208.08836400
 H     25  24  23     2.110359692772   110.34495792   224.22014377
 H     25  24  23     2.117484169640   107.79433817   109.39263800
 H     26  25  24     2.116346464411   110.51419825   169.15624144
 H     26  25  24     2.105966727470   111.58560585   287.80325624
 H     27  26  25     1.974683729625   109.73526108    54.38320129
 H     28  23  22     2.116631526618   110.97923580   210.44374941
 H     28  23  22     2.119451814506   110.37431318    93.35388664
 H     22  14   3     2.911363257319   141.94484722    88.30512991
 H     27  26  25     1.996813060251   110.72405754   173.06881602
 O     22  14   3     1.827703443001   176.91307712    12.60796856

---------------------
BASIS SET INFORMATION
---------------------
There are 4 groups of distinct atoms

 Group   1 Type C   : 11s6p2d1f contracted to 5s3p2d1f pattern {62111/411/11/1}
 Group   2 Type H   : 5s1p contracted to 3s1p pattern {311/1}
 Group   3 Type N   : 11s6p2d1f contracted to 5s3p2d1f pattern {62111/411/11/1}
 Group   4 Type O   : 11s6p2d1f contracted to 5s3p2d1f pattern {62111/411/11/1}

Atom   0C    basis set group =>   1
Atom   1C    basis set group =>   1
Atom   2C    basis set group =>   1
Atom   3C    basis set group =>   1
Atom   4C    basis set group =>   1
Atom   5C    basis set group =>   1
Atom   6H    basis set group =>   2
Atom   7H    basis set group =>   2
Atom   8H    basis set group =>   2
Atom   9H    basis set group =>   2
Atom  10N    basis set group =>   3
Atom  11O    basis set group =>   4
Atom  12O    basis set group =>   4
Atom  13C    basis set group =>   1
Atom  14C    basis set group =>   1
Atom  15H    basis set group =>   2
Atom  16H    basis set group =>   2
Atom  17H    basis set group =>   2
Atom  18N    basis set group =>   3
Atom  19O    basis set group =>   4
Atom  20O    basis set group =>   4
Atom  21H    basis set group =>   2
Atom  22C    basis set group =>   1
Atom  23N    basis set group =>   3
Atom  24C    basis set group =>   1
Atom  25C    basis set group =>   1
Atom  26N    basis set group =>   3
Atom  27C    basis set group =>   1
Atom  28H    basis set group =>   2
Atom  29H    basis set group =>   2
Atom  30H    basis set group =>   2
Atom  31H    basis set group =>   2
Atom  32H    basis set group =>   2
Atom  33H    basis set group =>   2
Atom  34H    basis set group =>   2
Atom  35H    basis set group =>   2
Atom  36H    basis set group =>   2
Atom  37H    basis set group =>   2
Atom  38H    basis set group =>   2
Atom  39O    basis set group =>   4
---------------------------------
AUXILIARY/J BASIS SET INFORMATION
---------------------------------
There are 4 groups of distinct atoms

 Group   1 Type C   : 12s5p4d2f1g contracted to 6s4p3d1f1g pattern {711111/2111/211/2/1}
 Group   2 Type H   : 5s2p1d contracted to 3s1p1d pattern {311/2/1}
 Group   3 Type N   : 12s5p4d2f1g contracted to 6s4p3d1f1g pattern {711111/2111/211/2/1}
 Group   4 Type O   : 12s5p4d2f1g contracted to 6s4p3d1f1g pattern {711111/2111/211/2/1}

Atom   0C    basis set group =>   1
Atom   1C    basis set group =>   1
Atom   2C    basis set group =>   1
Atom   3C    basis set group =>   1
Atom   4C    basis set group =>   1
Atom   5C    basis set group =>   1
Atom   6H    basis set group =>   2
Atom   7H    basis set group =>   2
Atom   8H    basis set group =>   2
Atom   9H    basis set group =>   2
Atom  10N    basis set group =>   3
Atom  11O    basis set group =>   4
Atom  12O    basis set group =>   4
Atom  13C    basis set group =>   1
Atom  14C    basis set group =>   1
Atom  15H    basis set group =>   2
Atom  16H    basis set group =>   2
Atom  17H    basis set group =>   2
Atom  18N    basis set group =>   3
Atom  19O    basis set group =>   4
Atom  20O    basis set group =>   4
Atom  21H    basis set group =>   2
Atom  22C    basis set group =>   1
Atom  23N    basis set group =>   3
Atom  24C    basis set group =>   1
Atom  25C    basis set group =>   1
Atom  26N    basis set group =>   3
Atom  27C    basis set group =>   1
Atom  28H    basis set group =>   2
Atom  29H    basis set group =>   2
Atom  30H    basis set group =>   2
Atom  31H    basis set group =>   2
Atom  32H    basis set group =>   2
Atom  33H    basis set group =>   2
Atom  34H    basis set group =>   2
Atom  35H    basis set group =>   2
Atom  36H    basis set group =>   2
Atom  37H    basis set group =>   2
Atom  38H    basis set group =>   2
Atom  39O    basis set group =>   4


           ************************************************************
           *        Program running with 102 parallel MPI-processes   *
           *              working on a common directory               *
           ************************************************************
------------------------------------------------------------------------------
                           ORCA GTO INTEGRAL CALCULATION
                           -- RI-GTO INTEGRALS CHOSEN --
------------------------------------------------------------------------------
------------------------------------------------------------------------------
                   ___                                                        
                  /   \      - P O W E R E D   B Y -                         
                 /     \                                                     
                 |  |  |   _    _      __       _____    __    __             
                 |  |  |  | |  | |    /  \     |  _  \  |  |  /  |          
                  \  \/   | |  | |   /    \    | | | |  |  | /  /          
                 / \  \   | |__| |  /  /\  \   | |_| |  |  |/  /          
                |  |  |   |  __  | /  /__\  \  |    /   |      \           
                |  |  |   | |  | | |   __   |  |    \   |  |\   \          
                \     /   | |  | | |  |  |  |  | |\  \  |  | \   \       
                 \___/    |_|  |_| |__|  |__|  |_| \__\ |__|  \__/        
                                                                              
                      - O R C A' S   B I G   F R I E N D -                    
                                      &                                       
                       - I N T E G R A L  F E E D E R -                       
                                                                              
 v1 FN, 2020, v2 2021                                                         
------------------------------------------------------------------------------


Reading SHARK input file /home/rudenko/mop_saddle_orca_4_serv/for_orca/m-o2nc6h4chno2ch3_piperazine/orca/orca_end/end.SHARKINP.tmp ... ok
----------------------
SHARK INTEGRAL PACKAGE
----------------------

Number of atoms                             ...     40
Number of basis functions                   ...    765
Number of shells                            ...    307
Maximum angular momentum                    ...      3
Integral batch strategy                     ... SHARK/LIBINT Hybrid
RI-J (if used) integral strategy            ... SPLIT-RIJ (Revised 2003 algorithm where possible)
Printlevel                                  ...      1
Contraction scheme used                     ... SEGMENTED contraction
Coulomb Range Separation                    ... NOT USED
Exchange Range Separation                   ... NOT USED
Finite Nucleus Model                        ... NOT USED
Auxiliary Coulomb fitting basis             ... AVAILABLE
   # of basis functions in Aux-J            ...   1238
   # of shells in Aux-J                     ...    410
   Maximum angular momentum in Aux-J        ...      4
Auxiliary J/K fitting basis                 ... NOT available
Auxiliary Correlation fitting basis         ... NOT available
Auxiliary 'external' fitting basis          ... NOT available
Integral threshold                          ...     2.500000e-11
Primitive cut-off                           ...     2.500000e-12
Primitive pair pre-selection threshold      ...     2.500000e-12

Calculating pre-screening integrals         ... done (  0.1 sec) Dimension = 307
Organizing shell pair data                  ... done (  1.1 sec)
Shell pair information
Total number of shell pairs                 ...     47278
Shell pairs after pre-screening             ...     29173
Total number of primitive shell pairs       ...    143364
Primitive shell pairs kept                  ...     59150
          la=0 lb=0:   8105 shell pairs
          la=1 lb=0:   8631 shell pairs
          la=1 lb=1:   2344 shell pairs
          la=2 lb=0:   3967 shell pairs
          la=2 lb=1:   2141 shell pairs
          la=2 lb=2:    504 shell pairs
          la=3 lb=0:   1870 shell pairs
          la=3 lb=1:   1032 shell pairs
          la=3 lb=2:    463 shell pairs
          la=3 lb=3:    116 shell pairs

Calculating one electron integrals          ... done (  0.6 sec)
Calculating RI/J V-Matrix + Cholesky decomp.... done (  0.3 sec)
Calculating Nuclear repulsion               ... done (  0.0 sec) ENN=   1659.702131999575 Eh

SHARK setup successfully completed in   2.9 seconds

Maximum memory used throughout the entire GTOINT-calculation: 46.4 MB


           ************************************************************
           *        Program running with 102 parallel MPI-processes   *
           *              working on a common directory               *
           ************************************************************
-------------------------------------------------------------------------------
                                 ORCA SCF
-------------------------------------------------------------------------------

------------
SCF SETTINGS
------------
Hamiltonian:
 Density Functional     Method          .... DFT(GTOs)
 Exchange Functional    Exchange        .... B88
   X-Alpha parameter    XAlpha          ....  0.666667
   Becke's b parameter  XBeta           ....  0.004200
 Correlation Functional Correlation     .... LYP
 LDA part of GGA corr.  LDAOpt          .... VWN-5
 Gradients option       PostSCFGGA      .... off
 Hybrid DFT is turned on
   Fraction HF Exchange ScalHFX         ....  0.200000
   Scaling of DF-GGA-X  ScalDFX         ....  0.720000
   Scaling of DF-GGA-C  ScalDFC         ....  0.810000
   Scaling of DF-LDA-C  ScalLDAC        ....  1.000000
   Perturbative correction              ....  0.000000
   Density functional embedding theory  .... OFF
   NL short-range parameter             ....  4.800000
 RI-approximation to the Coulomb term is turned on
   Number of AuxJ basis functions       .... 1238
   RIJ-COSX (HFX calculated with COS-X)).... on


General Settings:
 Integral files         IntName         .... /home/rudenko/mop_saddle_orca_4_serv/for_orca/m-o2nc6h4chno2ch3_piperazine/orca/orca_end/end
 Hartree-Fock type      HFTyp           .... UHF
 Total Charge           Charge          ....    0
 Multiplicity           Mult            ....    2
 Number of Electrons    NEL             ....  159
 Basis Dimension        Dim             ....  765
 Nuclear Repulsion      ENuc            ....   1659.7021319996 Eh

Convergence Acceleration:
 DIIS                   CNVDIIS         .... on
   Start iteration      DIISMaxIt       ....    12
   Startup error        DIISStart       ....  0.200000
   # of expansion vecs  DIISMaxEq       ....     5
   Bias factor          DIISBfac        ....   1.050
   Max. coefficient     DIISMaxC        ....  10.000
 Trust-Rad. Augm. Hess. CNVTRAH         .... auto
   Auto Start mean grad. ratio tolernc. ....  1.125000
   Auto Start start iteration           ....    20
   Auto Start num. interpolation iter.  ....    10
   Max. Number of Micro iterations      ....    16
   Max. Number of Macro iterations      .... Maxiter - #DIIS iter
   Number of Davidson start vectors     ....     2
   Converg. threshold I  (grad. norm)   ....   1.000e-05
   Converg. threshold II (energy diff.) ....   1.000e-08
   Grad. Scal. Fac. for Micro threshold ....   0.100
   Minimum threshold for Micro iter.    ....   0.010
   NR start threshold (gradient norm)   ....   0.001
   Initial trust radius                 ....   0.400
   Minimum AH scaling param. (alpha)    ....   1.000
   Maximum AH scaling param. (alpha)    .... 1000.000
   Orbital update algorithm             .... Taylor
   White noise on init. David. guess    .... on
   Maximum white noise                  ....   0.010
   Quad. conv. algorithm                .... NR
 SOSCF                  CNVSOSCF        .... off
 Level Shifting         CNVShift        .... on
   Level shift para.    LevelShift      ....    0.2500
   Turn off err/grad.   ShiftErr        ....    0.0010
 Zerner damping         CNVZerner       .... off
 Static damping         CNVDamp         .... on
   Fraction old density DampFac         ....    0.7000
   Max. Damping (<1)    DampMax         ....    0.9800
   Min. Damping (>=0)   DampMin         ....    0.0000
   Turn off err/grad.   DampErr         ....    0.1000
 Fernandez-Rico         CNVRico         .... off

SCF Procedure:
 Maximum # iterations   MaxIter         ....   125
 SCF integral mode      SCFMode         .... Direct
   Integral package                     .... SHARK and LIBINT hybrid scheme
 Reset frequency        DirectResetFreq ....    20
 Integral Threshold     Thresh          ....  2.500e-11 Eh
 Primitive CutOff       TCut            ....  2.500e-12 Eh

Convergence Tolerance:
 Convergence Check Mode ConvCheckMode   .... Total+1el-Energy
 Convergence forced     ConvForced      .... 0
 Energy Change          TolE            ....  1.000e-08 Eh
 1-El. energy change                    ....  1.000e-05 Eh
 DIIS Error             TolErr          ....  5.000e-07


Diagonalization of the overlap matrix:
Smallest eigenvalue                        ... 7.775e-06
Time for diagonalization                   ...    0.422 sec
Threshold for overlap eigenvalues          ... 1.000e-08
Number of eigenvalues below threshold      ... 0
Time for construction of square roots      ...    1.058 sec
Total time needed                          ...    1.486 sec

Time for model grid setup =    0.459 sec

------------------------------
INITIAL GUESS: MODEL POTENTIAL
------------------------------
Loading Hartree-Fock densities                     ... done
Calculating cut-offs                               ... done
Initializing the effective Hamiltonian             ... done
Setting up the integral package (SHARK)            ... done
Starting the Coulomb interaction                   ... done (   0.2 sec)
Reading the grid                                   ... done
Mapping shells                                     ... done
Starting the XC term evaluation                    ... done (   0.2 sec)
  promolecular density results
     # of electrons  =    158.992797363
     EX              =   -134.629808468
     EC              =     -5.467074860
     EX+EC           =   -140.096883328
Transforming the Hamiltonian                       ... done (   0.9 sec)
Diagonalizing the Hamiltonian                      ... done (   0.5 sec)
Back transforming the eigenvectors                 ... done (   0.3 sec)
Now organizing SCF variables                       ... done
                      ------------------
                      INITIAL GUESS DONE (   2.8 sec)
                      ------------------
-------------------
DFT GRID GENERATION
-------------------

General Integration Accuracy     IntAcc      ... 4.388
Radial Grid Type                 RadialGrid  ... OptM3 with GC (2021)
Angular Grid (max. ang.)         AngularGrid ... 4 (Lebedev-302)
Angular grid pruning method      GridPruning ... 4 (adaptive)
Weight generation scheme         WeightScheme... Becke
Basis function cutoff            BFCut       ... 1.0000e-11
Integration weight cutoff        WCut        ... 1.0000e-14
Angular grids for H and He will be reduced by one unit
Partially contracted basis set               ... off
Rotationally invariant grid construction     ... off

Total number of grid points                  ...   186702
Total number of batches                      ...     2936
Average number of points per batch           ...       63
Average number of grid points per atom       ...     4668
Time for grid setup =    2.012 sec

--------------------
COSX GRID GENERATION
--------------------

GRIDX 1
-------
General Integration Accuracy     IntAcc      ... 3.816
Radial Grid Type                 RadialGrid  ... OptM3 with GC (2021)
Angular Grid (max. ang.)         AngularGrid ... 1 (Lebedev-50)
Angular grid pruning method      GridPruning ... 4 (adaptive)
Weight generation scheme         WeightScheme... Becke
Basis function cutoff            BFCut       ... 1.0000e-11
Integration weight cutoff        WCut        ... 1.0000e-14
Angular grids for H and He will be reduced by one unit
Partially contracted basis set               ... on
Rotationally invariant grid construction     ... off

Total number of grid points                  ...    23716
Total number of batches                      ...      391
Average number of points per batch           ...       60
Average number of grid points per atom       ...      593
UseSFitting                                  ... on

GRIDX 2
-------
General Integration Accuracy     IntAcc      ... 4.020
Radial Grid Type                 RadialGrid  ... OptM3 with GC (2021)
Angular Grid (max. ang.)         AngularGrid ... 2 (Lebedev-110)
Angular grid pruning method      GridPruning ... 4 (adaptive)
Weight generation scheme         WeightScheme... Becke
Basis function cutoff            BFCut       ... 1.0000e-11
Integration weight cutoff        WCut        ... 1.0000e-14
Angular grids for H and He will be reduced by one unit
Partially contracted basis set               ... on
Rotationally invariant grid construction     ... off

Total number of grid points                  ...    51272
Total number of batches                      ...      823
Average number of points per batch           ...       62
Average number of grid points per atom       ...     1282
UseSFitting                                  ... on

GRIDX 3
-------
General Integration Accuracy     IntAcc      ... 4.338
Radial Grid Type                 RadialGrid  ... OptM3 with GC (2021)
Angular Grid (max. ang.)         AngularGrid ... 3 (Lebedev-194)
Angular grid pruning method      GridPruning ... 4 (adaptive)
Weight generation scheme         WeightScheme... Becke
Basis function cutoff            BFCut       ... 1.0000e-11
Integration weight cutoff        WCut        ... 1.0000e-14
Angular grids for H and He will be reduced by one unit
Partially contracted basis set               ... on
Rotationally invariant grid construction     ... off

Total number of grid points                  ...   112186
Total number of batches                      ...     1772
Average number of points per batch           ...       63
Average number of grid points per atom       ...     2805
UseSFitting                                  ... on

Time for X-Grid setup             =    5.456 sec


--------------------
CPCM SOLVATION MODEL
--------------------
CPCM parameters:
  Epsilon                                         ...      78.4000
  Refrac                                          ...       1.3300
  Rsolv                                           ...       1.3000
  Surface type                                    ... GAUSSIAN VDW
  Epsilon function type                           ...         CPCM
Radii:
 Radius for C  used is    3.8550 Bohr (=   2.0400 Ang.)
 Radius for H  used is    2.4944 Bohr (=   1.3200 Ang.)
 Radius for N  used is    3.5149 Bohr (=   1.8600 Ang.)
 Radius for O  used is    3.4469 Bohr (=   1.8240 Ang.)
Calculating surface                               ...        done! (  0.0s)
GEPOL surface points                              ...         2226
GEPOL Volume                                      ...    2394.7591
GEPOL Surface-area                                ...    1294.6933
Calculating surface distance matrix               ...        done! (  0.5s)
Performing Cholesky decomposition & store         ...        done! (  2.0s)
Overall time for CPCM initialization              ...                 2.5s
--------------
SCF ITERATIONS
--------------
ITER       Energy         Delta-E        Max-DP      RMS-DP      [F,P]     Damp
               ***  Starting incremental Fock matrix formation  ***
  0  -1062.7438017321   0.000000000000 0.07451324  0.00062488  0.1551675 0.7000
  1  -1063.0632140903  -0.319412358158 0.08108560  0.00057574  0.0611280 0.7000
                               ***Turning on DIIS***
  2  -1063.1826523586  -0.119438268321 0.14261125  0.00092927  0.0215020 0.0000
  3  -1063.3823408334  -0.199688474798 0.06723281  0.00044619  0.0351223 0.0000
  4  -1063.4203375218  -0.037996688435 0.02221803  0.00015201  0.0077450 0.0000
  5  -1063.4230247106  -0.002687188806 0.00937350  0.00005653  0.0022114 0.0000
  6  -1063.4233026236  -0.000277912970 0.07815206  0.00084819  0.0008784 0.0000
               *** Restarting incremental Fock matrix formation ***
                                   *** Resetting DIIS ***
  7  -1063.3668162680   0.056486355607 0.07712054  0.00062972  0.0544428 0.0000
  8  -1063.4113534617  -0.044537193712 0.02070860  0.00015853  0.0385267 0.0000
  9  -1063.4410075861  -0.029654124352 0.00960343  0.00006033  0.0102425 0.0000
 10  -1063.4430334265  -0.002025840407 0.00427200  0.00002615  0.0042599 0.0000
 11  -1063.4433608261  -0.000327399630 0.00245955  0.00001450  0.0011260 0.0000
 12  -1063.4434316267  -0.000070800631 0.00222729  0.00001434  0.0006675 0.0000
 13  -1063.4434720767  -0.000040450000 0.00068387  0.00000564  0.0004204 0.0000
 14  -1063.4434819479  -0.000009871203 0.00036227  0.00000241  0.0002066 0.0000
 15  -1063.4434845806  -0.000002632637 0.00027741  0.00000176  0.0001111 0.0000
 16  -1063.4434853013  -0.000000720716 0.00022988  0.00000120  0.0001504 0.0000
 17  -1063.4434858969  -0.000000595632 0.00007459  0.00000085  0.0000529 0.0000
 18  -1063.4434861507  -0.000000253767 0.00006925  0.00000061  0.0000727 0.0000
 19  -1063.4434862522  -0.000000101527 0.00003416  0.00000038  0.0000469 0.0000
 20  -1063.4434862782  -0.000000026015 0.00004017  0.00000025  0.0000317 0.0000
 21  -1063.4434862797  -0.000000001483 0.00003216  0.00000020  0.0000123 0.0000
 22  -1063.4434863176  -0.000000037915 0.00002968  0.00000021  0.0000110 0.0000
 23  -1063.4434863188  -0.000000001123 0.00003446  0.00000027  0.0000089 0.0000
 24  -1063.4434862852   0.000000033600 0.00002132  0.00000014  0.0000063 0.0000
 25  -1063.4434862764   0.000000008716 0.00001976  0.00000017  0.0000035 0.0000
 26  -1063.4434862755   0.000000000988 0.00003793  0.00000041  0.0000029 0.0000
               *** Restarting incremental Fock matrix formation ***
                                   *** Resetting DIIS ***
 27  -1063.4434862298   0.000000045662 0.00006489  0.00000060  0.0000013 0.0000
 28  -1063.4434862196   0.000000010193 0.00001799  0.00000010  0.0000026 0.0000
                            ***DIIS convergence achieved***

               *****************************************************
               *                     SUCCESS                       *
               *           SCF CONVERGED AFTER  29 CYCLES          *
               *****************************************************

Old exchange energy                            =    -27.271217160 Eh
New exchange energy                            =    -27.271208384 Eh
Exchange energy change after final integration =      0.000008776 Eh
Total energy after final integration           =  -1063.443477460 Eh
Final COS-X integration done in                =     5.372 sec

----------------
TOTAL SCF ENERGY
----------------

Total Energy       :        -1063.44347746 Eh          -28937.76819 eV

Components:
Nuclear Repulsion  :         1659.70213200 Eh           45162.79104 eV
Electronic Energy  :        -2723.14560946 Eh          -74100.55923 eV
One Electron Energy:        -4748.49995549 Eh         -129213.25286 eV
Two Electron Energy:         2025.35434603 Eh           55112.69363 eV
Max COSX asymmetry :            0.00000055 Eh               0.00001 eV
CPCM Dielectric    :           -0.08000671 Eh              -2.17709 eV

Virial components:
Potential Energy   :        -2122.19188662 Eh          -57747.77708 eV
Kinetic Energy     :         1058.74840916 Eh           28810.00889 eV
Virial Ratio       :            2.00443455


DFT components:
N(Alpha)           :       80.000030168673 electrons
N(Beta)            :       79.000040325149 electrons
N(Total)           :      159.000070493822 electrons
E(X)               :     -108.568199069112 Eh       
E(C)               :       -6.435678023207 Eh       
E(XC)              :     -115.003877092318 Eh       
DFET-embed. en.    :        0.000000000000 Eh       
CPCM Solvation Model Properties:
Surface-charge          :           -0.03247398
Charge-correction       :           -0.00003320 Eh              -0.00090 eV
Free-energy (cav+disp)  :  This term is not implemented in the current solvation scheme

---------------
SCF CONVERGENCE
---------------

  Last Energy change         ...   -1.5881e-08  Tolerance :   1.0000e-08
  Last MAX-Density change    ...    0.0000e+00  Tolerance :   1.0000e-07
  Last RMS-Density change    ...    0.0000e+00  Tolerance :   5.0000e-09
  Last DIIS Error            ...    7.5071e-07  Tolerance :   5.0000e-07

             **** THE GBW FILE WAS UPDATED (/home/rudenko/mop_saddle_orca_4_serv/for_orca/m-o2nc6h4chno2ch3_piperazine/orca/orca_end/end.gbw) ****
             **** DENSITY /home/rudenko/mop_saddle_orca_4_serv/for_orca/m-o2nc6h4chno2ch3_piperazine/orca/orca_end/end.scfp WAS UPDATED ****
             **** ENERGY FILE WAS UPDATED (/home/rudenko/mop_saddle_orca_4_serv/for_orca/m-o2nc6h4chno2ch3_piperazine/orca/orca_end/end.en.tmp) ****
----------------------
UHF SPIN CONTAMINATION
----------------------

Warning: in a DFT calculation there is little theoretical justification to 
         calculate <S**2> as in Hartree-Fock theory. We will do it anyways
         but you should keep in mind that the values have only limited relevance

Expectation value of <S**2>     :     0.754398
Ideal value S*(S+1) for S=0.5   :     0.750000
Deviation                       :     0.004398

             **** THE GBW FILE WAS UPDATED (/home/rudenko/mop_saddle_orca_4_serv/for_orca/m-o2nc6h4chno2ch3_piperazine/orca/orca_end/end.gbw) ****
             **** DENSITY /home/rudenko/mop_saddle_orca_4_serv/for_orca/m-o2nc6h4chno2ch3_piperazine/orca/orca_end/end.scfp WAS UPDATED ****
----------------
ORBITAL ENERGIES
----------------
                 SPIN UP ORBITALS
  NO   OCC          E(Eh)            E(eV) 
   0   1.0000     -19.162717      -521.4440 
   1   1.0000     -19.162075      -521.4266 
   2   1.0000     -19.145042      -520.9631 
   3   1.0000     -19.079590      -519.1820 
   4   1.0000     -19.076035      -519.0853 
   5   1.0000     -14.557718      -396.1356 
   6   1.0000     -14.475319      -393.8935 
   7   1.0000     -14.419056      -392.3625 
   8   1.0000     -14.333577      -390.0365 
   9   1.0000     -10.235721      -278.5281 
  10   1.0000     -10.231171      -278.4043 
  11   1.0000     -10.225982      -278.2631 
  12   1.0000     -10.216688      -278.0102 
  13   1.0000     -10.196249      -277.4540 
  14   1.0000     -10.195106      -277.4229 
  15   1.0000     -10.194553      -277.4079 
  16   1.0000     -10.188904      -277.2542 
  17   1.0000     -10.187321      -277.2111 
  18   1.0000     -10.182970      -277.0927 
  19   1.0000     -10.178366      -276.9674 
  20   1.0000     -10.159026      -276.4412 
  21   1.0000      -1.240708       -33.7614 
  22   1.0000      -1.149341       -31.2752 
  23   1.0000      -1.059671       -28.8351 
  24   1.0000      -1.028172       -27.9780 
  25   1.0000      -0.992765       -27.0145 
  26   1.0000      -0.963627       -26.2216 
  27   1.0000      -0.928433       -25.2639 
  28   1.0000      -0.889008       -24.1911 
  29   1.0000      -0.832882       -22.6639 
  30   1.0000      -0.799385       -21.7524 
  31   1.0000      -0.779392       -21.2083 
  32   1.0000      -0.754626       -20.5344 
  33   1.0000      -0.717818       -19.5328 
  34   1.0000      -0.703491       -19.1430 
  35   1.0000      -0.692147       -18.8343 
  36   1.0000      -0.661597       -18.0030 
  37   1.0000      -0.628103       -17.0915 
  38   1.0000      -0.599835       -16.3223 
  39   1.0000      -0.599036       -16.3006 
  40   1.0000      -0.571363       -15.5476 
  41   1.0000      -0.561677       -15.2840 
  42   1.0000      -0.546685       -14.8761 
  43   1.0000      -0.546555       -14.8725 
  44   1.0000      -0.536601       -14.6017 
  45   1.0000      -0.528120       -14.3709 
  46   1.0000      -0.517836       -14.0910 
  47   1.0000      -0.501344       -13.6423 
  48   1.0000      -0.495978       -13.4962 
  49   1.0000      -0.486162       -13.2291 
  50   1.0000      -0.484448       -13.1825 
  51   1.0000      -0.481587       -13.1046 
  52   1.0000      -0.469764       -12.7829 
  53   1.0000      -0.463813       -12.6210 
  54   1.0000      -0.457871       -12.4593 
  55   1.0000      -0.443122       -12.0580 
  56   1.0000      -0.435697       -11.8559 
  57   1.0000      -0.417783       -11.3684 
  58   1.0000      -0.410491       -11.1700 
  59   1.0000      -0.405909       -11.0453 
  60   1.0000      -0.395251       -10.7553 
  61   1.0000      -0.393538       -10.7087 
  62   1.0000      -0.385618       -10.4932 
  63   1.0000      -0.382498       -10.4083 
  64   1.0000      -0.378882       -10.3099 
  65   1.0000      -0.375575       -10.2199 
  66   1.0000      -0.361063        -9.8250 
  67   1.0000      -0.351206        -9.5568 
  68   1.0000      -0.334326        -9.0975 
  69   1.0000      -0.328922        -8.9504 
  70   1.0000      -0.326010        -8.8712 
  71   1.0000      -0.314198        -8.5498 
  72   1.0000      -0.302370        -8.2279 
  73   1.0000      -0.280692        -7.6380 
  74   1.0000      -0.276627        -7.5274 
  75   1.0000      -0.271562        -7.3896 
  76   1.0000      -0.258749        -7.0409 
  77   1.0000      -0.228149        -6.2083 
  78   1.0000      -0.185388        -5.0447 
  79   1.0000      -0.126667        -3.4468 
  80   0.0000      -0.101332        -2.7574 
  81   0.0000      -0.029459        -0.8016 
  82   0.0000      -0.003900        -0.1061 
  83   0.0000       0.008961         0.2438 
  84   0.0000       0.026880         0.7314 
  85   0.0000       0.035353         0.9620 
  86   0.0000       0.050702         1.3797 
  87   0.0000       0.058357         1.5880 
  88   0.0000       0.064836         1.7643 
  89   0.0000       0.068095         1.8530 
  90   0.0000       0.075043         2.0420 
  91   0.0000       0.077151         2.0994 
  92   0.0000       0.093555         2.5458 
  93   0.0000       0.096682         2.6308 
  94   0.0000       0.103373         2.8129 
  95   0.0000       0.107104         2.9145 
  96   0.0000       0.108815         2.9610 
  97   0.0000       0.114841         3.1250 
  98   0.0000       0.120749         3.2857 
  99   0.0000       0.126785         3.4500 
 100   0.0000       0.128943         3.5087 
 101   0.0000       0.132219         3.5979 
 102   0.0000       0.137062         3.7296 
 103   0.0000       0.143108         3.8942 
 104   0.0000       0.152548         4.1510 
 105   0.0000       0.157901         4.2967 
 106   0.0000       0.164116         4.4658 
 107   0.0000       0.166858         4.5405 
 108   0.0000       0.176466         4.8019 
 109   0.0000       0.182203         4.9580 
 110   0.0000       0.184823         5.0293 
 111   0.0000       0.187983         5.1153 
 112   0.0000       0.195094         5.3088 
 113   0.0000       0.195818         5.3285 
 114   0.0000       0.205512         5.5923 
 115   0.0000       0.208295         5.6680 
 116   0.0000       0.214532         5.8377 
 117   0.0000       0.217911         5.9297 
 118   0.0000       0.223731         6.0880 
 119   0.0000       0.227766         6.1978 
 120   0.0000       0.233674         6.3586 
 121   0.0000       0.235740         6.4148 
 122   0.0000       0.235980         6.4214 
 123   0.0000       0.241957         6.5840 
 124   0.0000       0.244073         6.6416 
 125   0.0000       0.253960         6.9106 
 126   0.0000       0.259115         7.0509 
 127   0.0000       0.267942         7.2911 
 128   0.0000       0.275300         7.4913 
 129   0.0000       0.277756         7.5581 
 130   0.0000       0.283871         7.7245 
 131   0.0000       0.291360         7.9283 
 132   0.0000       0.296674         8.0729 
 133   0.0000       0.303191         8.2502 
 134   0.0000       0.314016         8.5448 
 135   0.0000       0.315083         8.5738 
 136   0.0000       0.319772         8.7014 
 137   0.0000       0.321635         8.7521 
 138   0.0000       0.329641         8.9700 
 139   0.0000       0.337461         9.1828 
 140   0.0000       0.343621         9.3504 
 141   0.0000       0.346487         9.4284 
 142   0.0000       0.350147         9.5280 
 143   0.0000       0.354860         9.6562 
 144   0.0000       0.362770         9.8715 
 145   0.0000       0.365339         9.9414 
 146   0.0000       0.367710        10.0059 
 147   0.0000       0.374886        10.2012 
 148   0.0000       0.381743        10.3878 
 149   0.0000       0.386252        10.5105 
 150   0.0000       0.388526        10.5723 
 151   0.0000       0.396882        10.7997 
 152   0.0000       0.401196        10.9171 
 153   0.0000       0.404978        11.0200 
 154   0.0000       0.406916        11.0728 
 155   0.0000       0.408959        11.1283 
 156   0.0000       0.410144        11.1606 
 157   0.0000       0.420516        11.4428 
 158   0.0000       0.425137        11.5686 
 159   0.0000       0.425803        11.5867 
 160   0.0000       0.433246        11.7892 
 161   0.0000       0.434098        11.8124 
 162   0.0000       0.437617        11.9082 
 163   0.0000       0.440624        11.9900 
 164   0.0000       0.443723        12.0743 
 165   0.0000       0.451822        12.2947 
 166   0.0000       0.454852        12.3771 
 167   0.0000       0.456878        12.4323 
 168   0.0000       0.460788        12.5387 
 169   0.0000       0.464088        12.6285 
 170   0.0000       0.466581        12.6963 
 171   0.0000       0.474567        12.9136 
 172   0.0000       0.479099        13.0369 
 173   0.0000       0.483735        13.1631 
 174   0.0000       0.485849        13.2206 
 175   0.0000       0.493006        13.4154 
 176   0.0000       0.497447        13.5362 
 177   0.0000       0.500394        13.6164 
 178   0.0000       0.505968        13.7681 
 179   0.0000       0.508928        13.8486 
 180   0.0000       0.513445        13.9716 
 181   0.0000       0.516730        14.0609 
 182   0.0000       0.518881        14.1195 
 183   0.0000       0.524321        14.2675 
 184   0.0000       0.533876        14.5275 
 185   0.0000       0.543858        14.7991 
 186   0.0000       0.548822        14.9342 
 187   0.0000       0.550151        14.9704 
 188   0.0000       0.561270        15.2729 
 189   0.0000       0.564513        15.3612 
 190   0.0000       0.573743        15.6123 
 191   0.0000       0.577209        15.7067 
 192   0.0000       0.582719        15.8566 
 193   0.0000       0.585187        15.9237 
 194   0.0000       0.593262        16.1435 
 195   0.0000       0.599333        16.3087 
 196   0.0000       0.602910        16.4060 
 197   0.0000       0.608997        16.5716 
 198   0.0000       0.613807        16.7026 
 199   0.0000       0.626343        17.0436 
 200   0.0000       0.635595        17.2954 
 201   0.0000       0.639127        17.3915 
 202   0.0000       0.648579        17.6487 
 203   0.0000       0.655325        17.8323 
 204   0.0000       0.656787        17.8721 
 205   0.0000       0.662457        18.0264 
 206   0.0000       0.669992        18.2314 
 207   0.0000       0.678017        18.4498 
 208   0.0000       0.681354        18.5406 
 209   0.0000       0.686319        18.6757 
 210   0.0000       0.693700        18.8765 
 211   0.0000       0.693975        18.8840 
 212   0.0000       0.705593        19.2001 
 213   0.0000       0.711541        19.3620 
 214   0.0000       0.722145        19.6506 
 215   0.0000       0.729551        19.8521 
 216   0.0000       0.732575        19.9344 
 217   0.0000       0.740453        20.1487 
 218   0.0000       0.750512        20.4225 
 219   0.0000       0.755854        20.5678 
 220   0.0000       0.775941        21.1144 
 221   0.0000       0.781929        21.2774 
 222   0.0000       0.787183        21.4203 
 223   0.0000       0.801237        21.8028 
 224   0.0000       0.806637        21.9497 
 225   0.0000       0.814148        22.1541 
 226   0.0000       0.820176        22.3181 
 227   0.0000       0.832921        22.6649 
 228   0.0000       0.843251        22.9460 
 229   0.0000       0.849676        23.1209 
 230   0.0000       0.857037        23.3212 
 231   0.0000       0.862963        23.4824 
 232   0.0000       0.870065        23.6757 
 233   0.0000       0.882292        24.0084 
 234   0.0000       0.889949        24.2167 
 235   0.0000       0.902819        24.5670 
 236   0.0000       0.903724        24.5916 
 237   0.0000       0.919633        25.0245 
 238   0.0000       0.924212        25.1491 
 239   0.0000       0.937066        25.4989 
 240   0.0000       0.951435        25.8899 
 241   0.0000       0.961343        26.1595 
 242   0.0000       0.984846        26.7990 
 243   0.0000       0.990855        26.9625 
 244   0.0000       0.995777        27.0965 
 245   0.0000       0.996629        27.1197 
 246   0.0000       1.006557        27.3898 
 247   0.0000       1.008234        27.4354 
 248   0.0000       1.014007        27.5925 
 249   0.0000       1.024710        27.8838 
 250   0.0000       1.038063        28.2471 
 251   0.0000       1.050876        28.5958 
 252   0.0000       1.052752        28.6468 
 253   0.0000       1.064412        28.9641 
 254   0.0000       1.072684        29.1892 
 255   0.0000       1.079133        29.3647 
 256   0.0000       1.085578        29.5401 
 257   0.0000       1.086706        29.5708 
 258   0.0000       1.092062        29.7165 
 259   0.0000       1.101027        29.9605 
 260   0.0000       1.106453        30.1081 
 261   0.0000       1.117835        30.4178 
 262   0.0000       1.130289        30.7567 
 263   0.0000       1.136916        30.9371 
 264   0.0000       1.144352        31.1394 
 265   0.0000       1.150434        31.3049 
 266   0.0000       1.159694        31.5569 
 267   0.0000       1.163963        31.6730 
 268   0.0000       1.179103        32.0850 
 269   0.0000       1.184111        32.2213 
 270   0.0000       1.205740        32.8099 
 271   0.0000       1.209646        32.9161 
 272   0.0000       1.221488        33.2384 
 273   0.0000       1.227739        33.4085 
 274   0.0000       1.235149        33.6101 
 275   0.0000       1.243330        33.8327 
 276   0.0000       1.253429        34.1075 
 277   0.0000       1.259125        34.2625 
 278   0.0000       1.266374        34.4598 
 279   0.0000       1.283743        34.9324 
 280   0.0000       1.285017        34.9671 
 281   0.0000       1.292415        35.1684 
 282   0.0000       1.298834        35.3431 
 283   0.0000       1.316679        35.8287 
 284   0.0000       1.324454        36.0402 
 285   0.0000       1.344180        36.5770 
 286   0.0000       1.357388        36.9364 
 287   0.0000       1.365311        37.1520 
 288   0.0000       1.377486        37.4833 
 289   0.0000       1.380809        37.5737 
 290   0.0000       1.391694        37.8699 
 291   0.0000       1.406714        38.2786 
 292   0.0000       1.411100        38.3980 
 293   0.0000       1.420612        38.6568 
 294   0.0000       1.433338        39.0031 
 295   0.0000       1.434100        39.0239 
 296   0.0000       1.444394        39.3040 
 297   0.0000       1.452366        39.5209 
 298   0.0000       1.458809        39.6962 
 299   0.0000       1.471879        40.0519 
 300   0.0000       1.478005        40.2186 
 301   0.0000       1.481439        40.3120 
 302   0.0000       1.496774        40.7293 
 303   0.0000       1.501189        40.8494 
 304   0.0000       1.507262        41.0147 
 305   0.0000       1.515356        41.2349 
 306   0.0000       1.517967        41.3060 
 307   0.0000       1.521987        41.4154 
 308   0.0000       1.532496        41.7013 
 309   0.0000       1.538314        41.8597 
 310   0.0000       1.548703        42.1424 
 311   0.0000       1.560690        42.4685 
 312   0.0000       1.566945        42.6388 
 313   0.0000       1.577414        42.9236 
 314   0.0000       1.581228        43.0274 
 315   0.0000       1.587912        43.2093 
 316   0.0000       1.596637        43.4467 
 317   0.0000       1.605106        43.6772 
 318   0.0000       1.609814        43.8053 
 319   0.0000       1.614657        43.9370 
 320   0.0000       1.621246        44.1164 
 321   0.0000       1.627274        44.2804 
 322   0.0000       1.633236        44.4426 
 323   0.0000       1.643028        44.7091 
 324   0.0000       1.646071        44.7919 
 325   0.0000       1.659982        45.1704 
[...]
      dz2     :    -0.000000  d :    -0.000001
      dxz     :    -0.000000
      dyz     :    -0.000000
      dx2y2   :    -0.000000
      dxy     :    -0.000000
      f0      :     0.000000  f :    -0.000000
      f+1     :     0.000000
      f-1     :    -0.000000
      f+2     :    -0.000000
      f-2     :     0.000000
      f+3     :     0.000000
      f-3     :    -0.000000
 11 O s       :    -0.000000  s :    -0.000000
      pz      :    -0.000007  p :    -0.000013
      px      :    -0.000003
      py      :    -0.000003
      dz2     :    -0.000000  d :     0.000000
      dxz     :     0.000000
      dyz     :     0.000000
      dx2y2   :     0.000000
      dxy     :    -0.000000
      f0      :     0.000000  f :     0.000000
      f+1     :     0.000000
      f-1     :     0.000000
      f+2     :     0.000000
      f-2     :     0.000000
      f+3     :     0.000000
      f-3     :     0.000000
 12 O s       :     0.000000  s :     0.000000
      pz      :     0.000010  p :     0.000015
      px      :     0.000002
      py      :     0.000003
      dz2     :     0.000000  d :     0.000000
      dxz     :     0.000000
      dyz     :     0.000000
      dx2y2   :     0.000000
      dxy     :     0.000000
      f0      :     0.000000  f :     0.000000
      f+1     :     0.000000
      f-1     :    -0.000000
      f+2     :     0.000000
      f-2     :     0.000000
      f+3     :     0.000000
      f-3     :    -0.000000
 13 C s       :     0.000030  s :     0.000030
      pz      :     0.000191  p :     0.000347
      px      :     0.000121
      py      :     0.000035
      dz2     :     0.000016  d :     0.000020
      dxz     :     0.000001
      dyz     :    -0.000001
      dx2y2   :     0.000004
      dxy     :     0.000000
      f0      :     0.000002  f :     0.000003
      f+1     :     0.000001
      f-1     :     0.000000
      f+2     :    -0.000000
      f-2     :     0.000000
      f+3     :     0.000000
      f-3     :    -0.000000
 14 C s       :    -0.000002  s :    -0.000002
      pz      :     0.000012  p :     0.000020
      px      :    -0.000000
      py      :     0.000008
      dz2     :     0.000011  d :     0.000046
      dxz     :     0.000007
      dyz     :     0.000012
      dx2y2   :     0.000016
      dxy     :     0.000001
      f0      :     0.000000  f :     0.000004
      f+1     :     0.000001
      f-1     :     0.000002
      f+2     :     0.000000
      f-2     :     0.000000
      f+3     :     0.000000
      f-3     :     0.000000
 15 H s       :     0.000008  s :     0.000008
      pz      :     0.000001  p :     0.000001
      px      :     0.000001
      py      :    -0.000000
 16 H s       :     0.000021  s :     0.000021
      pz      :     0.000000  p :    -0.000000
      px      :    -0.000000
      py      :     0.000000
 17 H s       :     0.000006  s :     0.000006
      pz      :    -0.000000  p :     0.000001
      px      :    -0.000000
      py      :     0.000001
 18 N s       :     0.000025  s :     0.000025
      pz      :     0.000126  p :     0.000083
      px      :    -0.000072
      py      :     0.000029
      dz2     :     0.000028  d :     0.000176
      dxz     :     0.000084
      dyz     :     0.000056
      dx2y2   :     0.000009
      dxy     :    -0.000001
      f0      :     0.000000  f :     0.000008
      f+1     :     0.000001
      f-1     :     0.000000
      f+2     :     0.000003
      f-2     :     0.000002
      f+3     :     0.000002
      f-3     :    -0.000000
 19 O s       :     0.000018  s :     0.000018
      pz      :     0.000259  p :     0.000186
      px      :    -0.000055
      py      :    -0.000017
      dz2     :     0.000002  d :     0.000000
      dxz     :     0.000000
      dyz     :     0.000002
      dx2y2   :    -0.000002
      dxy     :    -0.000002
      f0      :     0.000000  f :     0.000000
      f+1     :     0.000000
      f-1     :     0.000000
      f+2     :     0.000000
      f-2     :    -0.000000
      f+3     :     0.000000
      f-3     :    -0.000000
 20 O s       :     0.000562  s :     0.000562
      pz      :     0.000738  p :     0.001682
      px      :     0.000418
      py      :     0.000526
      dz2     :    -0.000002  d :     0.000053
      dxz     :     0.000051
      dyz     :     0.000000
      dx2y2   :     0.000005
      dxy     :    -0.000002
      f0      :     0.000000  f :     0.000002
      f+1     :     0.000000
      f-1     :    -0.000000
      f+2     :     0.000000
      f-2     :     0.000001
      f+3     :    -0.000000
      f-3     :     0.000000
 21 H s       :     0.000061  s :     0.000061
      pz      :     0.000004  p :     0.000017
      px      :     0.000011
      py      :     0.000003
 22 C s       :     0.032892  s :     0.032892
      pz      :     0.040828  p :     0.553521
      px      :     0.361924
      py      :     0.150769
      dz2     :     0.003183  d :     0.027396
      dxz     :    -0.000833
      dyz     :     0.003870
      dx2y2   :     0.006329
      dxy     :     0.014846
      f0      :    -0.000228  f :     0.002554
      f+1     :     0.000228
      f-1     :     0.000169
      f+2     :    -0.000119
      f-2     :     0.001332
      f+3     :     0.000505
      f-3     :     0.000667
 23 N s       :     0.008448  s :     0.008448
      pz      :     0.011094  p :     0.162701
      px      :     0.081017
      py      :     0.070590
      dz2     :     0.002769  d :     0.034727
      dxz     :     0.003840
      dyz     :     0.000557
      dx2y2   :     0.007872
      dxy     :     0.019689
      f0      :    -0.000018  f :     0.002393
      f+1     :     0.000032
      f-1     :     0.000306
      f+2     :     0.000077
      f-2     :     0.001101
      f+3     :     0.000451
      f-3     :     0.000444
 24 C s       :     0.003569  s :     0.003569
      pz      :     0.000907  p :     0.002022
      px      :    -0.000336
      py      :     0.001450
      dz2     :     0.007123  d :     0.018244
      dxz     :     0.000148
      dyz     :     0.001735
      dx2y2   :     0.005955
      dxy     :     0.003284
      f0      :     0.000052  f :     0.002083
      f+1     :     0.000167
      f-1     :     0.000018
      f+2     :     0.000257
      f-2     :     0.000460
      f+3     :     0.001078
      f-3     :     0.000050
 25 C s       :     0.001842  s :     0.001842
      pz      :     0.000440  p :     0.002074
      px      :     0.001056
      py      :     0.000578
      dz2     :    -0.000027  d :     0.000749
      dxz     :    -0.000200
      dyz     :    -0.000112
      dx2y2   :     0.000593
      dxy     :     0.000495
      f0      :     0.000000  f :    -0.000007
      f+1     :    -0.000025
      f-1     :    -0.000010
      f+2     :    -0.000000
      f-2     :    -0.000002
      f+3     :     0.000030
      f-3     :    -0.000000
 26 N s       :     0.003237  s :     0.003237
      pz      :     0.001343  p :     0.006378
      px      :     0.002846
      py      :     0.002189
      dz2     :    -0.000213  d :    -0.000114
      dxz     :    -0.000246
      dyz     :     0.000325
      dx2y2   :     0.000144
      dxy     :    -0.000124
      f0      :    -0.000014  f :    -0.000052
      f+1     :    -0.000005
      f-1     :     0.000002
      f+2     :    -0.000011
      f-2     :    -0.000019
      f+3     :    -0.000001
      f-3     :    -0.000004
 27 C s       :     0.000192  s :     0.000192
      pz      :    -0.004050  p :    -0.006768
      px      :    -0.001931
      py      :    -0.000788
      dz2     :     0.006355  d :     0.069474
      dxz     :     0.040757
      dyz     :     0.017166
      dx2y2   :     0.000377
      dxy     :     0.004819
      f0      :     0.000410  f :     0.005545
      f+1     :     0.003367
      f-1     :     0.001090
      f+2     :     0.000132
      f-2     :     0.000478
      f+3     :     0.000011
      f-3     :     0.000056
 28 H s       :    -0.011479  s :    -0.011479
      pz      :     0.001737  p :     0.015741
      px      :     0.008735
      py      :     0.005270
 29 H s       :    -0.001822  s :    -0.001822
      pz      :     0.000834  p :     0.006316
      px      :     0.003537
      py      :     0.001945
 30 H s       :     0.000148  s :     0.000148
      pz      :    -0.000032  p :    -0.000076
      px      :    -0.000117
      py      :     0.000073
 31 H s       :     0.010165  s :     0.010165
      pz      :     0.000056  p :     0.000749
      px      :     0.000770
      py      :    -0.000077
 32 H s       :    -0.000086  s :    -0.000086
      pz      :     0.000007  p :     0.000095
      px      :     0.000079
      py      :     0.000009
 33 H s       :     0.002723  s :     0.002723
      pz      :     0.000096  p :     0.000373
      px      :     0.000271
      py      :     0.000006
 34 H s       :     0.001593  s :     0.001593
      pz      :     0.000114  p :     0.000259
      px      :     0.000162
      py      :    -0.000017
 35 H s       :     0.004307  s :     0.004307
      pz      :    -0.000316  p :    -0.000566
      px      :    -0.000130
      py      :    -0.000120
 36 H s       :     0.033345  s :     0.033345
      pz      :     0.000728  p :     0.000544
      px      :    -0.000285
      py      :     0.000101
 37 H s       :     0.000088  s :     0.000088
      pz      :     0.000006  p :     0.000008
      px      :     0.000001
      py      :     0.000001
 38 H s       :     0.000172  s :     0.000172
      pz      :     0.000092  p :     0.000210
      px      :    -0.000015
      py      :     0.000133
 39 O s       :     0.000072  s :     0.000072
      pz      :     0.000140  p :     0.000183
      px      :     0.000017
      py      :     0.000026
      dz2     :    -0.000003  d :     0.000001
      dxz     :     0.000000
      dyz     :     0.000001
      dx2y2   :     0.000001
      dxy     :     0.000001
      f0      :    -0.000000  f :     0.000000
      f+1     :     0.000000
      f-1     :     0.000000
      f+2     :     0.000000
      f-2     :     0.000000
      f+3     :     0.000000
      f-3     :     0.000000


                      *****************************
                      * MAYER POPULATION ANALYSIS *
                      *****************************

  NA   - Mulliken gross atomic population
  ZA   - Total nuclear charge
  QA   - Mulliken gross atomic charge
  VA   - Mayer's total valence
  BVA  - Mayer's bonded valence
  FA   - Mayer's free valence

  ATOM       NA         ZA         QA         VA         BVA        FA
  0 C      6.1335     6.0000    -0.1335     3.8847     3.8847    -0.0000
  1 C      6.1716     6.0000    -0.1716     3.9148     3.9148     0.0000
  2 C      5.7702     6.0000     0.2298     3.6543     3.6543     0.0000
  3 C      6.2565     6.0000    -0.2565     3.9674     3.9674     0.0000
  4 C      5.8845     6.0000     0.1155     3.8041     3.8041     0.0000
  5 C      6.1850     6.0000    -0.1850     3.9307     3.9307     0.0000
  6 H      0.8538     1.0000     0.1462     0.9677     0.9677     0.0000
  7 H      0.8198     1.0000     0.1802     0.9707     0.9707    -0.0000
  8 H      0.8250     1.0000     0.1750     0.9960     0.9960     0.0000
  9 H      0.8373     1.0000     0.1627     0.9926     0.9926     0.0000
 10 N      6.5465     7.0000     0.4535     4.1872     4.1872     0.0000
 11 O      8.3604     8.0000    -0.3604     1.8903     1.8903     0.0000
 12 O      8.3610     8.0000    -0.3610     1.8918     1.8918     0.0000
 13 C      6.1897     6.0000    -0.1897     3.7782     3.7782    -0.0000
 14 C      6.3757     6.0000    -0.3757     3.9104     3.9104    -0.0000
 15 H      0.8728     1.0000     0.1272     0.9849     0.9849     0.0000
 16 H      0.8705     1.0000     0.1295     0.9635     0.9635     0.0000
 17 H      0.8707     1.0000     0.1293     0.9648     0.9648     0.0000
 18 N      6.5448     7.0000     0.4552     3.9284     3.9284     0.0000
 19 O      8.5543     8.0000    -0.5543     1.6477     1.6477     0.0000
 20 O      8.6036     8.0000    -0.6036     1.5665     1.5665     0.0000
 21 H      0.6363     1.0000     0.3637     0.8885     0.8885     0.0000
 22 C      6.2337     6.0000    -0.2337     3.8416     3.2913     0.5502
 23 N      7.2792     7.0000    -0.2792     3.1347     3.0924     0.0423
 24 C      6.1011     6.0000    -0.1011     3.9142     3.9134     0.0008
 25 C      6.1337     6.0000    -0.1337     3.8527     3.8523     0.0004
 26 N      7.1268     7.0000    -0.1268     3.4510     3.4509     0.0001
 27 C      6.0946     6.0000    -0.0946     3.8538     3.8515     0.0023
 28 H      0.8516     1.0000     0.1484     0.9690     0.9678     0.0012
 29 H      0.7504     1.0000     0.2496     0.9308     0.9308     0.0001
 30 H      0.8600     1.0000     0.1400     0.9665     0.9665     0.0000
 31 H      0.8951     1.0000     0.1049     1.0001     0.9994     0.0007
 32 H      0.8518     1.0000     0.1482     0.9926     0.9926     0.0000
 33 H      0.8593     1.0000     0.1407     0.9842     0.9841     0.0001
 34 H      0.7149     1.0000     0.2851     0.9790     0.9790     0.0000
 35 H      0.8427     1.0000     0.1573     0.9652     0.9652     0.0000
 36 H      0.8672     1.0000     0.1328     0.9728     0.9691     0.0036
 37 H      0.6288     1.0000     0.3712     0.8770     0.8770     0.0000
 38 H      0.7013     1.0000     0.2987     0.9197     0.9197    -0.0000
 39 O      8.6843     8.0000    -0.6843     1.8324     1.8324     0.0000

  Mayer bond orders larger than 0.100000
B(  0-C ,  1-C ) :   1.4322 B(  0-C ,  5-C ) :   1.3876 B(  0-C ,  6-H ) :   0.9842 
B(  1-C ,  2-C ) :   1.2945 B(  1-C ,  7-H ) :   0.9289 B(  2-C ,  3-C ) :   1.3723 
B(  2-C , 13-C ) :   1.0480 B(  3-C ,  4-C ) :   1.4168 B(  3-C ,  8-H ) :   0.9209 
B(  4-C ,  5-C ) :   1.3371 B(  4-C , 10-N ) :   1.0042 B(  5-C ,  9-H ) :   0.9530 
B( 10-N , 11-O ) :   1.5840 B( 10-N , 12-O ) :   1.5825 B( 11-O , 12-O ) :   0.1870 
B( 13-C , 14-C ) :   0.9911 B( 13-C , 18-N ) :   1.4660 B( 13-C , 19-O ) :   0.1163 
B( 13-C , 20-O ) :   0.1243 B( 14-C , 15-H ) :   0.9476 B( 14-C , 16-H ) :   0.9671 
B( 14-C , 17-H ) :   0.9767 B( 18-N , 19-O ) :   1.3051 B( 18-N , 20-O ) :   1.1565 
B( 20-O , 34-H ) :   0.1709 B( 21-H , 39-O ) :   0.8680 B( 22-C , 23-N ) :   1.2260 
B( 22-C , 27-C ) :   1.0181 B( 22-C , 28-H ) :   0.9652 B( 23-N , 24-C ) :   0.9600 
B( 23-N , 29-H ) :   0.9086 B( 24-C , 25-C ) :   1.0033 B( 24-C , 30-H ) :   0.9601 
B( 24-C , 31-H ) :   0.9574 B( 25-C , 26-N ) :   0.9059 B( 25-C , 32-H ) :   0.9520 
B( 25-C , 33-H ) :   0.9522 B( 26-N , 27-C ) :   0.9114 B( 26-N , 34-H ) :   0.7870 
B( 26-N , 38-H ) :   0.8481 B( 27-C , 35-H ) :   0.9578 B( 27-C , 36-H ) :   0.9378 
B( 37-H , 39-O ) :   0.8674 

-------
TIMINGS
-------

Total SCF time: 0 days 0 hours 1 min 41 sec 

Total time                  ....     101.603 sec
Sum of individual times     ....      94.724 sec  ( 93.2%)

Fock matrix formation       ....      54.022 sec  ( 53.2%)
  Split-RI-J                ....       6.598 sec  ( 12.2% of F)
  Chain of spheres X        ....      28.121 sec  ( 52.1% of F)
  XC integration            ....       6.901 sec  ( 12.8% of F)
    Basis function eval.    ....       0.545 sec  (  7.9% of XC)
    Density eval.           ....       3.040 sec  ( 44.1% of XC)
    XC-Functional eval.     ....       0.035 sec  (  0.5% of XC)
    XC-Potential eval.      ....       0.663 sec  (  9.6% of XC)
Diagonalization             ....      20.729 sec  ( 20.4%)
Density matrix formation    ....       1.062 sec  (  1.0%)
Population analysis         ....       2.733 sec  (  2.7%)
Initial guess               ....       2.665 sec  (  2.6%)
Orbital Transformation      ....       0.000 sec  (  0.0%)
Orbital Orthonormalization  ....       2.438 sec  (  2.4%)
DIIS solution               ....       8.942 sec  (  8.8%)
Grid generation             ....       4.572 sec  (  4.5%)

Maximum memory used throughout the entire SCF-calculation: 175.9 MB


-------------------------------------------------------------------------------
                          DFT DISPERSION CORRECTION                            
                                                                               
                              DFTD3 V3.1  Rev 1                                
                          USING Becke-Johnson damping                          
-------------------------------------------------------------------------------
The B3LYP functional is recognized
Active option DFTDOPT                   ...         4   

molecular C6(AA) [au] = 15232.849630 


            DFT-D V3
 parameters
 s6 scaling factor         :     1.0000 
 a1 scaling factor         :     0.3981 
 s8 scaling factor         :     1.9889 
 a2 scaling factor         :     4.4211 
 ad hoc parameters k1-k3   :    16.0000     1.3333    -4.0000 

 Edisp/kcal,au: -48.998118851457  -0.078083464314 
 E6   /kcal   : -24.026030127 
 E8   /kcal   : -24.972088724 
 % E8         :  50.965402978 

-------------------------   ----------------
Dispersion correction           -0.078083464
-------------------------   ----------------


-------------------------   --------------------
FINAL SINGLE POINT ENERGY     -1063.553812203993
-------------------------   --------------------

                                *** OPTIMIZATION RUN DONE ***

                            ***************************************
                            *     ORCA property calculations      *
                            ***************************************

                                    ---------------------
                                    Active property flags
                                    ---------------------
   (+) Dipole Moment


------------------------------------------------------------------------------
                       ORCA ELECTRIC PROPERTIES CALCULATION
------------------------------------------------------------------------------

Dipole Moment Calculation                       ... on
Quadrupole Moment Calculation                   ... off
Polarizability Calculation                      ... off
GBWName                                         ... /home/rudenko/mop_saddle_orca_4_serv/for_orca/m-o2nc6h4chno2ch3_piperazine/orca/orca_end/end.gbw
Electron density                                ... /home/rudenko/mop_saddle_orca_4_serv/for_orca/m-o2nc6h4chno2ch3_piperazine/orca/orca_end/end.scfp
The origin for moment calculation is the CENTER OF MASS  = ( 1.877879, -4.803841 -4.013789)

-------------
DIPOLE MOMENT
-------------
                                X             Y             Z
Electronic contribution:    -12.04957      19.49852       9.51871
Nuclear contribution   :     16.95939     -23.10686     -10.65476
                        -----------------------------------------
Total Dipole Moment    :      4.90981      -3.60834      -1.13604
                        -----------------------------------------
Magnitude (a.u.)       :      6.19814
Magnitude (Debye)      :     15.75443



--------------------
Rotational spectrum 
--------------------
 
Rotational constants in cm-1:     0.020755     0.004460     0.004057 
Rotational constants in MHz :   622.228172   133.693904   121.638604 

 Dipole components along the rotational axes: 
x,y,z [a.u.] :    -5.426215    -1.610596     2.525697 
x,y,z [Debye]:   -13.792343    -4.093810     6.419812 

 

Timings for individual modules:

Sum of individual times         ...    13216.182 sec (= 220.270 min)
GTO integral calculation        ...      429.748 sec (=   7.162 min)   3.3 %
SCF iterations                  ...    11040.080 sec (= 184.001 min)  83.5 %
SCF Gradient evaluation         ...     1739.651 sec (=  28.994 min)  13.2 %
Geometry relaxation             ...        6.703 sec (=   0.112 min)   0.1 %
                             ****ORCA TERMINATED NORMALLY****
TOTAL RUN TIME: 0 days 3 hours 44 minutes 43 seconds 692 msec
