 *******************************************************************************
 **                                                                           **
 **                              MOPAC v22.0.6                                **
 **                                                                           **
 *******************************************************************************
 **          Digital Object Identifier (DOI): 10.5281/zenodo.6511958          **
 **    Visit the DOI location for information on how to cite this program.    **
 *******************************************************************************

                              PM7 CALCULATION RESULTS

 *******************************************************************************
 *  CALCULATION DONE:                                Tue Mar 26 11:33:57 2024  *
 *  PM7        - The PM7 Hamiltonian to be used
 *  SINGLET    - SPIN STATE DEFINED AS A SINGLET
 *
 *
 *
 *                 CHARGE ON SYSTEM = 0
 *
 *
 *
 *  EPS=78.4   - USE ANDREAS KLAMT'S COSMO IMPLICIT SOLVATION MODEL
 *  SADDLE     - TRANSITION STATE TO BE OPTIMIZED
 *  T=         - A TIME OF 14.0 DAYS REQUESTED
 *  DUMP=N     - RESTART FILE WRITTEN EVERY 30.0 MINUTES REQUESTED
 *  RELSCF     - DEFAULT SCF CRITERION MULTIPLIED BY 1.0000
 *              (DEFAULT SCF CRITERION = 0.00010)
 *  ITRY=      - DO A MAXIMUM OF 15000 ITERATIONS FOR SCF
 *  AUX        - OUTPUT AUXILIARY INFORMATION
 *  BONDS      - FINAL BOND-ORDER MATRIX TO BE PRINTED
 *******************************************************************************
SADDLE PM7 BONDS AUX DUMP=30M ITRY=15000 T=14D CHARGE=0 SINGLET eps=78.4 RELSCF=1


   ATOM   CHEMICAL          X               Y               Z
  NUMBER   SYMBOL      (ANGSTROMS)     (ANGSTROMS)     (ANGSTROMS)

     1       C          1.85476000  *   2.79668000  *   2.95151000  *
     2       C          2.08132000  *   1.43757000  *   2.73889000  *
     3       C          1.20618000  *   0.68913000  *   1.94951000  *
     4       C          0.09035000  *   1.29860000  *   1.37132000  *
     5       C         -0.10776000  *   2.65111000  *   1.60368000  *
     6       C          0.74759000  *   3.42151000  *   2.37994000  *
     7       H          2.54805000  *   3.37468000  *   3.56824000  *
     8       H          2.94937000  *   0.96009000  *   3.20466000  *
     9       H         -0.60164000  *   0.71972000  *   0.75242000  *
    10      Cl         -1.47819000  *   3.40381000  *   0.89494000  *
    11       H          0.56856000  *   4.48657000  *   2.54453000  *
    12       C          1.46909000  *  -0.78052000  *   1.75872000  *
    13       C          0.30024000  *  -1.63734000  *   2.23003000  *
    14       H          0.51394000  *  -2.71429000  *   2.15052000  *
    15       H         -0.62692000  *  -1.44248000  *   1.67184000  *
    16       H          0.07824000  *  -1.43839000  *   3.29185000  *
    17       N          1.71422000  *  -1.06007000  *   0.30073000  *
    18       O          2.74748000  *  -1.63897000  *  -0.00394000  *
    19       O          0.89775000  *  -0.70037000  *  -0.52651000  *
    20       N          5.03085000  *  -0.74593000  *   1.92489000  *
    21       C          6.15514000  *  -1.69800000  *   2.10439000  *
    22       C          7.04839000  *  -1.17235000  *   3.24001000  *
    23       O          7.51539000  *   0.13146000  *   2.93397000  *
    24       C          6.46280000  *   1.06249000  *   2.74189000  *
    25       C          5.55181000  *   0.60340000  *   1.59247000  *
    26       H          4.69314000  *   1.29956000  *   1.47458000  *
    27       H          6.11025000  *   0.61794000  *   0.63115000  *
    28       H          6.99494000  *   2.00032000  *   2.50117000  *
    29       H          5.90548000  *   1.18307000  *   3.68806000  *
    30       H          7.98009000  *  -1.75689000  *   3.34408000  *
    31       H          6.51355000  *  -1.15042000  *   4.20712000  *
    32       H          6.75073000  *  -1.83289000  *   1.17604000  *
    33       H          2.40404000  *  -1.09072000  *   2.31931000  *
    34       H          4.39207000  *  -1.07204000  *   1.19705000  *
    35       H          5.73882000  *  -2.69487000  *   2.36849000  *
    36       H          3.50266000  *  -1.64241000  *   4.62009000  *
    37       H          4.29512000  *  -0.69432000  *   3.70835000  *
    38       O          3.81826000  *  -0.73947000  *   4.56609000  *



          CARTESIAN COORDINATES 

    NO.       ATOM           X           Y           Z

     1         C          1.8548      2.7967      2.9515
     2         C          2.0813      1.4376      2.7389
     3         C          1.2062      0.6891      1.9495
     4         C          0.0903      1.2986      1.3713
     5         C         -0.1078      2.6511      1.6037
     6         C          0.7476      3.4215      2.3799
     7         H          2.5480      3.3747      3.5682
     8         H          2.9494      0.9601      3.2047
     9         H         -0.6016      0.7197      0.7524
    10        Cl         -1.4782      3.4038      0.8949
    11         H          0.5686      4.4866      2.5445
    12         C          1.4691     -0.7805      1.7587
    13         C          0.3002     -1.6373      2.2300
    14         H          0.5139     -2.7143      2.1505
    15         H         -0.6269     -1.4425      1.6718
    16         H          0.0782     -1.4384      3.2919
    17         N          1.7142     -1.0601      0.3007
    18         O          2.7475     -1.6390     -0.0039
    19         O          0.8978     -0.7004     -0.5265
    20         N          5.0309     -0.7459      1.9249
    21         C          6.1551     -1.6980      2.1044
    22         C          7.0484     -1.1724      3.2400
    23         O          7.5154      0.1315      2.9340
    24         C          6.4628      1.0625      2.7419
    25         C          5.5518      0.6034      1.5925
    26         H          4.6931      1.2996      1.4746
    27         H          6.1102      0.6179      0.6312
    28         H          6.9949      2.0003      2.5012
    29         H          5.9055      1.1831      3.6881
    30         H          7.9801     -1.7569      3.3441
    31         H          6.5136     -1.1504      4.2071
    32         H          6.7507     -1.8329      1.1760
    33         H          2.4040     -1.0907      2.3193
    34         H          4.3921     -1.0720      1.1970
    35         H          5.7388     -2.6949      2.3685
    36         H          3.5027     -1.6424      4.6201
    37         H          4.2951     -0.6943      3.7084
    38         O          3.8183     -0.7395      4.5661

 General Reference for PM7:
 "Optimization of Parameters for Semiempirical Methods VI: More Modifications to the 
 NDDO Approximations and Re-optimization of Parameters", J. J. P. Stewart, J. Mol. Mod., 1:32, 19 (2013)
 https://link.springer.com/article/10.1007/s00894-012-1667-x

           Empirical Formula: C12 H19 N2 O4 Cl  =    38 atoms



      MOLECULAR POINT GROUP   :   C1  


 SINGLET STATE CALCULATION


      RHF CALCULATION, NO. OF DOUBLY OCCUPIED LEVELS = 54



  CARTESIAN GEOMETRY OF FIRST SYSTEM


   1    C          3.51105       2.28971      -0.85816
   2    C          3.27960       1.02891      -0.31744
   3    C          2.48931       0.08718      -0.99768
   4    C          1.92761       0.43819      -2.23388
   5    C          2.18601       1.69760      -2.74465
   6    C          2.96539       2.64190      -2.09405
   7    H          4.13001       3.00833      -0.31690
   8    H          3.72618       0.76667       0.64363
   9    H          1.30168      -0.27900      -2.77258
  10   Cl          1.51825       2.09816      -4.27762
  11    H          3.15788       3.62596      -2.52171
  12    C          2.25128      -1.22086      -0.40982
  13    C          1.98878      -1.30617       1.05522
  14    H          1.68067      -2.31403       1.37371
  15    H          1.18882      -0.61346       1.35884
  16    H          2.88051      -1.04928       1.64714
  17    N          2.21139      -2.32475      -1.15828
  18    O          1.95897      -3.45688      -0.68475
  19    O          2.47698      -2.28241      -2.40907
  20    N          4.91565      -1.26256      -2.96315
  21    C          5.49014      -2.23809      -3.95907
  22    C          6.95385      -1.88057      -4.23088
  23    O          7.04781      -0.55019      -4.70968
  24    C          6.55637       0.40174      -3.78517
  25    C          5.07462       0.13736      -3.49729
  26    H          4.68342       0.86870      -2.75310
  27    H          4.46540       0.25281      -4.42507
  28    H          6.70780       1.36892      -4.30548
  29    H          7.17529       0.39231      -2.86822
  30    H          7.37707      -2.48095      -5.06144
  31    H          7.59728      -2.00590      -3.34020
  32    H          4.89053      -2.19965      -4.90048
  33    H          4.60629      -1.56123       0.03877
  34    H          3.87965      -1.49356      -2.76887
  35    H          5.39549      -3.27655      -3.56374
  36    H          6.06880      -2.00205       0.13135
  37    H          5.40783      -1.34794      -2.03118
  38    O          5.49518      -1.32418      -0.26112


  CARTESIAN GEOMETRY OF SECOND SYSTEM


   1    C          3.49852       2.52764      -1.42532
   2    C          3.56962       1.14058      -1.30401
   3    C          2.42425       0.39552      -1.01736
   4    C          1.19671       1.03866      -0.84312
   5    C          1.16002       2.41906      -0.96825
   6    C          2.28116       3.18542      -1.25715
   7    H          4.40052       3.10155      -1.65363
   8    H          4.53584       0.64103      -1.42778
   9    H          0.29417       0.46313      -0.61687
  10   Cl         -0.34683       3.21325      -0.75460
  11    H          2.22297       4.27215      -1.35258
  12    C          2.54121      -1.09798      -0.87189
  13    C          2.06801      -1.57912       0.49451
  14    H          2.21079      -2.66250       0.62756
  15    H          1.00691      -1.36026       0.68249
  16    H          2.64018      -1.08557       1.29785
  17    N          1.71306      -1.77067      -1.93285
  18    O          2.26528      -2.58827      -2.65546
  19    O          0.53697      -1.48228      -2.05107
  20    N          5.20700      -1.68442      -3.16637
  21    C          6.17726      -2.75372      -3.50970
  22    C          7.58608      -2.13804      -3.50703
  23    O          7.65290      -1.06075      -4.42716
  24    C          6.72613      -0.02787      -4.13407
  25    C          5.29220      -0.58039      -4.15452
  26    H          4.56584       0.21159      -3.86987
  27    H          5.02210      -0.90842      -5.18197
  28    H          6.90042       0.70554      -4.94177
  29    H          6.98082       0.42468      -3.15903
  30    H          8.35046      -2.84085      -3.88434
  31    H          7.87559      -1.77828      -2.50274
  32    H          5.96299      -3.22256      -4.49409
  33    H          3.61439      -1.42737      -1.02812
  34    H          4.25613      -2.05647      -3.12681
  35    H          6.10469      -3.55895      -2.74605
  36    H          6.02692      -1.58537      -0.04851
  37    H          5.91993      -1.05682      -1.48632
  38    O          6.17761      -0.79870      -0.57411


   "DISTANCE":     8.788933


  REACTION COORDINATE VECTOR


   1    C          0.01252      -0.23793       0.56716
   2    C         -0.29002      -0.11167       0.98656
   3    C          0.06506      -0.30834       0.01968
   4    C          0.73091      -0.60047      -1.39076
   5    C          1.02599      -0.72146      -1.77641
   6    C          0.68423      -0.54352      -0.83690
   7    H         -0.27050      -0.09322       1.33673
   8    H         -0.80966       0.12564       2.07141
   9    H          1.00751      -0.74213      -2.15571
  10   Cl          1.86507      -1.11509      -3.52303
  11    H          0.93491      -0.64619      -1.16913
  12    C         -0.28993      -0.12288       0.46208
  13    C         -0.07923       0.27295       0.56071
  14    H         -0.53012       0.34847       0.74615
  15    H          0.18191       0.74679       0.67634
  16    H          0.24032       0.03629       0.34929
  17    N          0.49833      -0.55408       0.77457
  18    O         -0.30631      -0.86861       1.97071
  19    O          1.94001      -0.80013      -0.35801
  20    N         -0.29135       0.42186       0.20321
  21    C         -0.68712       0.51563      -0.44937
  22    C         -0.63223       0.25748      -0.72385
  23    O         -0.60509       0.51056      -0.28252
  24    C         -0.16976       0.42961       0.34890
  25    C         -0.21758       0.71775       0.65723
  26    H          0.11758       0.65711       1.11678
  27    H         -0.55670       1.16123       0.75690
  28    H         -0.19262       0.66338       0.63629
  29    H          0.19447      -0.03237       0.29081
  30    H         -0.97339       0.35990      -1.17710
  31    H         -0.27831      -0.22762      -0.83746
  32    H         -1.07246       1.02290      -0.40639
  33    H          0.99190      -0.13386       1.06689
  34    H         -0.37648       0.56290       0.35794
  35    H         -0.70920       0.28240      -0.81770
  36    H          0.04188      -0.41668       0.17985
  37    H         -0.51210      -0.29112      -0.54485
  38    O         -0.68242      -0.52548       0.31300
 *+*+*+*+*+*+*+*+*+*+*+*+*+*+*+*+*+*+*+*+*+*+*+*+*+*+*+*+*+*+*+*+*+*+*+*+*+*+*+*+
            BAR SHORTENED BY       0.000 PERCENT
 GRADIENT CRITERION IN FLEPO =     1.000
  SCF CRITERION =    0.1000E-03


          FOR POINT    1 SECOND STRUCTURE
 DISTANCE A - B      8.788933
 HEAT             -145.243546
 GRADIENT NORM       4.655249
 DIRECTION COSINE    0.000020
* ===============================
* Input file for Mopac
* ===============================
 PM7 BONDS AUX DUMP=30M ITRY=15000 T=14D CHARGE=0 SINGLET eps=78.4 RELSCF=1


  C     0.00000000 +0    0.0000000 +0    0.0000000 +0     0     0     0
  C     1.39129791 +1    0.0000000 +0    0.0000000 +0     1     0     0
  C     1.40472967 +1  120.8556310 +1    0.0000000 +0     2     1     0
  C     1.40228072 +1  118.9755638 +1   -0.3027272 +1     3     2     1
  C     1.38388087 +1  118.5884936 +1    0.7065277 +1     4     3     2
  C     1.38650278 +1  123.4613925 +1   -0.5542545 +1     5     4     3
  H     1.09209988 +1  119.8721004 +1 -179.8387752 +1     1     2     3
  H     1.09183594 +1  119.4500300 +1  179.4459339 +1     2     1     3
  H     1.09369685 +1  119.9773671 +1 -179.4066153 +1     4     3     2
 Cl     1.71912216 +1  117.9568473 +1  178.6461741 +1     5     4     3
  H     1.08996840 +1  121.9829844 +1  179.7000045 +1     6     5     4
  C     1.45385049 +1  119.9726589 +1 -179.5143150 +1     3     2     1
  C     1.49096340 +1  118.5215375 +1   40.7052969 +1    12     3     2
  H     1.10103228 +1  112.7030405 +1  171.7836325 +1    13    12     3
  H     1.10095609 +1  111.2781462 +1   51.5516820 +1    13    12     3
  H     1.10077067 +1  111.8675317 +1  -68.1761888 +1    13    12     3
  N     1.33394409 +1  121.5112578 +1 -141.9745670 +1    12     3     2
  O     1.25308422 +1  122.7981874 +1 -177.2697096 +1    17    12     3
  O     1.27949976 +1  121.0033862 +1    5.0637923 +1    17    12     3
  N     2.70092790 +1  113.5954588 +1   56.7591593 +1    19    17    12
  C     1.50776847 +1  103.6010250 +1  133.1748220 +1    20    19    17
  C     1.53106696 +1  109.2986996 +1 -172.7974647 +1    21    20    19
  O     1.41704033 +1  110.0383040 +1  -57.8213512 +1    22    21    20
  C     1.41509049 +1  112.8127816 +1   60.7003375 +1    23    22    21
  C     1.50676207 +1  121.2595610 +1 -104.1269150 +1    20    19    17
  H     1.11400022 +1  109.6435275 +1   61.8588429 +1    25    20    19
  H     1.11594745 +1  109.4621342 +1  -55.5233994 +1    25    20    19
  H     1.10867823 +1  103.4621684 +1  179.6553226 +1    24    23    22
  H     1.10627550 +1  109.9703724 +1   63.7363426 +1    24    23    22
  H     1.10877172 +1  111.7951733 +1 -171.9916327 +1    22    21    20
  H     1.10591164 +1  112.7486991 +1   65.2303201 +1    22    21    20
  H     1.11648749 +1  109.2558500 +1   65.7684238 +1    21    20    19
  H     2.41390368 +1   99.8678617 +1  -24.4458810 +1    16    13    12
  H     1.07898103 +1   10.0491660 +1  -94.3042548 +1    20    19    17
  H     1.11561039 +1  109.5778375 +1  -50.7176279 +1    21    20    19
  H     1.53020621 +1  134.7573594 +1 -152.2203552 +1    33    16    13
  H     1.05746558 +1  102.0558670 +1   18.1748179 +1    20    19    17
  O     0.96774057 +1  144.1940827 +1  149.3589199 +1    33    16    13

 TIME=     0.64
  REACTANTS AND PRODUCTS SWAPPED AROUND
 *+*+*+*+*+*+*+*+*+*+*+*+*+*+*+*+*+*+*+*+*+*+*+*+*+*+*+*+*+*+*+*+*+*+*+*+*+*+*+*+
            BAR SHORTENED BY       1.000 PERCENT
 GRADIENT CRITERION IN FLEPO =     1.655
           THERE HAVE BEEN 3 ATTEMPTS TO REDUCE THE GRADIENT.
           DURING THESE ATTEMPTS THE ENERGY DROPPED BY LESS THAN 0.3 KCAL/MOLE
           FURTHER CALCULATION IS NOT JUSTIFIED AT THIS TIME.
           TO CONTINUE, START AGAIN WITH THE WORD "PRECISE"


          FOR POINT    2 FIRST  STRUCTURE
 DISTANCE A - B      8.701044
 HEAT             -133.311164
 GRADIENT NORM       7.023110
 DIRECTION COSINE    0.097361
* ===============================
* Input file for Mopac
* ===============================
 PM7 BONDS AUX DUMP=30M ITRY=15000 T=14D CHARGE=0 SINGLET eps=78.4 RELSCF=1


  C     0.00000000 +0    0.0000000 +0    0.0000000 +0     0     0     0
  C     1.39382594 +1    0.0000000 +0    0.0000000 +0     1     0     0
  C     1.39545285 +1  120.5246876 +1    0.0000000 +0     2     1     0
  C     1.39683607 +1  119.9648713 +1   -0.3181436 +1     3     2     1
  C     1.38683229 +1  118.0393266 +1    0.3472480 +1     4     3     2
  C     1.38805684 +1  123.3016887 +1   -0.1519288 +1     5     4     3
  H     1.09237053 +1  120.0166453 +1 -179.7989763 +1     1     2     3
  H     1.09371376 +1  119.2028061 +1 -179.4243061 +1     2     1     3
  H     1.09432657 +1  120.4023229 +1 -179.9210989 +1     4     3     2
 Cl     1.71624999 +1  118.2272531 +1  179.8149135 +1     5     4     3
  H     1.09269075 +1  121.8961055 +1  179.7655751 +1     6     5     4
  C     1.50593038 +1  119.2344621 +1 -178.9989249 +1     3     2     1
  C     1.52169589 +1  112.0248977 +1  121.1912251 +1    12     3     2
  H     1.10034608 +1  112.4508115 +1 -176.6446497 +1    13    12     3
  H     1.09922204 +1  113.1713542 +1   61.4760050 +1    13    12     3
  H     1.10436022 +1  110.5049886 +1  -57.9633163 +1    13    12     3
  N     1.50477606 +1  109.3516376 +1 -118.1083825 +1    12     3     2
  O     1.22299163 +1  117.9597793 +1  125.9074248 +1    17    12     3
  O     1.21532404 +1  119.6181804 +1  -53.4766044 +1    17    12     3
  N     2.98141996 +1  127.5109946 +1 -128.8578524 +1     8     2     1
  C     1.48566078 +1  147.7019325 +1 -166.7127922 +1    20     8     2
  C     1.53675987 +1  108.0606947 +1  -43.6550556 +1    21    20     8
  O     1.41928999 +1  110.3443917 +1  -57.8763077 +1    22    21    20
  C     1.41677934 +1  112.8190722 +1   59.1084041 +1    23    22    21
  C     1.48344904 +1   79.8057955 +1   81.6913187 +1    20     8     2
  H     1.11052197 +1  108.8386628 +1  -31.1331252 +1    25    20     8
  H     1.10982132 +1  112.4642041 +1 -149.4149171 +1    25    20     8
  H     1.10588320 +1  103.2242725 +1 -178.9449268 +1    24    23    22
  H     1.10598900 +1  109.2282504 +1   64.3861755 +1    24    23    22
  H     1.10302869 +1  112.1747064 +1 -172.5602999 +1    22    21    20
  H     1.10650144 +1  111.8185805 +1   63.8653366 +1    22    21    20
  H     1.11420194 +1  112.4887542 +1 -165.5800850 +1    21    20     8
  H     1.13392915 +1  110.2740481 +1   -0.4637113 +1    12     3     2
  H     1.02181934 +1   93.0328194 +1  -28.5408373 +1    20     8     2
  H     1.11046448 +1  108.7523790 +1   76.3441570 +1    21    20     8
  H     2.59515163 +1  147.7720120 +1   75.7755054 +1    33    12     3
  H     1.53707164 +1   64.0144232 +1 -132.8765528 +1    36    33    12
  O     0.95733128 +1   83.4403541 +1  -98.3136384 +1    36    33    12

 TIME=     1.05
  REACTANTS AND PRODUCTS SWAPPED AROUND
 *+*+*+*+*+*+*+*+*+*+*+*+*+*+*+*+*+*+*+*+*+*+*+*+*+*+*+*+*+*+*+*+*+*+*+*+*+*+*+*+
            BAR SHORTENED BY       1.000 PERCENT
 GRADIENT CRITERION IN FLEPO =     4.023


          FOR POINT    3 SECOND STRUCTURE
 DISTANCE A - B      8.614033
 HEAT             -145.115747
 GRADIENT NORM       8.588765
 DIRECTION COSINE   -0.111734
* ===============================
* Input file for Mopac
* ===============================
 PM7 BONDS AUX DUMP=30M ITRY=15000 T=14D CHARGE=0 SINGLET eps=78.4 RELSCF=1


  C     0.00000000 +0    0.0000000 +0    0.0000000 +0     0     0     0
  C     1.39147544 +1    0.0000000 +0    0.0000000 +0     1     0     0
  C     1.40312906 +1  120.9422085 +1    0.0000000 +0     2     1     0
  C     1.40097603 +1  118.9241529 +1   -0.7562628 +1     3     2     1
  C     1.38547558 +1  118.5247619 +1    0.6773418 +1     4     3     2
  C     1.38648337 +1  123.6405093 +1   -0.0523349 +1     5     4     3
  H     1.09266399 +1  120.0252013 +1 -179.7639686 +1     1     2     3
  H     1.09385313 +1  119.4016719 +1  178.8876223 +1     2     1     3
  H     1.09339634 +1  119.8916356 +1 -178.7022919 +1     4     3     2
 Cl     1.71957444 +1  118.0435784 +1  178.2353054 +1     5     4     3
  H     1.09054530 +1  122.2430782 +1  179.6982600 +1     6     5     4
  C     1.45246412 +1  120.2224456 +1 -179.5040182 +1     3     2     1
  C     1.48896533 +1  118.6785752 +1   40.9841873 +1    12     3     2
  H     1.10236268 +1  112.5315253 +1  172.1730870 +1    13    12     3
  H     1.09987647 +1  111.0241466 +1   51.9775972 +1    13    12     3
  H     1.10039283 +1  111.8062062 +1  -67.7568002 +1    13    12     3
  N     1.33096126 +1  121.5358118 +1 -142.1906613 +1    12     3     2
  O     1.25408261 +1  123.0586922 +1 -177.3637943 +1    17    12     3
  O     1.27735336 +1  120.8743324 +1    5.1726012 +1    17    12     3
  N     2.70956179 +1  113.3998020 +1   57.1523441 +1    19    17    12
  C     1.50862938 +1  104.0173235 +1  132.3028165 +1    20    19    17
  C     1.53174671 +1  109.2268174 +1 -173.2566942 +1    21    20    19
  O     1.41707001 +1  110.0294422 +1  -57.8833439 +1    22    21    20
  C     1.41593669 +1  112.7908291 +1   60.8245484 +1    23    22    21
  C     1.50687999 +1  120.6558245 +1 -105.1045462 +1    20    19    17
  H     1.11245262 +1  109.7174397 +1   61.4570934 +1    25    20    19
  H     1.11585199 +1  109.2627615 +1  -55.9517762 +1    25    20    19
  H     1.11092309 +1  103.2078583 +1  179.4994963 +1    24    23    22
  H     1.10650153 +1  110.0393226 +1   63.6342791 +1    24    23    22
  H     1.10496490 +1  111.6856587 +1 -172.0129646 +1    22    21    20
  H     1.10498368 +1  112.6893797 +1   65.1086545 +1    22    21    20
  H     1.11655629 +1  109.3045780 +1   65.4694802 +1    21    20    19
  H     2.41372888 +1   92.2282491 +1  -49.3389621 +1    12     3     2
  H     1.07792470 +1    9.5625599 +1  -96.2727417 +1    20    19    17
  H     1.11420533 +1  109.5641548 +1  -51.1172538 +1    21    20    19
  H     1.53369202 +1  169.2547183 +1 -119.7063409 +1    33    12     3
  H     1.05819168 +1  102.2470745 +1   16.9470888 +1    20    19    17
  O     0.96763389 +1  144.2300983 +1  -26.3685579 +1    33    12     3

 *+*+*+*+*+*+*+*+*+*+*+*+*+*+*+*+*+*+*+*+*+*+*+*+*+*+*+*+*+*+*+*+*+*+*+*+*+*+*+*+
            BAR SHORTENED BY       1.000 PERCENT
 GRADIENT CRITERION IN FLEPO =     5.589


          FOR POINT    4 SECOND STRUCTURE
 DISTANCE A - B      8.527893
 HEAT             -144.996432
 GRADIENT NORM      11.812400
 DIRECTION COSINE    0.652372
* ===============================
* Input file for Mopac
* ===============================
 PM7 BONDS AUX DUMP=30M ITRY=15000 T=14D CHARGE=0 SINGLET eps=78.4 RELSCF=1


  C     0.00000000 +0    0.0000000 +0    0.0000000 +0     0     0     0
  C     1.39242313 +1    0.0000000 +0    0.0000000 +0     1     0     0
  C     1.40194917 +1  121.2818744 +1    0.0000000 +0     2     1     0
  C     1.40092070 +1  118.7239645 +1   -0.6259350 +1     3     2     1
  C     1.38607562 +1  118.5126481 +1    1.0246872 +1     4     3     2
  C     1.38613221 +1  123.6905790 +1   -0.8352851 +1     5     4     3
  H     1.09432536 +1  120.1151604 +1 -179.2885896 +1     1     2     3
  H     1.09159112 +1  119.2968328 +1  178.7167470 +1     2     1     3
  H     1.09416530 +1  119.7890944 +1 -178.1835577 +1     4     3     2
 Cl     1.71782829 +1  118.2971118 +1  178.4366628 +1     5     4     3
  H     1.08672083 +1  122.2122573 +1 -179.4706437 +1     6     5     4
  C     1.45196789 +1  120.4947120 +1 -179.1481779 +1     3     2     1
  C     1.48652957 +1  118.9110766 +1   41.6112155 +1    12     3     2
  H     1.10204756 +1  112.4599036 +1  172.4355838 +1    13    12     3
  H     1.10040823 +1  110.8896936 +1   52.3247166 +1    13    12     3
  H     1.09975041 +1  111.6148921 +1  -67.5089388 +1    13    12     3
  N     1.33139013 +1  121.3825131 +1 -142.2464761 +1    12     3     2
  O     1.25447820 +1  123.1743763 +1 -177.2512672 +1    17    12     3
  O     1.27712065 +1  120.7131425 +1    5.4132336 +1    17    12     3
  N     2.71503971 +1  113.2294579 +1   57.5113452 +1    19    17    12
  C     1.50950470 +1  104.3687209 +1  131.3015952 +1    20    19    17
  C     1.53045075 +1  109.0846821 +1 -173.8751308 +1    21    20    19
  O     1.41723369 +1  110.3827458 +1  -57.7675385 +1    22    21    20
  C     1.41358116 +1  112.7054975 +1   60.7443130 +1    23    22    21
  C     1.50711350 +1  120.1313892 +1 -106.1637698 +1    20    19    17
  H     1.11121149 +1  109.6908103 +1   61.2235986 +1    25    20    19
  H     1.11753930 +1  108.9373198 +1  -56.3512420 +1    25    20    19
  H     1.10989194 +1  103.2361219 +1  179.7906410 +1    24    23    22
  H     1.10617417 +1  110.1381420 +1   64.0049525 +1    24    23    22
  H     1.10762999 +1  111.6527034 +1 -171.9108855 +1    22    21    20
  H     1.10634246 +1  112.6534202 +1   65.3153981 +1    22    21    20
  H     1.11924966 +1  109.3814856 +1   65.0179213 +1    21    20    19
  H     2.40753835 +1   92.0597420 +1  -49.1674124 +1    12     3     2
  H     1.07503845 +1    8.9884547 +1  -97.9382472 +1    20    19    17
  H     1.11219018 +1  109.7674076 +1  -51.8144315 +1    21    20    19
  H     1.53377858 +1  169.6290101 +1 -124.1468477 +1    33    12     3
  H     1.06000078 +1  102.5293774 +1   15.7934988 +1    20    19    17
  O     0.96567843 +1  145.0782494 +1  -25.4002705 +1    33    12     3

 *+*+*+*+*+*+*+*+*+*+*+*+*+*+*+*+*+*+*+*+*+*+*+*+*+*+*+*+*+*+*+*+*+*+*+*+*+*+*+*+
            BAR SHORTENED BY       1.000 PERCENT
 GRADIENT CRITERION IN FLEPO =     8.812


          FOR POINT    5 SECOND STRUCTURE
 DISTANCE A - B      8.442614
 HEAT             -144.864079
 GRADIENT NORM      17.647114
 DIRECTION COSINE    0.429070
* ===============================
* Input file for Mopac
* ===============================
 PM7 BONDS AUX DUMP=30M ITRY=15000 T=14D CHARGE=0 SINGLET eps=78.4 RELSCF=1


  C     0.00000000 +0    0.0000000 +0    0.0000000 +0     0     0     0
  C     1.39273233 +1    0.0000000 +0    0.0000000 +0     1     0     0
  C     1.40436586 +1  121.0221689 +1    0.0000000 +0     2     1     0
  C     1.40039099 +1  118.8059677 +1   -0.9686149 +1     3     2     1
  C     1.38342483 +1  118.3416577 +1    1.2206775 +1     4     3     2
  C     1.38511755 +1  124.0827887 +1   -0.9521876 +1     5     4     3
  H     1.09229788 +1  120.1617342 +1 -179.0249232 +1     1     2     3
  H     1.09143580 +1  119.4648706 +1  178.0283517 +1     2     1     3
  H     1.09475203 +1  119.7370099 +1 -177.4853684 +1     4     3     2
 Cl     1.71697401 +1  118.2949408 +1  178.3848519 +1     5     4     3
  H     1.09101331 +1  122.3738757 +1 -179.2741608 +1     6     5     4
  C     1.45039310 +1  120.6030443 +1 -179.2426851 +1     3     2     1
  C     1.49449669 +1  118.8980340 +1   42.0094476 +1    12     3     2
  H     1.10175291 +1  111.9548779 +1  172.6758525 +1    13    12     3
  H     1.09702290 +1  110.5576681 +1   52.8331262 +1    13    12     3
  H     1.09856227 +1  111.6130739 +1  -67.2545541 +1    13    12     3
  N     1.32935896 +1  121.4679921 +1 -142.3358176 +1    12     3     2
  O     1.25408341 +1  123.4135926 +1 -177.2009899 +1    17    12     3
  O     1.27555704 +1  120.5314205 +1    5.5764132 +1    17    12     3
  N     2.72263203 +1  113.0367065 +1   57.9070466 +1    19    17    12
  C     1.50958717 +1  105.0021845 +1  130.5488950 +1    20    19    17
  C     1.53126158 +1  109.3789260 +1 -174.1420642 +1    21    20    19
  O     1.41536767 +1  109.9870975 +1  -57.9588789 +1    22    21    20
  C     1.41608626 +1  112.7970830 +1   60.8392048 +1    23    22    21
  C     1.50685851 +1  119.5475063 +1 -107.1373985 +1    20    19    17
  H     1.11398892 +1  109.6404711 +1   60.7877679 +1    25    20    19
  H     1.11898221 +1  109.0154186 +1  -56.5810384 +1    25    20    19
  H     1.10952070 +1  103.1993248 +1  179.8725524 +1    24    23    22
  H     1.10504010 +1  110.0271632 +1   63.6632186 +1    24    23    22
  H     1.11014627 +1  111.5209924 +1 -172.8223901 +1    22    21    20
  H     1.11285359 +1  112.4670331 +1   64.9296652 +1    22    21    20
  H     1.11927375 +1  109.2470731 +1   64.1663255 +1    21    20    19
  H     2.39907256 +1   91.9050232 +1  -48.9759787 +1    12     3     2
  H     1.07579618 +1    8.4291778 +1  -99.5962668 +1    20    19    17
  H     1.11487495 +1  109.5652717 +1  -52.2293537 +1    21    20    19
  H     1.53316492 +1  169.7979828 +1 -128.6285281 +1    33    12     3
  H     1.06032270 +1  102.7323642 +1   14.6244779 +1    20    19    17
  O     0.96763614 +1  145.8354675 +1  -24.8434514 +1    33    12     3

 TIME=     2.04
  REACTANTS AND PRODUCTS SWAPPED AROUND
 *+*+*+*+*+*+*+*+*+*+*+*+*+*+*+*+*+*+*+*+*+*+*+*+*+*+*+*+*+*+*+*+*+*+*+*+*+*+*+*+
            BAR SHORTENED BY       0.000 PERCENT
 GRADIENT CRITERION IN FLEPO =    10.000


          FOR POINT    6 FIRST  STRUCTURE
 DISTANCE A - B      8.442614
 HEAT             -133.311164
 GRADIENT NORM       7.023104
 DIRECTION COSINE    0.162226
* ===============================
* Input file for Mopac
* ===============================
 PM7 BONDS AUX DUMP=30M ITRY=15000 T=14D CHARGE=0 SINGLET eps=78.4 RELSCF=1


  C     0.00000000 +0    0.0000000 +0    0.0000000 +0     0     0     0
  C     1.39382594 +1    0.0000000 +0    0.0000000 +0     1     0     0
  C     1.39545285 +1  120.5246876 +1    0.0000000 +0     2     1     0
  C     1.39683607 +1  119.9648713 +1   -0.3181436 +1     3     2     1
  C     1.38683229 +1  118.0393266 +1    0.3472480 +1     4     3     2
  C     1.38805684 +1  123.3016887 +1   -0.1519288 +1     5     4     3
  H     1.09237053 +1  120.0166453 +1 -179.7989763 +1     1     2     3
  H     1.09371376 +1  119.2028061 +1 -179.4243061 +1     2     1     3
  H     1.09432657 +1  120.4023229 +1 -179.9210989 +1     4     3     2
 Cl     1.71624999 +1  118.2272531 +1  179.8149135 +1     5     4     3
  H     1.09269075 +1  121.8961055 +1  179.7655751 +1     6     5     4
  C     1.50593038 +1  119.2344621 +1 -178.9989249 +1     3     2     1
  C     1.52169589 +1  112.0248977 +1  121.1912251 +1    12     3     2
  H     1.10034608 +1  112.4508115 +1 -176.6446497 +1    13    12     3
  H     1.09922204 +1  113.1713542 +1   61.4760050 +1    13    12     3
  H     1.10436022 +1  110.5049886 +1  -57.9633163 +1    13    12     3
  N     1.50477606 +1  109.3516376 +1 -118.1083825 +1    12     3     2
  O     1.22299163 +1  117.9597793 +1  125.9074248 +1    17    12     3
  O     1.21532404 +1  119.6181804 +1  -53.4766044 +1    17    12     3
  N     2.98141996 +1  127.5109946 +1 -128.8578524 +1     8     2     1
  C     1.48566078 +1  147.7019325 +1 -166.7127922 +1    20     8     2
  C     1.53675987 +1  108.0606947 +1  -43.6550556 +1    21    20     8
  O     1.41928999 +1  110.3443917 +1  -57.8763077 +1    22    21    20
  C     1.41677934 +1  112.8190722 +1   59.1084041 +1    23    22    21
  C     1.48344904 +1   79.8057955 +1   81.6913187 +1    20     8     2
  H     1.11052197 +1  108.8386628 +1  -31.1331252 +1    25    20     8
  H     1.10982132 +1  112.4642041 +1 -149.4149171 +1    25    20     8
  H     1.10588320 +1  103.2242725 +1 -178.9449268 +1    24    23    22
  H     1.10598900 +1  109.2282504 +1   64.3861755 +1    24    23    22
  H     1.10302869 +1  112.1747064 +1 -172.5602999 +1    22    21    20
  H     1.10650144 +1  111.8185805 +1   63.8653366 +1    22    21    20
  H     1.11420194 +1  112.4887542 +1 -165.5800850 +1    21    20     8
  H     1.13392915 +1  110.2740481 +1   -0.4637113 +1    12     3     2
  H     1.02181934 +1   93.0328194 +1  -28.5408373 +1    20     8     2
  H     1.11046448 +1  108.7523790 +1   76.3441570 +1    21    20     8
  H     2.59515163 +1  147.7720120 +1   75.7755054 +1    33    12     3
  H     1.53707164 +1   64.0144232 +1 -132.8765528 +1    36    33    12
  O     0.95733128 +1   83.4403541 +1  -98.3136384 +1    36    33    12

 TIME=     0.16
  REACTANTS AND PRODUCTS SWAPPED AROUND
 *+*+*+*+*+*+*+*+*+*+*+*+*+*+*+*+*+*+*+*+*+*+*+*+*+*+*+*+*+*+*+*+*+*+*+*+*+*+*+*+
            BAR SHORTENED BY       1.000 PERCENT
 GRADIENT CRITERION IN FLEPO =     4.023


          FOR POINT    7 SECOND STRUCTURE
 DISTANCE A - B      8.358188
 HEAT             -145.201419
 GRADIENT NORM       9.599913
 DIRECTION COSINE   -0.125804
* ===============================
* Input file for Mopac
* ===============================
 PM7 BONDS AUX DUMP=30M ITRY=15000 T=14D CHARGE=0 SINGLET eps=78.4 RELSCF=1


  C     0.00000000 +0    0.0000000 +0    0.0000000 +0     0     0     0
  C     1.39270930 +1    0.0000000 +0    0.0000000 +0     1     0     0
  C     1.40334775 +1  120.9775960 +1    0.0000000 +0     2     1     0
  C     1.40316426 +1  118.7625245 +1    0.0668308 +1     3     2     1
  C     1.38447782 +1  118.7934500 +1    0.7739119 +1     4     3     2
  C     1.38580073 +1  123.3434623 +1   -1.3452141 +1     5     4     3
  H     1.09157702 +1  120.1562141 +1  179.6917705 +1     1     2     3
  H     1.09420383 +1  119.4067872 +1  179.9045272 +1     2     1     3
  H     1.09388474 +1  119.3944718 +1 -178.2529014 +1     4     3     2
 Cl     1.71840361 +1  118.6504488 +1  178.4357994 +1     5     4     3
  H     1.09029467 +1  121.9401306 +1 -178.6818325 +1     6     5     4
  C     1.45485068 +1  120.6475829 +1 -178.7052755 +1     3     2     1
  C     1.48654489 +1  119.0512477 +1   43.2645758 +1    12     3     2
  H     1.10289987 +1  112.6362882 +1  173.2768148 +1    13    12     3
  H     1.10080039 +1  110.9224654 +1   53.1265977 +1    13    12     3
  H     1.10158925 +1  112.0911211 +1  -66.6898246 +1    13    12     3
  N     1.33251690 +1  121.3519658 +1 -141.2928558 +1    12     3     2
  O     1.25552563 +1  123.3593773 +1 -176.9216287 +1    17    12     3
  O     1.27844388 +1  120.4727338 +1    5.6023970 +1    17    12     3
  N     2.72503570 +1  112.8715276 +1   58.4431422 +1    19    17    12
  C     1.50810458 +1  105.2816688 +1  129.4906668 +1    20    19    17
  C     1.53242568 +1  109.2145295 +1 -174.8814357 +1    21    20    19
  O     1.41644081 +1  110.2275490 +1  -57.6937953 +1    22    21    20
  C     1.41477340 +1  112.7202498 +1   60.7364988 +1    23    22    21
  C     1.50765261 +1  118.8157523 +1 -108.2871133 +1    20    19    17
  H     1.11381587 +1  109.6896060 +1   60.5592504 +1    25    20    19
  H     1.11672370 +1  109.2258128 +1  -56.6993035 +1    25    20    19
  H     1.10901626 +1  103.2677605 +1  179.7123510 +1    24    23    22
  H     1.10604619 +1  110.1161112 +1   63.6971685 +1    24    23    22
  H     1.10498455 +1  111.8504129 +1 -172.2350911 +1    22    21    20
  H     1.10502828 +1  112.3488644 +1   65.0390731 +1    22    21    20
  H     1.11664656 +1  109.3273198 +1   63.9319372 +1    21    20    19
  H     2.39613055 +1   91.7225340 +1  -48.0113485 +1    12     3     2
  H     1.07674556 +1    7.9231049 +1 -100.2789929 +1    20    19    17
  H     1.11574304 +1  109.8195464 +1  -52.8911877 +1    21    20    19
  H     1.53275238 +1  170.0539059 +1 -133.0061913 +1    33    12     3
  H     1.05932918 +1  102.9644378 +1   13.3434139 +1    20    19    17
  O     0.96668866 +1  146.4584466 +1  -24.0545663 +1    33    12     3

 TIME=     0.81
  REACTANTS AND PRODUCTS SWAPPED AROUND
 *+*+*+*+*+*+*+*+*+*+*+*+*+*+*+*+*+*+*+*+*+*+*+*+*+*+*+*+*+*+*+*+*+*+*+*+*+*+*+*+
            BAR SHORTENED BY       1.000 PERCENT
 GRADIENT CRITERION IN FLEPO =     6.600


          FOR POINT    8 FIRST  STRUCTURE
 DISTANCE A - B      8.274606
 HEAT             -133.270790
 GRADIENT NORM       9.625843
 DIRECTION COSINE    0.197130
* ===============================
* Input file for Mopac
* ===============================
 PM7 BONDS AUX DUMP=30M ITRY=15000 T=14D CHARGE=0 SINGLET eps=78.4 RELSCF=1


  C     0.00000000 +0    0.0000000 +0    0.0000000 +0     0     0     0
  C     1.39399851 +1    0.0000000 +0    0.0000000 +0     1     0     0
  C     1.39610557 +1  120.5278551 +1    0.0000000 +0     2     1     0
  C     1.39678344 +1  119.8798671 +1   -0.2883454 +1     3     2     1
  C     1.38666856 +1  118.0401526 +1    0.3947549 +1     4     3     2
  C     1.38770734 +1  123.4233635 +1   -0.2398358 +1     5     4     3
  H     1.09208351 +1  120.0649796 +1 -179.8449320 +1     1     2     3
  H     1.09072430 +1  119.1886999 +1 -179.4718115 +1     2     1     3
  H     1.09356582 +1  120.2826735 +1 -179.8829512 +1     4     3     2
 Cl     1.71756190 +1  118.2594319 +1  179.7164152 +1     5     4     3
  H     1.09268869 +1  122.0570992 +1  179.7480832 +1     6     5     4
  C     1.50467219 +1  119.3253350 +1 -179.0729393 +1     3     2     1
  C     1.52655169 +1  111.8992177 +1  120.6491309 +1    12     3     2
  H     1.09955258 +1  112.1815673 +1 -177.1204223 +1    13    12     3
  H     1.09829490 +1  112.8974109 +1   61.3119458 +1    13    12     3
  H     1.09843642 +1  110.3648601 +1  -58.2220523 +1    13    12     3
  N     1.50508900 +1  109.3671312 +1 -118.5042464 +1    12     3     2
  O     1.22336023 +1  118.1070477 +1  126.2519734 +1    17    12     3
  O     1.21540565 +1  119.5894524 +1  -53.0332773 +1    17    12     3
  N     2.99084896 +1  126.6826902 +1 -128.3459540 +1     8     2     1
  C     1.48512003 +1  147.6685227 +1 -167.5695984 +1    20     8     2
  C     1.53514630 +1  108.1270674 +1  -43.3518595 +1    21    20     8
  O     1.41739159 +1  110.3763937 +1  -58.1108102 +1    22    21    20
  C     1.41843239 +1  112.8069213 +1   59.2474842 +1    23    22    21
  C     1.48705207 +1   79.8333817 +1   81.1827704 +1    20     8     2
  H     1.11253849 +1  108.5571189 +1  -31.1874421 +1    25    20     8
  H     1.11040566 +1  112.2958089 +1 -149.3590361 +1    25    20     8
  H     1.10177784 +1  103.3639703 +1 -178.9532449 +1    24    23    22
  H     1.10635449 +1  109.1434931 +1   64.3846744 +1    24    23    22
  H     1.10460344 +1  112.1025768 +1 -172.7255576 +1    22    21    20
  H     1.10594866 +1  111.8633832 +1   63.6445139 +1    22    21    20
  H     1.10887371 +1  112.3571328 +1 -165.4415092 +1    21    20     8
  H     1.13496222 +1  110.3809915 +1   -0.8141333 +1    12     3     2
  H     1.02158131 +1   92.9008202 +1  -29.1354023 +1    20     8     2
  H     1.11345064 +1  108.5347127 +1   76.6052579 +1    21    20     8
  H     2.58318456 +1  148.1403591 +1   75.4171174 +1    33    12     3
  H     1.53832281 +1   63.9761024 +1 -132.4041588 +1    36    33    12
  O     0.95849627 +1   83.1652339 +1  -97.6491841 +1    36    33    12

 TIME=     0.69
  REACTANTS AND PRODUCTS SWAPPED AROUND
 *+*+*+*+*+*+*+*+*+*+*+*+*+*+*+*+*+*+*+*+*+*+*+*+*+*+*+*+*+*+*+*+*+*+*+*+*+*+*+*+
            BAR SHORTENED BY       1.000 PERCENT
 GRADIENT CRITERION IN FLEPO =     6.626


          FOR POINT    9 SECOND STRUCTURE
 DISTANCE A - B      8.191860
 HEAT             -144.867847
 GRADIENT NORM      14.894681
 DIRECTION COSINE    0.251444
* ===============================
* Input file for Mopac
* ===============================
 PM7 BONDS AUX DUMP=30M ITRY=15000 T=14D CHARGE=0 SINGLET eps=78.4 RELSCF=1


  C     0.00000000 +0    0.0000000 +0    0.0000000 +0     0     0     0
  C     1.39266625 +1    0.0000000 +0    0.0000000 +0     1     0     0
  C     1.40101112 +1  121.1053747 +1    0.0000000 +0     2     1     0
  C     1.40114786 +1  118.7544276 +1   -0.2224719 +1     3     2     1
  C     1.38402312 +1  118.5490003 +1    0.9952359 +1     4     3     2
  C     1.38583802 +1  123.7147687 +1   -1.4282532 +1     5     4     3
  H     1.09280391 +1  120.2077548 +1  179.7392702 +1     1     2     3
  H     1.09270673 +1  119.6008846 +1  179.0199573 +1     2     1     3
  H     1.09699378 +1  119.5738779 +1 -177.5086548 +1     4     3     2
 Cl     1.71746478 +1  118.5628231 +1  178.3453048 +1     5     4     3
  H     1.09529604 +1  122.2197768 +1 -178.2279300 +1     6     5     4
  C     1.45572887 +1  120.7913355 +1 -178.5642752 +1     3     2     1
  C     1.48548728 +1  119.1701339 +1   43.5998587 +1    12     3     2
  H     1.10298997 +1  112.2642328 +1  173.6599042 +1    13    12     3
  H     1.09813793 +1  110.7461617 +1   53.7237446 +1    13    12     3
  H     1.09851672 +1  111.8853867 +1  -66.3617929 +1    13    12     3
  N     1.33232097 +1  121.0968468 +1 -141.3829805 +1    12     3     2
  O     1.25506282 +1  123.4018686 +1 -176.9071567 +1    17    12     3
  O     1.27640585 +1  120.5573694 +1    5.6439146 +1    17    12     3
  N     2.73215276 +1  112.6043165 +1   58.7691314 +1    19    17    12
  C     1.50955348 +1  105.5259341 +1  128.5929867 +1    20    19    17
  C     1.53242051 +1  108.9605280 +1 -175.4216077 +1    21    20    19
  O     1.41502887 +1  110.5818346 +1  -57.5321569 +1    22    21    20
  C     1.41503171 +1  112.6324180 +1   60.7411925 +1    23    22    21
  C     1.50657581 +1  118.3913667 +1 -109.0511679 +1    20    19    17
  H     1.11290994 +1  109.6632738 +1   60.2038307 +1    25    20    19
  H     1.12182686 +1  109.0821410 +1  -57.0782761 +1    25    20    19
  H     1.11073826 +1  103.1898763 +1  179.7417315 +1    24    23    22
  H     1.10361144 +1  110.1992833 +1   63.5892335 +1    24    23    22
  H     1.10921135 +1  111.7302911 +1 -172.0241943 +1    22    21    20
  H     1.10629422 +1  112.3770590 +1   65.5549647 +1    22    21    20
  H     1.11929534 +1  109.4049284 +1   63.6839849 +1    21    20    19
  H     2.39070259 +1   91.5236971 +1  -47.9740987 +1    12     3     2
  H     1.07608110 +1    7.3455214 +1 -101.9086178 +1    20    19    17
  H     1.11390615 +1  109.9337997 +1  -53.3009101 +1    21    20    19
  H     1.53429285 +1  170.1845539 +1 -137.2008688 +1    33    12     3
  H     1.05886695 +1  103.0140046 +1   12.3527643 +1    20    19    17
  O     0.96675908 +1  147.2088711 +1  -23.2210244 +1    33    12     3

 *+*+*+*+*+*+*+*+*+*+*+*+*+*+*+*+*+*+*+*+*+*+*+*+*+*+*+*+*+*+*+*+*+*+*+*+*+*+*+*+
            BAR SHORTENED BY       1.000 PERCENT
 GRADIENT CRITERION IN FLEPO =    10.000


          FOR POINT   10 SECOND STRUCTURE
 DISTANCE A - B      8.109941
 HEAT             -144.825835
 GRADIENT NORM      21.420587
 DIRECTION COSINE    0.416068
* ===============================
* Input file for Mopac
* ===============================
 PM7 BONDS AUX DUMP=30M ITRY=15000 T=14D CHARGE=0 SINGLET eps=78.4 RELSCF=1


  C     0.00000000 +0    0.0000000 +0    0.0000000 +0     0     0     0
  C     1.39287520 +1    0.0000000 +0    0.0000000 +0     1     0     0
  C     1.40405924 +1  120.9651892 +1    0.0000000 +0     2     1     0
  C     1.40022349 +1  118.7202649 +1   -0.5360021 +1     3     2     1
  C     1.38693273 +1  118.6817283 +1    0.5133465 +1     4     3     2
  C     1.38647671 +1  123.5990390 +1   -0.1279476 +1     5     4     3
  H     1.10122952 +1  119.9339209 +1 -179.1132611 +1     1     2     3
  H     1.08853400 +1  119.6658397 +1  178.4225010 +1     2     1     3
  H     1.08882156 +1  119.4661265 +1 -177.2619895 +1     4     3     2
 Cl     1.71100157 +1  118.6849820 +1  177.7460610 +1     5     4     3
  H     1.08879857 +1  122.2755399 +1 -178.8897654 +1     6     5     4
  C     1.45421527 +1  120.7400066 +1 -178.5763873 +1     3     2     1
  C     1.48460909 +1  119.4226781 +1   44.0130615 +1    12     3     2
  H     1.10144660 +1  112.0712300 +1  173.9176026 +1    13    12     3
  H     1.09969080 +1  110.6294487 +1   54.0322615 +1    13    12     3
  H     1.09803763 +1  111.8361731 +1  -66.0432707 +1    13    12     3
  N     1.33336375 +1  120.8401605 +1 -141.6284514 +1    12     3     2
  O     1.25331844 +1  123.5292576 +1 -176.9340313 +1    17    12     3
  O     1.27302403 +1  120.5902093 +1    5.9468148 +1    17    12     3
  N     2.73907633 +1  112.3739259 +1   59.0047034 +1    19    17    12
  C     1.50901997 +1  106.1414549 +1  128.0050313 +1    20    19    17
  C     1.53477824 +1  109.2355557 +1 -175.4774026 +1    21    20    19
  O     1.41643128 +1  110.1242260 +1  -57.8558288 +1    22    21    20
  C     1.41591184 +1  112.7128407 +1   60.8239729 +1    23    22    21
  C     1.50761460 +1  117.8961349 +1 -109.8390345 +1    20    19    17
  H     1.11383275 +1  109.5034762 +1   59.6510206 +1    25    20    19
  H     1.11586376 +1  109.1440572 +1  -57.3243167 +1    25    20    19
  H     1.10832185 +1  103.2361409 +1  179.8197672 +1    24    23    22
  H     1.10668247 +1  110.1428251 +1   63.5052386 +1    24    23    22
  H     1.10260259 +1  111.7012214 +1 -172.3072948 +1    22    21    20
  H     1.10860201 +1  112.4253070 +1   65.0055229 +1    22    21    20
  H     1.11642540 +1  109.4559095 +1   62.9799711 +1    21    20    19
  H     2.38188955 +1   91.4923308 +1  -47.9043592 +1    12     3     2
  H     1.07250052 +1    7.0227630 +1 -103.7781733 +1    20    19    17
  H     1.11618011 +1  109.7386530 +1  -53.8299045 +1    21    20    19
  H     1.53873518 +1  170.3535393 +1 -141.1468475 +1    33    12     3
  H     1.06120189 +1  103.4488743 +1   11.3435284 +1    20    19    17
  O     0.97057473 +1  147.8203237 +1  -22.2548885 +1    33    12     3

 *+*+*+*+*+*+*+*+*+*+*+*+*+*+*+*+*+*+*+*+*+*+*+*+*+*+*+*+*+*+*+*+*+*+*+*+*+*+*+*+
            BAR SHORTENED BY       1.000 PERCENT
 GRADIENT CRITERION IN FLEPO =    10.000


          FOR POINT   11 SECOND STRUCTURE
 DISTANCE A - B      8.028842
 HEAT             -144.704330
 GRADIENT NORM      22.712568
 DIRECTION COSINE    0.259396
* ===============================
* Input file for Mopac
* ===============================
 PM7 BONDS AUX DUMP=30M ITRY=15000 T=14D CHARGE=0 SINGLET eps=78.4 RELSCF=1


  C     0.00000000 +0    0.0000000 +0    0.0000000 +0     0     0     0
  C     1.39218225 +1    0.0000000 +0    0.0000000 +0     1     0     0
  C     1.40661111 +1  120.6648396 +1    0.0000000 +0     2     1     0
  C     1.39962079 +1  119.1166150 +1    1.1815974 +1     3     2     1
  C     1.38298329 +1  118.1315812 +1   -0.0868947 +1     4     3     2
  C     1.38650721 +1  124.2410579 +1   -0.7473932 +1     5     4     3
  H     1.08888164 +1  119.8964603 +1  179.9283360 +1     1     2     3
  H     1.08279617 +1  120.1785497 +1 -178.9515092 +1     2     1     3
  H     1.09435901 +1  119.8373940 +1 -178.1532744 +1     4     3     2
 Cl     1.72012093 +1  118.4863345 +1  177.9292878 +1     5     4     3
  H     1.09099384 +1  122.4120876 +1 -178.0604978 +1     6     5     4
  C     1.45763023 +1  120.9284653 +1 -177.8459407 +1     3     2     1
  C     1.48558000 +1  119.2867405 +1   45.4646764 +1    12     3     2
  H     1.10544546 +1  112.4678709 +1  174.3388859 +1    13    12     3
  H     1.09857936 +1  110.8764102 +1   54.6278636 +1    13    12     3
  H     1.09936247 +1  112.0420995 +1  -65.6432117 +1    13    12     3
  N     1.33148070 +1  121.1983820 +1 -140.5114641 +1    12     3     2
  O     1.25635301 +1  123.6883105 +1 -176.6672092 +1    17    12     3
  O     1.27712311 +1  120.2686895 +1    6.1837009 +1    17    12     3
  N     2.73997742 +1  112.2586110 +1   59.3783142 +1    19    17    12
  C     1.50802795 +1  106.5040689 +1  126.9216413 +1    20    19    17
  C     1.53044266 +1  109.0277264 +1 -176.2276720 +1    21    20    19
  O     1.41777973 +1  110.7750019 +1  -57.6184528 +1    22    21    20
  C     1.41653948 +1  112.3550310 +1   60.5613554 +1    23    22    21
  C     1.50615446 +1  117.2809276 +1 -110.9457444 +1    20    19    17
  H     1.11796936 +1  109.4442302 +1   59.9977121 +1    25    20    19
  H     1.11758125 +1  108.0835071 +1  -57.6561343 +1    25    20    19
  H     1.11948040 +1  102.9575874 +1  179.8574328 +1    24    23    22
  H     1.10608393 +1  109.9544388 +1   63.9997916 +1    24    23    22
  H     1.11055967 +1  111.5975383 +1 -171.7413492 +1    22    21    20
  H     1.10339883 +1  112.5009752 +1   65.6440409 +1    22    21    20
  H     1.11709764 +1  109.3629499 +1   62.5003515 +1    21    20    19
  H     2.37779340 +1   91.4030878 +1  -46.5705499 +1    12     3     2
  H     1.07312041 +1    6.4351560 +1 -103.9041631 +1    20    19    17
  H     1.11704348 +1  110.2066353 +1  -54.2945306 +1    21    20    19
  H     1.53663134 +1  170.3804324 +1 -145.7352085 +1    33    12     3
  H     1.06226527 +1  103.6956295 +1   10.3374190 +1    20    19    17
  O     0.96455716 +1  148.1467976 +1  -22.2103339 +1    33    12     3

 TIME=     1.32
  REACTANTS AND PRODUCTS SWAPPED AROUND
 *+*+*+*+*+*+*+*+*+*+*+*+*+*+*+*+*+*+*+*+*+*+*+*+*+*+*+*+*+*+*+*+*+*+*+*+*+*+*+*+
            BAR SHORTENED BY       0.000 PERCENT
 GRADIENT CRITERION IN FLEPO =    10.000


          FOR POINT   12 FIRST  STRUCTURE
 DISTANCE A - B      8.028842
 HEAT             -133.469436
 GRADIENT NORM       9.636398
 DIRECTION COSINE    0.113934
* ===============================
* Input file for Mopac
* ===============================
 PM7 BONDS AUX DUMP=30M ITRY=15000 T=14D CHARGE=0 SINGLET eps=78.4 RELSCF=1


  C     0.00000000 +0    0.0000000 +0    0.0000000 +0     0     0     0
  C     1.39399851 +1    0.0000000 +0    0.0000000 +0     1     0     0
  C     1.39610557 +1  120.5278551 +1    0.0000000 +0     2     1     0
  C     1.39678344 +1  119.8798671 +1   -0.2883454 +1     3     2     1
  C     1.38666856 +1  118.0401526 +1    0.3947549 +1     4     3     2
  C     1.38770734 +1  123.4233635 +1   -0.2398358 +1     5     4     3
  H     1.09208351 +1  120.0649796 +1 -179.8449320 +1     1     2     3
  H     1.09072430 +1  119.1886999 +1 -179.4718115 +1     2     1     3
  H     1.09356582 +1  120.2826735 +1 -179.8829512 +1     4     3     2
 Cl     1.71756190 +1  118.2594319 +1  179.7164152 +1     5     4     3
  H     1.09268869 +1  122.0570992 +1  179.7480832 +1     6     5     4
  C     1.50467219 +1  119.3253350 +1 -179.0729393 +1     3     2     1
  C     1.52655169 +1  111.8992177 +1  120.6491309 +1    12     3     2
  H     1.09955258 +1  112.1815673 +1 -177.1204223 +1    13    12     3
  H     1.09829490 +1  112.8974109 +1   61.3119458 +1    13    12     3
  H     1.09843642 +1  110.3648601 +1  -58.2220523 +1    13    12     3
  N     1.50508900 +1  109.3671312 +1 -118.5042464 +1    12     3     2
  O     1.22336023 +1  118.1070477 +1  126.2519734 +1    17    12     3
  O     1.21540565 +1  119.5894524 +1  -53.0332773 +1    17    12     3
  N     2.99084896 +1  126.6826902 +1 -128.3459540 +1     8     2     1
  C     1.48512003 +1  147.6685227 +1 -167.5695984 +1    20     8     2
  C     1.53514630 +1  108.1270674 +1  -43.3518595 +1    21    20     8
  O     1.41739159 +1  110.3763937 +1  -58.1108102 +1    22    21    20
  C     1.41843239 +1  112.8069213 +1   59.2474842 +1    23    22    21
  C     1.48705207 +1   79.8333817 +1   81.1827704 +1    20     8     2
  H     1.11253849 +1  108.5571189 +1  -31.1874421 +1    25    20     8
  H     1.11040566 +1  112.2958089 +1 -149.3590361 +1    25    20     8
  H     1.10177784 +1  103.3639703 +1 -178.9532449 +1    24    23    22
  H     1.10635449 +1  109.1434931 +1   64.3846744 +1    24    23    22
  H     1.10460344 +1  112.1025768 +1 -172.7255576 +1    22    21    20
  H     1.10594866 +1  111.8633832 +1   63.6445139 +1    22    21    20
  H     1.10887371 +1  112.3571328 +1 -165.4415092 +1    21    20     8
  H     1.13496222 +1  110.3809915 +1   -0.8141333 +1    12     3     2
  H     1.02158131 +1   92.9008202 +1  -29.1354023 +1    20     8     2
  H     1.11345064 +1  108.5347127 +1   76.6052579 +1    21    20     8
  H     2.58318456 +1  148.1403591 +1   75.4171174 +1    33    12     3
  H     1.53832281 +1   63.9761024 +1 -132.4041588 +1    36    33    12
  O     0.95849627 +1   83.1652339 +1  -97.6491841 +1    36    33    12

 TIME=     0.16
  REACTANTS AND PRODUCTS SWAPPED AROUND
 *+*+*+*+*+*+*+*+*+*+*+*+*+*+*+*+*+*+*+*+*+*+*+*+*+*+*+*+*+*+*+*+*+*+*+*+*+*+*+*+
            BAR SHORTENED BY       1.000 PERCENT
 GRADIENT CRITERION IN FLEPO =     6.636


          FOR POINT   13 SECOND STRUCTURE
 DISTANCE A - B      7.948553
 HEAT             -144.766779
 GRADIENT NORM      16.854277
 DIRECTION COSINE    0.002960
* ===============================
* Input file for Mopac
* ===============================
 PM7 BONDS AUX DUMP=30M ITRY=15000 T=14D CHARGE=0 SINGLET eps=78.4 RELSCF=1


  C     0.00000000 +0    0.0000000 +0    0.0000000 +0     0     0     0
  C     1.39174403 +1    0.0000000 +0    0.0000000 +0     1     0     0
  C     1.40093179 +1  121.3876315 +1    0.0000000 +0     2     1     0
  C     1.40158123 +1  118.4324521 +1    0.5296246 +1     3     2     1
  C     1.38675625 +1  118.7947419 +1    0.6387479 +1     4     3     2
  C     1.38629711 +1  123.5181225 +1   -1.5867968 +1     5     4     3
  H     1.09387863 +1  120.3008705 +1  179.7864798 +1     1     2     3
  H     1.09621413 +1  119.4898624 +1 -179.6293395 +1     2     1     3
  H     1.09165908 +1  119.4224750 +1 -177.7834193 +1     4     3     2
 Cl     1.71760632 +1  119.0515704 +1  178.2698664 +1     5     4     3
  H     1.08992525 +1  122.0326215 +1 -177.6656704 +1     6     5     4
  C     1.45456270 +1  121.2946159 +1 -177.7978757 +1     3     2     1
  C     1.48670867 +1  119.5059709 +1   45.6727564 +1    12     3     2
  H     1.10135861 +1  112.1636908 +1  174.6706906 +1    13    12     3
  H     1.10022439 +1  110.9915026 +1   54.8928041 +1    13    12     3
  H     1.09810544 +1  111.7651090 +1  -65.0412592 +1    13    12     3
  N     1.33273433 +1  120.9449782 +1 -140.5042254 +1    12     3     2
  O     1.25347359 +1  123.7574218 +1 -176.7830550 +1    17    12     3
  O     1.27918442 +1  120.1348455 +1    6.4066832 +1    17    12     3
  N     2.74091983 +1  112.2879800 +1   59.6794320 +1    19    17    12
  C     1.50707368 +1  106.8268534 +1  126.3330565 +1    20    19    17
  C     1.53604125 +1  109.1253953 +1 -176.4538322 +1    21    20    19
  O     1.41716290 +1  110.2460161 +1  -57.6604053 +1    22    21    20
  C     1.41628124 +1  112.8689044 +1   60.5325178 +1    23    22    21
  C     1.50811939 +1  116.6079379 +1 -111.7860477 +1    20    19    17
  H     1.11243690 +1  109.4290689 +1   59.6819255 +1    25    20    19
  H     1.11729672 +1  109.4312453 +1  -57.7488677 +1    25    20    19
  H     1.10836766 +1  103.4262907 +1  179.5682162 +1    24    23    22
  H     1.10808792 +1  109.9253027 +1   63.5785088 +1    24    23    22
  H     1.10984315 +1  111.7241401 +1 -172.0900316 +1    22    21    20
  H     1.10522012 +1  112.3925440 +1   65.1593339 +1    22    21    20
  H     1.11208624 +1  109.8168833 +1   61.7129718 +1    21    20    19
  H     2.37064916 +1   91.3015383 +1  -46.5496561 +1    12     3     2
  H     1.07526129 +1    5.7391463 +1 -105.8432660 +1    20    19    17
  H     1.11905041 +1  109.6898520 +1  -55.1236211 +1    21    20    19
  H     1.53808856 +1  170.6141991 +1 -148.4215188 +1    33    12     3
  H     1.06104315 +1  103.8912281 +1    9.1808134 +1    20    19    17
  O     0.96521193 +1  148.4987687 +1  -21.1660676 +1    33    12     3

 *+*+*+*+*+*+*+*+*+*+*+*+*+*+*+*+*+*+*+*+*+*+*+*+*+*+*+*+*+*+*+*+*+*+*+*+*+*+*+*+
            BAR SHORTENED BY       1.000 PERCENT
 GRADIENT CRITERION IN FLEPO =    10.000


          FOR POINT   14 SECOND STRUCTURE
 DISTANCE A - B      7.869068
 HEAT             -144.637719
 GRADIENT NORM      18.426871
 DIRECTION COSINE    0.316096
* ===============================
* Input file for Mopac
* ===============================
 PM7 BONDS AUX DUMP=30M ITRY=15000 T=14D CHARGE=0 SINGLET eps=78.4 RELSCF=1


  C     0.00000000 +0    0.0000000 +0    0.0000000 +0     0     0     0
  C     1.39451689 +1    0.0000000 +0    0.0000000 +0     1     0     0
  C     1.40297450 +1  121.1030214 +1    0.0000000 +0     2     1     0
  C     1.40022636 +1  118.6595846 +1    0.5822620 +1     3     2     1
  C     1.38412971 +1  118.4912685 +1    0.6565129 +1     4     3     2
  C     1.38606131 +1  123.9813163 +1   -1.7096982 +1     5     4     3
  H     1.09292987 +1  119.8684360 +1  179.7717942 +1     1     2     3
  H     1.09322209 +1  119.1177835 +1  179.4808781 +1     2     1     3
  H     1.09191451 +1  119.7410332 +1 -178.1122481 +1     4     3     2
 Cl     1.71880627 +1  118.7798092 +1  178.2446005 +1     5     4     3
  H     1.09258384 +1  122.3202932 +1 -177.3966872 +1     6     5     4
  C     1.45828720 +1  121.2636596 +1 -177.5332405 +1     3     2     1
  C     1.49145114 +1  119.5221911 +1   46.1369326 +1    12     3     2
  H     1.10039262 +1  112.4852234 +1  175.6101726 +1    13    12     3
  H     1.09964943 +1  110.3497038 +1   55.7652132 +1    13    12     3
  H     1.10045359 +1  111.6585243 +1  -64.5127284 +1    13    12     3
  N     1.33167988 +1  120.4680482 +1 -139.6554260 +1    12     3     2
  O     1.25674308 +1  123.3429996 +1 -176.3927438 +1    17    12     3
  O     1.28122285 +1  120.2730716 +1    7.5431257 +1    17    12     3
  N     2.71081054 +1  113.5930291 +1   59.1496563 +1    19    17    12
  C     1.50661956 +1  107.0833352 +1  125.8949008 +1    20    19    17
  C     1.53120561 +1  109.0989358 +1 -176.6179959 +1    21    20    19
  O     1.41293957 +1  110.5293797 +1  -57.4339738 +1    22    21    20
  C     1.41415175 +1  112.6053367 +1   60.4431103 +1    23    22    21
  C     1.50536726 +1  116.4988943 +1 -111.8176462 +1    20    19    17
  H     1.10944052 +1  109.7309085 +1   59.0291710 +1    25    20    19
  H     1.11912712 +1  108.9503408 +1  -58.1466961 +1    25    20    19
  H     1.11037870 +1  102.9685741 +1  178.9334318 +1    24    23    22
  H     1.10808396 +1  110.1467947 +1   63.9960945 +1    24    23    22
  H     1.10523608 +1  111.7817783 +1 -172.3638480 +1    22    21    20
  H     1.10655752 +1  112.3968985 +1   65.6161333 +1    22    21    20
  H     1.12215942 +1  109.4583080 +1   61.7547982 +1    21    20    19
  H     2.36606129 +1   91.1281804 +1  -46.1474210 +1    12     3     2
  H     1.07761128 +1    5.5457019 +1 -104.3857011 +1    20    19    17
  H     1.11516650 +1  109.6690208 +1  -54.8843804 +1    21    20    19
  H     1.53880804 +1  170.7479839 +1 -151.5165371 +1    33    12     3
  H     1.06044221 +1  103.7238174 +1    9.0545497 +1    20    19    17
  O     0.96521086 +1  148.8336378 +1  -20.1973792 +1    33    12     3

 *+*+*+*+*+*+*+*+*+*+*+*+*+*+*+*+*+*+*+*+*+*+*+*+*+*+*+*+*+*+*+*+*+*+*+*+*+*+*+*+
            BAR SHORTENED BY       1.000 PERCENT
 GRADIENT CRITERION IN FLEPO =    10.000


          FOR POINT   15 SECOND STRUCTURE
 DISTANCE A - B      7.790377
 HEAT             -144.592904
 GRADIENT NORM      15.847265
 DIRECTION COSINE    0.395697
* ===============================
* Input file for Mopac
* ===============================
 PM7 BONDS AUX DUMP=30M ITRY=15000 T=14D CHARGE=0 SINGLET eps=78.4 RELSCF=1


  C     0.00000000 +0    0.0000000 +0    0.0000000 +0     0     0     0
  C     1.39394629 +1    0.0000000 +0    0.0000000 +0     1     0     0
  C     1.40071467 +1  121.3796889 +1    0.0000000 +0     2     1     0
  C     1.40198875 +1  118.4195432 +1    0.4100871 +1     3     2     1
  C     1.38221444 +1  118.7353403 +1    0.6519360 +1     4     3     2
  C     1.38666260 +1  123.8379317 +1   -1.6437229 +1     5     4     3
  H     1.09379905 +1  119.9409880 +1  179.2584130 +1     1     2     3
  H     1.09124027 +1  119.0395586 +1  178.9288768 +1     2     1     3
  H     1.09412520 +1  119.5033772 +1 -177.8355130 +1     4     3     2
 Cl     1.72151243 +1  119.0621232 +1  178.4016207 +1     5     4     3
  H     1.08957471 +1  122.3172967 +1 -177.5172930 +1     6     5     4
  C     1.45495809 +1  121.5166912 +1 -177.6219495 +1     3     2     1
  C     1.48754305 +1  119.5393121 +1   46.7602531 +1    12     3     2
  H     1.09995026 +1  112.3358368 +1  175.8838085 +1    13    12     3
  H     1.10141536 +1  110.7852403 +1   56.0191550 +1    13    12     3
  H     1.10141020 +1  111.7508662 +1  -64.0721389 +1    13    12     3
  N     1.33099868 +1  120.6643615 +1 -139.3114298 +1    12     3     2
  O     1.25322234 +1  123.7698673 +1 -176.1411710 +1    17    12     3
  O     1.27990670 +1  120.2814786 +1    6.6695011 +1    17    12     3
  N     2.72712276 +1  112.6136208 +1   60.1903484 +1    19    17    12
  C     1.50920337 +1  107.3240415 +1  125.0916014 +1    20    19    17
  C     1.53105059 +1  108.9773328 +1 -176.8320293 +1    21    20    19
  O     1.42047713 +1  110.3959816 +1  -57.5244042 +1    22    21    20
  C     1.41375166 +1  112.6463049 +1   60.6040181 +1    23    22    21
  C     1.50733064 +1  115.9735812 +1 -112.8947796 +1    20    19    17
  H     1.11514607 +1  109.6087163 +1   58.8977671 +1    25    20    19
  H     1.11881482 +1  109.1027753 +1  -58.2302150 +1    25    20    19
  H     1.10808385 +1  103.1568169 +1  179.7728283 +1    24    23    22
  H     1.10665914 +1  110.0708395 +1   63.6602291 +1    24    23    22
  H     1.10761387 +1  111.9189967 +1 -172.1363753 +1    22    21    20
  H     1.11080223 +1  112.5873184 +1   65.1166477 +1    22    21    20
  H     1.11692163 +1  109.5604683 +1   61.4379914 +1    21    20    19
  H     2.35853282 +1   91.1783320 +1  -45.7581595 +1    12     3     2
  H     1.07679522 +1    5.2294115 +1 -105.9710842 +1    20    19    17
  H     1.11305091 +1  109.5928033 +1  -55.4624463 +1    21    20    19
  H     1.53854461 +1  170.9366326 +1 -153.6305285 +1    33    12     3
  H     1.05943344 +1  104.1127603 +1    7.8970230 +1    20    19    17
  O     0.96554053 +1  149.0190572 +1  -19.5099909 +1    33    12     3

 TIME=     1.45
  REACTANTS AND PRODUCTS SWAPPED AROUND
 *+*+*+*+*+*+*+*+*+*+*+*+*+*+*+*+*+*+*+*+*+*+*+*+*+*+*+*+*+*+*+*+*+*+*+*+*+*+*+*+
            BAR SHORTENED BY       0.000 PERCENT
 GRADIENT CRITERION IN FLEPO =    10.000


          FOR POINT   16 FIRST  STRUCTURE
 DISTANCE A - B      7.790377
 HEAT             -133.469436
 GRADIENT NORM       9.636397
 DIRECTION COSINE    0.034819
* ===============================
* Input file for Mopac
* ===============================
 PM7 BONDS AUX DUMP=30M ITRY=15000 T=14D CHARGE=0 SINGLET eps=78.4 RELSCF=1


  C     0.00000000 +0    0.0000000 +0    0.0000000 +0     0     0     0
  C     1.39399851 +1    0.0000000 +0    0.0000000 +0     1     0     0
  C     1.39610557 +1  120.5278551 +1    0.0000000 +0     2     1     0
  C     1.39678344 +1  119.8798671 +1   -0.2883454 +1     3     2     1
  C     1.38666856 +1  118.0401526 +1    0.3947549 +1     4     3     2
  C     1.38770734 +1  123.4233635 +1   -0.2398358 +1     5     4     3
  H     1.09208351 +1  120.0649796 +1 -179.8449320 +1     1     2     3
  H     1.09072430 +1  119.1886999 +1 -179.4718115 +1     2     1     3
  H     1.09356582 +1  120.2826735 +1 -179.8829512 +1     4     3     2
 Cl     1.71756190 +1  118.2594319 +1  179.7164152 +1     5     4     3
  H     1.09268869 +1  122.0570992 +1  179.7480832 +1     6     5     4
  C     1.50467219 +1  119.3253350 +1 -179.0729393 +1     3     2     1
  C     1.52655169 +1  111.8992177 +1  120.6491309 +1    12     3     2
  H     1.09955258 +1  112.1815673 +1 -177.1204223 +1    13    12     3
  H     1.09829490 +1  112.8974109 +1   61.3119458 +1    13    12     3
  H     1.09843642 +1  110.3648601 +1  -58.2220523 +1    13    12     3
  N     1.50508900 +1  109.3671312 +1 -118.5042464 +1    12     3     2
  O     1.22336023 +1  118.1070477 +1  126.2519734 +1    17    12     3
  O     1.21540565 +1  119.5894524 +1  -53.0332773 +1    17    12     3
  N     2.99084896 +1  126.6826902 +1 -128.3459540 +1     8     2     1
  C     1.48512003 +1  147.6685227 +1 -167.5695984 +1    20     8     2
  C     1.53514630 +1  108.1270674 +1  -43.3518595 +1    21    20     8
  O     1.41739159 +1  110.3763937 +1  -58.1108102 +1    22    21    20
  C     1.41843239 +1  112.8069213 +1   59.2474842 +1    23    22    21
  C     1.48705207 +1   79.8333817 +1   81.1827704 +1    20     8     2
  H     1.11253849 +1  108.5571189 +1  -31.1874421 +1    25    20     8
  H     1.11040566 +1  112.2958089 +1 -149.3590361 +1    25    20     8
  H     1.10177784 +1  103.3639703 +1 -178.9532449 +1    24    23    22
  H     1.10635449 +1  109.1434931 +1   64.3846744 +1    24    23    22
  H     1.10460344 +1  112.1025768 +1 -172.7255576 +1    22    21    20
  H     1.10594866 +1  111.8633832 +1   63.6445139 +1    22    21    20
  H     1.10887371 +1  112.3571328 +1 -165.4415092 +1    21    20     8
  H     1.13496222 +1  110.3809915 +1   -0.8141333 +1    12     3     2
  H     1.02158131 +1   92.9008202 +1  -29.1354023 +1    20     8     2
  H     1.11345064 +1  108.5347127 +1   76.6052579 +1    21    20     8
  H     2.58318456 +1  148.1403591 +1   75.4171174 +1    33    12     3
  H     1.53832281 +1   63.9761024 +1 -132.4041588 +1    36    33    12
  O     0.95849627 +1   83.1652339 +1  -97.6491841 +1    36    33    12

 TIME=     0.16
  REACTANTS AND PRODUCTS SWAPPED AROUND
 *+*+*+*+*+*+*+*+*+*+*+*+*+*+*+*+*+*+*+*+*+*+*+*+*+*+*+*+*+*+*+*+*+*+*+*+*+*+*+*+
            BAR SHORTENED BY       1.000 PERCENT
 GRADIENT CRITERION IN FLEPO =     6.636


          FOR POINT   17 SECOND STRUCTURE
 DISTANCE A - B      7.712473
 HEAT             -144.488600
 GRADIENT NORM      17.102429
 DIRECTION COSINE    0.027345
* ===============================
* Input file for Mopac
* ===============================
 PM7 BONDS AUX DUMP=30M ITRY=15000 T=14D CHARGE=0 SINGLET eps=78.4 RELSCF=1


  C     0.00000000 +0    0.0000000 +0    0.0000000 +0     0     0     0
  C     1.39306513 +1    0.0000000 +0    0.0000000 +0     1     0     0
  C     1.40476710 +1  120.3550094 +1    0.0000000 +0     2     1     0
  C     1.39935806 +1  119.1416052 +1    1.2979786 +1     3     2     1
  C     1.38421531 +1  118.4469970 +1   -0.0122966 +1     4     3     2
  C     1.38340339 +1  123.8197365 +1   -1.3727924 +1     5     4     3
  H     1.09583272 +1  119.5976326 +1  179.3295042 +1     1     2     3
  H     1.09327582 +1  119.6869044 +1  179.9025405 +1     2     1     3
  H     1.08965824 +1  119.7533451 +1 -178.2259483 +1     4     3     2
 Cl     1.72019440 +1  118.6710217 +1  179.0577194 +1     5     4     3
  H     1.09015841 +1  122.2557608 +1 -177.4122361 +1     6     5     4
  C     1.46045250 +1  121.1794846 +1 -177.4668923 +1     3     2     1
  C     1.48688734 +1  119.4958488 +1   47.9202374 +1    12     3     2
  H     1.10190819 +1  112.4971215 +1  176.2585419 +1    13    12     3
  H     1.09964247 +1  110.9801081 +1   56.4965001 +1    13    12     3
  H     1.09985072 +1  111.6648989 +1  -63.5915929 +1    13    12     3
  N     1.33282436 +1  120.7730889 +1 -138.4748584 +1    12     3     2
  O     1.25430436 +1  123.8096006 +1 -175.9593518 +1    17    12     3
  O     1.27766858 +1  120.1883991 +1    7.0168201 +1    17    12     3
  N     2.72449444 +1  112.6910966 +1   60.3948873 +1    19    17    12
  C     1.50513722 +1  107.8299871 +1  124.3005776 +1    20    19    17
  C     1.53104294 +1  109.2151045 +1 -177.2882193 +1    21    20    19
  O     1.41567606 +1  110.5411763 +1  -57.2584107 +1    22    21    20
  C     1.41524590 +1  112.6109577 +1   60.4433454 +1    23    22    21
  C     1.50685320 +1  115.6134835 +1 -113.5182394 +1    20    19    17
  H     1.11261007 +1  109.5714327 +1   58.8555092 +1    25    20    19
  H     1.11992157 +1  109.1056688 +1  -58.6704934 +1    25    20    19
  H     1.10824591 +1  103.1513291 +1  179.5965832 +1    24    23    22
  H     1.10611715 +1  110.2142012 +1   63.7910222 +1    24    23    22
  H     1.10888227 +1  111.8643910 +1 -172.3101213 +1    22    21    20
  H     1.10591558 +1  112.1850277 +1   65.5872314 +1    22    21    20
  H     1.11413103 +1  109.4964648 +1   61.2201022 +1    21    20    19
  H     2.35153051 +1   91.3208751 +1  -44.8168130 +1    12     3     2
  H     1.07498552 +1    4.9063757 +1 -108.3013487 +1    20    19    17
  H     1.11419743 +1  109.6620031 +1  -54.7817580 +1    21    20    19
  H     1.53984483 +1  171.1447293 +1 -156.0361218 +1    33    12     3
  H     1.06169358 +1  104.1676333 +1    7.0884725 +1    20    19    17
  O     0.96787181 +1  149.2464582 +1  -18.8731912 +1    33    12     3

 *+*+*+*+*+*+*+*+*+*+*+*+*+*+*+*+*+*+*+*+*+*+*+*+*+*+*+*+*+*+*+*+*+*+*+*+*+*+*+*+
            BAR SHORTENED BY       1.000 PERCENT
 GRADIENT CRITERION IN FLEPO =    10.000


          FOR POINT   18 SECOND STRUCTURE
 DISTANCE A - B      7.635349
 HEAT             -144.281429
 GRADIENT NORM      17.503898
 DIRECTION COSINE    0.638421
* ===============================
* Input file for Mopac
* ===============================
 PM7 BONDS AUX DUMP=30M ITRY=15000 T=14D CHARGE=0 SINGLET eps=78.4 RELSCF=1


  C     0.00000000 +0    0.0000000 +0    0.0000000 +0     0     0     0
  C     1.39457422 +1    0.0000000 +0    0.0000000 +0     1     0     0
  C     1.40136133 +1  120.6710881 +1    0.0000000 +0     2     1     0
  C     1.40062959 +1  118.8660867 +1    1.5591114 +1     3     2     1
  C     1.38174147 +1  118.5935411 +1   -0.0984857 +1     4     3     2
  C     1.38568733 +1  123.9324183 +1   -1.4589344 +1     5     4     3
  H     1.09409598 +1  119.9755453 +1  179.4444837 +1     1     2     3
  H     1.09155439 +1  119.2605672 +1 -179.9889904 +1     2     1     3
  H     1.09006100 +1  119.3718235 +1 -178.6344859 +1     4     3     2
 Cl     1.71781564 +1  118.8332763 +1  179.3711886 +1     5     4     3
  H     1.09162961 +1  122.5035495 +1 -177.2069068 +1     6     5     4
  C     1.45623786 +1  121.4796085 +1 -177.1418007 +1     3     2     1
  C     1.48771425 +1  119.5100607 +1   48.4577360 +1    12     3     2
  H     1.10112406 +1  112.2202641 +1  176.7858651 +1    13    12     3
  H     1.09957578 +1  110.7426456 +1   57.1419810 +1    13    12     3
  H     1.10142724 +1  111.9362214 +1  -63.0468346 +1    13    12     3
  N     1.33036742 +1  120.7964403 +1 -138.0243122 +1    12     3     2
  O     1.25332370 +1  124.0888910 +1 -176.0167519 +1    17    12     3
  O     1.27920924 +1  120.0185972 +1    7.6344221 +1    17    12     3
  N     2.71510740 +1  113.1696790 +1   60.2019125 +1    19    17    12
  C     1.50829130 +1  108.0678743 +1  124.0162915 +1    20    19    17
  C     1.53466123 +1  109.1360008 +1 -177.2036871 +1    21    20    19
  O     1.41681073 +1  110.2100149 +1  -57.5341929 +1    22    21    20
  C     1.41279751 +1  112.8693462 +1   60.5248283 +1    23    22    21
  C     1.50668473 +1  115.3335474 +1 -113.9519974 +1    20    19    17
  H     1.10988148 +1  109.6923892 +1   58.4602480 +1    25    20    19
  H     1.11836830 +1  109.1140602 +1  -58.9380024 +1    25    20    19
  H     1.10723081 +1  103.4015280 +1  179.3710838 +1    24    23    22
  H     1.10880249 +1  110.0903613 +1   63.1239442 +1    24    23    22
  H     1.11066268 +1  111.7779833 +1 -172.5369842 +1    22    21    20
  H     1.10830768 +1  112.3279347 +1   65.2032490 +1    22    21    20
  H     1.11839799 +1  109.6145845 +1   61.2072516 +1    21    20    19
  H     2.34653100 +1   91.1946465 +1  -44.3510313 +1    12     3     2
  H     1.07343982 +1    4.6146687 +1 -111.7177820 +1    20    19    17
  H     1.11489608 +1  109.5741476 +1  -55.1896669 +1    21    20    19
  H     1.53600792 +1  171.1247367 +1 -158.1696366 +1    33    12     3
  H     1.06353233 +1  104.2461027 +1    6.5276303 +1    20    19    17
  O     0.96998887 +1  149.4945947 +1  -18.0921251 +1    33    12     3

 *+*+*+*+*+*+*+*+*+*+*+*+*+*+*+*+*+*+*+*+*+*+*+*+*+*+*+*+*+*+*+*+*+*+*+*+*+*+*+*+
            BAR SHORTENED BY       1.000 PERCENT
 GRADIENT CRITERION IN FLEPO =    10.000


          FOR POINT   19 SECOND STRUCTURE
 DISTANCE A - B      7.558995
 HEAT             -144.073567
 GRADIENT NORM      25.058308
 DIRECTION COSINE    0.100123
* ===============================
* Input file for Mopac
* ===============================
 PM7 BONDS AUX DUMP=30M ITRY=15000 T=14D CHARGE=0 SINGLET eps=78.4 RELSCF=1


  C     0.00000000 +0    0.0000000 +0    0.0000000 +0     0     0     0
  C     1.39368984 +1    0.0000000 +0    0.0000000 +0     1     0     0
  C     1.39887434 +1  121.1959096 +1    0.0000000 +0     2     1     0
  C     1.40193133 +1  118.6393990 +1    1.0846475 +1     3     2     1
  C     1.38896771 +1  118.6018408 +1   -0.1375317 +1     4     3     2
  C     1.38200738 +1  123.4942375 +1   -1.4190666 +1     5     4     3
  H     1.09100870 +1  120.3354384 +1  179.5517515 +1     1     2     3
  H     1.10056306 +1  119.4711779 +1  178.5038257 +1     2     1     3
  H     1.09035611 +1  119.6499464 +1 -178.4617144 +1     4     3     2
 Cl     1.72354674 +1  118.7824560 +1  179.2898072 +1     5     4     3
  H     1.09248418 +1  121.7230500 +1 -177.9609667 +1     6     5     4
  C     1.45734788 +1  121.5814867 +1 -177.1162180 +1     3     2     1
  C     1.48095972 +1  119.7774085 +1   48.8002589 +1    12     3     2
  H     1.10107154 +1  112.2225337 +1  177.2714160 +1    13    12     3
  H     1.10236432 +1  111.0244612 +1   57.5922057 +1    13    12     3
  H     1.10049880 +1  111.7729338 +1  -62.5744270 +1    13    12     3
  N     1.33353425 +1  120.2725076 +1 -137.8242295 +1    12     3     2
  O     1.25641526 +1  123.7023415 +1 -175.6533914 +1    17    12     3
  O     1.27876216 +1  120.2795136 +1    6.9779371 +1    17    12     3
  N     2.72361875 +1  112.5383204 +1   61.0953230 +1    19    17    12
  C     1.50980839 +1  108.6406963 +1  123.1492547 +1    20    19    17
  C     1.52601204 +1  109.2654257 +1 -177.4088627 +1    21    20    19
  O     1.41734443 +1  110.1853058 +1  -57.8349462 +1    22    21    20
  C     1.41592403 +1  112.6292920 +1   60.7813717 +1    23    22    21
  C     1.50692450 +1  114.8062035 +1 -115.0403200 +1    20    19    17
  H     1.11546358 +1  109.5399638 +1   58.0953527 +1    25    20    19
  H     1.11225358 +1  108.6560942 +1  -59.3189171 +1    25    20    19
  H     1.11225450 +1  103.0828319 +1  179.4201027 +1    24    23    22
  H     1.10683346 +1  110.4859927 +1   63.6508028 +1    24    23    22
  H     1.11187119 +1  112.0016741 +1 -172.3463349 +1    22    21    20
  H     1.10665607 +1  112.5917698 +1   65.0930226 +1    22    21    20
  H     1.11950289 +1  109.4441771 +1   60.4084094 +1    21    20    19
  H     2.34693788 +1   90.9661109 +1  -44.3738955 +1    12     3     2
  H     1.07621516 +1    4.0016577 +1 -107.7760699 +1    20    19    17
  H     1.11895789 +1  109.5863319 +1  -55.7094479 +1    21    20    19
  H     1.53288838 +1  170.7756609 +1 -162.1296816 +1    33    12     3
  H     1.06276241 +1  104.4240007 +1    5.4609196 +1    20    19    17
  O     0.96305546 +1  150.1140789 +1  -17.3162349 +1    33    12     3

 TIME=     1.77
  REACTANTS AND PRODUCTS SWAPPED AROUND
 *+*+*+*+*+*+*+*+*+*+*+*+*+*+*+*+*+*+*+*+*+*+*+*+*+*+*+*+*+*+*+*+*+*+*+*+*+*+*+*+
            BAR SHORTENED BY       0.000 PERCENT
 GRADIENT CRITERION IN FLEPO =    10.000


          FOR POINT   20 FIRST  STRUCTURE
 DISTANCE A - B      7.558995
 HEAT             -133.469436
 GRADIENT NORM       9.636397
 DIRECTION COSINE    0.029840
* ===============================
* Input file for Mopac
* ===============================
 PM7 BONDS AUX DUMP=30M ITRY=15000 T=14D CHARGE=0 SINGLET eps=78.4 RELSCF=1


  C     0.00000000 +0    0.0000000 +0    0.0000000 +0     0     0     0
  C     1.39399851 +1    0.0000000 +0    0.0000000 +0     1     0     0
  C     1.39610557 +1  120.5278551 +1    0.0000000 +0     2     1     0
  C     1.39678344 +1  119.8798671 +1   -0.2883454 +1     3     2     1
  C     1.38666856 +1  118.0401526 +1    0.3947549 +1     4     3     2
  C     1.38770734 +1  123.4233635 +1   -0.2398358 +1     5     4     3
  H     1.09208351 +1  120.0649796 +1 -179.8449320 +1     1     2     3
  H     1.09072430 +1  119.1886999 +1 -179.4718115 +1     2     1     3
  H     1.09356582 +1  120.2826735 +1 -179.8829512 +1     4     3     2
 Cl     1.71756190 +1  118.2594319 +1  179.7164152 +1     5     4     3
  H     1.09268869 +1  122.0570992 +1  179.7480832 +1     6     5     4
  C     1.50467219 +1  119.3253350 +1 -179.0729393 +1     3     2     1
  C     1.52655169 +1  111.8992177 +1  120.6491309 +1    12     3     2
  H     1.09955258 +1  112.1815673 +1 -177.1204223 +1    13    12     3
  H     1.09829490 +1  112.8974109 +1   61.3119458 +1    13    12     3
  H     1.09843642 +1  110.3648601 +1  -58.2220523 +1    13    12     3
  N     1.50508900 +1  109.3671312 +1 -118.5042464 +1    12     3     2
  O     1.22336023 +1  118.1070477 +1  126.2519734 +1    17    12     3
  O     1.21540565 +1  119.5894524 +1  -53.0332773 +1    17    12     3
  N     2.99084896 +1  126.6826902 +1 -128.3459540 +1     8     2     1
  C     1.48512003 +1  147.6685227 +1 -167.5695984 +1    20     8     2
  C     1.53514630 +1  108.1270674 +1  -43.3518595 +1    21    20     8
  O     1.41739159 +1  110.3763937 +1  -58.1108102 +1    22    21    20
  C     1.41843239 +1  112.8069213 +1   59.2474842 +1    23    22    21
  C     1.48705207 +1   79.8333817 +1   81.1827704 +1    20     8     2
  H     1.11253849 +1  108.5571189 +1  -31.1874421 +1    25    20     8
  H     1.11040566 +1  112.2958089 +1 -149.3590361 +1    25    20     8
  H     1.10177784 +1  103.3639703 +1 -178.9532449 +1    24    23    22
  H     1.10635449 +1  109.1434931 +1   64.3846744 +1    24    23    22
  H     1.10460344 +1  112.1025768 +1 -172.7255576 +1    22    21    20
  H     1.10594866 +1  111.8633832 +1   63.6445139 +1    22    21    20
  H     1.10887371 +1  112.3571328 +1 -165.4415092 +1    21    20     8
  H     1.13496222 +1  110.3809915 +1   -0.8141333 +1    12     3     2
  H     1.02158131 +1   92.9008202 +1  -29.1354023 +1    20     8     2
  H     1.11345064 +1  108.5347127 +1   76.6052579 +1    21    20     8
  H     2.58318456 +1  148.1403591 +1   75.4171174 +1    33    12     3
  H     1.53832281 +1   63.9761024 +1 -132.4041588 +1    36    33    12
  O     0.95849627 +1   83.1652339 +1  -97.6491841 +1    36    33    12

 TIME=     0.16
  REACTANTS AND PRODUCTS SWAPPED AROUND
 *+*+*+*+*+*+*+*+*+*+*+*+*+*+*+*+*+*+*+*+*+*+*+*+*+*+*+*+*+*+*+*+*+*+*+*+*+*+*+*+
            BAR SHORTENED BY       1.000 PERCENT
 GRADIENT CRITERION IN FLEPO =     6.636


          FOR POINT   21 SECOND STRUCTURE
 DISTANCE A - B      7.483405
 HEAT             -144.055273
 GRADIENT NORM      17.157191
 DIRECTION COSINE    0.018554
* ===============================
* Input file for Mopac
* ===============================
 PM7 BONDS AUX DUMP=30M ITRY=15000 T=14D CHARGE=0 SINGLET eps=78.4 RELSCF=1


[...]
     46         16  H    CARTESIAN X     2.864358      0.164912  KCAL/ANGSTROM
     47         16  H    CARTESIAN Y    -0.868283     -0.188954  KCAL/ANGSTROM
     48         16  H    CARTESIAN Z     1.571811     -0.059820  KCAL/ANGSTROM
     49         17  N    CARTESIAN X     2.128454     -1.336587  KCAL/ANGSTROM
     50         17  N    CARTESIAN Y    -1.795064      0.163885  KCAL/ANGSTROM
     51         17  N    CARTESIAN Z    -1.607787     -0.458472  KCAL/ANGSTROM
     52         18  O    CARTESIAN X     2.088429      0.434734  KCAL/ANGSTROM
     53         18  O    CARTESIAN Y    -3.020757     -0.612277  KCAL/ANGSTROM
     54         18  O    CARTESIAN Z    -1.465610     -0.401715  KCAL/ANGSTROM
     55         19  O    CARTESIAN X     1.803373     -2.102796  KCAL/ANGSTROM
     56         19  O    CARTESIAN Y    -1.302110      0.493253  KCAL/ANGSTROM
     57         19  O    CARTESIAN Z    -2.692269      0.777463  KCAL/ANGSTROM
     58         20  N    CARTESIAN X     5.219316      0.136019  KCAL/ANGSTROM
     59         20  N    CARTESIAN Y    -1.612270      0.293378  KCAL/ANGSTROM
     60         20  N    CARTESIAN Z    -3.126329     -0.779362  KCAL/ANGSTROM
     61         21  C    CARTESIAN X     6.182069     -0.313026  KCAL/ANGSTROM
     62         21  C    CARTESIAN Y    -2.655495      0.349385  KCAL/ANGSTROM
     63         21  C    CARTESIAN Z    -3.591612      0.186052  KCAL/ANGSTROM
     64         22  C    CARTESIAN X     7.600148      0.184596  KCAL/ANGSTROM
     65         22  C    CARTESIAN Y    -2.073173      0.001384  KCAL/ANGSTROM
     66         22  C    CARTESIAN Z    -3.563248      0.116601  KCAL/ANGSTROM
     67         23  O    CARTESIAN X     7.667103     -0.381772  KCAL/ANGSTROM
     68         23  O    CARTESIAN Y    -0.924003     -0.093661  KCAL/ANGSTROM
     69         23  O    CARTESIAN Z    -4.388823      0.049221  KCAL/ANGSTROM
     70         24  C    CARTESIAN X     6.798400      0.209753  KCAL/ANGSTROM
     71         24  C    CARTESIAN Y     0.109089      0.192670  KCAL/ANGSTROM
     72         24  C    CARTESIAN Z    -3.960058     -0.371658  KCAL/ANGSTROM
     73         25  C    CARTESIAN X     5.343483      0.085871  KCAL/ANGSTROM
     74         25  C    CARTESIAN Y    -0.375880     -0.561829  KCAL/ANGSTROM
     75         25  C    CARTESIAN Z    -3.957194      0.110799  KCAL/ANGSTROM
     76         26  H    CARTESIAN X     4.672776      0.141595  KCAL/ANGSTROM
     77         26  H    CARTESIAN Y     0.410726      0.153736  KCAL/ANGSTROM
     78         26  H    CARTESIAN Z    -3.539841      0.083315  KCAL/ANGSTROM
     79         27  H    CARTESIAN X     4.997593     -0.235012  KCAL/ANGSTROM
     80         27  H    CARTESIAN Y    -0.569152     -0.166984  KCAL/ANGSTROM
     81         27  H    CARTESIAN Z    -4.999646     -0.074275  KCAL/ANGSTROM
     82         28  H    CARTESIAN X     6.960860     -0.109821  KCAL/ANGSTROM
     83         28  H    CARTESIAN Y     0.903303     -0.518892  KCAL/ANGSTROM
     84         28  H    CARTESIAN Z    -4.713995      0.031161  KCAL/ANGSTROM
     85         29  H    CARTESIAN X     7.123443      0.107465  KCAL/ANGSTROM
     86         29  H    CARTESIAN Y     0.476581      0.114934  KCAL/ANGSTROM
     87         29  H    CARTESIAN Z    -2.970154     -0.533952  KCAL/ANGSTROM
     88         30  H    CARTESIAN X     8.335956     -0.302923  KCAL/ANGSTROM
     89         30  H    CARTESIAN Y    -2.760667      0.026334  KCAL/ANGSTROM
     90         30  H    CARTESIAN Z    -4.022054     -0.176632  KCAL/ANGSTROM
     91         31  H    CARTESIAN X     7.931076     -0.071583  KCAL/ANGSTROM
     92         31  H    CARTESIAN Y    -1.814842      0.336593  KCAL/ANGSTROM
     93         31  H    CARTESIAN Z    -2.540349      0.095822  KCAL/ANGSTROM
     94         32  H    CARTESIAN X     5.924064     -0.117418  KCAL/ANGSTROM
     95         32  H    CARTESIAN Y    -3.004773      0.138550  KCAL/ANGSTROM
     96         32  H    CARTESIAN Z    -4.616969      0.239786  KCAL/ANGSTROM
     97         33  H    CARTESIAN X     4.046757     -4.022398  KCAL/ANGSTROM
     98         33  H    CARTESIAN Y    -1.223542     -0.020685  KCAL/ANGSTROM
     99         33  H    CARTESIAN Z    -0.560643     -0.693133  KCAL/ANGSTROM
    100         34  H    CARTESIAN X     4.250848      0.581888  KCAL/ANGSTROM
    101         34  H    CARTESIAN Y    -1.967871      0.511010  KCAL/ANGSTROM
    102         34  H    CARTESIAN Z    -3.183666     -0.191799  KCAL/ANGSTROM
    103         35  H    CARTESIAN X     6.108682      0.172463  KCAL/ANGSTROM
    104         35  H    CARTESIAN Y    -3.543010      0.139781  KCAL/ANGSTROM
    105         35  H    CARTESIAN Z    -2.921547      0.330702  KCAL/ANGSTROM
    106         36  H    CARTESIAN X     5.601443      1.943730  KCAL/ANGSTROM
    107         36  H    CARTESIAN Y    -2.051243     -0.874289  KCAL/ANGSTROM
    108         36  H    CARTESIAN Z    -0.230831      0.801575  KCAL/ANGSTROM
    109         37  H    CARTESIAN X     5.434560      1.700678  KCAL/ANGSTROM
    110         37  H    CARTESIAN Y    -1.361866      0.231172  KCAL/ANGSTROM
    111         37  H    CARTESIAN Z    -1.841375     -0.936269  KCAL/ANGSTROM
    112         38  O    CARTESIAN X     5.280019      4.924741  KCAL/ANGSTROM
    113         38  O    CARTESIAN Y    -1.243671      1.903907  KCAL/ANGSTROM
    114         38  O    CARTESIAN Z    -0.644300      3.084226  KCAL/ANGSTROM




   ATOM   CHEMICAL          X               Y               Z
  NUMBER   SYMBOL      (ANGSTROMS)     (ANGSTROMS)     (ANGSTROMS)

     1       C          3.58363635  *   2.62465384  *  -1.25520846  *
     2       C          3.66683859  *   1.25482317  *  -1.01898900  *
     3       C          2.51288675  *   0.48651698  *  -0.83484252  *
     4       C          1.25844056  *   1.10599095  *  -0.88749502  *
     5       C          1.21168892  *   2.47184589  *  -1.12051424  *
     6       C          2.34080992  *   3.25438203  *  -1.30848149  *
     7       H          4.49680467  *   3.20514750  *  -1.39987099  *
     8       H          4.65443990  *   0.79061958  *  -0.96686036  *
     9       H          0.35004197  *   0.51785163  *  -0.75034525  *
    10      Cl         -0.32923539  *   3.23375697  *  -1.17746401  *
    11       H          2.27749073  *   4.32747226  *  -1.49015323  *
    12       C          2.63643879  *  -0.96899002  *  -0.57401045  *
    13       C          2.25411619  *  -1.39256151  *   0.82109965  *
    14       H          2.40600719  *  -2.47049460  *   0.98327303  *
    15       H          1.20043408  *  -1.16921933  *   1.04633598  *
    16       H          2.86435833  *  -0.86828344  *   1.57181127  *
    17       N          2.12845369  *  -1.79506379  *  -1.60778687  *
    18       O          2.08842877  *  -3.02075736  *  -1.46561028  *
    19       O          1.80337306  *  -1.30211015  *  -2.69226868  *
    20       N          5.21931589  *  -1.61227021  *  -3.12632927  *
    21       C          6.18206923  *  -2.65549463  *  -3.59161168  *
    22       C          7.60014848  *  -2.07317342  *  -3.56324785  *
    23       O          7.66710333  *  -0.92400256  *  -4.38882310  *
    24       C          6.79840008  *   0.10908896  *  -3.96005773  *
    25       C          5.34348305  *  -0.37587994  *  -3.95719450  *
    26       H          4.67277624  *   0.41072594  *  -3.53984086  *
    27       H          4.99759328  *  -0.56915210  *  -4.99964596  *
    28       H          6.96085982  *   0.90330305  *  -4.71399495  *
    29       H          7.12344287  *   0.47658140  *  -2.97015354  *
    30       H          8.33595561  *  -2.76066712  *  -4.02205444  *
    31       H          7.93107644  *  -1.81484224  *  -2.54034853  *
    32       H          5.92406440  *  -3.00477263  *  -4.61696891  *
    33       H          4.04675717  *  -1.22354151  *  -0.56064296  *
    34       H          4.25084772  *  -1.96787133  *  -3.18366648  *
    35       H          6.10868164  *  -3.54300977  *  -2.92154674  *
    36       H          5.60144279  *  -2.05124327  *  -0.23083125  *
    37       H          5.43455997  *  -1.36186649  *  -1.84137469  *
    38       O          5.28001864  *  -1.24367072  *  -0.64429962  *

                             CARTESIAN COORDINATES

   1    C        3.583636348     2.624653838    -1.255208456
   2    C        3.666838595     1.254823167    -1.018988998
   3    C        2.512886751     0.486516977    -0.834842522
   4    C        1.258440565     1.105990951    -0.887495019
   5    C        1.211688917     2.471845886    -1.120514242
   6    C        2.340809924     3.254382030    -1.308481490
   7    H        4.496804671     3.205147497    -1.399870986
   8    H        4.654439901     0.790619579    -0.966860361
   9    H        0.350041973     0.517851631    -0.750345248
  10   Cl       -0.329235392     3.233756969    -1.177464006
  11    H        2.277490729     4.327472257    -1.490153225
  12    C        2.636438794    -0.968990017    -0.574010450
  13    C        2.254116189    -1.392561508     0.821099648
  14    H        2.406007188    -2.470494599     0.983273026
  15    H        1.200434079    -1.169219330     1.046335981
  16    H        2.864358332    -0.868283441     1.571811266
  17    N        2.128453686    -1.795063791    -1.607786867
  18    O        2.088428774    -3.020757364    -1.465610281
  19    O        1.803373062    -1.302110147    -2.692268680
  20    N        5.219315889    -1.612270211    -3.126329267
  21    C        6.182069234    -2.655494630    -3.591611679
  22    C        7.600148482    -2.073173423    -3.563247850
  23    O        7.667103325    -0.924002563    -4.388823101
  24    C        6.798400080     0.109088958    -3.960057726
  25    C        5.343483054    -0.375879939    -3.957194499
  26    H        4.672776236     0.410725938    -3.539840864
  27    H        4.997593276    -0.569152096    -4.999645959
  28    H        6.960859823     0.903303047    -4.713994951
  29    H        7.123442865     0.476581400    -2.970153544
  30    H        8.335955613    -2.760667116    -4.022054440
  31    H        7.931076443    -1.814842242    -2.540348531
  32    H        5.924064399    -3.004772626    -4.616968906
  33    H        4.046757174    -1.223541507    -0.560642960
  34    H        4.250847719    -1.967871333    -3.183666478
  35    H        6.108681643    -3.543009775    -2.921546737
  36    H        5.601442790    -2.051243270    -0.230831251
  37    H        5.434559972    -1.361866487    -1.841374694
  38    O        5.280018645    -1.243670724    -0.644299622


           Empirical Formula: C12 H19 N2 O4 Cl  =    38 atoms



      MOLECULAR POINT GROUP   :   C1  


                  EIGENVALUES  
 -37.11616 -36.70579 -31.29443 -30.11492 -29.79148 -28.91584 -27.90133 -27.30869
 -27.03874 -25.85895 -25.25427 -24.75260 -24.65072 -22.69389 -22.00126 -21.01493
 -20.77773 -19.96932 -18.60922 -18.35554 -17.89324 -17.67292 -17.48494 -16.73003
 -16.62703 -16.29146 -16.17012 -15.94199 -15.86143 -15.32697 -15.08750 -14.85424
 -14.57410 -14.40959 -14.12310 -13.82836 -13.77820 -13.50216 -13.40372 -12.90016
 -12.62529 -12.45594 -12.42214 -12.04404 -12.00221 -11.59131 -11.50698 -11.39037
 -11.29301 -11.20048 -10.57680 -10.16773  -9.93751  -9.65105  -0.34947  -0.26720
   0.01219   0.73071   1.27981   1.42801   2.03321   2.10594   3.29397   3.30952
   3.41372   3.42667   3.52247   4.03446   4.07829   4.15151   4.41867   4.54990
   4.62251   4.75191   4.87841   4.96076   5.02072   5.08963   5.20342   5.32479
   5.36703   5.49024   5.56278   5.61761   5.65856   5.68290   5.71850   5.75132
   5.77878   5.85787   5.87474   5.96819   6.06191   6.38232   6.85299  69.57944
  69.59758  69.62225  69.84313  69.85886


              NET ATOMIC CHARGES AND DIPOLE CONTRIBUTIONS

  ATOM NO.   TYPE          CHARGE      No. of ELECS.   s-Pop       p-Pop       d-Pop       
    1          C          -0.120026        4.1200     1.08801     3.03202
    2          C          -0.180914        4.1809     1.09219     3.08873
    3          C           0.055874        3.9441     1.06647     2.87766
    4          C          -0.189690        4.1897     1.08724     3.10245
    5          C           0.025872        3.9741     1.09517     2.87896
    6          C          -0.190035        4.1900     1.08466     3.10538
    7          H           0.171390        0.8286     0.82861
    8          H           0.178625        0.8214     0.82138
    9          H           0.188880        0.8111     0.81112
   10         Cl          -0.126330        7.1263     1.98038     5.13957     0.00638
   11          H           0.183047        0.8170     0.81695
   12          C          -0.339217        4.3392     1.10260     3.23662
   13          C          -0.417092        4.4171     1.04887     3.36822
   14          H           0.166089        0.8339     0.83391
   15          H           0.157606        0.8424     0.84239
   16          H           0.165667        0.8343     0.83433
   17          N           0.691379        4.3086     1.45211     2.85651
   18          O          -0.543197        6.5432     1.94164     4.60156
   19          O          -0.548378        6.5484     1.94154     4.60684
   20          N          -0.402461        5.4025     1.59482     3.80764
   21          C          -0.186175        4.1862     1.08290     3.10328
   22          C          -0.049620        4.0496     1.09324     2.95638
   23          O          -0.442506        6.4425     1.87629     4.56621
   24          C          -0.046456        4.0465     1.09276     2.95369
   25          C          -0.185085        4.1851     1.08258     3.10250
   26          H           0.174241        0.8258     0.82576
   27          H           0.177147        0.8229     0.82285
   28          H           0.161549        0.8385     0.83845
   29          H           0.143858        0.8561     0.85614
   30          H           0.160123        0.8399     0.83988
   31          H           0.143896        0.8561     0.85610
   32          H           0.173925        0.8261     0.82608
   33          H           0.409883        0.5901     0.59012
   34          H           0.293731        0.7063     0.70627
   35          H           0.180693        0.8193     0.81931
   36          H           0.377093        0.6229     0.62291
   37          H           0.415049        0.5850     0.58495
   38          O          -0.828432        6.8284     1.83718     4.99125
 DIPOLE           X         Y         Z       TOTAL
 POINT-CHG.    10.241    -0.824     0.229    10.277
 HYBRID        -1.127    -0.594    -0.740     1.474
 SUM            9.114    -1.418    -0.511     9.238


          ATOMIC ORBITAL ELECTRON POPULATIONS

     Atom    s        px        py        pz      x^2-y^2     xz        z^2       yz        xy
    1  C   1.08801   1.05106   1.01090   0.97006
    2  C   1.09219   1.07691   1.00867   1.00315
    3  C   1.06647   0.96557   0.96048   0.95160
    4  C   1.08724   1.07696   0.99911   1.02638
    5  C   1.09517   0.86577   0.96608   1.04710
    6  C   1.08466   0.98231   1.09348   1.02958
    7  H   0.82861
    8  H   0.82138
    9  H   0.81112
   10 Cl   1.98038   1.33621   1.83249   1.97087   0.00214   0.00057   0.00124   0.00019   0.00224
   11  H   0.81695
   12  C   1.10260   1.37284   0.94395   0.91983
   13  C   1.04887   1.17528   1.17841   1.01452
   14  H   0.83391
   15  H   0.84239
   16  H   0.83433
   17  N   1.45211   0.90154   0.96843   0.98654
   18  O   1.94164   1.66691   1.04657   1.88808
   19  O   1.94154   1.59901   1.77469   1.23313
   20  N   1.59482   1.21564   1.15899   1.43300
   21  C   1.08290   0.95579   0.98012   1.16737
   22  C   1.09324   1.01297   0.89402   1.04939
   23  O   1.87629   1.65793   1.33332   1.57497
   24  C   1.09276   0.89882   0.91742   1.13745
   25  C   1.08258   1.06761   0.94312   1.09177
   26  H   0.82576
   27  H   0.82285
   28  H   0.83845
   29  H   0.85614
   30  H   0.83988
   31  H   0.85610
   32  H   0.82608
   33  H   0.59012
   34  H   0.70627
   35  H   0.81931
   36  H   0.62291
   37  H   0.58495
   38  O   1.83718   1.71178   1.60417   1.67529

          BONDING CONTRIBUTION OF EACH M.O.

  1.3675  1.3512  1.8782  1.2047  0.9847  1.4530  1.1544  1.2956  1.8759  1.6252
  1.4708  1.1073  1.4504  1.9138  1.7619  1.7305  1.6742  1.4208  1.8583  1.6790
  1.3057  1.5226  1.5302  1.9385  1.7580  1.6575  1.8194  1.7469  1.6750  1.5224
  1.7085  1.5728  1.8645  1.8230  1.5657  1.9885  1.6217  1.2451  1.7671  1.9415
  1.9715  1.7048  1.8610  1.2332  1.1375  0.7330  0.3125  0.3193  0.6559  1.0478
  0.8868  1.9301  1.6014  1.1314 -2.0308 -2.0219 -2.3726 -1.9755 -2.0969 -1.9396
 -1.8600 -2.0104 -1.9434 -1.9404 -1.9628 -1.9501 -1.9406 -1.9654 -1.9615 -1.8669
 -1.9737 -1.9656 -1.9680 -2.0077 -1.9277 -1.9390 -1.9687 -1.9737 -1.9209 -1.9042
 -1.9765 -1.9682 -1.8959 -1.9400 -1.9359 -1.9485 -1.9588 -1.9170 -1.9406 -1.9725
 -1.9531 -1.9589 -1.9295 -1.7496 -1.9042 -0.0060 -0.0101 -0.0030 -0.0001 -0.0014





            (VALENCIES)   BOND ORDERS

     1  C     (3.969)     2  C 1.443     6  C 1.436     7  H 0.958     4  C 0.110    10 Cl 0.011

     2  C     (3.968)     1  C 1.443     3  C 1.422     8  H 0.950     5  C 0.109

     3  C     (3.990)     2  C 1.422     4  C 1.415    12  C 0.999     6  C 0.111    10 Cl 0.011

     4  C     (3.964)     5  C 1.431     3  C 1.415     9  H 0.949     1  C 0.110    10 Cl 0.024

     5  C     (3.959)     4  C 1.431     6  C 1.424    10 Cl 0.976     2  C 0.109

     6  C     (3.966)     1  C 1.436     5  C 1.424    11  H 0.952     3  C 0.111    10 Cl 0.024

     7  H     (0.971)     1  C 0.958

     8  H     (0.968)     2  C 0.950

     9  H     (0.964)     4  C 0.949

    10 Cl     (1.059)     5  C 0.976     4  C 0.024     6  C 0.024     1  C 0.011     3  C 0.011

    11  H     (0.966)     6  C 0.952

    12  C     (3.676)     3  C 0.999    17  N 0.984    13  C 0.981    33  H 0.416    19  O 0.093    18  O 0.092
                         38  O 0.069

    13  C     (3.914)    12  C 0.981    15  H 0.966    14  H 0.962    16  H 0.960    19  O 0.012

    14  H     (0.972)    13  C 0.962

    15  H     (0.975)    13  C 0.966

    16  H     (0.973)    13  C 0.960

    17  N     (3.770)    18  O 1.366    19  O 1.365    12  C 0.984    33  H 0.011    38  O 0.011

    18  O     (1.734)    17  N 1.366    19  O 0.242    12  C 0.092

    19  O     (1.734)    17  N 1.365    18  O 0.242    12  C 0.093    13  C 0.012

    20  N     (3.289)    21  C 0.941    25  C 0.940    34  H 0.884    37  H 0.409    38  O 0.078

    21  C     (3.897)    22  C 0.994    32  H 0.958    35  H 0.951    20  N 0.941    23  O 0.018    25  C 0.010

    22  C     (3.896)    21  C 0.994    31  H 0.963    30  H 0.955    23  O 0.949    28  H 0.011

    23  O     (1.969)    22  C 0.949    24  C 0.949    21  C 0.018    25  C 0.018

    24  C     (3.894)    25  C 0.994    29  H 0.964    28  H 0.955    23  O 0.949    30  H 0.011

    25  C     (3.897)    24  C 0.994    27  H 0.957    26  H 0.952    20  N 0.940    23  O 0.018    21  C 0.010

    26  H     (0.970)    25  C 0.952

    27  H     (0.969)    25  C 0.957

    28  H     (0.974)    24  C 0.955    22  C 0.011

    29  H     (0.979)    24  C 0.964

    30  H     (0.974)    22  C 0.955    24  C 0.011

    31  H     (0.979)    22  C 0.963

    32  H     (0.970)    21  C 0.958

    33  H     (0.832)    12  C 0.416    38  O 0.376    17  N 0.011

    34  H     (0.914)    20  N 0.884

    35  H     (0.967)    21  C 0.951

    36  H     (0.858)    38  O 0.844

    37  H     (0.828)    20  N 0.409    38  O 0.401

    38  O     (1.810)    36  H 0.844    37  H 0.401    33  H 0.376    20  N 0.078    12  C 0.069    17  N 0.011


 **********************
 *                    *
 * JOB ENDED NORMALLY *
 *                    *
 **********************



 TOTAL JOB TIME:           216.39 SECONDS

 == MOPAC DONE ==
