
                                 *****************
                                 * O   R   C   A *
                                 *****************

                                            #,                                       
                                            ###                                      
                                            ####                                     
                                            #####                                    
                                            ######                                   
                                           ########,                                 
                                     ,,################,,,,,                         
                               ,,#################################,,                 
                          ,,##########################################,,             
                       ,#########################################, ''#####,          
                    ,#############################################,,   '####,        
                  ,##################################################,,,,####,       
                ,###########''''           ''''###############################       
              ,#####''   ,,,,##########,,,,          '''####'''          '####       
            ,##' ,,,,###########################,,,                        '##       
           ' ,,###''''                  '''############,,,                           
         ,,##''                                '''############,,,,        ,,,,,,###''
      ,#''                                            '''#######################'''  
     '                                                          ''''####''''         
             ,#######,   #######,   ,#######,      ##                                
            ,#'     '#,  ##    ##  ,#'     '#,    #''#        ######   ,####,        
            ##       ##  ##   ,#'  ##            #'  '#       #        #'  '#        
            ##       ##  #######   ##           ,######,      #####,   #    #        
            '#,     ,#'  ##    ##  '#,     ,#' ,#      #,         ##   #,  ,#        
             '#######'   ##     ##  '#######'  #'      '#     #####' # '####'        



                  #######################################################
                  #                        -***-                        #
                  #          Department of theory and spectroscopy      #
                  #    Directorship and core code : Frank Neese         #
                  #        Max Planck Institute fuer Kohlenforschung    #
                  #                Kaiser Wilhelm Platz 1               #
                  #                 D-45470 Muelheim/Ruhr               #
                  #                      Germany                        #
                  #                                                     #
                  #                  All rights reserved                #
                  #                        -***-                        #
                  #######################################################


                         Program Version 5.0.4 -  RELEASE  -


 With contributions from (in alphabetic order):
   Daniel Aravena         : Magnetic Suceptibility
   Michael Atanasov       : Ab Initio Ligand Field Theory (pilot matlab implementation)
   Alexander A. Auer      : GIAO ZORA, VPT2 properties, NMR spectrum
   Ute Becker             : Parallelization
   Giovanni Bistoni       : ED, misc. LED, open-shell LED, HFLD
   Martin Brehm           : Molecular dynamics
   Dmytro Bykov           : SCF Hessian
   Vijay G. Chilkuri      : MRCI spin determinant printing, contributions to CSF-ICE
   Dipayan Datta          : RHF DLPNO-CCSD density
   Achintya Kumar Dutta   : EOM-CC, STEOM-CC
   Dmitry Ganyushin       : Spin-Orbit,Spin-Spin,Magnetic field MRCI
   Miquel Garcia          : C-PCM and meta-GGA Hessian, CC/C-PCM, Gaussian charge scheme
   Yang Guo               : DLPNO-NEVPT2, F12-NEVPT2, CIM, IAO-localization
   Andreas Hansen         : Spin unrestricted coupled pair/coupled cluster methods
   Benjamin Helmich-Paris : MC-RPA, TRAH-SCF, COSX integrals
   Lee Huntington         : MR-EOM, pCC
   Robert Izsak           : Overlap fitted RIJCOSX, COSX-SCS-MP3, EOM
   Marcus Kettner         : VPT2
   Christian Kollmar      : KDIIS, OOCD, Brueckner-CCSD(T), CCSD density, CASPT2, CASPT2-K
   Simone Kossmann        : Meta GGA functionals, TD-DFT gradient, OOMP2, MP2 Hessian
   Martin Krupicka        : Initial AUTO-CI
   Lucas Lang             : DCDCAS
   Marvin Lechner         : AUTO-CI (C++ implementation), FIC-MRCC
   Dagmar Lenk            : GEPOL surface, SMD
   Dimitrios Liakos       : Extrapolation schemes; Compound Job, initial MDCI parallelization
   Dimitrios Manganas     : Further ROCIS development; embedding schemes
   Dimitrios Pantazis     : SARC Basis sets
   Anastasios Papadopoulos: AUTO-CI, single reference methods and gradients
   Taras Petrenko         : DFT Hessian,TD-DFT gradient, ASA, ECA, R-Raman, ABS, FL, XAS/XES, NRVS
   Peter Pinski           : DLPNO-MP2, DLPNO-MP2 Gradient
   Christoph Reimann      : Effective Core Potentials
   Marius Retegan         : Local ZFS, SOC
   Christoph Riplinger    : Optimizer, TS searches, QM/MM, DLPNO-CCSD(T), (RO)-DLPNO pert. Triples
   Tobias Risthaus        : Range-separated hybrids, TD-DFT gradient, RPA, STAB
   Michael Roemelt        : Original ROCIS implementation
   Masaaki Saitow         : Open-shell DLPNO-CCSD energy and density
   Barbara Sandhoefer     : DKH picture change effects
   Avijit Sen             : IP-ROCIS
   Kantharuban Sivalingam : CASSCF convergence, NEVPT2, FIC-MRCI
   Bernardo de Souza      : ESD, SOC TD-DFT
   Georgi Stoychev        : AutoAux, RI-MP2 NMR, DLPNO-MP2 response
   Willem Van den Heuvel  : Paramagnetic NMR
   Boris Wezisla          : Elementary symmetry handling
   Frank Wennmohs         : Technical directorship


 We gratefully acknowledge several colleagues who have allowed us to
 interface, adapt or use parts of their codes:
   Stefan Grimme, W. Hujo, H. Kruse, P. Pracht,  : VdW corrections, initial TS optimization,
                  C. Bannwarth, S. Ehlert          DFT functionals, gCP, sTDA/sTD-DF
   Ed Valeev, F. Pavosevic, A. Kumar             : LibInt (2-el integral package), F12 methods
   Garnet Chan, S. Sharma, J. Yang, R. Olivares  : DMRG
   Ulf Ekstrom                                   : XCFun DFT Library
   Mihaly Kallay                                 : mrcc  (arbitrary order and MRCC methods)
   Jiri Pittner, Ondrej Demel                    : Mk-CCSD
   Frank Weinhold                                : gennbo (NPA and NBO analysis)
   Christopher J. Cramer and Donald G. Truhlar   : smd solvation model
   Lars Goerigk                                  : TD-DFT with DH, B97 family of functionals
   V. Asgeirsson, H. Jonsson                     : NEB implementation
   FAccTs GmbH                                   : IRC, NEB, NEB-TS, DLPNO-Multilevel, CI-OPT
                                                   MM, QMMM, 2- and 3-layer-ONIOM, Crystal-QMMM,
                                                   LR-CPCM, SF, NACMEs, symmetry and pop. for TD-DFT,
                                                   nearIR, NL-DFT gradient (VV10), updates on ESD,
                                                   ML-optimized integration grids
   S Lehtola, MJT Oliveira, MAL Marques          : LibXC Library
   Liviu Ungur et al                             : ANISO software


 Your calculation uses the libint2 library for the computation of 2-el integrals
 For citations please refer to: http://libint.valeyev.net

 Your ORCA version has been built with support for libXC version: 5.1.0
 For citations please refer to: https://tddft.org/programs/libxc/

 This ORCA versions uses:
   CBLAS   interface :  Fast vector & matrix operations
   LAPACKE interface :  Fast linear algebra routines
   SCALAPACK package :  Parallel linear algebra routines
   Shared memory     :  Shared parallel matrices
   BLAS/LAPACK       :  OpenBLAS 0.3.15  USE64BITINT DYNAMIC_ARCH NO_AFFINITY Prescott SINGLE_THREADED
        Core in use  :  Prescott
   Copyright (c) 2011-2014, The OpenBLAS Project


Your calculation utilizes the atom-pairwise dispersion correction
with the Becke-Johnson damping scheme (D3BJ)
Cite in your paper:
S.Grimme, S.Ehrlich, L.Goerigk, J Comput Chem, (2011), 32, 1456–1465 
S.Grimme, J.Antony, S.Ehrlich and H.Krieg, J.Chem.Phys., 132, (2010), 154104 
   

================================================================================

----- Orbital basis set information -----
Your calculation utilizes the basis: def2-TZVP
   F. Weigend and R. Ahlrichs, Phys. Chem. Chem. Phys. 7, 3297 (2005).

----- AuxJ basis set information -----
Your calculation utilizes the auxiliary basis: def2/J
   F. Weigend, Phys. Chem. Chem. Phys. 8, 1057 (2006).

================================================================================
                                        WARNINGS
                       Please study these warnings very carefully!
================================================================================


WARNING: Geometry Optimization
  ===> : Switching off AutoStart
         For restart on a previous wavefunction, please use MOREAD

INFO   : the flag for use of the SHARK integral package has been found!

================================================================================
                                       INPUT FILE
================================================================================
NAME = /home/rudenko/mop_saddle_orca_4_serv/for_orca/ch32chno2_ch3coo_new/orca/orca_start/start.inp
|  1> !  opt B3LYP def2-TZVP CPCM D3 
|  2> %pal nprocs 102 end
|  3> %cpcm epsilon 78.4 end 
|  4> *xyz -1 1 
|  5> C   0.78615 -0.728 0.06421
|  6> H   1.90845 -0.87424 0.11243
|  7> N   0.19976 -1.38625 1.28212
|  8> O   0.94573 -2.00572 2.02647
|  9> O   -0.99858 -1.2989 1.49836
| 10> C   6.41874 -2.51612 0.96451
| 11> O   5.73762 -1.99401 1.87324
| 12> O   5.89607 -3.02358 -0.05138
| 13> C   7.91763 -2.56401 1.11232
| 14> H   8.41393 -2.81652 0.16866
| 15> H   8.18405 -3.32802 1.85494
| 16> H   8.34146 -1.61535 1.46296
| 17> C   0.44612 0.75537 0.10484
| 18> H   0.85044 1.25959 0.99396
| 19> H   -0.6363 0.94147 0.09015
| 20> H   0.86071 1.27269 -0.77471
| 21> C   0.20419 -1.41783 -1.1628
| 22> H   -0.88603 -1.29784 -1.23293
| 23> H   0.41569 -2.49639 -1.18698
| 24> H   0.62056 -0.98908 -2.08746
| 25> H   4.30399 -1.65729 0.45323
| 26> O   4.08553 -0.73282 0.22917
| 27> H   4.82569 -0.27261 0.64781
| 28> *
| 29> 
| 30>                          ****END OF INPUT****
================================================================================

                       *****************************
                       * Geometry Optimization Run *
                       *****************************

Geometry optimization settings:
Update method            Update   .... BFGS
Choice of coordinates    CoordSys .... Z-matrix Internals
Initial Hessian          InHess   .... Almoef's Model

Convergence Tolerances:
Energy Change            TolE     ....  5.0000e-06 Eh
Max. Gradient            TolMAXG  ....  3.0000e-04 Eh/bohr
RMS Gradient             TolRMSG  ....  1.0000e-04 Eh/bohr
Max. Displacement        TolMAXD  ....  4.0000e-03 bohr
RMS Displacement         TolRMSD  ....  2.0000e-03 bohr
Strict Convergence                ....  False
------------------------------------------------------------------------------
                        ORCA OPTIMIZATION COORDINATE SETUP
------------------------------------------------------------------------------

The optimization will be done in new redundant internal coordinates
Making redundant internal coordinates   ...  (new redundants) done
Evaluating the initial hessian          ...  (Almloef) done
Evaluating the coordinates              ...  done
Calculating the B-matrix                .... done
Calculating the G-matrix                .... done
Diagonalizing the G-matrix              .... done
Small eigenvalue found = 2.174e-02
Small eigenvalue found = 2.653e-02
The first mode is                       ....   54
The number of degrees of freedom        ....   63

    -----------------------------------------------------------------
                    Redundant Internal Coordinates


    -----------------------------------------------------------------
         Definition                    Initial Value    Approx d2E/dq
    -----------------------------------------------------------------
      1. B(H   1,C   0)                  1.1328         0.307691   
      2. B(N   2,C   0)                  1.5035         0.368830   
      3. B(O   3,N   2)                  1.2224         0.927687   
      4. B(O   4,N   2)                  1.2208         0.933090   
      5. B(O   6,C   5)                  1.2499         0.936172   
      6. B(O   7,C   5)                  1.2501         0.935596   
      7. B(C   8,C   5)                  1.5069         0.406628   
      8. B(H   9,C   8)                  1.0957         0.352632   
      9. B(H  10,C   8)                  1.0983         0.349337   
     10. B(H  11,C   8)                  1.0966         0.351471   
     11. B(C  12,C   0)                  1.5224         0.384172   
     12. B(H  13,C  12)                  1.0992         0.348129   
     13. B(H  14,C  12)                  1.0984         0.349158   
     14. B(H  15,C  12)                  1.1014         0.345313   
     15. B(C  16,C   0)                  1.5232         0.383044   
     16. B(H  17,C  16)                  1.0990         0.348334   
     17. B(H  18,C  16)                  1.0994         0.347919   
     18. B(H  19,C  16)                  1.1010         0.345847   
     19. B(H  20,O   7)                  2.1578         0.006382   
     20. B(H  20,O   6)                  2.0458         0.009632   
     21. B(H  20,C   5)                  2.3391         0.003661   
     22. B(H  20,H   1)                  2.5432         0.000331   
     23. B(O  21,O   6)                  2.6501         0.004894   
     24. B(O  21,H   1)                  2.1848         0.005780   
     25. B(O  21,H  20)                  0.9760         0.490278   
     26. B(H  22,O   6)                  2.3014         0.003766   
     27. B(H  22,O  21)                  0.9669         0.506948   
     28. A(N   2,C   0,C  16)          107.7733         0.361849   
     29. A(C  12,C   0,C  16)          112.1754         0.366663   
     30. A(H   1,C   0,C  12)          110.2386         0.317531   
     31. A(N   2,C   0,C  12)          108.5339         0.362031   
     32. A(H   1,C   0,C  16)          110.7534         0.317379   
     33. A(H   1,C   0,N   2)          107.1816         0.313570   
     34. A(C   0,H   1,H  20)          168.1377         0.121001   
     35. A(C   0,H   1,O  21)          168.8548         0.164559   
     36. A(H  20,H   1,O  21)           22.2044         0.101864   
     37. A(C   0,N   2,O   4)          119.6695         0.417241   
     38. A(C   0,N   2,O   3)          118.4978         0.416810   
     39. A(O   3,N   2,O   4)          121.8308         0.490050   
     40. A(O   7,C   5,C   8)          118.8610         0.430425   
     41. A(O   6,C   5,C   8)          118.9461         0.430473   
     42. A(O   6,C   5,O   7)          122.1778         0.497957   
     43. A(C   5,O   6,O  21)           95.0181         0.212491   
     44. A(H  10,C   8,H  11)          106.9680         0.288361   
     45. A(H   9,C   8,H  11)          107.4385         0.288785   
     46. A(C   5,C   8,H  11)          112.8491         0.327565   
     47. A(C   5,C   8,H  10)          109.2520         0.327236   
     48. A(C   5,C   8,H   9)          111.9245         0.327743   
     49. A(H   9,C   8,H  10)          108.1891         0.288509   
     50. A(H  14,C  12,H  15)          106.3009         0.287541   
     51. A(H  13,C  12,H  15)          106.9796         0.287409   
     52. A(C   0,C  12,H  15)          110.6258         0.323577   
     53. A(H  13,C  12,H  14)          107.1922         0.287907   
     54. A(C   0,C  12,H  14)          112.6334         0.324165   
     55. A(C   0,C  12,H  13)          112.7301         0.324008   
     56. A(H  18,C  16,H  19)          106.9073         0.287451   
     57. A(H  17,C  16,H  19)          106.2026         0.287505   
     58. A(C   0,C  16,H  19)          110.8355         0.323502   
     59. A(H  17,C  16,H  18)          107.2503         0.287773   
     60. A(C   0,C  16,H  18)          112.8630         0.323820   
     61. A(C   0,C  16,H  17)          112.3930         0.323883   
     62. A(H   1,H  20,O  21)           57.7753         0.124145   
     63. A(H  20,O  21,H  22)          100.3753         0.317443   
     64. A(H   1,O  21,O   6)          128.5761         0.122652   
     65. A(O   6,O  21,H  22)           58.7137         0.181640   
     66. A(O   6,O  21,H  20)           42.8834         0.180942   
     67. A(H   1,O  21,H  22)          144.7601         0.172613   
     68. A(H   1,O  21,H  20)          100.0203         0.171983   
     69. D(O  21,H   1,C   0,C  12)      0.9321         0.090658   
     70. D(H  20,H   1,C   0,C  16)    -84.5098         0.090658   
     71. D(H  20,H   1,C   0,N   2)     32.8030         0.090658   
     72. D(O  21,H   1,C   0,N   2)   -117.0117         0.090658   
     73. D(O  21,H   1,C   0,C  16)    125.6756         0.090658   
     74. D(H  20,H   1,C   0,C  12)    150.7468         0.090658   
     75. D(O   4,N   2,C   0,C  16)    -64.8963         0.011676   
     76. D(O   3,N   2,C   0,H   1)     -4.6377         0.011676   
     77. D(O   4,N   2,C   0,C  12)     56.8061         0.011676   
     78. D(O   4,N   2,C   0,H   1)    175.8550         0.011676   
     79. D(O   3,N   2,C   0,C  16)    114.6110         0.011676   
     80. D(O   3,N   2,C   0,C  12)   -123.6866         0.011676   
     81. D(O  21,O   6,C   5,O   7)    -42.8448         0.091567   
     82. D(O  21,O   6,C   5,C   8)    138.5842         0.091567   
     83. D(H   9,C   8,C   5,O   6)   -166.2486         0.013104   
     84. D(H  11,C   8,C   5,O   7)    136.4749         0.013104   
     85. D(H  10,C   8,C   5,O   7)   -104.6689         0.013104   
     86. D(H  11,C   8,C   5,O   6)    -44.9062         0.013104   
     87. D(H   9,C   8,C   5,O   7)     15.1324         0.013104   
     88. D(H  10,C   8,C   5,O   6)     73.9500         0.013104   
     89. D(H  15,C  12,C   0,C  16)    -61.0345         0.011750   
     90. D(H  15,C  12,C   0,N   2)    179.9981         0.011750   
     91. D(H  14,C  12,C   0,C  16)     57.7726         0.011750   
     92. D(H  14,C  12,C   0,N   2)    -61.1948         0.011750   
     93. D(H  14,C  12,C   0,H   1)   -178.3026         0.011750   
     94. D(H  15,C  12,C   0,H   1)     62.8903         0.011750   
     95. D(H  13,C  12,C   0,C  16)    179.2307         0.011750   
     96. D(H  13,C  12,C   0,N   2)     60.2633         0.011750   
     97. D(H  13,C  12,C   0,H   1)    -56.8445         0.011750   
     98. D(H  17,C  16,C   0,N   2)     62.7098         0.011684   
     99. D(H  17,C  16,C   0,H   1)    179.6589         0.011684   
    100. D(H  19,C  16,C   0,C  12)     61.9629         0.011684   
    101. D(H  19,C  16,C   0,N   2)   -178.6233         0.011684   
    102. D(H  19,C  16,C   0,H   1)    -61.6743         0.011684   
    103. D(H  18,C  16,C   0,C  12)   -178.1578         0.011684   
    104. D(H  18,C  16,C   0,N   2)    -58.7440         0.011684   
    105. D(H  18,C  16,C   0,H   1)     58.2051         0.011684   
    106. D(H  17,C  16,C   0,C  12)    -56.7039         0.011684   
    107. D(O  21,H  20,H   1,C   0)   -165.0976         0.001501   
    108. D(O   6,O  21,H  20,H   1)    137.7522         0.414847   
    109. D(H  22,O  21,H  20,H   1)    151.1080         0.414847   
    110. D(H  22,O  21,O   6,C   5)    -99.5939         0.001502   
    111. D(H  20,O  21,O   6,C   5)     64.9867         0.001502   
    112. D(O   6,O  21,H   1,H  20)    -35.8202         0.001521   
    113. D(O   6,O  21,H   1,C   0)    128.3077         0.001521   
    114. D(H   1,O  21,O   6,C   5)    122.8617         0.001502   
    115. D(H  22,O  21,H   1,H  20)   -124.5459         0.001521   
    116. D(H  22,O  21,H   1,C   0)     39.5820         0.001521   
    117. D(H  20,O  21,H   1,C   0)    164.1279         0.001521   
    -----------------------------------------------------------------

Number of atoms                         .... 23
Number of degrees of freedom            .... 117

         *************************************************************
         *                GEOMETRY OPTIMIZATION CYCLE   1            *
         *************************************************************
---------------------------------
CARTESIAN COORDINATES (ANGSTROEM)
---------------------------------
  C      0.786150   -0.728000    0.064210
  H      1.908450   -0.874240    0.112430
  N      0.199760   -1.386250    1.282120
  O      0.945730   -2.005720    2.026470
  O     -0.998580   -1.298900    1.498360
  C      6.418740   -2.516120    0.964510
  O      5.737620   -1.994010    1.873240
  O      5.896070   -3.023580   -0.051380
  C      7.917630   -2.564010    1.112320
  H      8.413930   -2.816520    0.168660
  H      8.184050   -3.328020    1.854940
  H      8.341460   -1.615350    1.462960
  C      0.446120    0.755370    0.104840
  H      0.850440    1.259590    0.993960
  H     -0.636300    0.941470    0.090150
  H      0.860710    1.272690   -0.774710
  C      0.204190   -1.417830   -1.162800
  H     -0.886030   -1.297840   -1.232930
  H      0.415690   -2.496390   -1.186980
  H      0.620560   -0.989080   -2.087460
  H      4.303990   -1.657290    0.453230
  O      4.085530   -0.732820    0.229170
  H      4.825690   -0.272610    0.647810

----------------------------
CARTESIAN COORDINATES (A.U.)
----------------------------
  NO LB      ZA    FRAG     MASS         X           Y           Z
   0 C     6.0000    0    12.011    1.485608   -1.375721    0.121339
   1 H     1.0000    0     1.008    3.606448   -1.652074    0.212462
   2 N     7.0000    0    14.007    0.377492   -2.619633    2.422856
   3 O     8.0000    0    15.999    1.787171   -3.790262    3.829473
   4 O     8.0000    0    15.999   -1.887043   -2.454565    2.831490
   5 C     6.0000    0    12.011   12.129661   -4.754778    1.822660
   6 O     8.0000    0    15.999   10.842530   -3.768133    3.539911
   7 O     8.0000    0    15.999   11.141958   -5.713738   -0.097094
   8 C     6.0000    0    12.011   14.962152   -4.845277    2.101980
   9 H     1.0000    0     1.008   15.900023   -5.322451    0.318721
  10 H     1.0000    0     1.008   15.465613   -6.289046    3.505329
  11 H     1.0000    0     1.008   15.763075   -3.052569    2.764594
  12 C     6.0000    0    12.011    0.843045    1.427442    0.198119
  13 H     1.0000    0     1.008    1.607099    2.380280    1.878312
  14 H     1.0000    0     1.008   -1.202433    1.779120    0.170359
  15 H     1.0000    0     1.008    1.626506    2.405036   -1.463990
  16 C     6.0000    0    12.011    0.385863   -2.679310   -2.197374
  17 H     1.0000    0     1.008   -1.674354   -2.452562   -2.329900
  18 H     1.0000    0     1.008    0.785540   -4.717493   -2.243067
  19 H     1.0000    0     1.008    1.172688   -1.869090   -3.944728
  20 H     1.0000    0     1.008    8.133362   -3.131824    0.856481
  21 O     8.0000    0    15.999    7.720533   -1.384829    0.433069
  22 H     1.0000    0     1.008    9.119233   -0.515158    1.224183

--------------------------------
INTERNAL COORDINATES (ANGSTROEM)
--------------------------------
 C      0   0   0     0.000000000000     0.00000000     0.00000000
 H      1   0   0     1.132814457888     0.00000000     0.00000000
 N      1   2   0     1.503479651575   107.18155646     0.00000000
 O      3   1   2     1.222403879370   118.49777915   355.36229188
 O      3   1   2     1.220822884656   119.66951835   175.85497151
 C      2   1   3     4.874887295610   165.36187316    27.57528741
 O      6   2   1     1.249925405534    58.81633114   286.62927039
 O      6   2   1     1.250092825593    66.91126529    85.81022496
 C      6   2   1     1.506921524267   161.46438500   198.09087038
 H      9   6   2     1.095704880750   111.92445791   271.52695257
 H      9   6   2     1.098260151740   109.25198167   151.72559834
 H      9   6   2     1.096602058223   112.84906996    32.86941955
 C      1   2   3     1.522385547324   110.23859219   117.94385795
 H     13   1   2     1.099202822595   112.73005132   303.15550860
 H     13   1   2     1.098399773534   112.63339066   181.69742900
 H     13   1   2     1.101414115127   110.62584193    62.89028601
 C      1   2   3     1.523186269174   110.75336127   242.68728853
 H     17   1   2     1.099042977049   112.39304631   179.65891091
 H     17   1   2     1.099367361713   112.86299155    58.20505081
 H     17   1   2     1.100993485448   110.83548949   298.32572945
 H      7   6   2     2.045752608553    86.90347472   357.01445490
 O     21   7   6     0.975998174230   118.17157563   244.69645640
 H     22  21   7     0.966896850393   100.37533872    13.35576218

---------------------------
INTERNAL COORDINATES (A.U.)
---------------------------
 C      0   0   0     0.000000000000     0.00000000     0.00000000
 H      1   0   0     2.140709085955     0.00000000     0.00000000
 N      1   2   0     2.841164789400   107.18155646     0.00000000
 O      3   1   2     2.310008557053   118.49777915   355.36229188
 O      3   1   2     2.307020910024   119.66951835   175.85497151
 C      2   1   3     9.212201922435   165.36187316    27.57528741
 O      6   2   1     2.362016704290    58.81633114   286.62927039
 O      6   2   1     2.362333082351    66.91126529    85.81022496
 C      6   2   1     2.847668986176   161.46438500   198.09087038
 H      9   6   2     2.070582148219   111.92445791   271.52695257
 H      9   6   2     2.075410910587   109.25198167   151.72559834
 H      9   6   2     2.072277567937   112.84906996    32.86941955
 C      1   2   3     2.876891754682   110.23859219   117.94385795
 H     13   1   2     2.077192300337   112.73005132   303.15550860
 H     13   1   2     2.075674757541   112.63339066   181.69742900
 H     13   1   2     2.081371037624   110.62584193    62.89028601
 C      1   2   3     2.878404899688   110.75336127   242.68728853
 H     17   1   2     2.076890236031   112.39304631   179.65891091
 H     17   1   2     2.077503234209   112.86299155    58.20505081
 H     17   1   2     2.080576162729   110.83548949   298.32572945
 H      7   6   2     3.865912167920    86.90347472   357.01445490
 O     21   7   6     1.844369256502   118.17157563   244.69645640
 H     22  21   7     1.827170246994   100.37533872    13.35576218

---------------------
BASIS SET INFORMATION
---------------------
There are 4 groups of distinct atoms

 Group   1 Type C   : 11s6p2d1f contracted to 5s3p2d1f pattern {62111/411/11/1}
 Group   2 Type H   : 5s1p contracted to 3s1p pattern {311/1}
 Group   3 Type N   : 11s6p2d1f contracted to 5s3p2d1f pattern {62111/411/11/1}
 Group   4 Type O   : 11s6p2d1f contracted to 5s3p2d1f pattern {62111/411/11/1}

Atom   0C    basis set group =>   1
Atom   1H    basis set group =>   2
Atom   2N    basis set group =>   3
Atom   3O    basis set group =>   4
Atom   4O    basis set group =>   4
Atom   5C    basis set group =>   1
Atom   6O    basis set group =>   4
Atom   7O    basis set group =>   4
Atom   8C    basis set group =>   1
Atom   9H    basis set group =>   2
Atom  10H    basis set group =>   2
Atom  11H    basis set group =>   2
Atom  12C    basis set group =>   1
Atom  13H    basis set group =>   2
Atom  14H    basis set group =>   2
Atom  15H    basis set group =>   2
Atom  16C    basis set group =>   1
Atom  17H    basis set group =>   2
Atom  18H    basis set group =>   2
Atom  19H    basis set group =>   2
Atom  20H    basis set group =>   2
Atom  21O    basis set group =>   4
Atom  22H    basis set group =>   2
---------------------------------
AUXILIARY/J BASIS SET INFORMATION
---------------------------------
There are 4 groups of distinct atoms

 Group   1 Type C   : 12s5p4d2f1g contracted to 6s4p3d1f1g pattern {711111/2111/211/2/1}
 Group   2 Type H   : 5s2p1d contracted to 3s1p1d pattern {311/2/1}
 Group   3 Type N   : 12s5p4d2f1g contracted to 6s4p3d1f1g pattern {711111/2111/211/2/1}
 Group   4 Type O   : 12s5p4d2f1g contracted to 6s4p3d1f1g pattern {711111/2111/211/2/1}

Atom   0C    basis set group =>   1
Atom   1H    basis set group =>   2
Atom   2N    basis set group =>   3
Atom   3O    basis set group =>   4
Atom   4O    basis set group =>   4
Atom   5C    basis set group =>   1
Atom   6O    basis set group =>   4
Atom   7O    basis set group =>   4
Atom   8C    basis set group =>   1
Atom   9H    basis set group =>   2
Atom  10H    basis set group =>   2
Atom  11H    basis set group =>   2
Atom  12C    basis set group =>   1
Atom  13H    basis set group =>   2
Atom  14H    basis set group =>   2
Atom  15H    basis set group =>   2
Atom  16C    basis set group =>   1
Atom  17H    basis set group =>   2
Atom  18H    basis set group =>   2
Atom  19H    basis set group =>   2
Atom  20H    basis set group =>   2
Atom  21O    basis set group =>   4
Atom  22H    basis set group =>   2


           ************************************************************
           *        Program running with 102 parallel MPI-processes   *
           *              working on a common directory               *
           ************************************************************
------------------------------------------------------------------------------
                           ORCA GTO INTEGRAL CALCULATION
                           -- RI-GTO INTEGRALS CHOSEN --
------------------------------------------------------------------------------
------------------------------------------------------------------------------
                   ___                                                        
                  /   \      - P O W E R E D   B Y -                         
                 /     \                                                     
                 |  |  |   _    _      __       _____    __    __             
                 |  |  |  | |  | |    /  \     |  _  \  |  |  /  |          
                  \  \/   | |  | |   /    \    | | | |  |  | /  /          
                 / \  \   | |__| |  /  /\  \   | |_| |  |  |/  /          
                |  |  |   |  __  | /  /__\  \  |    /   |      \           
                |  |  |   | |  | | |   __   |  |    \   |  |\   \          
                \     /   | |  | | |  |  |  |  | |\  \  |  | \   \       
                 \___/    |_|  |_| |__|  |__|  |_| \__\ |__|  \__/        
                                                                              
                      - O R C A' S   B I G   F R I E N D -                    
                                      &                                       
                       - I N T E G R A L  F E E D E R -                       
                                                                              
 v1 FN, 2020, v2 2021                                                         
------------------------------------------------------------------------------


Reading SHARK input file /home/rudenko/mop_saddle_orca_4_serv/for_orca/ch32chno2_ch3coo_new/orca/orca_start/start.SHARKINP.tmp ... ok
----------------------
SHARK INTEGRAL PACKAGE
----------------------

Number of atoms                             ...     23
Number of basis functions                   ...    413
Number of shells                            ...    169
Maximum angular momentum                    ...      3
Integral batch strategy                     ... SHARK/LIBINT Hybrid
RI-J (if used) integral strategy            ... SPLIT-RIJ (Revised 2003 algorithm where possible)
Printlevel                                  ...      1
Contraction scheme used                     ... SEGMENTED contraction
Coulomb Range Separation                    ... NOT USED
Exchange Range Separation                   ... NOT USED
Finite Nucleus Model                        ... NOT USED
Auxiliary Coulomb fitting basis             ... AVAILABLE
   # of basis functions in Aux-J            ...    671
   # of shells in Aux-J                     ...    225
   Maximum angular momentum in Aux-J        ...      4
Auxiliary J/K fitting basis                 ... NOT available
Auxiliary Correlation fitting basis         ... NOT available
Auxiliary 'external' fitting basis          ... NOT available
Integral threshold                          ...     2.500000e-11
Primitive cut-off                           ...     2.500000e-12
Primitive pair pre-selection threshold      ...     2.500000e-12

Calculating pre-screening integrals         ... done (  0.0 sec) Dimension = 169
Organizing shell pair data                  ... done (  0.2 sec)
Shell pair information
Total number of shell pairs                 ...     14365
Shell pairs after pre-screening             ...     10177
Total number of primitive shell pairs       ...     43056
Primitive shell pairs kept                  ...     21534
          la=0 lb=0:   2969 shell pairs
          la=1 lb=0:   3016 shell pairs
          la=1 lb=1:    808 shell pairs
          la=2 lb=0:   1345 shell pairs
          la=2 lb=1:    700 shell pairs
          la=2 lb=2:    166 shell pairs
          la=3 lb=0:    656 shell pairs
          la=3 lb=1:    339 shell pairs
          la=3 lb=2:    139 shell pairs
          la=3 lb=3:     39 shell pairs

Calculating one electron integrals          ... done (  0.1 sec)
Calculating RI/J V-Matrix + Cholesky decomp.... done (  0.0 sec)
Calculating Nuclear repulsion               ... done (  0.0 sec) ENN=    610.734472696187 Eh

SHARK setup successfully completed in   0.6 seconds

Maximum memory used throughout the entire GTOINT-calculation: 23.0 MB


           ************************************************************
           *        Program running with 102 parallel MPI-processes   *
           *              working on a common directory               *
           ************************************************************
-------------------------------------------------------------------------------
                                 ORCA SCF
-------------------------------------------------------------------------------

------------
SCF SETTINGS
------------
Hamiltonian:
 Density Functional     Method          .... DFT(GTOs)
 Exchange Functional    Exchange        .... B88
   X-Alpha parameter    XAlpha          ....  0.666667
   Becke's b parameter  XBeta           ....  0.004200
 Correlation Functional Correlation     .... LYP
 LDA part of GGA corr.  LDAOpt          .... VWN-5
 Gradients option       PostSCFGGA      .... off
 Hybrid DFT is turned on
   Fraction HF Exchange ScalHFX         ....  0.200000
   Scaling of DF-GGA-X  ScalDFX         ....  0.720000
   Scaling of DF-GGA-C  ScalDFC         ....  0.810000
   Scaling of DF-LDA-C  ScalLDAC        ....  1.000000
   Perturbative correction              ....  0.000000
   Density functional embedding theory  .... OFF
   NL short-range parameter             ....  4.800000
 RI-approximation to the Coulomb term is turned on
   Number of AuxJ basis functions       .... 671
   RIJ-COSX (HFX calculated with COS-X)).... on


General Settings:
 Integral files         IntName         .... /home/rudenko/mop_saddle_orca_4_serv/for_orca/ch32chno2_ch3coo_new/orca/orca_start/start
 Hartree-Fock type      HFTyp           .... RHF
 Total Charge           Charge          ....   -1
 Multiplicity           Mult            ....    1
 Number of Electrons    NEL             ....   90
 Basis Dimension        Dim             ....  413
 Nuclear Repulsion      ENuc            ....    610.7344726962 Eh

Convergence Acceleration:
 DIIS                   CNVDIIS         .... on
   Start iteration      DIISMaxIt       ....    12
   Startup error        DIISStart       ....  0.200000
   # of expansion vecs  DIISMaxEq       ....     5
   Bias factor          DIISBfac        ....   1.050
   Max. coefficient     DIISMaxC        ....  10.000
 Trust-Rad. Augm. Hess. CNVTRAH         .... auto
   Auto Start mean grad. ratio tolernc. ....  1.125000
   Auto Start start iteration           ....    20
   Auto Start num. interpolation iter.  ....    10
   Max. Number of Micro iterations      ....    16
   Max. Number of Macro iterations      .... Maxiter - #DIIS iter
   Number of Davidson start vectors     ....     2
   Converg. threshold I  (grad. norm)   ....   1.000e-05
   Converg. threshold II (energy diff.) ....   1.000e-08
   Grad. Scal. Fac. for Micro threshold ....   0.100
   Minimum threshold for Micro iter.    ....   0.010
   NR start threshold (gradient norm)   ....   0.001
   Initial trust radius                 ....   0.400
   Minimum AH scaling param. (alpha)    ....   1.000
   Maximum AH scaling param. (alpha)    .... 1000.000
   Orbital update algorithm             .... Taylor
   White noise on init. David. guess    .... on
   Maximum white noise                  ....   0.010
   Quad. conv. algorithm                .... NR
 SOSCF                  CNVSOSCF        .... on
   Start iteration      SOSCFMaxIt      ....   150
   Startup grad/error   SOSCFStart      ....  0.003300
 Level Shifting         CNVShift        .... on
   Level shift para.    LevelShift      ....    0.2500
   Turn off err/grad.   ShiftErr        ....    0.0010
 Zerner damping         CNVZerner       .... off
 Static damping         CNVDamp         .... on
   Fraction old density DampFac         ....    0.7000
   Max. Damping (<1)    DampMax         ....    0.9800
   Min. Damping (>=0)   DampMin         ....    0.0000
   Turn off err/grad.   DampErr         ....    0.1000
 Fernandez-Rico         CNVRico         .... off

SCF Procedure:
 Maximum # iterations   MaxIter         ....   125
 SCF integral mode      SCFMode         .... Direct
   Integral package                     .... SHARK and LIBINT hybrid scheme
 Reset frequency        DirectResetFreq ....    20
 Integral Threshold     Thresh          ....  2.500e-11 Eh
 Primitive CutOff       TCut            ....  2.500e-12 Eh

Convergence Tolerance:
 Convergence Check Mode ConvCheckMode   .... Total+1el-Energy
 Convergence forced     ConvForced      .... 0
 Energy Change          TolE            ....  1.000e-08 Eh
 1-El. energy change                    ....  1.000e-05 Eh
 Orbital Gradient       TolG            ....  1.000e-05
 Orbital Rotation angle TolX            ....  1.000e-05
 DIIS Error             TolErr          ....  5.000e-07


Diagonalization of the overlap matrix:
Smallest eigenvalue                        ... 1.983e-04
Time for diagonalization                   ...    0.077 sec
Threshold for overlap eigenvalues          ... 1.000e-08
Number of eigenvalues below threshold      ... 0
Time for construction of square roots      ...    0.096 sec
Total time needed                          ...    0.175 sec

Time for model grid setup =    0.150 sec

------------------------------
INITIAL GUESS: MODEL POTENTIAL
------------------------------
Loading Hartree-Fock densities                     ... done
Calculating cut-offs                               ... done
Initializing the effective Hamiltonian             ... done
Setting up the integral package (SHARK)            ... done
Starting the Coulomb interaction                   ... done (   0.0 sec)
Reading the grid                                   ... done
Mapping shells                                     ... done
Starting the XC term evaluation                    ... done (   0.0 sec)
  promolecular density results
     # of electrons  =     88.997494139
     EX              =    -76.752579176
     EC              =     -3.049087300
     EX+EC           =    -79.801666476
Transforming the Hamiltonian                       ... done (   0.1 sec)
Diagonalizing the Hamiltonian                      ... done (   0.1 sec)
Back transforming the eigenvectors                 ... done (   0.0 sec)
Now organizing SCF variables                       ... done
                      ------------------
                      INITIAL GUESS DONE (   0.4 sec)
                      ------------------
-------------------
DFT GRID GENERATION
-------------------

General Integration Accuracy     IntAcc      ... 4.388
Radial Grid Type                 RadialGrid  ... OptM3 with GC (2021)
Angular Grid (max. ang.)         AngularGrid ... 4 (Lebedev-302)
Angular grid pruning method      GridPruning ... 4 (adaptive)
Weight generation scheme         WeightScheme... Becke
Basis function cutoff            BFCut       ... 1.0000e-11
Integration weight cutoff        WCut        ... 1.0000e-14
Angular grids for H and He will be reduced by one unit
Partially contracted basis set               ... off
Rotationally invariant grid construction     ... off

Total number of grid points                  ...   105389
Total number of batches                      ...     1656
Average number of points per batch           ...       63
Average number of grid points per atom       ...     4582
Time for grid setup =    0.832 sec

--------------------
COSX GRID GENERATION
--------------------

GRIDX 1
-------
General Integration Accuracy     IntAcc      ... 3.816
Radial Grid Type                 RadialGrid  ... OptM3 with GC (2021)
Angular Grid (max. ang.)         AngularGrid ... 1 (Lebedev-50)
Angular grid pruning method      GridPruning ... 4 (adaptive)
Weight generation scheme         WeightScheme... Becke
Basis function cutoff            BFCut       ... 1.0000e-11
Integration weight cutoff        WCut        ... 1.0000e-14
Angular grids for H and He will be reduced by one unit
Partially contracted basis set               ... on
Rotationally invariant grid construction     ... off

Total number of grid points                  ...    13477
Total number of batches                      ...      224
Average number of points per batch           ...       60
Average number of grid points per atom       ...      586
UseSFitting                                  ... on

GRIDX 2
-------
General Integration Accuracy     IntAcc      ... 4.020
Radial Grid Type                 RadialGrid  ... OptM3 with GC (2021)
Angular Grid (max. ang.)         AngularGrid ... 2 (Lebedev-110)
Angular grid pruning method      GridPruning ... 4 (adaptive)
Weight generation scheme         WeightScheme... Becke
Basis function cutoff            BFCut       ... 1.0000e-11
Integration weight cutoff        WCut        ... 1.0000e-14
Angular grids for H and He will be reduced by one unit
Partially contracted basis set               ... on
Rotationally invariant grid construction     ... off

Total number of grid points                  ...    29083
Total number of batches                      ...      467
Average number of points per batch           ...       62
Average number of grid points per atom       ...     1264
UseSFitting                                  ... on

GRIDX 3
-------
General Integration Accuracy     IntAcc      ... 4.338
Radial Grid Type                 RadialGrid  ... OptM3 with GC (2021)
Angular Grid (max. ang.)         AngularGrid ... 3 (Lebedev-194)
Angular grid pruning method      GridPruning ... 4 (adaptive)
Weight generation scheme         WeightScheme... Becke
Basis function cutoff            BFCut       ... 1.0000e-11
Integration weight cutoff        WCut        ... 1.0000e-14
Angular grids for H and He will be reduced by one unit
Partially contracted basis set               ... on
Rotationally invariant grid construction     ... off

Total number of grid points                  ...    63830
Total number of batches                      ...     1007
Average number of points per batch           ...       63
Average number of grid points per atom       ...     2775
UseSFitting                                  ... on

Time for X-Grid setup             =    0.944 sec


--------------------
CPCM SOLVATION MODEL
--------------------
CPCM parameters:
  Epsilon                                         ...      78.4000
  Refrac                                          ...       1.3300
  Rsolv                                           ...       1.3000
  Surface type                                    ... GAUSSIAN VDW
  Epsilon function type                           ...         CPCM
Radii:
 Radius for C  used is    3.8550 Bohr (=   2.0400 Ang.)
 Radius for H  used is    2.4944 Bohr (=   1.3200 Ang.)
 Radius for N  used is    3.5149 Bohr (=   1.8600 Ang.)
 Radius for O  used is    3.4469 Bohr (=   1.8240 Ang.)
Calculating surface                               ...        done! (  0.0s)
GEPOL surface points                              ...         1370
GEPOL Volume                                      ...    1433.8715
GEPOL Surface-area                                ...     878.8031
Calculating surface distance matrix               ...        done! (  0.1s)
Performing Cholesky decomposition & store         ...        done! (  0.4s)
Overall time for CPCM initialization              ...                 0.5s
--------------
SCF ITERATIONS
--------------
ITER       Energy         Delta-E        Max-DP      RMS-DP      [F,P]     Damp
               ***  Starting incremental Fock matrix formation  ***
  0   -628.0665598032   0.000000000000 0.08622559  0.00122896  0.3396212 0.7000
  1   -628.3574690895  -0.290909286274 0.09575228  0.00092202  0.1382962 0.7000
                               ***Turning on DIIS***
  2   -628.4564247987  -0.098955709166 0.13291811  0.00136888  0.0465698 0.0000
  3   -628.6256317080  -0.169206909309 0.08816234  0.00067213  0.0796082 0.0000
  4   -628.6590417766  -0.033410068571 0.03556514  0.00025004  0.0209005 0.0000
  5   -628.6613064011  -0.002264624487 0.01348043  0.00009425  0.0040723 0.0000
                      *** Initiating the SOSCF procedure ***
                           *** Shutting down DIIS ***
                      *** Re-Reading the Fockian *** 
                      *** Removing any level shift *** 
ITER      Energy       Delta-E        Grad      Rot      Max-DP    RMS-DP
  6   -628.66141224  -0.0001058360  0.000367  0.000367  0.005480  0.000039
               *** Restarting incremental Fock matrix formation ***
  7   -628.66139571   0.0000165308  0.000265  0.000572  0.003603  0.000027
  8   -628.66139497   0.0000007411  0.000470  0.000380  0.001006  0.000008
  9   -628.66139830  -0.0000033354  0.000075  0.000117  0.000553  0.000004
 10   -628.66139824   0.0000000558  0.000089  0.000075  0.000053  0.000001
 11   -628.66139836  -0.0000001170  0.000023  0.000076  0.000138  0.000001
 12   -628.66139835   0.0000000100  0.000047  0.000058  0.000046  0.000000
 13   -628.66139837  -0.0000000177  0.000006  0.000013  0.000047  0.000000
 14   -628.66139837   0.0000000024  0.000006  0.000006  0.000028  0.000000
                  ***Gradient check signals convergence***
              ***Rediagonalizing the Fockian in SOSCF/NRSCF***

               *****************************************************
               *                     SUCCESS                       *
               *           SCF CONVERGED AFTER  15 CYCLES          *
               *****************************************************

Old exchange energy                            =    -15.609397482 Eh
New exchange energy                            =    -15.609369095 Eh
Exchange energy change after final integration =      0.000028387 Eh
Total energy after final integration           =   -628.661369983 Eh
Final COS-X integration done in                =     0.844 sec

----------------
TOTAL SCF ENERGY
----------------

Total Energy       :         -628.66136998 Eh          -17106.74557 eV

Components:
Nuclear Repulsion  :          610.73447270 Eh           16618.92989 eV
Electronic Energy  :        -1239.39584268 Eh          -33725.67546 eV
One Electron Energy:        -2085.51815884 Eh          -56749.83421 eV
Two Electron Energy:          846.12231616 Eh           23024.15875 eV
Max COSX asymmetry :            0.00000106 Eh               0.00003 eV
CPCM Dielectric    :           -0.11003976 Eh              -2.99433 eV

Virial components:
Potential Energy   :        -1254.80658966 Eh          -34145.02320 eV
Kinetic Energy     :          626.14521968 Eh           17038.27764 eV
Virial Ratio       :            2.00401848


DFT components:
N(Alpha)           :       45.000039651004 electrons
N(Beta)            :       45.000039651004 electrons
N(Total)           :       90.000079302009 electrons
E(X)               :      -62.170355289003 Eh       
E(C)               :       -3.638606369353 Eh       
E(XC)              :      -65.808961658356 Eh       
DFET-embed. en.    :        0.000000000000 Eh       
CPCM Solvation Model Properties:
Surface-charge          :            0.96955321
Charge-correction       :           -0.00410631 Eh              -0.11174 eV
Free-energy (cav+disp)  :  This term is not implemented in the current solvation scheme

---------------
SCF CONVERGENCE
---------------

  Last Energy change         ...   -2.5575e-09  Tolerance :   1.0000e-08
  Last MAX-Density change    ...    2.1094e-15  Tolerance :   1.0000e-07
  Last RMS-Density change    ...    1.7588e-17  Tolerance :   5.0000e-09
  Last Orbital Gradient      ...    8.2520e-07  Tolerance :   1.0000e-05
  Last Orbital Rotation      ...    2.5025e-06  Tolerance :   1.0000e-05

             **** THE GBW FILE WAS UPDATED (/home/rudenko/mop_saddle_orca_4_serv/for_orca/ch32chno2_ch3coo_new/orca/orca_start/start.gbw) ****
             **** DENSITY /home/rudenko/mop_saddle_orca_4_serv/for_orca/ch32chno2_ch3coo_new/orca/orca_start/start.scfp WAS UPDATED ****
             **** ENERGY FILE WAS UPDATED (/home/rudenko/mop_saddle_orca_4_serv/for_orca/ch32chno2_ch3coo_new/orca/orca_start/start.en.tmp) ****
             **** THE GBW FILE WAS UPDATED (/home/rudenko/mop_saddle_orca_4_serv/for_orca/ch32chno2_ch3coo_new/orca/orca_start/start.gbw) ****
             **** DENSITY /home/rudenko/mop_saddle_orca_4_serv/for_orca/ch32chno2_ch3coo_new/orca/orca_start/start.scfp WAS UPDATED ****
----------------
ORBITAL ENERGIES
----------------

  NO   OCC          E(Eh)            E(eV) 
   0   2.0000     -19.165486      -521.5194 
   1   2.0000     -19.165129      -521.5097 
   2   2.0000     -19.096609      -519.6451 
   3   2.0000     -19.049119      -518.3529 
   4   2.0000     -19.047466      -518.3079 
   5   2.0000     -14.548691      -395.8900 
   6   2.0000     -10.237863      -278.5864 
   7   2.0000     -10.230456      -278.3849 
   8   2.0000     -10.170169      -276.7444 
   9   2.0000     -10.169126      -276.7160 
  10   2.0000     -10.145735      -276.0795 
  11   2.0000      -1.238375       -33.6979 
  12   2.0000      -1.059858       -28.8402 
  13   2.0000      -1.022022       -27.8106 
  14   2.0000      -0.981115       -26.6975 
  15   2.0000      -0.921038       -25.0627 
  16   2.0000      -0.840608       -22.8741 
  17   2.0000      -0.705653       -19.2018 
  18   2.0000      -0.697295       -18.9744 
  19   2.0000      -0.697014       -18.9667 
  20   2.0000      -0.584437       -15.9033 
  21   2.0000      -0.540501       -14.7078 
  22   2.0000      -0.534722       -14.5505 
  23   2.0000      -0.519774       -14.1438 
  24   2.0000      -0.497349       -13.5336 
  25   2.0000      -0.485982       -13.2242 
  26   2.0000      -0.456652       -12.4261 
  27   2.0000      -0.427027       -11.6200 
  28   2.0000      -0.420054       -11.4303 
  29   2.0000      -0.416498       -11.3335 
  30   2.0000      -0.411157       -11.1882 
  31   2.0000      -0.405878       -11.0445 
  32   2.0000      -0.386731       -10.5235 
  33   2.0000      -0.385050       -10.4777 
  34   2.0000      -0.365115        -9.9353 
  35   2.0000      -0.357429        -9.7261 
  36   2.0000      -0.351303        -9.5594 
  37   2.0000      -0.339850        -9.2478 
  38   2.0000      -0.325176        -8.8485 
  39   2.0000      -0.316324        -8.6076 
  40   2.0000      -0.300880        -8.1874 
  41   2.0000      -0.294065        -8.0019 
  42   2.0000      -0.244105        -6.6424 
  43   2.0000      -0.237644        -6.4666 
  44   2.0000      -0.220521        -6.0007 
  45   0.0000      -0.077300        -2.1034 
  46   0.0000       0.040472         1.1013 
  47   0.0000       0.056797         1.5455 
  48   0.0000       0.059664         1.6235 
  49   0.0000       0.080724         2.1966 
  50   0.0000       0.081951         2.2300 
  51   0.0000       0.095612         2.6017 
  52   0.0000       0.107656         2.9295 
  53   0.0000       0.118629         3.2281 
  54   0.0000       0.127961         3.4820 
  55   0.0000       0.131372         3.5748 
  56   0.0000       0.136146         3.7047 
  57   0.0000       0.141511         3.8507 
  58   0.0000       0.146091         3.9754 
  59   0.0000       0.153314         4.1719 
  60   0.0000       0.158295         4.3074 
  61   0.0000       0.170628         4.6430 
  62   0.0000       0.186219         5.0673 
  63   0.0000       0.197602         5.3770 
  64   0.0000       0.202090         5.4991 
  65   0.0000       0.209625         5.7042 
  66   0.0000       0.214488         5.8365 
  67   0.0000       0.231520         6.3000 
  68   0.0000       0.237290         6.4570 
  69   0.0000       0.242861         6.6086 
  70   0.0000       0.254456         6.9241 
  71   0.0000       0.259561         7.0630 
  72   0.0000       0.286810         7.8045 
  73   0.0000       0.306704         8.3458 
  74   0.0000       0.316499         8.6124 
  75   0.0000       0.322616         8.7788 
  76   0.0000       0.328340         8.9346 
  77   0.0000       0.348196         9.4749 
  78   0.0000       0.370481        10.0813 
  79   0.0000       0.373956        10.1759 
  80   0.0000       0.380882        10.3643 
  81   0.0000       0.396677        10.7941 
  82   0.0000       0.402038        10.9400 
  83   0.0000       0.410842        11.1796 
  84   0.0000       0.416225        11.3260 
  85   0.0000       0.419166        11.4061 
  86   0.0000       0.422623        11.5002 
  87   0.0000       0.433309        11.7909 
  88   0.0000       0.433615        11.7993 
  89   0.0000       0.436853        11.8874 
  90   0.0000       0.452772        12.3206 
  91   0.0000       0.456119        12.4116 
  92   0.0000       0.457753        12.4561 
  93   0.0000       0.463426        12.6105 
  94   0.0000       0.473087        12.8734 
  95   0.0000       0.477782        13.0011 
  96   0.0000       0.482278        13.1234 
  97   0.0000       0.486372        13.2349 
  98   0.0000       0.494819        13.4647 
  99   0.0000       0.510871        13.9015 
 100   0.0000       0.516072        14.0430 
 101   0.0000       0.523332        14.2406 
 102   0.0000       0.533134        14.5073 
 103   0.0000       0.540622        14.7111 
 104   0.0000       0.554302        15.0833 
 105   0.0000       0.563678        15.3385 
 106   0.0000       0.571072        15.5397 
 107   0.0000       0.588169        16.0049 
 108   0.0000       0.600922        16.3519 
 109   0.0000       0.610056        16.6005 
 110   0.0000       0.617757        16.8100 
 111   0.0000       0.624523        16.9941 
 112   0.0000       0.628423        17.1003 
 113   0.0000       0.636738        17.3265 
 114   0.0000       0.651473        17.7275 
 115   0.0000       0.663278        18.0487 
 116   0.0000       0.681905        18.5556 
 117   0.0000       0.700275        19.0554 
 118   0.0000       0.720596        19.6084 
 119   0.0000       0.746343        20.3090 
 120   0.0000       0.761008        20.7081 
 121   0.0000       0.799849        21.7650 
 122   0.0000       0.807657        21.9775 
 123   0.0000       0.832205        22.6454 
 124   0.0000       0.839519        22.8445 
 125   0.0000       0.870956        23.6999 
 126   0.0000       0.885701        24.1012 
 127   0.0000       0.898879        24.4597 
 128   0.0000       0.901390        24.5281 
 129   0.0000       0.921179        25.0665 
 130   0.0000       0.939932        25.5769 
 131   0.0000       0.959224        26.1018 
 132   0.0000       0.966700        26.3052 
 133   0.0000       0.980682        26.6857 
 134   0.0000       0.987251        26.8645 
 135   0.0000       1.022132        27.8136 
 136   0.0000       1.045806        28.4578 
 137   0.0000       1.083250        29.4767 
 138   0.0000       1.090248        29.6672 
 139   0.0000       1.095949        29.8223 
 140   0.0000       1.103420        30.0256 
 141   0.0000       1.112372        30.2692 
 142   0.0000       1.134159        30.8620 
 143   0.0000       1.144030        31.1306 
 144   0.0000       1.176442        32.0126 
 145   0.0000       1.205296        32.7978 
 146   0.0000       1.234576        33.5945 
 147   0.0000       1.238753        33.7082 
 148   0.0000       1.287853        35.0443 
 149   0.0000       1.309793        35.6413 
 150   0.0000       1.329924        36.1891 
 151   0.0000       1.342701        36.5368 
 152   0.0000       1.372053        37.3355 
 153   0.0000       1.383143        37.6372 
 154   0.0000       1.408336        38.3228 
 155   0.0000       1.442778        39.2600 
 156   0.0000       1.460977        39.7552 
 157   0.0000       1.464303        39.8457 
 158   0.0000       1.484575        40.3973 
 159   0.0000       1.500777        40.8382 
 160   0.0000       1.521607        41.4050 
 161   0.0000       1.529433        41.6180 
 162   0.0000       1.531933        41.6860 
 163   0.0000       1.541945        41.9585 
 164   0.0000       1.543093        41.9897 
 165   0.0000       1.551806        42.2268 
 166   0.0000       1.559794        42.4442 
 167   0.0000       1.562570        42.5197 
 168   0.0000       1.585827        43.1526 
 169   0.0000       1.587551        43.1994 
 170   0.0000       1.597586        43.4725 
 171   0.0000       1.606469        43.7142 
 172   0.0000       1.621636        44.1270 
 173   0.0000       1.636453        44.5302 
 174   0.0000       1.643094        44.7109 
 175   0.0000       1.665844        45.3299 
 176   0.0000       1.688348        45.9423 
 177   0.0000       1.692192        46.0469 
 178   0.0000       1.711943        46.5843 
 179   0.0000       1.716071        46.6967 
 180   0.0000       1.726628        46.9839 
 181   0.0000       1.766367        48.0653 
 182   0.0000       1.781086        48.4658 
 183   0.0000       1.799313        48.9618 
 184   0.0000       1.807734        49.1909 
 185   0.0000       1.822448        49.5913 
 186   0.0000       1.841636        50.1135 
 187   0.0000       1.890233        51.4359 
 188   0.0000       1.902871        51.7797 
 189   0.0000       1.919295        52.2267 
 190   0.0000       1.936157        52.6855 
 191   0.0000       1.951280        53.0970 
 192   0.0000       1.960271        53.3417 
 193   0.0000       1.966026        53.4983 
 194   0.0000       1.974643        53.7328 
 195   0.0000       1.981643        53.9232 
 196   0.0000       2.021484        55.0074 
 197   0.0000       2.023442        55.0606 
 198   0.0000       2.066713        56.2381 
 199   0.0000       2.078280        56.5529 
 200   0.0000       2.090830        56.8944 
 201   0.0000       2.107513        57.3483 
 202   0.0000       2.125805        57.8461 
 203   0.0000       2.137914        58.1756 
 204   0.0000       2.146507        58.4094 
 205   0.0000       2.164347        58.8949 
 206   0.0000       2.177158        59.2435 
 207   0.0000       2.190561        59.6082 
 208   0.0000       2.198275        59.8181 
 209   0.0000       2.207077        60.0576 
 210   0.0000       2.222177        60.4685 
 211   0.0000       2.228530        60.6414 
 212   0.0000       2.256553        61.4039 
 213   0.0000       2.264634        61.6238 
 214   0.0000       2.285546        62.1929 
 215   0.0000       2.293552        62.4107 
 216   0.0000       2.315765        63.0152 
 217   0.0000       2.335481        63.5517 
 218   0.0000       2.340759        63.6953 
 219   0.0000       2.345787        63.8321 
 220   0.0000       2.363555        64.3156 
 221   0.0000       2.376344        64.6636 
 222   0.0000       2.379721        64.7555 
 223   0.0000       2.386550        64.9413 
 224   0.0000       2.394469        65.1568 
 225   0.0000       2.404409        65.4273 
 226   0.0000       2.420130        65.8551 
 227   0.0000       2.454406        66.7878 
 228   0.0000       2.492648        67.8284 
 229   0.0000       2.508341        68.2554 
 230   0.0000       2.516068        68.4657 
 231   0.0000       2.553535        69.4852 
 232   0.0000       2.564383        69.7804 
 233   0.0000       2.570747        69.9536 
 234   0.0000       2.573201        70.0204 
 235   0.0000       2.578880        70.1749 
 236   0.0000       2.593121        70.5624 
 237   0.0000       2.608822        70.9897 
 238   0.0000       2.621471        71.3339 
 239   0.0000       2.627463        71.4969 
 240   0.0000       2.663428        72.4756 
 241   0.0000       2.677871        72.8686 
 242   0.0000       2.686619        73.1066 
 243   0.0000       2.706722        73.6536 
 244   0.0000       2.725465        74.1637 
 245   0.0000       2.740529        74.5736 
 246   0.0000       2.746988        74.7493 
 247   0.0000       2.773565        75.4725 
 248   0.0000       2.786174        75.8156 
 249   0.0000       2.789788        75.9140 
 250   0.0000       2.801490        76.2324 
 251   0.0000       2.812403        76.5294 
 252   0.0000       2.821225        76.7694 
 253   0.0000       2.866422        77.9993 
 254   0.0000       2.879349        78.3511 
 255   0.0000       2.926003        79.6206 
 256   0.0000       2.928493        79.6883 
 257   0.0000       2.940464        80.0141 
 258   0.0000       2.962422        80.6116 
 259   0.0000       2.965458        80.6942 
 260   0.0000       3.000514        81.6481 
 261   0.0000       3.016102        82.0723 
 262   0.0000       3.023461        82.2726 
 263   0.0000       3.063400        83.3593 
 264   0.0000       3.071501        83.5798 
 265   0.0000       3.085639        83.9645 
 266   0.0000       3.090676        84.1016 
 267   0.0000       3.124060        85.0100 
 268   0.0000       3.144241        85.5592 
 269   0.0000       3.150250        85.7227 
 270   0.0000       3.157252        85.9132 
 271   0.0000       3.171052        86.2887 
 272   0.0000       3.172925        86.3397 
 273   0.0000       3.184413        86.6523 
 274   0.0000       3.209111        87.3244 
 275   0.0000       3.226145        87.7879 
 276   0.0000       3.235874        88.0526 
 277   0.0000       3.252568        88.5069 
 278   0.0000       3.255420        88.5845 
 279   0.0000       3.292140        89.5837 
 280   0.0000       3.317212        90.2659 
 281   0.0000       3.321150        90.3731 
 282   0.0000       3.337725        90.8241 
 283   0.0000       3.363345        91.5213 
 284   0.0000       3.376233        91.8720 
 285   0.0000       3.377382        91.9032 
 286   0.0000       3.410039        92.7919 
 287   0.0000       3.484082        94.8067 
 288   0.0000       3.491345        95.0043 
 289   0.0000       3.494388        95.0871 
 290   0.0000       3.503363        95.3313 
 291   0.0000       3.548874        96.5698 
 292   0.0000       3.554333        96.7183 
 293   0.0000       3.572234        97.2054 
 294   0.0000       3.604057        98.0714 
 295   0.0000       3.611366        98.2703 
 296   0.0000       3.623613        98.6035 
 297   0.0000       3.674386        99.9851 
 298   0.0000       3.726708       101.4089 
 299   0.0000       3.762461       102.3818 
 300   0.0000       3.782063       102.9152 
 301   0.0000       3.818222       103.8991 
 302   0.0000       3.842868       104.5697 
 303   0.0000       3.847116       104.6853 
 304   0.0000       3.899217       106.1031 
 305   0.0000       3.916536       106.5744 
 306   0.0000       3.931806       106.9899 
 307   0.0000       3.942445       107.2794 
 308   0.0000       3.949435       107.4696 
 309   0.0000       3.974696       108.1570 
 310   0.0000       4.006987       109.0357 
 311   0.0000       4.020095       109.3923 
 312   0.0000       4.053554       110.3028 
 313   0.0000       4.079060       110.9969 
 314   0.0000       4.093059       111.3778 
 315   0.0000       4.113215       111.9263 
 316   0.0000       4.233963       115.2120 
 317   0.0000       4.285692       116.6196 
 318   0.0000       4.297214       116.9331 
 319   0.0000       4.300836       117.0317 
 320   0.0000       4.316843       117.4673 
 321   0.0000       4.340732       118.1173 
 322   0.0000       4.343357       118.1887 
 323   0.0000       4.373364       119.0053 
 324   0.0000       4.375929       119.0751 
 325   0.0000       4.470165       121.6394 
 326   0.0000       4.488988       122.1516 
 327   0.0000       4.492549       122.2485 
 328   0.0000       4.522469       123.0626 
 329   0.0000       4.605191       125.3136 
 330   0.0000       4.677352       127.2772 
 331   0.0000       4.704214       128.0082 
 332   0.0000       4.722484       128.5053 
 333   0.0000       4.730770       128.7308 
 334   0.0000       4.740523       128.9962 
 335   0.0000       4.783564       130.1674 
 336   0.0000       4.838140       131.6525 
 337   0.0000       4.950314       134.7049 
 338   0.0000       4.996719       135.9676 
 339   0.0000       5.094107       138.6177 
 340   0.0000       5.121272       139.3569 
 341   0.0000       5.128410       139.5511 
 342   0.0000       5.134443       139.7153 
 343   0.0000       5.138552       139.8271 
 344   0.0000       5.194553       141.3510 
 345   0.0000       5.197115       141.4207 
 346   0.0000       5.216844       141.9575 
 347   0.0000       5.237329       142.5150 
 348   0.0000       5.240295       142.5957 
 349   0.0000       5.274877       143.5367 
 350   0.0000       5.279082       143.6511 
 351   0.0000       5.338681       145.2729 
 352   0.0000       5.359483       145.8390 
 353   0.0000       5.401780       146.9899 
 354   0.0000       5.410307       147.2219 
 355   0.0000       5.445668       148.1842 
 356   0.0000       5.464962       148.7092 
 357   0.0000       5.566768       151.4795 
 358   0.0000       5.572829       151.6444 
 359   0.0000       5.631289       153.2352 
 360   0.0000       5.644181       153.5860 
 361   0.0000       5.682371       154.6252 
 362   0.0000       5.700606       155.1214 
 363   0.0000       5.866762       159.6427 
 364   0.0000       5.956554       162.0861 
 365   0.0000       6.059405       164.8848 
 366   0.0000       6.062867       164.9790 
 367   0.0000       6.113721       166.3628 
 368   0.0000       6.199250       168.6902 
 369   0.0000       6.220278       169.2624 
 370   0.0000       6.242650       169.8712 
 371   0.0000       6.280819       170.9098 
 372   0.0000       6.346654       172.7012 
 373   0.0000       6.347248       172.7174 
 374   0.0000       6.360117       173.0676 
 375   0.0000       6.372711       173.4103 
 376   0.0000       6.384952       173.7434 
 377   0.0000       6.402541       174.2220 
 378   0.0000       6.404607       174.2782 
 379   0.0000       6.424016       174.8064 
 380   0.0000       6.491599       176.6454 
 381   0.0000       6.494612       176.7274 
 382   0.0000       6.506319       177.0460 
 383   0.0000       6.531146       177.7215 
 384   0.0000       6.676276       181.6707 
 385   0.0000       6.775157       184.3614 
 386   0.0000       6.832646       185.9258 
 387   0.0000       6.841109       186.1561 
 388   0.0000       6.869675       186.9334 
 389   0.0000       6.873379       187.0341 
 390   0.0000       6.897764       187.6977 
 391   0.0000       6.922348       188.3667 
 392   0.0000       6.980264       189.9426 
 393   0.0000       7.099256       193.1806 
 394   0.0000       7.119405       193.7289 
 395   0.0000       7.169608       195.0949 
 396   0.0000       7.195280       195.7935 
 397   0.0000       7.196265       195.8203 
 398   0.0000       7.240586       197.0264 
 399   0.0000       7.254414       197.4026 
 400   0.0000       7.323598       199.2852 
 401   0.0000       7.419432       201.8930 
 402   0.0000      22.303881       606.9195 
 403   0.0000      22.311912       607.1380 
 404   0.0000      22.331168       607.6620 
 405   0.0000      22.490535       611.9986 
 406   0.0000      23.496092       639.3612 
 407   0.0000      32.448849       882.9781 
 408   0.0000      43.464373      1182.7257 
 409   0.0000      43.779615      1191.3039 
 410   0.0000      43.850803      1193.2410 
 411   0.0000      43.959168      1196.1898 
 412   0.0000      43.985045      1196.8939 

                    ********************************
                    * MULLIKEN POPULATION ANALYSIS *
                    ********************************

-----------------------
MULLIKEN ATOMIC CHARGES
-----------------------
   0 C :    0.049737
   1 H :    0.152266
   2 N :    0.445729
   3 O :   -0.357740
   4 O :   -0.361510
   5 C :    0.294116
   6 O :   -0.612430
   7 O :   -0.594614
   8 C :   -0.359893
   9 H :    0.097256
  10 H :    0.120815
  11 H :    0.110726
  12 C :   -0.387466
  13 H :    0.139356
  14 H :    0.134097
  15 H :    0.137914
  16 C :   -0.390009
  17 H :    0.134110
  18 H :    0.140738
  19 H :    0.139611
  20 H :    0.323551
  21 O :   -0.693404
  22 H :    0.337042
Sum of atomic charges:   -1.0000000

--------------------------------
MULLIKEN REDUCED ORBITAL CHARGES
--------------------------------
  0 C s       :     3.166014  s :     3.166014
      pz      :     0.760256  p :     2.633955
      px      :     0.994731
      py      :     0.878968
      dz2     :     0.030911  d :     0.140509
      dxz     :     0.017938
      dyz     :     0.039291
      dx2y2   :     0.030753
      dxy     :     0.021616
      f0      :     0.001705  f :     0.009785
      f+1     :     0.001466
      f-1     :     0.001576
      f+2     :     0.001558
      f-2     :     0.001291
      f+3     :     0.001307
      f-3     :     0.000882
  1 H s       :     0.823480  s :     0.823480
      pz      :     0.002888  p :     0.024254
      px      :     0.017893
      py      :     0.003474
  2 N s       :     3.319226  s :     3.319226
      pz      :     1.060367  p :     2.984221
      px      :     0.873750
      py      :     1.050105
      dz2     :     0.043925  d :     0.236441
      dxz     :     0.067714
      dyz     :     0.019862
      dx2y2   :     0.045948
      dxy     :     0.058992
      f0      :     0.001809  f :     0.014382
      f+1     :     0.002394
      f-1     :     0.001316
      f+2     :     0.003144
      f-2     :     0.001362
      f+3     :     0.001617
      f-3     :     0.002741
  3 O s       :     3.880943  s :     3.880943
      pz      :     1.474069  p :     4.432191
      px      :     1.588562
      py      :     1.369560
      dz2     :     0.007422  d :     0.041319
      dxz     :     0.010843
      dyz     :     0.007871
      dx2y2   :     0.006725
      dxy     :     0.008459
      f0      :     0.000336  f :     0.003287
      f+1     :     0.000619
      f-1     :     0.000280
      f+2     :     0.000506
      f-2     :     0.000835
      f+3     :     0.000383
      f-3     :     0.000328
  4 O s       :     3.885282  s :     3.885282
      pz      :     1.715056  p :     4.431300
      px      :     1.160563
      py      :     1.555681
      dz2     :     0.005174  d :     0.041633
      dxz     :     0.010610
      dyz     :     0.000731
      dx2y2   :     0.014200
      dxy     :     0.010919
      f0      :     0.000347  f :     0.003296
      f+1     :     0.000611
      f-1     :     0.000052
      f+2     :     0.000538
      f-2     :     0.000102
      f+3     :     0.000857
      f-3     :     0.000788
  5 C s       :     3.055953  s :     3.055953
      pz      :     0.776339  p :     2.386010
      px      :     0.852752
      py      :     0.756918
      dz2     :     0.069976  d :     0.237842
      dxz     :     0.051292
      dyz     :     0.042733
      dx2y2   :     0.042039
      dxy     :     0.031802
      f0      :     0.005247  f :     0.026079
      f+1     :     0.004305
      f-1     :     0.003368
      f+2     :     0.005990
      f-2     :     0.003302
      f+3     :     0.001603
      f-3     :     0.002264
  6 O s       :     3.792376  s :     3.792376
      pz      :     1.569040  p :     4.792255
      px      :     1.670097
      py      :     1.553117
      dz2     :     0.006644  d :     0.026164
      dxz     :     0.006945
      dyz     :     0.005606
      dx2y2   :     0.003208
      dxy     :     0.003761
      f0      :     0.000259  f :     0.001634
      f+1     :     0.000348
      f-1     :     0.000204
      f+2     :     0.000296
      f-2     :     0.000322
      f+3     :     0.000115
      f-3     :     0.000090
  7 O s       :     3.781428  s :     3.781428
      pz      :     1.490993  p :     4.785471
      px      :     1.734470
      py      :     1.560008
      dz2     :     0.007790  d :     0.026062
      dxz     :     0.006424
      dyz     :     0.006484
      dx2y2   :     0.002434
      dxy     :     0.002929
      f0      :     0.000362  f :     0.001652
      f+1     :     0.000347
      f-1     :     0.000275
      f+2     :     0.000268
      f-2     :     0.000287
      f+3     :     0.000066
      f-3     :     0.000048
  8 C s       :     3.262878  s :     3.262878
      pz      :     1.048221  p :     3.051504
      px      :     0.953115
      py      :     1.050168
      dz2     :     0.003970  d :     0.041768
      dxz     :     0.014990
      dyz     :     0.004480
      dx2y2   :     0.006417
      dxy     :     0.011912
      f0      :     0.000394  f :     0.003742
      f+1     :     0.000680
      f-1     :     0.000341
      f+2     :     0.000944
      f-2     :     0.000054
      f+3     :     0.000756
      f-3     :     0.000574
  9 H s       :     0.881462  s :     0.881462
      pz      :     0.010255  p :     0.021282
      px      :     0.006213
      py      :     0.004814
 10 H s       :     0.857668  s :     0.857668
      pz      :     0.008062  p :     0.021517
      px      :     0.005192
      py      :     0.008263
 11 H s       :     0.868072  s :     0.868072
      pz      :     0.005220  p :     0.021202
      px      :     0.005769
      py      :     0.010213
 12 C s       :     3.304163  s :     3.304163
      pz      :     1.075917  p :     3.031960
      px      :     1.061356
      py      :     0.894688
      dz2     :     0.005718  d :     0.047602
      dxz     :     0.002541
      dyz     :     0.015727
      dx2y2   :     0.011164
      dxy     :     0.012452
      f0      :     0.000291  f :     0.003741
      f+1     :     0.000530
      f-1     :     0.000729
      f+2     :     0.000436
      f-2     :     0.000026
      f+3     :     0.000973
      f-3     :     0.000755
 13 H s       :     0.839448  s :     0.839448
      pz      :     0.009556  p :     0.021196
      px      :     0.005381
      py      :     0.006258
 14 H s       :     0.844552  s :     0.844552
      pz      :     0.004418  p :     0.021351
      px      :     0.012552
      py      :     0.004380
 15 H s       :     0.840667  s :     0.840667
      pz      :     0.009591  p :     0.021419
      px      :     0.005483
      py      :     0.006346
 16 C s       :     3.308290  s :     3.308290
      pz      :     0.949222  p :     3.030836
      px      :     1.041762
      py      :     1.039853
      dz2     :     0.013312  d :     0.047170
      dxz     :     0.008000
      dyz     :     0.007359
      dx2y2   :     0.016385
      dxy     :     0.002114
      f0      :     0.000574  f :     0.003713
      f+1     :     0.000773
      f-1     :     0.000898
      f+2     :     0.000485
      f-2     :     0.000186
      f+3     :     0.000465
      f-3     :     0.000333
 17 H s       :     0.844586  s :     0.844586
      pz      :     0.004202  p :     0.021305
      px      :     0.012770
      py      :     0.004333
 18 H s       :     0.838071  s :     0.838071
      pz      :     0.004090  p :     0.021191
      px      :     0.004536
      py      :     0.012565
 19 H s       :     0.838961  s :     0.838961
      pz      :     0.010733  p :     0.021428
      px      :     0.005367
      py      :     0.005329
 20 H s       :     0.627689  s :     0.627689
      pz      :     0.014163  p :     0.048759
      px      :     0.012711
      py      :     0.021885
 21 O s       :     3.798537  s :     3.798537
      pz      :     1.849559  p :     4.875280
      px      :     1.638558
      py      :     1.387163
      dz2     :     0.002060  d :     0.018409
      dxz     :     0.004263
      dyz     :     0.002739
      dx2y2   :     0.004955
      dxy     :     0.004391
      f0      :     0.000266  f :     0.001178
      f+1     :     0.000068
      f-1     :     0.000167
      f+2     :     0.000118
      f-2     :     0.000238
      f+3     :     0.000046
      f-3     :     0.000273
 22 H s       :     0.616707  s :     0.616707
      pz      :     0.016009  p :     0.046251
      px      :     0.017775
      py      :     0.012467


                     *******************************
                     * LOEWDIN POPULATION ANALYSIS *
                     *******************************

----------------------
LOEWDIN ATOMIC CHARGES
----------------------
   0 C :   -0.288997
   1 H :    0.167428
   2 N :   -0.032346
   3 O :   -0.060249
   4 O :   -0.052962
   5 C :   -0.730580
   6 O :   -0.130221
   7 O :   -0.132945
   8 C :   -0.304496
   9 H :    0.117060
  10 H :    0.131210
  11 H :    0.121982
  12 C :   -0.279674
  13 H :    0.129718
  14 H :    0.128136
  15 H :    0.138095
  16 C :   -0.277625
  17 H :    0.128680
  18 H :    0.129838
  19 H :    0.138103
  20 H :    0.144254
  21 O :   -0.340011
  22 H :    0.155604

-------------------------------
LOEWDIN REDUCED ORBITAL CHARGES
-------------------------------
  0 C s       :     2.773300  s :     2.773300
      pz      :     0.896396  p :     2.921478
      px      :     1.018261
      py      :     1.006821
      dz2     :     0.122808  d :     0.532303
      dxz     :     0.076516
      dyz     :     0.136650
      dx2y2   :     0.119551
      dxy     :     0.076777
      f0      :     0.010040  f :     0.061916
      f+1     :     0.009504
      f-1     :     0.010154
      f+2     :     0.008838
      f-2     :     0.011408
      f+3     :     0.007029
      f-3     :     0.004944
  1 H s       :     0.772072  s :     0.772072
      pz      :     0.008013  p :     0.060500
      px      :     0.042608
      py      :     0.009879
  2 N s       :     2.947834  s :     2.947834
      pz      :     1.117752  p :     3.273380
      px      :     1.112492
      py      :     1.043136
      dz2     :     0.127964  d :     0.737595
      dxz     :     0.209672
      dyz     :     0.069121
      dx2y2   :     0.157454
      dxy     :     0.173385
      f0      :     0.009787  f :     0.073537
      f+1     :     0.013048
      f-1     :     0.006257
      f+2     :     0.015155
      f-2     :     0.007626
      f+3     :     0.007797
      f-3     :     0.013867
  3 O s       :     3.503857  s :     3.503857
      pz      :     1.480285  p :     4.446667
[...]
-------------------------   ----------------


-------------------------   --------------------
FINAL SINGLE POINT ENERGY      -628.706958998464
-------------------------   --------------------



           ************************************************************
           *        Program running with 102 parallel MPI-processes   *
           *              working on a common directory               *
           ************************************************************
------------------------------------------------------------------------------
                         ORCA SCF GRADIENT CALCULATION
------------------------------------------------------------------------------

 ... reading COSX grid (gridx3)
Gradient of the Kohn-Sham DFT energy:
Kohn-Sham wavefunction type      ... RKS
Hartree-Fock exchange scaling    ...    0.200
Number of operators              ...    1
Number of atoms                  ...   23
Basis set dimensions             ...  413
Integral neglect threshold       ... 2.5e-11
Integral primitive cutoff        ... 2.5e-12
SHARK Integral package           ... ON

Nuc. rep. gradient       (SHARK) ... done (  0.0 sec)
HCore & Overlap gradient (SHARK) ... done (  0.1 sec)
RI-J gradient            (SHARK) ... done (  0.4 sec)
COSX-gradient                    ... done (  1.3 sec)
Exchange-correlation gradient    ... done
Dispersion correction            ... done

------------------
CARTESIAN GRADIENT
------------------

   1   C   :   -0.000774210    0.000773126    0.000175535
   2   H   :    0.000395917   -0.000208698   -0.000237519
   3   N   :    0.000728543   -0.000050574    0.000384784
   4   O   :    0.000088839    0.000051296   -0.000481133
   5   O   :   -0.000405270   -0.000011560    0.000017997
   6   C   :   -0.000755768    0.000156988   -0.000315191
   7   O   :    0.000162023    0.000030700    0.000368272
   8   O   :    0.000789108   -0.000139359    0.000234979
   9   C   :   -0.000393119    0.000642731   -0.000520059
  10   H   :    0.000004670   -0.000175441    0.000218216
  11   H   :    0.000148423   -0.000336682    0.000131953
  12   H   :    0.000040979   -0.000082623    0.000071779
  13   C   :    0.000106620   -0.000382558    0.000024270
  14   H   :   -0.000106324   -0.000192099    0.000041343
  15   H   :    0.000297156    0.000001891   -0.000018203
  16   H   :   -0.000163516    0.000033954   -0.000114832
  17   C   :    0.000112238    0.000095086    0.000012502
  18   H   :    0.000019077    0.000029684    0.000111886
  19   H   :    0.000025884   -0.000047871    0.000091105
  20   H   :    0.000070038   -0.000117022   -0.000103731
  21   H   :   -0.001182686   -0.000039504   -0.000193270
  22   O   :    0.000546735   -0.000706531    0.000166807
  23   H   :    0.000117370    0.000639428    0.000087105

Difference to translation invariance:
           :   -0.0001272744   -0.0000356400    0.0001545944

Difference to rotation invariance:
           :   -0.0015357899   -0.0006075619    0.0002988724

Norm of the cartesian gradient     ...    0.0028842681
RMS gradient                       ...    0.0003472251
MAX gradient                       ...    0.0011826855

-------
TIMINGS
-------

Total SCF gradient time            ...        4.378 sec

One electron gradient       ....       0.083 sec  (  1.9%)
RI-J Coulomb gradient       ....       0.371 sec  (  8.5%)
COSX gradient               ....       1.274 sec  ( 29.1%)
XC gradient                 ....       0.433 sec  (  9.9%)
CPCM gradient               ....       0.278 sec  (  6.4%)
   A-Matrix (El+Nuc)        ....       0.162 sec  (  3.7%)
   Potential                ....       0.117 sec  (  2.7%)

Maximum memory used throughout the entire SCFGRAD-calculation: 62.0 MB
------------------------------------------------------------------------------
                         ORCA GEOMETRY RELAXATION STEP
------------------------------------------------------------------------------

Reading the OPT-File                    .... done
Getting information on internals        .... done
Copying old internal coords+grads       .... done
Making the new internal coordinates     .... (new redundants).... done
Validating the new internal coordinates .... (new redundants).... done
Calculating the B-matrix                .... done
Calculating the G,G- and P matrices     .... done
Transforming gradient to internals      .... done
Projecting the internal gradient        .... done
Number of atoms                         ....  23
Number of internal coordinates          .... 126
Current Energy                          ....  -628.706958998 Eh
Current gradient norm                   ....     0.002884268 Eh/bohr
Maximum allowed component of the step   ....  0.300
Current trust radius                    ....  0.300
Updating the Hessian (BFGS)             .... done
Forming the augmented Hessian           .... done
Diagonalizing the augmented Hessian     .... done
Last element of RFO vector              ....  0.004125217
Lowest eigenvalues of augmented Hessian:
 -0.139947761 -0.000120217  0.000025570  0.000659992  0.001820892
Warning: RFO finds a terribly low value for the scaling factor
Trying a QUASI-NEWTON step instead
Doing a quasi-Newton Step:
Inverting the Hessian                   .... done
Computing the step                      .... done
Length of the computed step             ....  0.316640986
Warning: the length of the step is outside the trust region - QNStep is scaled down
Converting the step to cartesian space:
 Initial RMS(Int)=    0.0267261242
Transforming coordinates:
 Iter   0:  RMS(Cart)=    0.0541354549 RMS(Int)=    0.0267469888
 Iter   1:  RMS(Cart)=    0.0014631396 RMS(Int)=    0.0006751593
 Iter   2:  RMS(Cart)=    0.0000645261 RMS(Int)=    0.0000374775
 Iter   3:  RMS(Cart)=    0.0000040104 RMS(Int)=    0.0000028709
 Iter   4:  RMS(Cart)=    0.0000002760 RMS(Int)=    0.0000001728
 Iter   5:  RMS(Cart)=    0.0000000189 RMS(Int)=    0.0000000139
done
Storing new coordinates                 .... done

                                .--------------------.
          ----------------------|Geometry convergence|-------------------------
          Item                value                   Tolerance       Converged
          ---------------------------------------------------------------------
          Energy change      -0.0000380508            0.0000050000      NO
          RMS gradient        0.0002252831            0.0001000000      NO
          MAX gradient        0.0008109073            0.0003000000      NO
          RMS step            0.0267261242            0.0020000000      NO
          MAX step            0.1470803753            0.0040000000      NO
          ........................................................
          Max(Bonds)      0.0778      Max(Angles)    1.92
          Max(Dihed)        4.17      Max(Improp)    0.00
          ---------------------------------------------------------------------

The optimization has not yet converged - more geometry cycles are needed


    ---------------------------------------------------------------------------
                         Redundant Internal Coordinates
                            (Angstroem and degrees)

        Definition                    Value    dE/dq     Step     New-Value
    ----------------------------------------------------------------------------
     1. B(H   1,C   0)                1.0863 -0.000154 -0.0005    1.0858   
     2. B(N   2,C   0)                1.5226 -0.000179 -0.0002    1.5224   
     3. B(O   3,N   2)                1.2206 -0.000258  0.0006    1.2212   
     4. B(O   4,N   2)                1.2220  0.000385  0.0004    1.2224   
     5. B(O   6,C   5)                1.2515  0.000372  0.0005    1.2520   
     6. B(O   7,C   5)                1.2702 -0.000415  0.0001    1.2703   
     7. B(C   8,C   5)                1.5276 -0.000009 -0.0010    1.5266   
     8. B(H   9,C   8)                1.0898 -0.000129  0.0004    1.0902   
     9. B(H  10,C   8)                1.0936 -0.000007  0.0004    1.0940   
    10. B(H  11,C   8)                1.0901  0.000100 -0.0003    1.0898   
    11. B(C  12,C   0)                1.5181 -0.000499  0.0019    1.5200   
    12. B(H  13,C  12)                1.0905 -0.000099  0.0003    1.0908   
    13. B(H  14,C  12)                1.0893 -0.000297 -0.0004    1.0889   
    14. B(H  15,C  12)                1.0905  0.000078 -0.0003    1.0902   
    15. B(C  16,C   0)                1.5215 -0.000073 -0.0015    1.5200   
    16. B(H  17,C  16)                1.0900 -0.000043 -0.0007    1.0893   
    17. B(H  18,C  16)                1.0905  0.000058 -0.0008    1.0897   
    18. B(H  19,C  16)                1.0903  0.000085  0.0001    1.0905   
    19. B(H  20,O   7)                1.6800 -0.000064  0.0019    1.6819   
    20. B(H  20,H   1)                2.4749 -0.000595  0.0550    2.5298   
    21. B(O  21,H   1)                2.9973 -0.000067  0.0778    3.0751   
    22. B(O  21,H  20)                0.9972 -0.000279 -0.0003    0.9969   
    23. B(H  22,H   1)                3.1969  0.000290  0.0500    3.2469   
    24. B(H  22,O  21)                0.9639 -0.000047  0.0004    0.9643   
    25. A(H   1,C   0,C  16)          110.12 -0.000072    0.14    110.26   
    26. A(C  12,C   0,C  16)          113.84 -0.000143    0.08    113.92   
    27. A(H   1,C   0,C  12)          111.51  0.000363   -0.49    111.02   
    28. A(H   1,C   0,N   2)          103.89 -0.000409    0.27    104.16   
    29. A(N   2,C   0,C  12)          108.90  0.000062   -0.47    108.43   
    30. A(N   2,C   0,C  16)          108.03  0.000173    0.52    108.54   
    31. A(C   0,H   1,O  21)          137.54  0.000428   -0.75    136.79   
    32. A(H  20,H   1,H  22)           28.39 -0.000093   -0.52     27.87   
    33. A(O  21,H   1,H  22)           17.52 -0.000027   -0.20     17.32   
    34. A(H  20,H   1,O  21)           17.94 -0.000106   -0.75     17.19   
    35. A(C   0,H   1,H  22)          137.61  0.000350   -0.50    137.10   
    36. A(C   0,N   2,O   4)          118.14  0.000135   -0.13    118.01   
    37. A(O   3,N   2,O   4)          123.88  0.000386    0.05    123.93   
    38. A(C   0,N   2,O   3)          117.98 -0.000523    0.08    118.06   
    39. A(O   7,C   5,C   8)          116.23 -0.000251   -0.03    116.20   
    40. A(O   6,C   5,O   7)          125.40  0.000311    0.05    125.45   
    41. A(O   6,C   5,C   8)          118.34 -0.000058   -0.01    118.33   
    42. A(C   5,O   7,H  20)          115.58  0.000193   -0.07    115.51   
    43. A(H  10,C   8,H  11)          107.93 -0.000275    0.14    108.07   
    44. A(H   9,C   8,H  11)          109.98 -0.000173   -0.10    109.88   
    45. A(C   5,C   8,H  11)          111.24 -0.000107    0.17    111.41   
    46. A(C   5,C   8,H   9)          111.43  0.000268   -0.21    111.22   
    47. A(H   9,C   8,H  10)          107.74 -0.000205   -0.21    107.52   
    48. A(C   5,C   8,H  10)          108.38  0.000481    0.22    108.59   
    49. A(H  14,C  12,H  15)          108.61 -0.000083   -0.01    108.60   
    50. A(H  13,C  12,H  15)          108.40  0.000056   -0.04    108.36   
    51. A(C   0,C  12,H  15)          108.27  0.000235    0.08    108.35   
    52. A(H  13,C  12,H  14)          109.30  0.000042    0.17    109.46   
    53. A(C   0,C  12,H  14)          111.00 -0.000148    0.02    111.02   
    54. A(C   0,C  12,H  13)          111.19 -0.000095   -0.23    110.97   
    55. A(H  18,C  16,H  19)          108.32 -0.000056    0.02    108.34   
    56. A(H  17,C  16,H  19)          108.79  0.000013   -0.04    108.75   
    57. A(C   0,C  16,H  19)          108.21  0.000224   -0.23    107.97   
    58. A(H  17,C  16,H  18)          109.41  0.000065    0.02    109.43   
    59. A(C   0,C  16,H  18)          111.07 -0.000098   -0.03    111.04   
    60. A(C   0,C  16,H  17)          110.97 -0.000143    0.25    111.22   
    61. A(H   1,H  20,O   7)           67.62 -0.000448   -1.77     65.85   
    62. A(O   7,H  20,O  21)          175.26  0.000031   -0.03    175.23   
    63. A(H   1,H  20,O  21)          112.19  0.000471    1.92    114.11   
    64. A(H  20,O  21,H  22)          105.10  0.000139   -0.02    105.08   
    65. A(H   1,O  21,H  22)           93.05  0.000217   -1.62     91.43   
    66. A(H   1,O  21,H  20)           49.87 -0.000365   -1.17     48.70   
    67. A(H   1,H  22,O  21)           69.43 -0.000190    1.82     71.24   
    68. D(O  21,H   1,C   0,C  16)    115.12 -0.000014   -0.25    114.87   
    69. D(H  22,H   1,C   0,C  12)     13.83  0.000111   -0.77     13.06   
    70. D(H  22,H   1,C   0,C  16)    141.22  0.000143   -0.93    140.29   
    71. D(H  22,H   1,C   0,N   2)   -103.31  0.000097   -0.13   -103.45   
    72. D(O  21,H   1,C   0,N   2)   -129.41 -0.000060    0.55   -128.86   
    73. D(O  21,H   1,C   0,C  12)    -12.27 -0.000046   -0.09    -12.36   
    74. D(O   4,N   2,C   0,C  12)     57.73 -0.000133    3.50     61.23   
    75. D(O   4,N   2,C   0,C  16)    -66.38 -0.000105    3.37    -63.01   
    76. D(O   3,N   2,C   0,C  12)   -122.80 -0.000210    4.17   -118.63   
    77. D(O   4,N   2,C   0,H   1)    176.68  0.000101    2.85    179.53   
    78. D(O   3,N   2,C   0,C  16)    113.09 -0.000182    4.03    117.13   
    79. D(O   3,N   2,C   0,H   1)     -3.85  0.000024    3.52     -0.33   
    80. D(H  20,O   7,C   5,O   6)    -14.95 -0.000080    0.72    -14.24   
    81. D(H  20,O   7,C   5,C   8)    163.31 -0.000021    0.85    164.16   
    82. D(H   9,C   8,C   5,O   6)   -149.42  0.000104    1.33   -148.09   
    83. D(H  11,C   8,C   5,O   7)    155.31 -0.000066    1.05    156.36   
    84. D(H  10,C   8,C   5,O   7)    -86.19 -0.000167    1.45    -84.74   
    85. D(H  11,C   8,C   5,O   6)    -26.30 -0.000004    1.18    -25.12   
    86. D(H   9,C   8,C   5,O   7)     32.19  0.000041    1.20     33.39   
    87. D(H  10,C   8,C   5,O   6)     92.20 -0.000104    1.58     93.78   
    88. D(H  15,C  12,C   0,C  16)    -63.76  0.000074    0.86    -62.91   
    89. D(H  15,C  12,C   0,N   2)    175.64 -0.000096    0.48    176.12   
    90. D(H  14,C  12,C   0,C  16)     55.35  0.000031    0.91     56.27   
    91. D(H  14,C  12,C   0,N   2)    -65.24 -0.000139    0.53    -64.71   
    92. D(H  14,C  12,C   0,H   1)   -179.30  0.000118    0.76   -178.54   
    93. D(H  15,C  12,C   0,H   1)     61.58  0.000161    0.71     62.29   
    94. D(H  13,C  12,C   0,C  16)    177.26 -0.000085    0.98    178.24   
    95. D(H  13,C  12,C   0,N   2)     56.66 -0.000255    0.60     57.27   
    96. D(H  13,C  12,C   0,H   1)    -57.40  0.000002    0.83    -56.57   
    97. D(H  17,C  16,C   0,N   2)     65.79  0.000146   -0.40     65.39   
    98. D(H  17,C  16,C   0,H   1)    178.63 -0.000280    0.26    178.89   
    99. D(H  19,C  16,C   0,C  12)     63.99  0.000108   -0.26     63.73   
   100. D(H  19,C  16,C   0,N   2)   -174.92  0.000217   -0.44   -175.36   
   101. D(H  19,C  16,C   0,H   1)    -62.09 -0.000209    0.22    -61.87   
   102. D(H  18,C  16,C   0,C  12)   -177.23  0.000121   -0.40   -177.63   
   103. D(H  18,C  16,C   0,N   2)    -56.15  0.000230   -0.58    -56.73   
   104. D(H  18,C  16,C   0,H   1)     56.68 -0.000196    0.08     56.77   
   105. D(H  17,C  16,C   0,C  12)    -55.29  0.000037   -0.22    -55.51   
   106. D(H   1,H  20,O   7,C   5)    -84.68  0.000811    1.44    -83.24   
   107. D(O  21,H  20,O   7,C   5)   -173.43  0.000536   -0.27   -173.70   
   108. D(O   7,H  20,H   1,O  21)   -174.88 -0.000016    0.11   -174.77   
   109. D(O  21,H  20,H   1,H  22)    -37.22 -0.000048    0.07    -37.14   
   110. D(O   7,H  20,C   0,C  16)    -45.10  0.000060    0.80    -44.30   
   111. D(O   7,H  20,C   0,C  12)   -162.98 -0.000040    1.51   -161.46   
   112. D(O   7,H  20,C   0,N   2)     82.16 -0.000307    2.67     84.83   
   113. D(O   7,H  20,H   1,H  22)    147.90 -0.000065    0.19    148.09   
   114. D(O  21,H  20,C   0,C  16)    130.01  0.000076    0.70    130.71   
   115. D(O  21,H  20,C   0,C  12)     12.14 -0.000024    1.41     13.55   
   116. D(O  21,H  20,C   0,N   2)   -102.73 -0.000292    2.56   -100.16   
   117. D(H   1,O  21,H  20,O   7)     86.81  0.000243    1.53     88.34   
   118. D(H  22,O  21,H  20,O   7)    167.87  0.000268   -1.04    166.84   
   119. D(H  22,O  21,H  20,H   1)     81.06  0.000025   -2.56     78.50   
   120. D(H  22,O  21,H   1,H  20)   -107.24 -0.000071   -1.32   -108.56   
   121. D(H  22,O  21,H   1,C   0)     99.91 -0.000131    0.54    100.46   
   122. D(H  20,O  21,H   1,H  22)    107.24  0.000071    1.32    108.56   
   123. D(H  20,O  21,H   1,C   0)   -152.85 -0.000060    1.86   -150.99   
   124. D(H   1,H  22,O  21,H  20)    -49.14  0.000338    1.70    -47.44   
   125. D(O  21,H  22,H   1,H  20)     38.23 -0.000141   -1.41     36.82   
   126. D(O  21,H  22,H   1,C   0)    -99.50 -0.000368    1.26    -98.25   
    ----------------------------------------------------------------------------




    ----------------------------------------------------------------------------
                                  WARNING !!!
       The optimization did not converge but reached the maximum number of
       optimization cycles.
       Please check your results very carefully.
    ----------------------------------------------------------------------------



                            ***************************************
                            *     ORCA property calculations      *
                            ***************************************

                                    ---------------------
                                    Active property flags
                                    ---------------------
   (+) Dipole Moment


------------------------------------------------------------------------------
                       ORCA ELECTRIC PROPERTIES CALCULATION
------------------------------------------------------------------------------

Dipole Moment Calculation                       ... on
Quadrupole Moment Calculation                   ... off
Polarizability Calculation                      ... off
GBWName                                         ... /home/rudenko/mop_saddle_orca_4_serv/for_orca/ch32chno2_ch3coo_new/orca/orca_start/start.gbw
Electron density                                ... /home/rudenko/mop_saddle_orca_4_serv/for_orca/ch32chno2_ch3coo_new/orca/orca_start/start.scfp
The origin for moment calculation is the CENTER OF MASS  = ( 5.919262, -2.319064  1.446519)

-------------
DIPOLE MOMENT
-------------
                                X             Y             Z
Electronic contribution:     -2.01132      -0.37237       8.31584
Nuclear contribution   :     -2.79030      -0.03381      -8.54536
                        -----------------------------------------
Total Dipole Moment    :     -4.80162      -0.40617      -0.22952
                        -----------------------------------------
Magnitude (a.u.)       :      4.82423
Magnitude (Debye)      :     12.26223



--------------------
Rotational spectrum 
--------------------
 
Rotational constants in cm-1:     0.038076     0.020472     0.017208 
Rotational constants in MHz :  1141.501659   613.743922   515.892982 

 Dipole components along the rotational axes: 
x,y,z [a.u.] :    -4.756639     0.551339    -0.586207 
x,y,z [Debye]:   -12.090417     1.401393    -1.490019 

 

Timings for individual modules:

Sum of individual times         ...     2667.254 sec (=  44.454 min)
GTO integral calculation        ...      310.356 sec (=   5.173 min)  11.6 %
SCF iterations                  ...     1798.675 sec (=  29.978 min)  67.4 %
SCF Gradient evaluation         ...      555.825 sec (=   9.264 min)  20.8 %
Geometry relaxation             ...        2.398 sec (=   0.040 min)   0.1 %
                             ****ORCA TERMINATED NORMALLY****
TOTAL RUN TIME: 0 days 0 hours 48 minutes 50 seconds 923 msec
