 *******************************************************************************
 **                                                                           **
 **                              MOPAC v22.0.6                                **
 **                                                                           **
 *******************************************************************************
 **          Digital Object Identifier (DOI): 10.5281/zenodo.6511958          **
 **    Visit the DOI location for information on how to cite this program.    **
 *******************************************************************************

                              PM7 CALCULATION RESULTS

 *******************************************************************************
 *  CALCULATION DONE:                                Tue Mar 26 11:37:48 2024  *
 *  PM7        - The PM7 Hamiltonian to be used
 *  SINGLET    - SPIN STATE DEFINED AS A SINGLET
 *
 *
 *
 *                 CHARGE ON SYSTEM = 0
 *
 *
 *
 *  EPS=78.4   - USE ANDREAS KLAMT'S COSMO IMPLICIT SOLVATION MODEL
 *  LET        - OVERRIDE SOME SAFETY CHECKS
 *  THREADS    - USE A MAXIMUM OF 30 THREADS
 *  T=         - A TIME OF 14.0 DAYS REQUESTED
 *  DUMP=N     - RESTART FILE WRITTEN EVERY 30.0 MINUTES REQUESTED
 *  RELSCF     - DEFAULT SCF CRITERION MULTIPLIED BY 1.0000
 *              (DEFAULT SCF CRITERION = 0.00010)
 *  ITRY=      - DO A MAXIMUM OF 15000 ITERATIONS FOR SCF
 *  AUX        - OUTPUT AUXILIARY INFORMATION
 *  ISOTOPE    - SAVE THE FORCE MATRIX FOR USE LATER
 *  BONDS      - FINAL BOND-ORDER MATRIX TO BE PRINTED
 *  LARGE      - EXPANDED OUTPUT TO BE PRINTED
 *  THERMO     - THERMODYNAMIC QUANTITIES TO BE CALCULATED
 *******************************************************************************
PM7 AUX LARGE THERMO(298,298) LET ISOTOPE BONDS DUMP=30M ITRY=15000 T=14D THREADS=30 CHARGE=0 SINGLET eps=78.4 RELSCF=1
 Title: ASE calculation

   ATOM   CHEMICAL          X               Y               Z
  NUMBER   SYMBOL      (ANGSTROMS)     (ANGSTROMS)     (ANGSTROMS)

     1       C          3.58519931  *   2.62498025  *  -1.25356712  *
     2       C          3.66792930  *   1.25542275  *  -1.01752113  *
     3       C          2.51352523  *   0.48791733  *  -0.83436519  *
     4       C          1.25966695  *   1.10607402  *  -0.88637928  *
     5       C          1.21276587  *   2.47269805  *  -1.11901118  *
     6       C          2.34291156  *   3.25475038  *  -1.30733585  *
     7       H          4.49858296  *   3.20558223  *  -1.39829589  *
     8       H          4.65583621  *   0.79029921  *  -0.96625243  *
     9       H          0.35094639  *   0.51920587  *  -0.74897725  *
    10      Cl         -0.32794211  *   3.23671403  *  -1.17591174  *
    11       H          2.27979827  *   4.32815364  *  -1.48834117  *
    12       C          2.65531134  *  -0.96922558  *  -0.57088115  *
    13       C          2.25349043  *  -1.39170507  *   0.82162279  *
    14       H          2.40617810  *  -2.46937210  *   0.98481748  *
    15       H          1.20117398  *  -1.16742810  *   1.04542966  *
    16       H          2.86420557  *  -0.86800646  *   1.57407409  *
    17       N          2.12824544  *  -1.79892682  *  -1.61214759  *
    18       O          2.08951535  *  -3.02123541  *  -1.46627249  *
    19       O          1.79502673  *  -1.30026743  *  -2.68800186  *
    20       N          5.21941131  *  -1.61249949  *  -3.12926185  *
    21       C          6.18182497  *  -2.65503919  *  -3.59135052  *
    22       C          7.60031443  *  -2.07223775  *  -3.56199814  *
    23       O          7.66868281  *  -0.92278323  *  -4.38825501  *
    24       C          6.79892596  *   0.11015891  *  -3.96023065  *
    25       C          5.34371304  *  -0.37591619  *  -3.95777646  *
    26       H          4.67459072  *   0.41085388  *  -3.53832269  *
    27       H          4.99830117  *  -0.56714227  *  -4.99969074  *
    28       H          6.96170421  *   0.90362552  *  -4.71348532  *
    29       H          7.12412273  *   0.47781484  *  -2.97019871  *
    30       H          8.33780346  *  -2.75988084  *  -4.02213973  *
    31       H          7.93116278  *  -1.81325368  *  -2.53960231  *
    32       H          5.92573453  *  -3.00451833  *  -4.61616665  *
    33       D          4.00190694  *  -1.21843668  *  -0.56175192  *
    34       H          4.25166153  *  -1.96759737  *  -3.18614209  *
    35       H          6.10849665  *  -3.54211129  *  -2.92116940  *
    36       H          5.60759825  *  -2.05212373  *  -0.23355826  *
    37       H          5.43946511  *  -1.35968810  *  -1.81618260  *
    38       O          5.30811384  *  -1.24345137  *  -0.64753328  *


                                Isotopes Used

              Atom:   33  H  Default mass  1.0079,  mass used:  2.0140 amu


          CARTESIAN COORDINATES 

    NO.       ATOM           X           Y           Z

     1         C          3.5852      2.6250     -1.2536
     2         C          3.6679      1.2554     -1.0175
     3         C          2.5135      0.4879     -0.8344
     4         C          1.2597      1.1061     -0.8864
     5         C          1.2128      2.4727     -1.1190
     6         C          2.3429      3.2548     -1.3073
     7         H          4.4986      3.2056     -1.3983
     8         H          4.6558      0.7903     -0.9663
     9         H          0.3509      0.5192     -0.7490
    10        Cl         -0.3279      3.2367     -1.1759
    11         H          2.2798      4.3282     -1.4883
    12         C          2.6553     -0.9692     -0.5709
    13         C          2.2535     -1.3917      0.8216
    14         H          2.4062     -2.4694      0.9848
    15         H          1.2012     -1.1674      1.0454
    16         H          2.8642     -0.8680      1.5741
    17         N          2.1282     -1.7989     -1.6121
    18         O          2.0895     -3.0212     -1.4663
    19         O          1.7950     -1.3003     -2.6880
    20         N          5.2194     -1.6125     -3.1293
    21         C          6.1818     -2.6550     -3.5914
    22         C          7.6003     -2.0722     -3.5620
    23         O          7.6687     -0.9228     -4.3883
    24         C          6.7989      0.1102     -3.9602
    25         C          5.3437     -0.3759     -3.9578
    26         H          4.6746      0.4109     -3.5383
    27         H          4.9983     -0.5671     -4.9997
    28         H          6.9617      0.9036     -4.7135
    29         H          7.1241      0.4778     -2.9702
    30         H          8.3378     -2.7599     -4.0221
    31         H          7.9312     -1.8133     -2.5396
    32         H          5.9257     -3.0045     -4.6162
    33         H          4.0019     -1.2184     -0.5618
    34         H          4.2517     -1.9676     -3.1861
    35         H          6.1085     -3.5421     -2.9212
    36         H          5.6076     -2.0521     -0.2336
    37         H          5.4395     -1.3597     -1.8162
    38         O          5.3081     -1.2435     -0.6475

 General Reference for PM7:
 "Optimization of Parameters for Semiempirical Methods VI: More Modifications to the 
 NDDO Approximations and Re-optimization of Parameters", J. J. P. Stewart, J. Mol. Mod., 1:32, 19 (2013)
 https://link.springer.com/article/10.1007/s00894-012-1667-x

           Empirical Formula: C12 H19 N2 O4 Cl  =    38 atoms



      MOLECULAR POINT GROUP   :   C1  


 SINGLET STATE CALCULATION


      RHF CALCULATION, NO. OF DOUBLY OCCUPIED LEVELS = 54

  SCF CRITERION =    0.1000E-03


          HEAT OF FORMATION =    -119.306414 KCALS/MOLE


          CARTESIAN COORDINATE DERIVATIVES

   NUMBER  ATOM         X            Y            Z

     1       C      1.081364    -0.245256    -0.324733
     2       C      0.836579     0.408917     0.665670
     3       C      1.073634     0.406576     0.337309
     4       C     -0.274669     0.779725     0.122929
     5       C     -0.627892     0.132709    -0.169805
     6       C     -0.048154    -0.233845     0.455387
     7       H      0.537600    -0.088810     0.041605
     8       H      0.187046     0.070754     0.028611
     9       H     -0.687137    -0.394649     0.055541
    10      Cl     -0.502305     0.329384    -0.150791
    11       H      0.322552    -0.615473    -0.266156
    12       C     -0.726848     8.115940     1.910159
    13       C     -0.105610    -0.889435     1.143764
    14       H      0.056976    -0.443896     0.254086
    15       H      0.059493     0.003639    -0.486957
    16       H      0.001909    -0.664846     0.262598
    17       N     -1.394206     1.046821    -1.615729
    18       O      1.031493    -0.726241     0.323890
    19       O     -0.580962     1.109282     0.276654
    20       N     -0.116309    -0.898508    -2.291148
    21       C      0.053414     0.649026    -0.904535
    22       C     -0.441747     0.516035    -1.166005
    23       O     -0.245798     0.039352     0.667556
    24       C     -0.601185    -0.191445     0.362215
    25       C      0.380211     0.146820    -0.158804
    26       H     -0.427755    -0.109725    -0.072261
    27       H      0.409286     0.184104    -0.344207
    28       H      0.796076     0.138059    -0.154417
    29       H     -0.379587    -0.387823     0.380814
    30       H      0.470143    -0.480345     0.689044
    31       H     -0.296230    -0.180617    -0.114778
    32       H     -0.456078     0.321984    -0.773266
    33       H      2.680201   -10.924981     0.097493
    34       H     -0.474384    -0.146026    -0.254971
    35       H      0.178492    -0.236887    -0.158232
    36       H      0.052007     0.130686    -1.506553
    37       H     -0.947104    -0.497949     7.612303
    38       O     -0.874287     3.827169    -4.773132

 DIPOLE           X         Y         Z       TOTAL
 POINT-CHG.     1.340    -8.875    -0.725     9.005
 HYBRID         0.414     1.064     0.947     1.484
 SUM            1.754    -7.811     0.222     8.008


          GRADIENT NORM =  18.16777



 ** GRADIENT IS VERY LARGE, BUT SINCE "LET" IS USED, CALCULATION WILL CONTINUE


                              **** WARNING ****

           GRADIENT IS VERY LARGE FOR A THERMO CALCULATION
           RESULTS ARE LIKELY TO BE INACCURATE IF THERE ARE
           ANY LOW-LYING VIBRATIONS (LESS THAN ABOUT 400CM-1)
           GRADIENT NORM SHOULD BE LESS THAN ABOUT 1.2 FOR THERMO
           TO GIVE ACCURATE RESULTS


          TIME FOR SCF CALCULATION =    0.12

          TIME FOR DERIVATIVES     =    0.05

          MOLECULAR WEIGHT =  291.75



          ROTATIONAL CONSTANTS IN CM(-1)

          A =    0.01680567   B =    0.00597585   C =    0.00506741



           PRINCIPAL MOMENTS OF INERTIA IN UNITS OF 10**(-40)*GRAM-CM**2

          A =     1665.6729   B =     4684.3152   C =     5524.0741


          ORIENTATION OF MOLECULE IN FORCE CALCULATION

    NO.       ATOM         X         Y         Z

     1          C      -2.4808   -0.2578   -1.0763
     2          C      -1.0886   -0.2578   -1.0763
     3          C      -0.3712    0.9424   -1.0763
     4          C      -1.0626    2.1585   -1.0792
     5          C      -2.4492    2.1231   -1.0836
     6          C      -3.1833    0.9461   -1.0800
     7          H      -3.0222   -1.2060   -1.0719
     8          H      -0.5637   -1.2165   -1.0879
     9          H      -0.5160    3.1021   -1.0756
    10         Cl      -3.3020    3.6176   -1.0949
    11          H      -4.2737    0.9446   -1.0840
    12          C       1.1154    0.8895   -1.0907
    13          C       1.7432    1.3833   -2.3717
    14          H       2.8401    1.2948   -2.3532
    15          H       1.4980    2.4328   -2.5867
    16          H       1.3919    0.7858   -3.2279
    17          N       1.7237    1.4044    0.0989
    18          O       2.9486    1.5134    0.1674
    19          O       1.0310    1.6560    1.0858
    20          N       1.4668   -1.7659    1.4310
    21          C       2.4712   -2.6959    2.0252
    22          C       1.9872   -4.1391    1.8368
    23          O       0.7204   -4.3087    2.4493
    24          C      -0.2749   -3.4724    1.8865
    25          C       0.1172   -1.9959    2.0284
    26          H      -0.6254   -1.3475    1.5080
    27          H       0.1082   -1.6950    3.1012
    28          H      -1.1735   -3.7142    2.4844
    29          H      -0.4494   -3.7649    0.8352
    30          H       2.6294   -4.8629    2.3773
    31          H       1.9254   -4.4300    0.7722
    32          H       2.6260   -2.4750    3.1046
    33          H       1.4421   -0.4403   -1.1129
    34          H       1.7490   -0.7854    1.5885
    35          H       3.4531   -2.5428    1.5213
    36          H       2.4133   -1.9821   -1.3594
    37          H       1.4538   -1.9311    0.0860
    38          O       1.5298   -1.7462   -1.0787


    FIRST DERIVATIVES WILL BE USED IN THE CALCULATION OF SECOND DERIVATIVES

          ESTIMATED TIME TO COMPLETE CALCULATION =       37.41 SECONDS

    FOR POINT-GROUP C1   THERE ARE   1 UNIQUE SYMMETRY FUNCTIONS.

 STEP:   1 TIME =     0.12 SECS, INTEGRAL =      0.12 TIME LEFT:1209599.71
 STEP:   2 TIME =     0.12 SECS, INTEGRAL =      0.25 TIME LEFT:1209599.59
 STEP:   3 TIME =     0.12 SECS, INTEGRAL =      0.38 TIME LEFT:1209599.46
 STEP:   4 TIME =     0.12 SECS, INTEGRAL =      0.50 TIME LEFT:1209599.34
 STEP:   5 TIME =     0.18 SECS, INTEGRAL =      0.68 TIME LEFT:1209599.16
 STEP:   6 TIME =     0.13 SECS, INTEGRAL =      0.80 TIME LEFT:1209599.03
 STEP:   7 TIME =     0.12 SECS, INTEGRAL =      0.93 TIME LEFT:1209598.91
 STEP:   8 TIME =     0.12 SECS, INTEGRAL =      1.05 TIME LEFT:1209598.79
 STEP:   9 TIME =     0.12 SECS, INTEGRAL =      1.18 TIME LEFT:1209598.66
 STEP:  10 TIME =     0.12 SECS, INTEGRAL =      1.30 TIME LEFT:1209598.54
 STEP:  11 TIME =     0.12 SECS, INTEGRAL =      1.43 TIME LEFT:1209598.41
 STEP:  12 TIME =     0.13 SECS, INTEGRAL =      1.55 TIME LEFT:1209598.28
 STEP:  13 TIME =     0.18 SECS, INTEGRAL =      1.73 TIME LEFT:1209598.10
 STEP:  14 TIME =     0.12 SECS, INTEGRAL =      1.86 TIME LEFT:1209597.98
 STEP:  15 TIME =     0.12 SECS, INTEGRAL =      1.98 TIME LEFT:1209597.85
 STEP:  16 TIME =     0.12 SECS, INTEGRAL =      2.11 TIME LEFT:1209597.73
 STEP:  17 TIME =     0.13 SECS, INTEGRAL =      2.24 TIME LEFT:1209597.60
 STEP:  18 TIME =     0.12 SECS, INTEGRAL =      2.36 TIME LEFT:1209597.47
 STEP:  19 TIME =     0.13 SECS, INTEGRAL =      2.49 TIME LEFT:1209597.34
 STEP:  20 TIME =     0.18 SECS, INTEGRAL =      2.67 TIME LEFT:1209597.16
 STEP:  21 TIME =     0.13 SECS, INTEGRAL =      2.80 TIME LEFT:1209597.04
 STEP:  22 TIME =     0.12 SECS, INTEGRAL =      2.93 TIME LEFT:1209596.91
 STEP:  23 TIME =     0.12 SECS, INTEGRAL =      3.05 TIME LEFT:1209596.79
 STEP:  24 TIME =     0.12 SECS, INTEGRAL =      3.18 TIME LEFT:1209596.66
 STEP:  25 TIME =     0.13 SECS, INTEGRAL =      3.30 TIME LEFT:1209596.53
 STEP:  26 TIME =     0.12 SECS, INTEGRAL =      3.43 TIME LEFT:1209596.41
 STEP:  27 TIME =     0.13 SECS, INTEGRAL =      3.56 TIME LEFT:1209596.28
 STEP:  28 TIME =     0.13 SECS, INTEGRAL =      3.69 TIME LEFT:1209596.15
 STEP:  29 TIME =     0.12 SECS, INTEGRAL =      3.81 TIME LEFT:1209596.02
 STEP:  30 TIME =     0.12 SECS, INTEGRAL =      3.94 TIME LEFT:1209595.90
 STEP:  31 TIME =     0.12 SECS, INTEGRAL =      4.06 TIME LEFT:1209595.77
 STEP:  32 TIME =     0.12 SECS, INTEGRAL =      4.19 TIME LEFT:1209595.65
 STEP:  33 TIME =     0.12 SECS, INTEGRAL =      4.31 TIME LEFT:1209595.52
 STEP:  34 TIME =     0.12 SECS, INTEGRAL =      4.43 TIME LEFT:1209595.40
 STEP:  35 TIME =     0.12 SECS, INTEGRAL =      4.56 TIME LEFT:1209595.28
 STEP:  36 TIME =     0.16 SECS, INTEGRAL =      4.72 TIME LEFT:1209595.11
 STEP:  37 TIME =     0.14 SECS, INTEGRAL =      4.86 TIME LEFT:1209594.97
 STEP:  38 TIME =     0.12 SECS, INTEGRAL =      4.98 TIME LEFT:1209594.85
 STEP:  39 TIME =     0.12 SECS, INTEGRAL =      5.11 TIME LEFT:1209594.73
 STEP:  40 TIME =     0.12 SECS, INTEGRAL =      5.23 TIME LEFT:1209594.60
 STEP:  41 TIME =     0.12 SECS, INTEGRAL =      5.36 TIME LEFT:1209594.48
 STEP:  42 TIME =     0.12 SECS, INTEGRAL =      5.48 TIME LEFT:1209594.35
 STEP:  43 TIME =     0.12 SECS, INTEGRAL =      5.61 TIME LEFT:1209594.23
 STEP:  44 TIME =     0.12 SECS, INTEGRAL =      5.73 TIME LEFT:1209594.10
 STEP:  45 TIME =     0.13 SECS, INTEGRAL =      5.87 TIME LEFT:1209593.97
 STEP:  46 TIME =     0.12 SECS, INTEGRAL =      5.99 TIME LEFT:1209593.85
 STEP:  47 TIME =     0.12 SECS, INTEGRAL =      6.11 TIME LEFT:1209593.72
 STEP:  48 TIME =     0.12 SECS, INTEGRAL =      6.24 TIME LEFT:1209593.60
 STEP:  49 TIME =     0.12 SECS, INTEGRAL =      6.36 TIME LEFT:1209593.47
 STEP:  50 TIME =     0.12 SECS, INTEGRAL =      6.49 TIME LEFT:1209593.35
 STEP:  51 TIME =     0.12 SECS, INTEGRAL =      6.61 TIME LEFT:1209593.22
 STEP:  52 TIME =     0.14 SECS, INTEGRAL =      6.75 TIME LEFT:1209593.09
 STEP:  53 TIME =     0.12 SECS, INTEGRAL =      6.88 TIME LEFT:1209592.96
 STEP:  54 TIME =     0.12 SECS, INTEGRAL =      7.00 TIME LEFT:1209592.84
 STEP:  55 TIME =     0.12 SECS, INTEGRAL =      7.12 TIME LEFT:1209592.71
 STEP:  56 TIME =     0.12 SECS, INTEGRAL =      7.25 TIME LEFT:1209592.59
 STEP:  57 TIME =     0.12 SECS, INTEGRAL =      7.37 TIME LEFT:1209592.46
 STEP:  58 TIME =     0.12 SECS, INTEGRAL =      7.50 TIME LEFT:1209592.34
 STEP:  59 TIME =     0.12 SECS, INTEGRAL =      7.62 TIME LEFT:1209592.21
 STEP:  60 TIME =     0.12 SECS, INTEGRAL =      7.74 TIME LEFT:1209592.09
 STEP:  61 TIME =     0.12 SECS, INTEGRAL =      7.87 TIME LEFT:1209591.97
 STEP:  62 TIME =     0.12 SECS, INTEGRAL =      7.99 TIME LEFT:1209591.84
 STEP:  63 TIME =     0.12 SECS, INTEGRAL =      8.11 TIME LEFT:1209591.72
 STEP:  64 TIME =     0.13 SECS, INTEGRAL =      8.25 TIME LEFT:1209591.59
 STEP:  65 TIME =     0.12 SECS, INTEGRAL =      8.37 TIME LEFT:1209591.46
 STEP:  66 TIME =     0.12 SECS, INTEGRAL =      8.50 TIME LEFT:1209591.34
 STEP:  67 TIME =     0.12 SECS, INTEGRAL =      8.62 TIME LEFT:1209591.22
 STEP:  68 TIME =     0.13 SECS, INTEGRAL =      8.75 TIME LEFT:1209591.09
 STEP:  69 TIME =     0.12 SECS, INTEGRAL =      8.87 TIME LEFT:1209590.97
 STEP:  70 TIME =     0.12 SECS, INTEGRAL =      8.99 TIME LEFT:1209590.84
 STEP:  71 TIME =     0.12 SECS, INTEGRAL =      9.11 TIME LEFT:1209590.72
 STEP:  72 TIME =     0.12 SECS, INTEGRAL =      9.24 TIME LEFT:1209590.60
 STEP:  73 TIME =     0.12 SECS, INTEGRAL =      9.36 TIME LEFT:1209590.48
 STEP:  74 TIME =     0.12 SECS, INTEGRAL =      9.48 TIME LEFT:1209590.35
 STEP:  75 TIME =     0.12 SECS, INTEGRAL =      9.61 TIME LEFT:1209590.23
 STEP:  76 TIME =     0.13 SECS, INTEGRAL =      9.73 TIME LEFT:1209590.10
 STEP:  77 TIME =     0.12 SECS, INTEGRAL =      9.86 TIME LEFT:1209589.98
 STEP:  78 TIME =     0.12 SECS, INTEGRAL =      9.98 TIME LEFT:1209589.86
 STEP:  79 TIME =     0.12 SECS, INTEGRAL =     10.11 TIME LEFT:1209589.73
 STEP:  80 TIME =     0.12 SECS, INTEGRAL =     10.23 TIME LEFT:1209589.61
 STEP:  81 TIME =     0.12 SECS, INTEGRAL =     10.35 TIME LEFT:1209589.48
 STEP:  82 TIME =     0.12 SECS, INTEGRAL =     10.48 TIME LEFT:1209589.36
 STEP:  83 TIME =     0.12 SECS, INTEGRAL =     10.60 TIME LEFT:1209589.24
 STEP:  84 TIME =     0.12 SECS, INTEGRAL =     10.72 TIME LEFT:1209589.11
 STEP:  85 TIME =     0.12 SECS, INTEGRAL =     10.85 TIME LEFT:1209588.99
 STEP:  86 TIME =     0.12 SECS, INTEGRAL =     10.97 TIME LEFT:1209588.86
 STEP:  87 TIME =     0.12 SECS, INTEGRAL =     11.09 TIME LEFT:1209588.74
 STEP:  88 TIME =     0.12 SECS, INTEGRAL =     11.21 TIME LEFT:1209588.62
 STEP:  89 TIME =     0.13 SECS, INTEGRAL =     11.34 TIME LEFT:1209588.49
 STEP:  90 TIME =     0.19 SECS, INTEGRAL =     11.54 TIME LEFT:1209588.30
 STEP:  91 TIME =     0.12 SECS, INTEGRAL =     11.66 TIME LEFT:1209588.18
 STEP:  92 TIME =     0.12 SECS, INTEGRAL =     11.78 TIME LEFT:1209588.05
 STEP:  93 TIME =     0.13 SECS, INTEGRAL =     11.91 TIME LEFT:1209587.93
 STEP:  94 TIME =     0.12 SECS, INTEGRAL =     12.04 TIME LEFT:1209587.80
 STEP:  95 TIME =     0.12 SECS, INTEGRAL =     12.16 TIME LEFT:1209587.68
 STEP:  96 TIME =     0.12 SECS, INTEGRAL =     12.28 TIME LEFT:1209587.55
 STEP:  97 TIME =     0.12 SECS, INTEGRAL =     12.40 TIME LEFT:1209587.43
 STEP:  98 TIME =     0.12 SECS, INTEGRAL =     12.53 TIME LEFT:1209587.31
 STEP:  99 TIME =     0.12 SECS, INTEGRAL =     12.65 TIME LEFT:1209587.18
 STEP: 100 TIME =     0.12 SECS, INTEGRAL =     12.77 TIME LEFT:1209587.06
 STEP: 101 TIME =     0.12 SECS, INTEGRAL =     12.90 TIME LEFT:1209586.94
 STEP: 102 TIME =     0.12 SECS, INTEGRAL =     13.02 TIME LEFT:1209586.81
 STEP: 103 TIME =     0.12 SECS, INTEGRAL =     13.14 TIME LEFT:1209586.69
 STEP: 104 TIME =     0.12 SECS, INTEGRAL =     13.27 TIME LEFT:1209586.57
 STEP: 105 TIME =     0.12 SECS, INTEGRAL =     13.39 TIME LEFT:1209586.45
 STEP: 106 TIME =     0.12 SECS, INTEGRAL =     13.52 TIME LEFT:1209586.32
 STEP: 107 TIME =     0.12 SECS, INTEGRAL =     13.64 TIME LEFT:1209586.20
 STEP: 108 TIME =     0.12 SECS, INTEGRAL =     13.77 TIME LEFT:1209586.07
 STEP: 109 TIME =     0.12 SECS, INTEGRAL =     13.89 TIME LEFT:1209585.95
 STEP: 110 TIME =     0.12 SECS, INTEGRAL =     14.02 TIME LEFT:1209585.82
 STEP: 111 TIME =     0.13 SECS, INTEGRAL =     14.14 TIME LEFT:1209585.69
 STEP: 112 TIME =     0.12 SECS, INTEGRAL =     14.27 TIME LEFT:1209585.57
 STEP: 113 TIME =     0.12 SECS, INTEGRAL =     14.39 TIME LEFT:1209585.45
 STEP: 114 TIME =     0.12 SECS, INTEGRAL =     14.52 TIME LEFT:1209585.32

(To convert to Hartree/Bohr^2, multiply by (10^(-21) x N x a0^2)/(4.184 x 627.51) =  0.0642)


           FORCE MATRIX IN MILLIDYNES/ANGSTROM


                  C  1       C  2       C  3       C  4       C  5       C  6
 ------------------------------------------------------------------------------
     C    1  15.395277
     C    2   6.256016  15.337059
     C    3   1.929276   5.980392  16.062476
     C    4   1.203842   1.866314   5.925479  15.227624
     C    5   2.024058   1.193420   2.008721   6.348248  14.706595
     C    6   6.231449   1.903671   1.187130   1.818898   6.354834  15.395584
     H    7   3.407389   0.744924   0.085996   0.014754   0.089122   0.741860
     H    8   0.763687   3.372787   0.740272   0.082832   0.013056   0.085784
     H    9   0.008469   0.084663   0.742325   3.393840   0.753918   0.080476
    Cl   10   0.102287   0.015690   0.087484   0.819154   2.404421   0.816571
     H   11   0.750939   0.087960   0.002297   0.080808   0.748675   3.392375
     C   12   0.087812   0.799631   3.724631   0.771142   0.096917   0.010048
     C   13   0.012036   0.031564   0.651194   0.040773   0.021323   0.009171
     H   14   0.001832   0.003108   0.042443   0.003256   0.001998   0.001197
     H   15   0.001069   0.003354   0.019552   0.003602   0.006055   0.002544
     H   16   0.001956   0.005100   0.028379   0.006631   0.006308   0.003655
     N   17   0.018742   0.043257   0.993665   0.115403   0.125528   0.026496
     O   18   0.006491   0.030330   0.106322   0.071140   0.058907   0.012194
     O   19   0.004931   0.018722   0.066761   0.058381   0.056006   0.010594
     N   20   0.002606   0.012558   0.017802   0.007100   0.007059   0.002874
     C   21   0.001121   0.002914   0.004114   0.002047   0.002626   0.001436
     C   22   0.001206   0.001578   0.001888   0.000862   0.001264   0.000970
     O   23   0.001736   0.003484   0.002014   0.001514   0.002617   0.001858
     C   24   0.002006   0.004536   0.002170   0.001574   0.002082   0.001744
     C   25   0.002532   0.014267   0.003912   0.002427   0.005957   0.002180
     H   26   0.001411   0.012187   0.002691   0.001555   0.004265   0.002012
     H   27   0.000446   0.002664   0.001412   0.000985   0.001929   0.000725
     H   28   0.000918   0.001598   0.000994   0.000748   0.001116   0.000936
     H   29   0.000413   0.001396   0.000579   0.000440   0.000662   0.000438
     H   30   0.000415   0.000674   0.000389   0.000707   0.001553   0.000653
     H   31   0.000266   0.001037   0.000689   0.000251   0.000319   0.000209
     H   32   0.000504   0.000982   0.001197   0.000813   0.001384   0.000573
     H   33   0.009551   0.074098   0.579438   0.056212   0.035059   0.016339
     H   34   0.001077   0.005087   0.004783   0.003700   0.002957   0.001526
     H   35   0.000391   0.001150   0.001101   0.001019   0.000947   0.000452
     H   36   0.001904   0.007165   0.017826   0.006119   0.006202   0.002155
     H   37   0.005689   0.018981   0.041989   0.013603   0.011654   0.005356
     O   38   0.012262   0.062071   0.127333   0.039227   0.031649   0.013299


                  H  7       H  8       H  9      Cl 10       H 11       C 12
 ------------------------------------------------------------------------------
     H    7   4.304428
     H    8   0.034080   4.293653
     H    9   0.010375   0.008542   4.301261
    Cl   10   0.016704   0.013234   0.044549   3.815049
     H   11   0.042616   0.010262   0.008544   0.042712   4.282885
     C   12   0.009574   0.037573   0.044628   0.024526   0.009361  12.339101
     C   13   0.004053   0.008169   0.008049   0.007226   0.005239   3.217844
     H   14   0.000921   0.001781   0.001637   0.001946   0.000960   0.697463
     H   15   0.001120   0.001009   0.008152   0.003788   0.001442   0.690708
     H   16   0.002057   0.002159   0.002324   0.002960   0.002156   0.677575
     N   17   0.013659   0.026774   0.128364   0.031032   0.013530   3.538937
     O   18   0.005932   0.011622   0.055728   0.012735   0.006818   1.415630
     O   19   0.005620   0.008450   0.061419   0.012505   0.006494   1.436864
     N   20   0.003033   0.011802   0.002438   0.004114   0.001701   0.155158
     C   21   0.000873   0.003322   0.001454   0.001887   0.001089   0.024634
     C   22   0.001228   0.001903   0.000758   0.001104   0.000742   0.009119
     O   23   0.001209   0.002961   0.000626   0.002151   0.001252   0.005950
     C   24   0.001861   0.005338   0.001033   0.001732   0.001135   0.009668
     C   25   0.001948   0.003919   0.001393   0.003743   0.001376   0.023416
     H   26   0.002350   0.012226   0.000980   0.002403   0.001103   0.009654
     H   27   0.000360   0.002376   0.000349   0.001284   0.000280   0.005920
     H   28   0.000706   0.001529   0.000293   0.000906   0.000828   0.002859
     H   29   0.000970   0.002407   0.000407   0.000532   0.000295   0.006749
     H   30   0.000211   0.000678   0.000524   0.001331   0.000584   0.002615
     H   31   0.000391   0.001227   0.000183   0.000202   0.000144   0.006763
     H   32   0.000322   0.000874   0.000420   0.001080   0.000456   0.006047
     H   33   0.011154   0.068772   0.015293   0.009841   0.009051   1.011603
     H   34   0.001335   0.005455   0.002254   0.001761   0.000976   0.030810
     H   35   0.000494   0.001156   0.000584   0.000748   0.000322   0.008959
     H   36   0.001709   0.016266   0.001667   0.003435   0.001082   0.176362
     H   37   0.003984   0.037319   0.003463   0.007111   0.002913   0.380020
     O   38   0.010862   0.078501   0.010170   0.014968   0.007605   1.575841


                  C 13       H 14       H 15       H 16       N 17       O 18
 ------------------------------------------------------------------------------
     C   13  11.128081
     H   14   3.344542   4.156085
     H   15   3.356206   0.459045   4.154174
     H   16   3.334638   0.455678   0.454260   4.156452
     N   17   0.822279   0.098901   0.040360   0.087888  18.840074
     O   18   0.090166   0.024279   0.013106   0.016238   8.976344  11.702668
     O   19   0.110739   0.030779   0.014532   0.017797   9.010540   2.572791
     N   20   0.005150   0.009303   0.002875   0.005173   0.102413   0.027152
     C   21   0.002203   0.001587   0.001270   0.000907   0.017092   0.005733
     C   22   0.001514   0.001062   0.000428   0.000631   0.007223   0.003496
     O   23   0.001345   0.000660   0.000640   0.000756   0.004980   0.001949
     C   24   0.001402   0.000604   0.000646   0.000730   0.009052   0.003500
     C   25   0.002533   0.001362   0.001134   0.001116   0.020917   0.010507
     H   26   0.002488   0.000667   0.000589   0.000736   0.018070   0.007787
     H   27   0.001198   0.000398   0.000344   0.000510   0.013300   0.007036
     H   28   0.001163   0.000260   0.000457   0.000237   0.003460   0.001502
     H   29   0.000893   0.000176   0.000184   0.000574   0.005032   0.002469
     H   30   0.000765   0.000453   0.000413   0.000214   0.002895   0.001672
     H   31   0.000986   0.000345   0.000207   0.000527   0.004229   0.001640
     H   32   0.001118   0.000985   0.000424   0.000518   0.006308   0.003141
     H   33   0.538560   0.067527   0.043338   0.048299   1.422821   0.289809
     H   34   0.007041   0.005388   0.001339   0.001543   0.092730   0.021354
     H   35   0.001542   0.002289   0.000271   0.000348   0.005433   0.002701
     H   36   0.042036   0.033241   0.003273   0.009982   0.092806   0.025867
     H   37   0.012552   0.031832   0.006069   0.010991   0.227036   0.050344
     O   38   0.067630   0.061962   0.019244   0.023206   0.647343   0.169858


                  O 19       N 20       C 21       C 22       O 23       C 24
 ------------------------------------------------------------------------------
     O   19  11.708319
     N   20   0.045124  12.517947
     C   21   0.005166   3.724251  12.121973
     C   22   0.002783   0.868441   2.714522  11.956735
     O   23   0.001768   0.062080   1.001362   4.223016   9.644423
     C   24   0.003783   0.835968   0.073403   1.112139   4.232183  11.921834
     C   25   0.006629   3.682244   0.789161   0.074858   0.971334   2.718761
     H   26   0.008610   0.765094   0.071920   0.014727   0.072122   0.644302
     H   27   0.006272   0.822890   0.027062   0.009061   0.028131   0.688945
     H   28   0.001795   0.058390   0.009996   0.109066   0.745052   3.266466
     H   29   0.001664   0.010754   0.006464   0.060875   0.745672   3.244220
     H   30   0.001440   0.059471   0.629896   3.266620   0.733621   0.106582
     H   31   0.001939   0.013066   0.670162   3.240539   0.749408   0.061241
     H   32   0.002594   0.821055   3.214429   0.691300   0.026827   0.009193
     H   33   0.297755   0.247743   0.033769   0.012624   0.004645   0.011508
     H   34   0.049388   3.559970   0.803336   0.077085   0.017026   0.076428
     H   35   0.002101   0.767896   3.203213   0.644862   0.070567   0.015565
     H   36   0.025639   0.132356   0.014457   0.007121   0.003719   0.006182
     H   37   0.092810   0.689144   0.345718   0.047870   0.054484   0.052678
     O   38   0.189080   1.695452   0.110048   0.040375   0.042139   0.048443


                  C 25       H 26       H 27       H 28       H 29       H 30
 ------------------------------------------------------------------------------
     C   25  12.061569
     H   26   3.205062   4.141333
     H   27   3.195055   0.434163   4.139220
     H   28   0.645134   0.018158   0.019588   4.158020
     H   29   0.670521   0.017980   0.044421   0.435357   4.138938
     H   30   0.009992   0.001207   0.002921   0.024611   0.005712   4.137756
     H   31   0.005747   0.002600   0.003343   0.006381   0.012782   0.434284
     H   32   0.025469   0.003813   0.010738   0.002912   0.003052   0.020683
     H   33   0.032788   0.015174   0.007680   0.003064   0.010778   0.003258
     H   34   0.821147   0.035269   0.031295   0.011746   0.004759   0.012274
     H   35   0.072664   0.014507   0.004844   0.001520   0.002606   0.016146
     H   36   0.016312   0.005338   0.003622   0.001271   0.004179   0.002058
     H   37   0.303602   0.060847   0.052208   0.015188   0.025458   0.016132
     O   38   0.117704   0.033606   0.027374   0.009632   0.018601   0.010608


                  H 31       H 32       H 33       H 34       H 35       H 36
 ------------------------------------------------------------------------------
     H   31   4.131553
     H   32   0.045400   4.156500
     H   33   0.011029   0.007702   1.113932
     H   34   0.005055   0.029934   0.051815   4.396018
     H   35   0.016266   0.432512   0.014018   0.033318   4.136685
     H   36   0.005939   0.004343   0.426540   0.015877   0.008278   4.255295
     H   37   0.028292   0.051638   0.728276   0.285468   0.064574   0.490470
     O   38   0.020202   0.026390   0.700174   0.068133   0.035366   3.877732


                  H 37       O 38
 ------------------------------
     H   37   1.543309
     O   38   1.239949   5.795315


          HEAT OF FORMATION =    -119.306414 KCALS/MOLE


          TRIVIAL VIBRATIONS, SHOULD BE ZERO

   3.1135=TX -48.1556=TY -22.5293=TZ -16.6824=RX  13.1786=RY -28.9367=RZ


      MOLECULAR POINT GROUP   :   C1  


           EIGENVECTORS  


   Root No.       1         2         3         4         5         6         7         8

                 1 A       2 A       3 A       4 A       5 A       6 A       7 A       8 A   

                  -1.0      -0.0      -0.0      -0.0      -0.0       0.0       0.0       0.0
  
           1   -0.0155    0.0155    0.0012    0.0688   -0.0232    0.0061    0.1298   -0.0449
           2   -0.0048   -0.0267    0.0467   -0.1099    0.0376    0.0295   -0.0762    0.0094
           3    0.0044   -0.1858    0.1508    0.0853   -0.1278    0.0072    0.0567   -0.0254
           4   -0.0220    0.0154    0.0023    0.0684   -0.0236    0.0048    0.1294   -0.0444
           5   -0.0127   -0.0303    0.0199   -0.0555    0.0229    0.0572   -0.0110    0.0131
           6    0.0006   -0.2160    0.0587    0.0444   -0.0601    0.0947    0.0078   -0.1703
           7   -0.0159    0.0164    0.0239    0.0232   -0.0107   -0.0158    0.0796   -0.0480
           8   -0.0189   -0.0309    0.0060   -0.0281    0.0160    0.0712    0.0190    0.0152
           9   -0.0139   -0.0186   -0.0267    0.0143    0.0130    0.1080   -0.0238   -0.1719
          10    0.0288    0.0193    0.0456   -0.0238    0.0026   -0.0377    0.0227   -0.0506
          11   -0.0064   -0.0285    0.0193   -0.0547    0.0229    0.0571   -0.0127    0.0143
          12   -0.0006    0.2220   -0.0593    0.0191    0.0527    0.0843   -0.0309   -0.1690
          13    0.0177    0.0199    0.0457   -0.0231    0.0022   -0.0383    0.0237   -0.0508
          14    0.0023   -0.0249    0.0462   -0.1091    0.0377    0.0304   -0.0768    0.0103
          15    0.0167    0.2116    0.0561    0.0705   -0.0280   -0.0120    0.0319    0.0227
          16    0.0052    0.0177    0.0236    0.0223   -0.0105   -0.0162    0.0753   -0.0475
          17    0.0077   -0.0247    0.0592   -0.1368    0.0453    0.0171   -0.1086    0.0077
          18    0.0084    0.0083    0.1814    0.1107   -0.1360   -0.0656    0.0827    0.1249
          19   -0.0172    0.0132   -0.0164    0.1030   -0.0319    0.0240    0.1736   -0.0440
          20   -0.0033   -0.0259    0.0570   -0.1299    0.0427    0.0190   -0.1014    0.0084
          21    0.0016   -0.3028    0.2062    0.0980   -0.1774   -0.0142    0.0781   -0.0040
          22   -0.0002    0.0185   -0.0152    0.1046   -0.0338    0.0222    0.1620   -0.0382
          23   -0.0122   -0.0280    0.0103   -0.0354    0.0171    0.0669    0.0085    0.0167
          24    0.0065   -0.3581    0.0499    0.0312   -0.0597    0.1287   -0.0086   -0.2381
          25    0.0186    0.0228    0.0651   -0.0601    0.0136   -0.0550   -0.0202   -0.0505
          26   -0.0050   -0.0310    0.0082   -0.0337    0.0160    0.0670    0.0120    0.0138
          27   -0.0152    0.3725   -0.1503   -0.0161    0.1227    0.1084   -0.0740   -0.2522
          28    0.0148    0.0222    0.0733   -0.0816    0.0186   -0.0667   -0.0459   -0.0590
          29   -0.0022   -0.0215    0.0617   -0.1417    0.0466    0.0125   -0.1156    0.0071
          30    0.0081    0.5241    0.0577    0.0953   -0.0032   -0.0972    0.0569    0.1962
          31    0.0021    0.0186    0.0234    0.0224   -0.0103   -0.0162    0.0755   -0.0482
          32    0.0130   -0.0189    0.0818   -0.1780    0.0557   -0.0055   -0.1576    0.0068
          33    0.0031    0.0042    0.2712    0.1448   -0.2037   -0.1517    0.1293    0.2955
          34    0.0358    0.0158    0.0221    0.0243   -0.0124   -0.0177    0.0815   -0.0479
          35   -0.2996   -0.0309   -0.0137    0.0212   -0.0036    0.0767    0.0769    0.0113
          36   -0.0775   -0.0412   -0.0548   -0.0252    0.0225    0.0899   -0.0248   -0.0336
          37   -0.0003   -0.0107    0.0143   -0.0321   -0.0146   -0.0605    0.0755    0.1519
          38    0.0341   -0.0392   -0.0512   -0.0112   -0.1260   -0.0605    0.0721   -0.0594
          39   -0.0160   -0.0576   -0.0718   -0.0655   -0.0295    0.0099   -0.0288    0.0396
          40    0.0067   -0.0098    0.0111   -0.0305   -0.0217   -0.0709    0.0759    0.1353
          41    0.0357   -0.0325   -0.0945    0.0050   -0.2190   -0.2028    0.0750   -0.2691
          42   -0.0209   -0.0772   -0.0921   -0.1052   -0.0616   -0.0757   -0.0302    0.1469
          43   -0.0299   -0.0225    0.0518   -0.0586    0.0645    0.0517    0.0701    0.3794
          44    0.0247   -0.0428   -0.0434   -0.0224   -0.1184   -0.0406    0.0697   -0.0054
          45    0.0556   -0.0617   -0.0764   -0.0901   -0.0804   -0.0191   -0.0339    0.0515
          46    0.0191   -0.0215   -0.0258   -0.0555   -0.0932   -0.2100    0.0776    0.1243
          47    0.0530   -0.0493   -0.0466   -0.0457   -0.1466   -0.0577    0.0638    0.0327
          48   -0.0507   -0.0462   -0.0583   -0.0320    0.0167    0.0693   -0.0239   -0.0122
          49    0.0390    0.0383    0.0408    0.0486    0.0102    0.0327    0.0614   -0.1929
          50   -0.0088   -0.0143    0.0083    0.0822    0.0953    0.2134    0.1170    0.0614
          51    0.0666   -0.0593   -0.0734   -0.0654   -0.0342   -0.0003   -0.0347    0.0223
          52   -0.0072    0.0386    0.0446    0.0529    0.0172    0.0495    0.0671   -0.1931
          53    0.0328   -0.0203   -0.0224    0.0561    0.0062    0.0190    0.0427   -0.0081
          54    0.0045   -0.0754   -0.0789   -0.0856   -0.0322    0.0033    0.0080    0.1793
          55   -0.0363    0.0536    0.0508    0.0697    0.0186    0.0569    0.0406   -0.3141
          56    0.0669    0.0075    0.0732    0.1644    0.2848    0.5558    0.2455    0.1891
          57   -0.0668   -0.0527   -0.0831   -0.0724   -0.0763   -0.0717   -0.0831   -0.0982
          58   -0.0012   -0.0262   -0.1043    0.0655   -0.0278    0.0417   -0.1464    0.0581
          59    0.0075    0.0267    0.0236    0.0376    0.0347   -0.0893   -0.0088   -0.0156
          60    0.1020   -0.0210    0.0228    0.0661    0.1230   -0.0543   -0.0388    0.0012
          61   -0.0030   -0.0259   -0.0665   -0.0383    0.0167    0.0208   -0.0845    0.0427
          62    0.0126    0.0611    0.1074   -0.0658    0.0224   -0.0852    0.0134   -0.0386
          63    0.0433    0.0326    0.0908    0.0789    0.0270   -0.0119   -0.1056   -0.0072
          64    0.0039   -0.0083    0.0809   -0.1212    0.0654   -0.0023   -0.0683    0.0078
          65    0.0077    0.0478    0.0661   -0.0201    0.0301   -0.0943    0.0073   -0.0298
          66    0.0111    0.0941    0.0332   -0.0665   -0.1602    0.1151   -0.0843    0.0093
          67   -0.0037   -0.0153    0.0391   -0.1806    0.0872   -0.0189    0.0171    0.0045
          68   -0.0132    0.0690   -0.0648    0.0102   -0.1063   -0.0155   -0.0150    0.0048
          69   -0.0077    0.0860   -0.0912   -0.1820   -0.1540    0.1029    0.0875    0.0120
          70   -0.0006   -0.0139    0.0136   -0.0841    0.0348    0.0154   -0.0779    0.0247
          71    0.0062    0.0218   -0.1338    0.1473   -0.0430   -0.0617   -0.0755    0.0240
          72    0.0119    0.0132   -0.1485   -0.1484    0.0327   -0.0257    0.1674    0.0047
          73    0.0049   -0.0400   -0.1249    0.0251    0.0127    0.0157   -0.1170    0.0567
          74    0.0076    0.0345   -0.1037    0.1042   -0.0493   -0.0554   -0.0490    0.0145
          75    0.0443   -0.0478   -0.0708   -0.0003    0.1777   -0.0987    0.0137    0.0108
          76    0.0222   -0.0329   -0.1436    0.0963   -0.0321    0.0391   -0.1663    0.0675
          77   -0.0031   -0.0008   -0.1470    0.2080   -0.0102   -0.0844   -0.1293    0.0328
          78    0.0043   -0.1016   -0.0965    0.0280    0.2908   -0.1682   -0.0192    0.0185
          79   -0.0375   -0.0743   -0.2193    0.0104    0.0685   -0.0299   -0.0993    0.0727
          80   -0.0016    0.0854   -0.1410    0.0127   -0.1655    0.0056    0.0455    0.0089
          81    0.0346   -0.0622   -0.0611    0.0250    0.2100   -0.1159   -0.0115    0.0125
          82    0.0002   -0.0278   -0.0142   -0.1275    0.0871   -0.0264    0.0081    0.0148
          83   -0.0017    0.0369   -0.2267    0.1632   -0.1312   -0.0175   -0.0601    0.0410
          84    0.0026   -0.0017   -0.2265   -0.2061    0.0751   -0.0703    0.3044   -0.0038
          85    0.0108    0.0227    0.1238   -0.0633   -0.0445    0.0855   -0.2137    0.0277
          86    0.0237   -0.0343   -0.1167    0.2575    0.0875   -0.1386   -0.1559    0.0297
          87    0.0051    0.0228   -0.1702   -0.1821    0.0094   -0.0158    0.2120    0.0022
          88   -0.0008   -0.0092    0.0961   -0.2114    0.1038   -0.0244    0.0173   -0.0077
          89    0.0023    0.0776    0.1190   -0.1025   -0.0200   -0.0530    0.0051   -0.0381
          90    0.0039    0.1346    0.0877   -0.0693   -0.2724    0.1973   -0.1913    0.0170
          91    0.0041    0.0086    0.2152   -0.0540    0.0515    0.0172   -0.2147    0.0010
          92    0.0271   -0.0038    0.0699    0.0671    0.1774   -0.1988    0.0324   -0.0409
          93    0.0061    0.1068    0.0241   -0.0939   -0.1994    0.1425   -0.0832    0.0128
          94    0.0254   -0.0410   -0.1711   -0.1076   -0.0023    0.0509   -0.0233    0.0617
          95   -0.0229    0.1125    0.1104   -0.1536   -0.1025   -0.0078    0.0071   -0.0356
          96    0.0357    0.0244    0.1050    0.1064    0.0543   -0.0315   -0.1133   -0.0103
          97   -0.1373    0.0199    0.0124    0.0707   -0.0259   -0.0052    0.1274   -0.0624
          98    0.6701   -0.0310   -0.0245    0.0292   -0.0041    0.0758    0.0722   -0.0036
          99    0.0803   -0.0316   -0.0273    0.0122    0.1061    0.1474   -0.0178    0.0396
         100   -0.0016   -0.0407   -0.1985    0.1287   -0.0483    0.0514   -0.1695    0.0791
         101   -0.0119    0.0351    0.0475    0.0114    0.0341   -0.0913   -0.0021   -0.0214
         102    0.0488   -0.0456    0.0438    0.1103    0.1481   -0.0543   -0.0262   -0.0047
         103   -0.0226   -0.0214   -0.0401    0.0107    0.0144    0.0139   -0.1204    0.0404
         104    0.0136    0.0479    0.2004   -0.0938    0.1231   -0.1476    0.0422   -0.0658
         105    0.0036    0.0369    0.1690    0.1662    0.0546   -0.0463   -0.1663   -0.0200
         106    0.0446    0.0245    0.0178    0.1217   -0.0743    0.0196    0.0554   -0.0169
         107   -0.1179   -0.0308   -0.0178    0.0500   -0.0433    0.1259    0.0131    0.0522
         108    0.0763    0.0005    0.0468    0.0764    0.1318   -0.1024    0.0731   -0.0232
         109    0.0362    0.0007   -0.0119    0.1021   -0.0785    0.0697   -0.1213    0.0283
         110   -0.1141   -0.0122    0.0164    0.0636    0.0396   -0.0624    0.0395   -0.0070
         111   -0.4243   -0.0134    0.0371    0.0616    0.1116   -0.0649   -0.0307    0.0177
         112    0.0130    0.0192    0.0135    0.1139   -0.0700    0.0231    0.0420   -0.0173
         113   -0.3885   -0.0304   -0.0106    0.0372   -0.0067    0.0698    0.0756    0.0133
         114    0.0036   -0.0172    0.0247    0.0613    0.1162   -0.0411   -0.0247    0.0069


   Root No.       9        10        11        12        13        14        15        16

                 9 A      10 A      11 A      12 A      13 A      14 A      15 A      16 A   

                   0.0       0.0       0.0       0.1       0.1       0.1       0.1       0.1
  
           1   -0.0191    0.0036    0.0598   -0.0458    0.0582   -0.0017   -0.0167   -0.0043
           2    0.0533    0.0498   -0.0435    0.0191    0.0080    0.0069   -0.0161   -0.0202
           3   -0.0179   -0.0680    0.0009    0.0178    0.0124   -0.0383   -0.0106   -0.0279
           4   -0.0184    0.0030    0.0591   -0.0448    0.0546   -0.0036   -0.0143    0.0032
           5    0.0397    0.0645   -0.0124   -0.0152    0.0746    0.0251   -0.0567   -0.1234
           6   -0.0569   -0.1105    0.0033    0.0271    0.0144    0.1795    0.0618   -0.0047
           7   -0.0102   -0.0112    0.0403   -0.0267    0.0137   -0.0085    0.0106    0.0496
           8    0.0337    0.0732   -0.0008   -0.0264    0.1018    0.0305   -0.0743   -0.1616
           9   -0.0529   -0.1105   -0.0006    0.0227    0.0141   -0.0268    0.0001    0.0018
          10   -0.0003   -0.0234    0.0130    0.0040   -0.0365   -0.0220    0.0409    0.1248
          11    0.0404    0.0661   -0.0159   -0.0101    0.0716    0.0210   -0.0564   -0.1150
          12   -0.0471   -0.0902    0.0030    0.0207    0.0165   -0.1384   -0.0460   -0.0515
          13    0.0001   -0.0236    0.0133    0.0038   -0.0389   -0.0252    0.0425    0.1334
          14    0.0537    0.0509   -0.0456    0.0223    0.0068    0.0059   -0.0162   -0.0161
          15    0.0047   -0.0398    0.0038    0.0118    0.0128    0.0106    0.0006   -0.0055
          16   -0.0092   -0.0098    0.0350   -0.0187    0.0081   -0.0145    0.0134    0.0684
          17    0.0590    0.0426   -0.0589    0.0360   -0.0217    0.0002    0.0016    0.0224
          18    0.0268   -0.0298   -0.0019    0.0096    0.0075   -0.1529   -0.0461    0.0067
          19   -0.0276    0.0131    0.0829   -0.0720    0.1053    0.0104   -0.0441   -0.0716
          20    0.0583    0.0447   -0.0568    0.0339   -0.0184    0.0004   -0.0005    0.0184
          21   -0.0149   -0.0626    0.0009    0.0177    0.0186   -0.0877   -0.0297   -0.0665
          22   -0.0235    0.0220    0.0635   -0.0496    0.0884    0.0005   -0.0430   -0.0571
          23    0.0372    0.0747   -0.0090   -0.0175    0.0935    0.0259   -0.0746   -0.1561
          24   -0.0785   -0.1296    0.0080    0.0371    0.0210    0.5006    0.1607    0.0067
          25    0.0094   -0.0362   -0.0078    0.0279   -0.0908   -0.0379    0.0742    0.2160
          26    0.0348    0.0738   -0.0040   -0.0239    0.1029    0.0307   -0.0762   -0.1685
          27   -0.0681   -0.0977    0.0045    0.0267    0.0299   -0.2848   -0.0991   -0.1137
          28    0.0138   -0.0423   -0.0192    0.0414   -0.1188   -0.0479    0.0959    0.2744
          29    0.0615    0.0413   -0.0633    0.0424   -0.0370   -0.0019    0.0148    0.0618
          30    0.0566    0.0180    0.0140    0.0048    0.0298    0.6112    0.1807    0.0634
          31   -0.0093   -0.0100    0.0354   -0.0193    0.0083   -0.0148    0.0138    0.0705
          32    0.0696    0.0310   -0.0825    0.0622   -0.0716   -0.0145    0.0316    0.0991
          33    0.0720    0.0089   -0.0065    0.0012    0.0032   -0.3180   -0.0957    0.0416
          34   -0.0103   -0.0094    0.0421   -0.0286    0.0180   -0.0094    0.0132    0.0479
          35    0.0335    0.0784    0.0257   -0.0484    0.0941    0.0117   -0.0395   -0.0248
          36   -0.0260   -0.1424   -0.0035    0.0273    0.0311   -0.0461    0.0084    0.0580
          37    0.0025   -0.0598    0.0413   -0.0172    0.0739    0.0326   -0.0144   -0.0889
          38   -0.0086    0.1532    0.0492   -0.1217   -0.1082    0.0098   -0.0122    0.0351
          39   -0.0363   -0.1343    0.0054    0.0037   -0.0190   -0.0250    0.0040    0.0175
          40    0.0359   -0.0672    0.0427   -0.0188    0.0697    0.0334   -0.0145   -0.0924
          41    0.4551    0.0595    0.0608   -0.1445   -0.1864    0.0057   -0.0073    0.0654
          42    0.1610   -0.2290    0.0085    0.0136    0.0212    0.0188   -0.0216   -0.1258
          43   -0.4060    0.0141    0.0313    0.0022    0.1626    0.0527   -0.0304   -0.1588
          44   -0.1602    0.1966    0.0502   -0.1329   -0.1279    0.0118   -0.0114    0.0407
          45   -0.3202   -0.0111    0.0206   -0.0616   -0.1933   -0.0361    0.0271    0.1015
          46    0.3916   -0.1743    0.0536   -0.0248    0.0621    0.0694   -0.0305   -0.2056
          47   -0.3473    0.2696    0.0572   -0.1697   -0.2197    0.0134   -0.0029    0.0745
          48    0.0410   -0.1697   -0.0047    0.0383    0.0604   -0.0416    0.0033    0.0367
          49   -0.0419    0.0137    0.0378   -0.0381    0.0118   -0.0023   -0.0383   -0.1075
          50    0.0808    0.0117    0.0234   -0.0197    0.1240   -0.0328    0.0368    0.1764
          51   -0.0311   -0.1223   -0.0028    0.0251    0.0233   -0.0306    0.0094    0.0350
          52   -0.0387    0.0071    0.0413   -0.0495   -0.0184    0.0021   -0.0477   -0.1325
          53    0.0371    0.1276   -0.0236    0.1119    0.5882   -0.0773    0.1325    0.4838
          54    0.0139   -0.1789    0.0191   -0.0129   -0.1518   -0.0175    0.0233    0.0732
          55   -0.0696    0.0450    0.0312   -0.0398    0.0605   -0.0020   -0.0755   -0.2053
          56    0.1719   -0.1817    0.0798   -0.1487   -0.3813   -0.0249    0.0174    0.0875
          57   -0.0750   -0.0519   -0.0213    0.0562    0.1826   -0.0331   -0.0141   -0.0092
          58    0.0236    0.0233   -0.0947   -0.0674   -0.0075   -0.0116    0.0452   -0.0146
          59   -0.0525   -0.0806    0.0294    0.0318   -0.0177   -0.0231    0.0873   -0.0420
          60    0.0333    0.1264   -0.0064   -0.0294   -0.0005   -0.0453    0.1481   -0.0806
          61    0.0170    0.0132   -0.0202   -0.0111   -0.0119   -0.0198    0.0662   -0.0250
          62   -0.0698   -0.1263    0.0367    0.0266   -0.0115    0.0036   -0.0096   -0.0106
          63    0.0178    0.0786   -0.1164   -0.1307    0.0059    0.0110   -0.0342   -0.0095
          64    0.0041   -0.0103   -0.0261   -0.0355   -0.0040    0.0057   -0.0204    0.0017
          65   -0.0681   -0.1228    0.0076    0.0186   -0.0132   -0.0046    0.0194   -0.0206
          66    0.0320    0.1039    0.0826   -0.0207    0.0001    0.0062   -0.0244   -0.0013
          67    0.0005   -0.0125   -0.0663   -0.0221   -0.0091   -0.0091    0.0390   -0.0234
          68   -0.0540   -0.0983    0.0338    0.0459   -0.0219   -0.0304    0.1105   -0.0471
          69    0.0279    0.1056    0.0046    0.0139   -0.0130   -0.0332    0.1308   -0.0653
          70    0.0127    0.0081   -0.0235   -0.0283   -0.0088   -0.0105    0.0415   -0.0239
          71   -0.0495   -0.0965    0.0249    0.0117   -0.0158   -0.0062    0.0097   -0.0035
          72    0.0133    0.0718   -0.0894   -0.0276   -0.0048    0.0065   -0.0265    0.0034
          73    0.0199    0.0140   -0.0290   -0.0416   -0.0087    0.0103   -0.0371    0.0150
          74   -0.0528   -0.1016   -0.0003    0.0080   -0.0147   -0.0118    0.0328   -0.0140
          75    0.0253    0.1018    0.1288    0.0134   -0.0097    0.0093   -0.0538    0.0003
          76    0.0252    0.0216   -0.0781   -0.0647   -0.0013   -0.0129    0.0352   -0.0129
          77   -0.0464   -0.0888    0.1111    0.0304   -0.0200    0.0094   -0.0474    0.0179
          78    0.0261    0.1084    0.3483    0.0766   -0.0278    0.0747   -0.2746    0.0845
          79    0.0163    0.0024    0.1266    0.0039   -0.0267    0.0783   -0.2805    0.1197
          80   -0.0622   -0.1289   -0.2040   -0.0415   -0.0059   -0.0379    0.1306   -0.0424
          81    0.0279    0.1100    0.1889    0.0290   -0.0137    0.0197   -0.0903    0.0123
          82    0.0011   -0.0165   -0.1148   -0.0513   -0.0047    0.0082   -0.0275    0.0110
          83   -0.0466   -0.0973   -0.0596   -0.0148   -0.0147    0.0010   -0.0085    0.0151
          84   -0.0029    0.0345   -0.2663   -0.0749    0.0013    0.0402   -0.1452    0.0685
          85    0.0290    0.0483    0.1594    0.0255   -0.0142   -0.0550    0.2018   -0.1105
          86   -0.0460   -0.0890    0.1298    0.0213   -0.0149    0.0055   -0.0532    0.0128
          87    0.0096    0.0633   -0.1493   -0.0395   -0.0039    0.0117   -0.0391    0.0146
          88   -0.0028   -0.0184   -0.0487   -0.0211   -0.0068   -0.0010    0.0110   -0.0155
          89   -0.0664   -0.1207    0.1043    0.0545   -0.0111    0.0116   -0.0419    0.0085
          90    0.0433    0.1182    0.2447    0.0102    0.0058    0.0384   -0.1535    0.0639
          91    0.0068   -0.0140    0.0601   -0.0648    0.0072    0.0500   -0.1925    0.0782
          92   -0.0809   -0.1439   -0.1634   -0.0528   -0.0100   -0.0159    0.0671   -0.0564
          93    0.0356    0.1104    0.1248   -0.0003   -0.0010    0.0076   -0.0309    0.0053
          94    0.0367    0.0606    0.1891    0.1615   -0.0192   -0.0891    0.2835   -0.1084
          95   -0.0705   -0.1350    0.1266    0.0666   -0.0159    0.0205   -0.0696    0.0235
          96    0.0154    0.0745   -0.1665   -0.1675    0.0075    0.0193   -0.0585   -0.0021
          97    0.0018   -0.0039    0.0518   -0.0312   -0.0349   -0.0352    0.0675    0.2196
          98    0.0259    0.0871    0.0164   -0.0144    0.1294   -0.0065    0.0035   -0.0506
          99    0.0283   -0.1186   -0.0234    0.0532    0.1491   -0.0668    0.0310    0.0845
         100    0.0297    0.0319   -0.0872   -0.0714   -0.0066   -0.0133    0.0423   -0.0093
         101   -0.0570   -0.0913    0.0301    0.0306   -0.0184   -0.0148    0.0599   -0.0296
         102    0.0540    0.2046   -0.0280   -0.0082    0.0020   -0.0945    0.3423   -0.1577
         103    0.0116   -0.0012   -0.1094   -0.0854   -0.0098    0.0065   -0.0153    0.0078
         104   -0.0841   -0.1507   -0.0166   -0.0034   -0.0065    0.0123   -0.0383   -0.0078
         105    0.0029    0.0425   -0.3147   -0.2934    0.0124    0.0697   -0.2168    0.0597
         106   -0.0111    0.0866   -0.2165    0.5226   -0.1811    0.0517   -0.1582    0.0072
         107    0.0517    0.0953   -0.1743    0.3175   -0.0238    0.0711   -0.2163   -0.0807
         108    0.0011    0.1635   -0.0079    0.3562   -0.1397   -0.0307    0.0674   -0.0680
         109    0.0165    0.0374   -0.2034   -0.0166   -0.0217    0.0065    0.0397   -0.0208
         110   -0.0074    0.0750    0.0312    0.0234   -0.0329   -0.0395    0.1898   -0.0725
         111    0.0240    0.1318    0.0009   -0.0354   -0.0865   -0.0454    0.1811   -0.0074
         112   -0.0082    0.0749   -0.1660    0.3135   -0.1221    0.0293   -0.0763    0.0400
         113    0.0330    0.0866    0.0064   -0.0091    0.0459    0.0081   -0.0164    0.0204
         114    0.0338    0.1201   -0.0060   -0.0118   -0.0179   -0.0423    0.1306   -0.0427


   Root No.      17        18        19        20        21        22        23        24

                17 A      18 A      19 A      20 A      21 A      22 A      23 A      24 A   

                   0.1       0.2       0.2       0.2       0.2       0.3       0.4       0.4
  
           1   -0.0379   -0.0009    0.1268    0.0096   -0.0026    0.0559    0.0544    0.0467
           2   -0.0072    0.0018    0.0323    0.0346   -0.0277   -0.0531    0.0099    0.0242
           3    0.1504   -0.0173    0.0353    0.0502    0.0806   -0.0071   -0.0117   -0.0133
           4   -0.0370   -0.0011    0.1184    0.0064   -0.0027    0.0522    0.0456    0.0365
           5   -0.0391    0.0089    0.0836    0.0630   -0.0521   -0.0587    0.0420    0.0571
           6    0.0461   -0.0034   -0.0243   -0.0554   -0.1213    0.0217   -0.0011   -0.0138
           7   -0.0160   -0.0033    0.0554   -0.0027    0.0039    0.0348    0.0146    0.0038
           8   -0.0504    0.0108    0.1127    0.0681   -0.0532   -0.0498    0.0548    0.0686
           9   -0.0703    0.0092   -0.0438   -0.0164   -0.0355   -0.0178   -0.0350   -0.0286
          10    0.0007   -0.0086    0.0451   -0.0284    0.0256    0.0710    0.0244    0.0191
          11   -0.0414    0.0078    0.1045    0.0585   -0.0466   -0.0423    0.0594    0.0813
          12    0.1582   -0.0119   -0.0087   -0.0503   -0.0881    0.0111   -0.0053   -0.0141
          13    0.0007   -0.0093    0.0458   -0.0325    0.0270    0.0767    0.0233    0.0168
          14   -0.0095    0.0012    0.0475    0.0306   -0.0251   -0.0388    0.0243    0.0430
          15    0.0157   -0.0005   -0.0204   -0.0433   -0.0790    0.0113   -0.0064   -0.0169
          16   -0.0195   -0.0056    0.0966   -0.0135    0.0150    0.0765    0.0494    0.0464
          17    0.0057   -0.0012    0.0150    0.0199   -0.0164   -0.0409    0.0063    0.0225
          18   -0.0687    0.0022   -0.0350   -0.0624   -0.1138    0.0140   -0.0005   -0.0097
          19   -0.0627    0.0031    0.1810    0.0332   -0.0211    0.0686    0.0943    0.0847
          20    0.0082   -0.0008    0.0073    0.0245   -0.0160   -0.0618   -0.0086    0.0090
          21    0.4332   -0.0472    0.1698    0.2775    0.4946   -0.0634   -0.0254    0.0026
          22   -0.0614    0.0029    0.1877    0.0316   -0.0205    0.0184    0.0999    0.1251
          23   -0.0531    0.0108    0.1231    0.0811   -0.0629   -0.0801    0.0702    0.1054
          24    0.0960   -0.0082   -0.0419   -0.2102   -0.4096    0.0923    0.0718    0.0362
          25    0.0233   -0.0156    0.0153   -0.0721    0.0581    0.1272    0.0058   -0.0111
          26   -0.0564    0.0119    0.1250    0.0853   -0.0665   -0.0751    0.0735    0.1037
          27    0.4788   -0.0426    0.0531   -0.0983   -0.1740    0.0533    0.0588    0.0389
          28    0.0480   -0.0204   -0.0254   -0.0993    0.0756    0.1466   -0.0396   -0.0995
          29    0.0160   -0.0047    0.0080   -0.0030    0.0019   -0.0065   -0.0111   -0.0205
          30   -0.0285    0.0075    0.0535    0.1216    0.2074   -0.0288   -0.0141    0.0007
          31   -0.0204   -0.0057    0.0999   -0.0149    0.0144    0.0816    0.0527    0.0495
          32    0.0187   -0.0052   -0.0293   -0.0087   -0.0149   -0.0388   -0.0102    0.0154
          33   -0.2734    0.0167   -0.0866   -0.1738   -0.3105    0.0426    0.0375    0.0286
          34   -0.0127   -0.0024    0.0522   -0.0027   -0.0001    0.0290    0.0052   -0.0117
          35   -0.0093   -0.0006    0.0551   -0.0051   -0.0143    0.0126   -0.0719   -0.1247
          36   -0.1662    0.0168   -0.0102    0.0449    0.0740   -0.0445   -0.0405   -0.0150
          37    0.1049   -0.0061   -0.0718   -0.0221   -0.0235    0.0141   -0.0049   -0.0189
          38    0.0345   -0.0047   -0.0361    0.0130   -0.0111    0.0127   -0.0093   -0.0540
          39   -0.0923    0.0127   -0.0914    0.0455    0.0646   -0.0496   -0.0134    0.0208
          40    0.1088   -0.0061   -0.0834   -0.0209   -0.0259    0.0131   -0.0031   -0.0185
          41    0.0098   -0.0066   -0.0576    0.0397    0.0098    0.0276    0.0542    0.0102
          42    0.0397    0.0083   -0.2956    0.0287    0.0364   -0.0922   -0.0292    0.0299
          43    0.1812   -0.0097   -0.1320   -0.0642   -0.0576    0.0084   -0.0716   -0.1189
          44    0.0537   -0.0077   -0.0740    0.0146   -0.0100    0.0130    0.0079   -0.0336
          45   -0.0802    0.0066   -0.2042    0.0868    0.1018   -0.0576    0.1092    0.2102
          46    0.2272   -0.0102   -0.2538   -0.0302   -0.0640   -0.0045    0.0237    0.0237
          47    0.0909   -0.0148   -0.1371    0.0195   -0.0091    0.0278    0.0805    0.0522
          48   -0.1775    0.0204    0.0296    0.0470    0.0826   -0.0555   -0.0825   -0.0629
          49   -0.1169    0.0157   -0.1199    0.0196    0.0623   -0.0064   -0.0267   -0.0334
          50    0.0415   -0.0192   -0.0835    0.0357   -0.0055   -0.0134   -0.0036   -0.0211
          51   -0.1289    0.0187    0.1282    0.0112    0.0400   -0.0081   -0.0535   -0.0545
          52   -0.1352    0.0191   -0.1319    0.0218    0.0740   -0.0126   -0.0396   -0.0467
          53    0.1377   -0.0552   -0.2304    0.0790   -0.0349   -0.0386    0.0868    0.1130
          54   -0.0275    0.0106    0.4508   -0.0460   -0.0635    0.0659   -0.0310   -0.0734
          55   -0.2272    0.0299   -0.3493    0.0626    0.1558   -0.0689   -0.0773   -0.0641
          56    0.0292   -0.0097   -0.1720    0.0494    0.0201   -0.0465    0.0198    0.0452
          57   -0.1989    0.0251    0.0007    0.0379    0.0938   -0.0435   -0.0925   -0.0915
          58    0.0058    0.0114    0.0007    0.0150   -0.0121   -0.0104    0.0333   -0.0896
          59   -0.0045    0.0289    0.0067   -0.0586    0.0206   -0.0260   -0.0808    0.0037
          60   -0.0035    0.0659    0.0077   -0.0652    0.0435    0.0214    0.0407    0.0493
          61   -0.0048    0.0261    0.0008    0.0182   -0.0023   -0.0030    0.1033   -0.0653
          62   -0.0159   -0.0103    0.0076   -0.0322    0.0182   -0.0373    0.0468   -0.0330
          63   -0.0001   -0.0461    0.0043   -0.0261    0.0172   -0.0104    0.1149   -0.0355
          64    0.0033    0.0711   -0.0002    0.0402   -0.0165    0.0379   -0.0238    0.0173
          65   -0.0185   -0.0228    0.0073   -0.0365    0.0229   -0.0459    0.0925   -0.0598
          66   -0.0013   -0.0346    0.0027   -0.0336    0.0133   -0.0264    0.0760   -0.0536
          67   -0.0117   -0.0472    0.0006    0.0400   -0.0199    0.0381   -0.0615    0.0345
          68   -0.0314   -0.1406    0.0029    0.0109   -0.0035   -0.0068    0.0109   -0.0171
          69   -0.0410   -0.3566    0.0032   -0.0158   -0.0040   -0.0133   -0.0342   -0.0094
          70   -0.0089   -0.0634    0.0001    0.0514   -0.0275    0.0516   -0.0901    0.0408
          71   -0.0078    0.0254    0.0012    0.0266   -0.0083    0.0348   -0.0390    0.0524
          72   -0.0063   -0.0407    0.0007   -0.0137    0.0028    0.0280   -0.0558    0.0889
          73    0.0035   -0.0211    0.0014    0.0215   -0.0184   -0.0089   -0.0050   -0.0757
          74   -0.0111    0.0105   -0.0001    0.0402   -0.0146    0.0521   -0.0667    0.0757
          75   -0.0090   -0.0440    0.0043   -0.0303    0.0212    0.0401   -0.0299    0.1181
          76    0.0036    0.0317    0.0030    0.0389   -0.0168    0.0073    0.0783   -0.1521
          77   -0.0079   -0.0119    0.0037    0.0037   -0.0002   -0.0070    0.0100   -0.0236
          78   -0.0055   -0.1719    0.0079   -0.1153    0.0401   -0.0765   -0.0483    0.0793
          79    0.0066   -0.1648    0.0001    0.0019   -0.0298   -0.1031   -0.0386   -0.1479
          80   -0.0130    0.0790   -0.0088    0.1532   -0.0591    0.1982   -0.1731    0.2997
          81   -0.0076   -0.0689    0.0072   -0.0714    0.0364   -0.0113   -0.0007    0.0539
          82    0.0103    0.1059   -0.0016    0.0416   -0.0232    0.0471   -0.0927    0.0515
          83    0.0027    0.0470    0.0004    0.0121   -0.0141   -0.0309   -0.0009   -0.1422
          84    0.0308    0.2484   -0.0022   -0.0445    0.0106   -0.0178   -0.0286    0.0094
          85   -0.0561   -0.4383    0.0047    0.0951   -0.0446    0.1210   -0.1965    0.1672
          86   -0.0013    0.1217    0.0024    0.0455   -0.0016    0.1245   -0.1028    0.2962
          87    0.0006   -0.0002   -0.0000   -0.0312    0.0054   -0.0131   -0.0197   -0.0050
          88   -0.0112   -0.0466    0.0007    0.0409   -0.0222    0.0433   -0.1272    0.0704
          89   -0.0049    0.0801    0.0054   -0.0392    0.0163   -0.0342   -0.0622    0.0050
          90    0.0393    0.2776   -0.0017   -0.0343    0.0081   -0.0081   -0.0337   -0.0143
          91    0.0519    0.4597   -0.0045    0.0484   -0.0150    0.0663   -0.0094    0.0356
          92   -0.0386   -0.1594    0.0137   -0.0652    0.0513   -0.0965    0.3765   -0.2114
          93    0.0026   -0.0131    0.0014   -0.0269    0.0051   -0.0125   -0.0127   -0.0103
          94   -0.0191    0.1860    0.0086   -0.0769    0.0713   -0.0460    0.3714   -0.0721
          95   -0.0181   -0.0245    0.0030   -0.0276    0.0168   -0.0982    0.2219   -0.1833
          96    0.0034   -0.0708    0.0038   -0.0108    0.0041    0.0113    0.0276   -0.0069
          97    0.0223   -0.0021    0.0909    0.0294   -0.0822   -0.2609   -0.1872   -0.1230
          98   -0.0141    0.0182    0.0675   -0.0789    0.0175    0.0382   -0.1724   -0.2392
          99   -0.1758    0.0147   -0.0182    0.0712    0.1475    0.0658    0.1030    0.0270
         100    0.0048    0.0138   -0.0113    0.0834   -0.0418    0.0584   -0.0549   -0.0605
         101   -0.0054    0.0145    0.0068   -0.0524    0.0189   -0.0375   -0.0328   -0.0031
         102    0.0193    0.1850    0.0204   -0.2708    0.1157   -0.0678   -0.1776    0.0214
         103    0.0033   -0.0302   -0.0025    0.0523   -0.0294    0.0018    0.0558   -0.1195
         104   -0.0189   -0.0076    0.0060   -0.0090    0.0120    0.0146   -0.0591    0.0932
         105    0.0150   -0.1803   -0.0018    0.0510   -0.0429    0.0214   -0.0489   -0.0951
         106    0.0120   -0.0355   -0.0103    0.0397   -0.0446   -0.1661   -0.0206    0.0963
         107   -0.0377   -0.0679   -0.0806   -0.3072    0.3004    0.5823    0.0891   -0.0423
         108    0.0105    0.0870   -0.0432    0.5142   -0.2602    0.1564   -0.0084   -0.2959
         109    0.0139   -0.0003    0.0309   -0.3145    0.1198   -0.3095    0.0762    0.2097
         110    0.0545    0.0945    0.0242   -0.1834    0.0119   -0.0911   -0.3587   -0.1763
         111    0.0270    0.0626   -0.0459    0.1006   -0.0380    0.0279    0.1791    0.0760
         112    0.0224   -0.0217    0.0311   -0.0477   -0.0383   -0.3467   -0.0416    0.1526
         113    0.0122    0.0025    0.0367   -0.1017    0.0288    0.0173   -0.1740   -0.1914
         114   -0.0041    0.0619   -0.0098    0.0578   -0.0062    0.0411    0.1221    0.0285


   Root No.      25        26        27        28        29        30        31        32

                25 A      26 A      27 A      28 A      29 A      30 A      31 A      32 A   

                   0.5       0.6       0.6       0.6       0.6       0.7       0.7       0.8
  
           1   -0.0756    0.0151    0.0262   -0.0244   -0.0129    0.0422    0.0007   -0.0173
           2    0.0070   -0.0069   -0.0259    0.0009   -0.0137   -0.0625    0.0014    0.0088
           3   -0.0120    0.2143   -0.0254    0.0982    0.0153   -0.0434   -0.0019   -0.0198
           4   -0.0599    0.0115    0.0148   -0.0212   -0.0130    0.0307    0.0013   -0.0112
           5   -0.0312   -0.0063    0.0263    0.0047   -0.0104   -0.0759   -0.0017    0.0025
           6   -0.0141    0.2038   -0.0206    0.0829    0.0070   -0.0324    0.0007   -0.0094
           7   -0.0036   -0.0123   -0.0323   -0.0010   -0.0109   -0.0940    0.0022    0.0359
           8   -0.0542    0.0042    0.0503   -0.0016   -0.0078   -0.0169   -0.0017   -0.0118
           9   -0.0226    0.2251   -0.0158    0.0616   -0.0109   -0.0130    0.0028    0.0178
          10   -0.0546    0.0129   -0.0972   -0.0435   -0.0008    0.0496    0.0001   -0.0039
          11   -0.0766    0.0151   -0.0272   -0.0328   -0.0092    0.0456   -0.0024   -0.0343
          12   -0.0169    0.2501   -0.0324    0.1058    0.0168   -0.0335   -0.0022   -0.0111
          13   -0.0554    0.0152   -0.1050   -0.0489   -0.0032    0.0666    0.0007   -0.0083
          14   -0.0307    0.0120   -0.0517   -0.0257   -0.0105    0.0467    0.0004   -0.0267
          15   -0.0243    0.3782   -0.0495    0.1773    0.0370   -0.0683   -0.0064   -0.0379
          16   -0.0934    0.0277   -0.0893   -0.0636   -0.0074    0.1317    0.0005   -0.0352
          17   -0.0017    0.0012   -0.0591   -0.0131   -0.0076   -0.0063    0.0005   -0.0061
          18   -0.0139    0.2523   -0.0307    0.1221    0.0232   -0.0544   -0.0039   -0.0294
          19   -0.1366    0.0229    0.1789   -0.0176   -0.0318    0.0106   -0.0006   -0.0394
          20    0.0358   -0.0104   -0.1196   -0.0067   -0.0059   -0.0459    0.0022    0.0186
          21    0.0098   -0.1752    0.0162   -0.0840   -0.0142    0.0346    0.0013    0.0182
          22   -0.1394    0.0455    0.1184   -0.0142    0.0180    0.1770   -0.0141   -0.1132
          23   -0.0730    0.0153    0.0845    0.0074   -0.0018   -0.0103   -0.0098   -0.0575
          24    0.0210   -0.2518    0.0192   -0.0818   -0.0001    0.0261    0.0004   -0.0097
          25   -0.0687    0.0510   -0.2777   -0.1140    0.0005    0.3220    0.0095   -0.0348
          26   -0.0751   -0.0034    0.0752    0.0048   -0.0114   -0.1056   -0.0079   -0.0212
          27    0.0294   -0.3461    0.0306   -0.1254   -0.0056    0.0387    0.0018    0.0080
          28    0.0349    0.0026    0.6834    0.1519    0.0147   -0.0369   -0.0036   -0.0084
          29    0.0236    0.0000    0.3982    0.0900   -0.0014   -0.0246   -0.0026   -0.0274
          30    0.0084   -0.1262    0.0180   -0.0647   -0.0174    0.0219    0.0032    0.0146
          31   -0.1016    0.0361   -0.0941   -0.0670   -0.0087    0.1463    0.0005   -0.0416
          32    0.0103    0.0020   -0.2724   -0.0591   -0.0041    0.0270   -0.0013   -0.0162
          33    0.0227   -0.3581    0.0484   -0.1569   -0.0283    0.0578    0.0049    0.0280
          34    0.0207   -0.0239   -0.0593    0.0185    0.0076   -0.1574    0.0015    0.0754
          35    0.1394    0.0028    0.0255    0.0162   -0.0489    0.0763    0.0209    0.0217
          36   -0.0111   -0.0159    0.0110   -0.0503   -0.0388   -0.0021    0.0054    0.0388
          37    0.0321   -0.0230   -0.0389    0.0193    0.0081   -0.1314    0.0015    0.0745
          38    0.0738    0.0033    0.0064    0.0258   -0.0064    0.0742    0.0176    0.0551
          39   -0.0420   -0.0118    0.0214   -0.0575   -0.0391    0.0169    0.0044    0.0323
          40    0.0333   -0.0240   -0.0453    0.0254    0.0129   -0.1541    0.0023    0.0934
          41    0.0480   -0.0403   -0.0370    0.0374   -0.0285   -0.1003    0.0387    0.1936
          42   -0.0714    0.0844    0.1253   -0.0880   -0.0688    0.4711    0.0085   -0.2151
          43    0.1443    0.0386   -0.0193    0.0582   -0.0331    0.0301    0.0443    0.1887
          44    0.0658    0.0007    0.0029    0.0295   -0.0101    0.0448    0.0180    0.0593
          45   -0.2159   -0.0766   -0.0151   -0.1043   -0.0053   -0.3088   -0.0512   -0.0700
          46   -0.0061    0.0199   -0.0404    0.0693    0.0874   -0.1738   -0.0402   -0.1044
          47    0.0082    0.0087   -0.0049    0.0644    0.0339    0.0652   -0.0022   -0.1433
          48    0.0162   -0.0331    0.0308   -0.1056   -0.1045    0.0392    0.0363    0.2415
          49    0.0291   -0.0330   -0.0339    0.0133    0.0227   -0.0925   -0.0001    0.0670
          50    0.0258   -0.0099    0.0045    0.0041   -0.0051    0.0088    0.0051    0.0093
          51    0.0166   -0.0054   -0.0025   -0.0162    0.0057    0.0086    0.0031    0.0692
          52    0.0488   -0.0410   -0.0316    0.0131    0.0174   -0.0792    0.0009    0.0533
          53   -0.1310    0.0656   -0.0027   -0.0616   -0.0733   -0.0871    0.0090    0.1028
          54    0.0550    0.0214   -0.0603    0.0479    0.0196   -0.1546    0.0063    0.1159
          55    0.0619   -0.0775    0.0096   -0.0267    0.0016    0.0326    0.0033    0.0345
          56   -0.0612    0.0138    0.0257   -0.0659   -0.0678    0.0150    0.0112    0.0593
          57    0.0659   -0.0440    0.0234   -0.0284   -0.0047    0.0847    0.0062    0.0346
          58   -0.0529   -0.0049   -0.0012   -0.0132    0.0096   -0.0135    0.0407    0.0223
          59   -0.1120   -0.0257   -0.0021   -0.0001    0.0623   -0.0332   -0.0037   -0.0062
          60    0.0646    0.0075   -0.0033    0.0204   -0.0786    0.0012    0.0145   -0.0029
          61    0.0198   -0.0000   -0.0066    0.0256   -0.0619    0.0185    0.0012    0.0513
          62   -0.0174   -0.0079   -0.0015    0.0090    0.0040   -0.0022    0.0124    0.0162
          63    0.0918    0.0455    0.0139   -0.0701   -0.0354   -0.0066    0.0011   -0.0210
          64    0.0133   -0.0057   -0.0051    0.0253   -0.0426    0.0087   -0.0354   -0.0196
          65   -0.0103   -0.0053   -0.0020    0.0057   -0.0102   -0.0052    0.0417    0.0253
          66    0.0467    0.0418    0.0153   -0.0870   -0.0115   -0.0168    0.0108   -0.0313
          67   -0.0102   -0.0174   -0.0090    0.0468   -0.0412    0.0116   -0.0313   -0.0252
          68   -0.0550   -0.0604   -0.0309    0.1623   -0.1325    0.0492   -0.0463    0.0116
          69   -0.0309   -0.0153   -0.0088    0.0433   -0.0630    0.0115   -0.0166   -0.0035
          70   -0.0038    0.0038    0.0041   -0.0254    0.0254   -0.0166   -0.0404   -0.0348
          71    0.0154   -0.0084   -0.0045    0.0282   -0.0244    0.0024   -0.0200   -0.0140
          72    0.0785    0.0415    0.0156   -0.0701   -0.0011   -0.0094   -0.0068    0.0216
          73   -0.0503    0.0012    0.0038   -0.0376    0.0368   -0.0226    0.0184    0.0304
          74    0.0215   -0.0085   -0.0042    0.0298   -0.0217    0.0069   -0.0232   -0.0409
          75    0.1239    0.0470    0.0136   -0.0590   -0.0333   -0.0062    0.0218    0.0113
          76   -0.0495   -0.0341   -0.0256    0.0860   -0.1939   -0.0025    0.2101   -0.1267
          77   -0.0590   -0.0843   -0.0477    0.2380   -0.2708    0.0494    0.0733   -0.2936
          78    0.0013   -0.0024    0.0016    0.0218   -0.0172    0.0157   -0.1282   -0.0714
          79   -0.1751   -0.0027    0.0157   -0.0942    0.3085   -0.0263   -0.0843    0.2877
          80    0.2416    0.0964    0.0424   -0.1760    0.1339   -0.0036   -0.0988    0.0986
          81    0.0535    0.0145   -0.0003    0.0043   -0.0775   -0.0032    0.0319   -0.0279
          82   -0.0070    0.0017    0.0021   -0.0111   -0.0120   -0.0061    0.0340   -0.1247
          83   -0.1908   -0.0902   -0.0310    0.1177    0.0471   -0.0472   -0.3538   -0.0182
          84   -0.0213    0.0013   -0.0001   -0.0038   -0.0335   -0.0110   -0.0258   -0.1095
          85    0.0837    0.0380    0.0187   -0.0911    0.0129   -0.0358   -0.2476   -0.1012
          86    0.2678    0.1155    0.0463   -0.1876    0.0627   -0.0196    0.3060    0.0778
          87   -0.0128   -0.0021   -0.0026    0.0087   -0.0349    0.0003   -0.0674   -0.0009
          88   -0.0609   -0.0522   -0.0170    0.0959    0.0747   -0.0223    0.3933   -0.0930
          89   -0.1310   -0.0754   -0.0225    0.1220    0.0764   -0.0239    0.4239    0.0606
          90   -0.0323   -0.0003    0.0004   -0.0068   -0.0391   -0.0027    0.0057    0.0980
          91    0.0738    0.0348    0.0109   -0.0677   -0.0225   -0.0103   -0.3888   -0.1111
          92    0.1628    0.1225    0.0462   -0.2784   -0.0057   -0.0654   -0.1198   -0.0491
          93   -0.0096    0.0010   -0.0004    0.0047   -0.0245    0.0025    0.0793    0.0004
          94    0.2078    0.0590    0.0055   -0.0202   -0.1984    0.0359    0.0059    0.1711
          95    0.0335    0.0846    0.0430   -0.2628    0.2426   -0.0707    0.0852   -0.2240
          96    0.0460    0.0161    0.0020   -0.0062   -0.0714    0.0029   -0.0038    0.0114
          97    0.3389   -0.0803   -0.1232    0.0428   -0.0784   -0.1916   -0.0233   -0.2642
          98    0.1454   -0.0323   -0.0139    0.0800    0.2371    0.2086   -0.0417   -0.0102
          99    0.1308   -0.2756   -0.0974    0.2754    0.3310   -0.1243   -0.0378   -0.2747
         100   -0.0464   -0.0069   -0.0012   -0.0298   -0.0010   -0.0210    0.0315   -0.0565
         101   -0.0885   -0.0241   -0.0038    0.0221    0.0834   -0.0082   -0.0013    0.0251
         102   -0.2378   -0.0262    0.0060   -0.1168   -0.1074   -0.2163    0.0110   -0.0720
         103   -0.0412   -0.0044   -0.0065    0.0023   -0.0319    0.0044    0.0985    0.0569
         104   -0.0289   -0.1006   -0.0509    0.3105   -0.2905    0.1110   -0.2451    0.3082
         105   -0.0449    0.0065   -0.0013   -0.0262   -0.0723   -0.0057    0.1080    0.0670
         106    0.0063    0.0155    0.0230   -0.0329   -0.0773   -0.0341    0.0054   -0.0007
         107   -0.0314   -0.0094   -0.0801   -0.0018   -0.0094   -0.1114   -0.0080   -0.0284
         108   -0.1062   -0.0106    0.0149   -0.0495    0.0027    0.0119    0.0232    0.0458
         109    0.0202   -0.0131    0.0203    0.1140    0.1859    0.1194    0.0152    0.1479
         110   -0.2691    0.0495    0.0294   -0.2176    0.1474    0.0134   -0.0633   -0.0063
         111   -0.0331   -0.0380   -0.0372    0.2269    0.4195    0.1643   -0.0390    0.1103
         112    0.1234    0.0037    0.0243    0.0578    0.0384    0.0842   -0.0142   -0.0147
         113    0.2026   -0.0036   -0.0112   -0.0200   -0.0418    0.0816   -0.0129   -0.1193
         114    0.0909   -0.0377   -0.0240    0.1575    0.1606    0.1028   -0.0016    0.0328


   Root No.      33        34        35        36        37        38        39        40

                33 A      34 A      35 A      36 A      37 A      38 A      39 A      40 A   

                   0.8       0.8       0.8       0.9       0.9       0.9       1.0       1.0
  
           1    0.0073   -0.0163    0.0069   -0.0663    0.0171   -0.0043    0.0374   -0.0004
           2    0.0016    0.0024    0.0039   -0.0503    0.0127   -0.0043    0.0781   -0.0013
           3    0.0065   -0.0198    0.0181    0.0027   -0.0017   -0.0007   -0.0414   -0.0119
           4    0.0078   -0.0115    0.0065   -0.0416    0.0106   -0.0031    0.0362    0.0031
           5   -0.0087   -0.0020   -0.0036    0.0340   -0.0091    0.0006    0.0217   -0.0036
           6    0.0045   -0.0111    0.0068   -0.0004   -0.0035   -0.0015    0.0331    0.0123
           7   -0.0024    0.0250    0.0014    0.0212   -0.0057    0.0003    0.0933    0.0186
           8   -0.0040   -0.0110   -0.0008   -0.0172    0.0043   -0.0014    0.0014   -0.0071
           9    0.0015    0.0146   -0.0163    0.0099   -0.0031    0.0002    0.1237    0.0351
          10   -0.0010   -0.0028   -0.0006    0.0153   -0.0039    0.0007    0.0169    0.0056
          11   -0.0016   -0.0293   -0.0014   -0.0214    0.0055   -0.0018   -0.0226   -0.0121
          12    0.0054   -0.0095    0.0077   -0.0000    0.0016    0.0003    0.0003   -0.0023
          13    0.0021   -0.0068    0.0010    0.0391   -0.0102    0.0017    0.0057    0.0060
          14    0.0076   -0.0237    0.0062   -0.0989    0.0255   -0.0060    0.0079   -0.0147
          15    0.0099   -0.0334    0.0312   -0.0106    0.0057    0.0000   -0.1153   -0.0383
          16    0.0098   -0.0283    0.0061   -0.0629    0.0163   -0.0032   -0.0123   -0.0027
          17    0.0018   -0.0071    0.0014   -0.0518    0.0134   -0.0033    0.0295   -0.0030
          18    0.0091   -0.0280    0.0270   -0.0160    0.0052   -0.0009   -0.0917   -0.0306
          19    0.0040   -0.0449    0.0195    0.4919   -0.1297    0.0122   -0.0058   -0.0541
          20    0.0043    0.0156   -0.0026   -0.3825    0.1002   -0.0147    0.1183    0.0293
          21   -0.0068    0.0168   -0.0155    0.0131   -0.0018    0.0017    0.0296    0.0085
          22   -0.0163   -0.0807   -0.0479   -0.2147    0.0581    0.0007   -0.2802    0.0223
          23   -0.0202   -0.0467   -0.0323   -0.0597    0.0158    0.0022   -0.1540    0.0052
          24   -0.0007   -0.0098    0.0083   -0.0144    0.0019   -0.0010   -0.0550   -0.0154
          25    0.0457   -0.0222    0.0483   -0.1645    0.0410   -0.0111   -0.0803   -0.0683
          26   -0.0284   -0.0224   -0.0290    0.0781   -0.0195    0.0046    0.0343    0.0286
          27   -0.0047    0.0067   -0.0035   -0.0030   -0.0012   -0.0008   -0.0147   -0.0019
          28   -0.0106   -0.0037   -0.0073    0.0442   -0.0114    0.0034   -0.0429    0.0032
          29   -0.0011   -0.0231   -0.0003   -0.0923    0.0242   -0.0049   -0.0179   -0.0166
          30   -0.0012    0.0105   -0.0104    0.0058   -0.0027   -0.0005    0.0431    0.0130
          31    0.0116   -0.0340    0.0078   -0.0684    0.0179   -0.0036   -0.0158   -0.0039
          32   -0.0069   -0.0170   -0.0186    0.6302   -0.1643    0.0292   -0.1768    0.0209
          33   -0.0076    0.0229   -0.0231    0.0011   -0.0017   -0.0002    0.0808    0.0242
          34   -0.0140    0.0621   -0.0042    0.0131   -0.0029    0.0013    0.1212    0.0247
[...]
 EFFECTIVE MASS      2.4871
 FORCE CONSTANT      0.2040

 VIBRATION         76   76A           ATOM PAIR      ENERGY CONTRIBUTION    RADIAL
 FREQUENCY          1324.32         N 20 -- H 37         +17.9% ( 47.7%)      0.0%
 TRANSITION DIPOLE   0.7327         H 37 -- O 38         +17.5% ( 47.1%)      1.1%
 TRAVEL (Ang.)       0.5614         N 20 -- H 34          +8.6% ( 33.2%)      0.0%
 REDUCED MASS        0.1616         C 21 -- H 35          +8.2% ( 32.3%)      0.5%
 EFFECTIVE MASS      1.9777
 FORCE CONSTANT      0.1669

 VIBRATION         77   77A           ATOM PAIR      ENERGY CONTRIBUTION    RADIAL
 FREQUENCY          1326.34         C  4 -- H  9         +27.2% ( 64.9%)      0.2%
 TRANSITION DIPOLE   0.0742         C  1 -- H  7         +11.4% ( 42.0%)      4.1%
 TRAVEL (Ang.)       0.3377         C  6 -- H 11         +11.1% ( 41.4%)      4.4%
 REDUCED MASS        0.4457         C  4 -- C  5         +10.0% ( 39.4%)     48.4%
 EFFECTIVE MASS      4.2964
 FORCE CONSTANT      0.4620

 VIBRATION         78   78A           ATOM PAIR      ENERGY CONTRIBUTION    RADIAL
 FREQUENCY          1334.88         C 24 -- H 28         +13.9% ( 42.7%)      0.1%
 TRANSITION DIPOLE   0.5177         C 22 -- H 30         +13.3% ( 41.8%)      0.0%
 TRAVEL (Ang.)       0.4071         C 25 -- H 27         +11.1% ( 38.2%)      0.4%
 REDUCED MASS        0.3048         C 24 -- H 29          +8.4% ( 33.1%)      2.3%
 EFFECTIVE MASS      3.8346
 FORCE CONSTANT      0.3201

 VIBRATION         79   79A           ATOM PAIR      ENERGY CONTRIBUTION    RADIAL
 FREQUENCY          1350.36         H 37 -- O 38         +24.5% ( 57.0%)      3.8%
 TRANSITION DIPOLE   0.9391         N 20 -- H 37         +23.8% ( 56.3%)      0.8%
 TRAVEL (Ang.)       0.4625         C 25 -- H 27          +9.3% ( 35.3%)      0.9%
 REDUCED MASS        0.2334         C 24 -- H 28          +7.8% ( 32.2%)      0.1%
 EFFECTIVE MASS      2.1011
 FORCE CONSTANT      0.2508

 VIBRATION         80   80A           ATOM PAIR      ENERGY CONTRIBUTION    RADIAL
 FREQUENCY          1366.54         C  3 -- C 12         +13.7% ( 45.5%)     90.8%
 TRANSITION DIPOLE   1.0419         C 13 -- H 16         +13.2% ( 44.7%)      0.3%
 TRAVEL (Ang.)       0.3285         C 13 -- H 15         +11.4% ( 41.5%)      1.5%
 REDUCED MASS        0.4572         C 13 -- H 14          +8.2% ( 35.1%)      3.3%
 EFFECTIVE MASS      5.4430
 FORCE CONSTANT      0.5030

 VIBRATION         81   81A           ATOM PAIR      ENERGY CONTRIBUTION    RADIAL
 FREQUENCY          1379.57         C 21 -- H 32         +13.7% ( 43.6%)      0.4%
 TRANSITION DIPOLE   0.5501         C 21 -- H 35         +13.1% ( 42.6%)      0.1%
 TRAVEL (Ang.)       0.3970         C 25 -- H 26          +7.7% ( 32.6%)      0.1%
 REDUCED MASS        0.3102         C 25 -- H 27          +6.5% ( 30.1%)      0.1%
 EFFECTIVE MASS      3.8863
 FORCE CONSTANT      0.3478

 VIBRATION         82   82A           ATOM PAIR      ENERGY CONTRIBUTION    RADIAL
 FREQUENCY          1390.84         C  3 -- C 12         +17.5% ( 53.0%)     90.4%
 TRANSITION DIPOLE   1.2191         C 13 -- H 14          +9.9% ( 39.9%)      0.0%
 TRAVEL (Ang.)       0.2628         C 12 -- N 17          +7.3% ( 34.3%)      5.0%
 REDUCED MASS        0.7022         C 12 -- H 33          +7.3% ( 34.1%)      0.5%
 EFFECTIVE MASS      6.1253
 FORCE CONSTANT      0.8003

 VIBRATION         83   83A           ATOM PAIR      ENERGY CONTRIBUTION    RADIAL
 FREQUENCY          1444.86         C  1 -- C  2         +13.1% ( 55.6%)     99.9%
 TRANSITION DIPOLE   0.2085         C  2 -- C  3         +12.9% ( 55.3%)     95.3%
 TRAVEL (Ang.)       0.1799         C  3 -- C  4         +12.9% ( 55.1%)     99.9%
 REDUCED MASS        1.4426         C  1 -- C  6         +11.4% ( 52.0%)     98.6%
 EFFECTIVE MASS      9.7395
 FORCE CONSTANT      1.7744

 VIBRATION         84   84A           ATOM PAIR      ENERGY CONTRIBUTION    RADIAL
 FREQUENCY          1503.44         N 20 -- H 34         +51.8% ( 80.5%)      0.1%
 TRANSITION DIPOLE   1.9580         N 20 -- H 37          +9.7% ( 34.9%)     19.3%
 TRAVEL (Ang.)       0.2863         H 37 -- O 38          +7.6% ( 30.8%)     76.6%
 REDUCED MASS        0.5472         N 20 -- C 25          +4.3% ( 23.2%)      9.8%
 EFFECTIVE MASS      3.2587
 FORCE CONSTANT      0.7288

 VIBRATION         85   85A           ATOM PAIR      ENERGY CONTRIBUTION    RADIAL
 FREQUENCY          1512.81         C  4 -- C  5         +12.7% ( 49.3%)     97.4%
 TRANSITION DIPOLE   2.4358         C  6 -- H 11         +10.5% ( 44.8%)      0.2%
 TRAVEL (Ang.)       0.2069         C  1 -- C  2          +9.9% ( 43.4%)     99.3%
 REDUCED MASS        1.0414         C  5 -- C  6          +9.7% ( 43.0%)     26.2%
 EFFECTIVE MASS      9.7219
 FORCE CONSTANT      1.4042

 VIBRATION         86   86A           ATOM PAIR      ENERGY CONTRIBUTION    RADIAL
 FREQUENCY          1520.88         N 17 -- O 19         +18.8% ( 58.4%)     61.6%
 TRANSITION DIPOLE   4.7192         N 17 -- O 18         +18.2% ( 57.5%)     60.5%
 TRAVEL (Ang.)       0.1572         C 12 -- N 17         +12.9% ( 48.4%)     97.3%
 REDUCED MASS        1.7934         O 18 -- O 19          +8.0% ( 38.1%)    100.0%
 EFFECTIVE MASS     10.4573
 FORCE CONSTANT      2.4441

 VIBRATION         87   87A           ATOM PAIR      ENERGY CONTRIBUTION    RADIAL
 FREQUENCY          1544.48         H 37 -- O 38         +32.6% ( 70.2%)     78.2%
 TRANSITION DIPOLE   3.6847         N 20 -- H 37         +29.3% ( 66.5%)     36.2%
 TRAVEL (Ang.)       0.2966         N 17 -- O 19          +6.4% ( 31.0%)     59.1%
 REDUCED MASS        0.4964         N 17 -- O 18          +6.4% ( 31.0%)     59.9%
 EFFECTIVE MASS      4.2659
 FORCE CONSTANT      0.6977

 VIBRATION         88   88A           ATOM PAIR      ENERGY CONTRIBUTION    RADIAL
 FREQUENCY          1565.68         C  2 -- C  3         +17.5% ( 58.3%)     65.1%
 TRANSITION DIPOLE   1.1910         C  3 -- C  4         +12.9% ( 50.2%)     58.9%
 TRAVEL (Ang.)       0.1726         C  3 -- C 12         +10.2% ( 44.5%)     99.1%
 REDUCED MASS        1.4450         C  5 -- C  6          +8.0% ( 39.6%)     75.2%
 EFFECTIVE MASS     10.2683
 FORCE CONSTANT      2.0870

 VIBRATION         89   89A           ATOM PAIR      ENERGY CONTRIBUTION    RADIAL
 FREQUENCY          1618.34         N 17 -- O 18         +35.7% ( 84.7%)     88.3%
 TRANSITION DIPOLE  11.1632         N 17 -- O 19         +35.2% ( 84.2%)     88.0%
 TRAVEL (Ang.)       0.0794         C 12 -- N 17         +21.0% ( 65.0%)      0.0%
 REDUCED MASS        6.6147         O 18 -- O 19          +6.6% ( 36.4%)      0.0%
 EFFECTIVE MASS     14.5474
 FORCE CONSTANT     10.2069

 VIBRATION         90   90A           ATOM PAIR      ENERGY CONTRIBUTION    RADIAL
 FREQUENCY          1670.21         C  1 -- C  6         +19.2% ( 62.4%)     99.6%
 TRANSITION DIPOLE   1.7244         C  3 -- C  4         +17.5% ( 59.7%)     99.2%
 TRAVEL (Ang.)       0.1250         C  2 -- C  3         +11.2% ( 47.6%)     53.1%
 REDUCED MASS        2.5839         C  5 -- C  6          +9.3% ( 43.4%)     59.7%
 EFFECTIVE MASS     11.9604
 FORCE CONSTANT      4.2469

 VIBRATION         91   91A           ATOM PAIR      ENERGY CONTRIBUTION    RADIAL
 FREQUENCY          1711.84         C  4 -- C  5         +18.7% ( 61.5%)     92.2%
 TRANSITION DIPOLE   0.6740         C  5 -- C  6         +16.8% ( 58.4%)     83.5%
 TRAVEL (Ang.)       0.1242         C  1 -- C  2         +13.8% ( 52.8%)     96.0%
 REDUCED MASS        2.5554         C  2 -- C  3         +10.8% ( 46.8%)     77.7%
 EFFECTIVE MASS     11.9885
 FORCE CONSTANT      4.4121

 VIBRATION         92   92A           ATOM PAIR      ENERGY CONTRIBUTION    RADIAL
 FREQUENCY          2620.86         C 25 -- H 27         +39.2% ( 65.0%)     98.5%
 TRANSITION DIPOLE   0.6706         C 25 -- H 26         +31.2% ( 58.0%)     98.0%
 TRAVEL (Ang.)       0.2994         C 24 -- H 29         +14.0% ( 38.9%)     98.9%
 REDUCED MASS        0.2869         C 24 -- H 28          +7.5% ( 28.4%)     97.4%
 EFFECTIVE MASS      1.4274
 FORCE CONSTANT      1.1612

 VIBRATION         93   93A           ATOM PAIR      ENERGY CONTRIBUTION    RADIAL
 FREQUENCY          2623.45         C 21 -- H 32         +31.1% ( 58.0%)     98.1%
 TRANSITION DIPOLE   0.6251         C 21 -- H 35         +29.4% ( 56.3%)     98.4%
 TRAVEL (Ang.)       0.3248         C 22 -- H 31         +18.8% ( 45.0%)     98.6%
 REDUCED MASS        0.2437         C 22 -- H 30         +12.6% ( 36.9%)     97.9%
 EFFECTIVE MASS      1.4383
 FORCE CONSTANT      0.9881

 VIBRATION         94   94A           ATOM PAIR      ENERGY CONTRIBUTION    RADIAL
 FREQUENCY          2638.70         C 22 -- H 30         +28.4% ( 55.1%)     98.2%
 TRANSITION DIPOLE   0.6005         C 22 -- H 31         +27.4% ( 54.1%)     98.2%
 TRAVEL (Ang.)       0.3437         C 21 -- H 35         +18.2% ( 44.1%)     98.8%
 REDUCED MASS        0.2164         C 21 -- H 32         +10.7% ( 33.8%)     97.1%
 EFFECTIVE MASS      1.4686
 FORCE CONSTANT      0.8876

 VIBRATION         95   95A           ATOM PAIR      ENERGY CONTRIBUTION    RADIAL
 FREQUENCY          2640.46         C 24 -- H 29         +36.6% ( 62.5%)     98.7%
 TRANSITION DIPOLE   1.3080         C 24 -- H 28         +27.8% ( 54.5%)     97.5%
 TRAVEL (Ang.)       0.3198         C 25 -- H 26         +12.7% ( 36.8%)     98.6%
 REDUCED MASS        0.2497         C 25 -- H 27          +7.5% ( 28.4%)     97.3%
 EFFECTIVE MASS      1.4769
 FORCE CONSTANT      1.0258

 VIBRATION         96   96A           ATOM PAIR      ENERGY CONTRIBUTION    RADIAL
 FREQUENCY          2651.21         C 13 -- H 16         +64.2% ( 82.6%)     99.6%
 TRANSITION DIPOLE   0.9544         C 13 -- H 14         +19.0% ( 44.9%)     88.4%
 TRAVEL (Ang.)       0.2286         C 13 -- H 15         +15.9% ( 41.2%)     85.4%
 REDUCED MASS        0.4867         C 12 -- C 13          +0.9% (  9.6%)      0.1%
 EFFECTIVE MASS      1.4400
 FORCE CONSTANT      2.0158

 VIBRATION         97   97A           ATOM PAIR      ENERGY CONTRIBUTION    RADIAL
 FREQUENCY          2652.83         C 13 -- H 15         +50.7% ( 73.5%)     98.2%
 TRANSITION DIPOLE   0.7496         C 13 -- H 14         +47.4% ( 71.1%)     97.7%
 TRAVEL (Ang.)       0.2259         C 12 -- C 13          +0.9% (  9.7%)      0.0%
 REDUCED MASS        0.4983         C 13 -- H 16          +0.9% (  9.7%)      1.5%
 EFFECTIVE MASS      1.4500
 FORCE CONSTANT      2.0661

 VIBRATION         98   98A           ATOM PAIR      ENERGY CONTRIBUTION    RADIAL
 FREQUENCY          2703.89         C 25 -- H 26         +38.8% ( 61.6%)     96.8%
 TRANSITION DIPOLE   0.6241         C 25 -- H 27         +34.7% ( 58.3%)     95.9%
 TRAVEL (Ang.)       0.2834         N 20 -- H 34         +20.3% ( 44.6%)     99.3%
 REDUCED MASS        0.3106         C 24 -- H 28          +1.7% ( 12.9%)     96.6%
 EFFECTIVE MASS      1.2637
 FORCE CONSTANT      1.3378

 VIBRATION         99   99A           ATOM PAIR      ENERGY CONTRIBUTION    RADIAL
 FREQUENCY          2706.75         C 22 -- H 30         +43.2% ( 64.7%)     97.4%
 TRANSITION DIPOLE   0.7888         C 22 -- H 31         +33.7% ( 57.1%)     95.8%
 TRAVEL (Ang.)       0.2838         C 21 -- H 35          +7.7% ( 27.3%)     97.4%
 REDUCED MASS        0.3093         N 20 -- H 34          +6.4% ( 24.9%)     99.5%
 EFFECTIVE MASS      1.2124
 FORCE CONSTANT      1.3353

 VIBRATION        100  100A           ATOM PAIR      ENERGY CONTRIBUTION    RADIAL
 FREQUENCY          2711.60         C 21 -- H 32         +21.5% ( 45.7%)     97.0%
 TRANSITION DIPOLE   0.6401         C 24 -- H 28         +19.6% ( 43.7%)     97.8%
 TRAVEL (Ang.)       0.4130         C 21 -- H 35         +16.1% ( 39.5%)     95.0%
 REDUCED MASS        0.1458         C 24 -- H 29         +11.9% ( 34.0%)     94.5%
 EFFECTIVE MASS      1.2540         C 22 -- H 31         +10.6% ( 32.1%)     96.0%
 FORCE CONSTANT      0.6315

 VIBRATION        101  101A           ATOM PAIR      ENERGY CONTRIBUTION    RADIAL
 FREQUENCY          2712.70         C 24 -- H 28         +35.5% ( 58.6%)     97.0%
 TRANSITION DIPOLE   0.4803         C 24 -- H 29         +27.1% ( 51.2%)     95.4%
 TRAVEL (Ang.)       0.3336         C 21 -- H 32         +10.4% ( 31.8%)     96.8%
 REDUCED MASS        0.2234         C 21 -- H 35          +8.7% ( 29.0%)     95.6%
 EFFECTIVE MASS      1.2508
 FORCE CONSTANT      0.9687

 VIBRATION        102  102A           ATOM PAIR      ENERGY CONTRIBUTION    RADIAL
 FREQUENCY          2723.64         C  2 -- H  8         +56.4% ( 75.5%)    100.0%
 TRANSITION DIPOLE   1.2151         N 20 -- H 34         +18.0% ( 42.7%)     99.8%
 TRAVEL (Ang.)       0.2675         C  1 -- H  7          +8.1% ( 28.6%)     99.6%
 REDUCED MASS        0.3460         C 21 -- H 32          +5.3% ( 23.1%)     96.9%
 EFFECTIVE MASS      1.3387
 FORCE CONSTANT      1.5124

 VIBRATION        103  103A           ATOM PAIR      ENERGY CONTRIBUTION    RADIAL
 FREQUENCY          2725.11         N 20 -- H 34         +41.0% ( 64.0%)     99.8%
 TRANSITION DIPOLE   1.2402         C  2 -- H  8         +23.2% ( 48.1%)    100.0%
 TRAVEL (Ang.)       0.3258         C 21 -- H 32          +8.8% ( 29.6%)     97.0%
 REDUCED MASS        0.2331         C  1 -- H  7          +7.2% ( 26.8%)     99.8%
 EFFECTIVE MASS      1.3095
 FORCE CONSTANT      1.0197

 VIBRATION        104  104A           ATOM PAIR      ENERGY CONTRIBUTION    RADIAL
 FREQUENCY          2729.42         C  4 -- H  9         +76.4% ( 88.3%)    100.0%
 TRANSITION DIPOLE   1.9231         C  6 -- H 11         +16.2% ( 40.6%)    100.0%
 TRAVEL (Ang.)       0.2040         C  1 -- H  7          +2.0% ( 14.4%)     99.9%
 REDUCED MASS        0.5934         C  2 -- H  8          +1.4% ( 11.9%)     99.9%
 EFFECTIVE MASS      1.3727
 FORCE CONSTANT      2.6046

 VIBRATION        105  105A           ATOM PAIR      ENERGY CONTRIBUTION    RADIAL
 FREQUENCY          2734.16         C  6 -- H 11         +68.6% ( 83.6%)    100.0%
 TRANSITION DIPOLE   0.9759         C  1 -- H  7         +20.1% ( 45.2%)     99.9%
 TRAVEL (Ang.)       0.2210         C  4 -- H  9          +9.1% ( 30.4%)    100.0%
 REDUCED MASS        0.5048         C  1 -- C  6          +0.9% (  9.4%)      2.5%
 EFFECTIVE MASS      1.3830
 FORCE CONSTANT      2.2232

 VIBRATION        106  106A           ATOM PAIR      ENERGY CONTRIBUTION    RADIAL
 FREQUENCY          2742.12         C  1 -- H  7         +60.7% ( 78.6%)    100.0%
 TRANSITION DIPOLE   1.3147         C  2 -- H  8         +16.1% ( 40.5%)     99.9%
 TRAVEL (Ang.)       0.2466         C  4 -- H  9         +10.7% ( 33.0%)    100.0%
 REDUCED MASS        0.4044         C  6 -- H 11          +9.4% ( 30.9%)     99.9%
 EFFECTIVE MASS      1.4319
 FORCE CONSTANT      1.7917

 VIBRATION        107  107A           ATOM PAIR      ENERGY CONTRIBUTION    RADIAL
 FREQUENCY          2752.09         H 36 -- O 38         +94.5% ( 96.2%)     99.9%
 TRANSITION DIPOLE   1.2318         C  2 -- H  8          +1.6% ( 12.5%)    100.0%
 TRAVEL (Ang.)       0.1712         C 13 -- H 16          +1.0% ( 10.1%)     96.7%
 REDUCED MASS        0.8362         C 13 -- H 15          +1.0% ( 10.0%)     97.0%
 EFFECTIVE MASS      1.3303
 FORCE CONSTANT      3.7315

 VIBRATION        108  108A           ATOM PAIR      ENERGY CONTRIBUTION    RADIAL
 FREQUENCY          2770.22         C 13 -- H 16         +33.2% ( 55.2%)     95.6%
 TRANSITION DIPOLE   0.7379         C 13 -- H 14         +32.1% ( 54.3%)     95.5%
 TRAVEL (Ang.)       0.2806         C 13 -- H 15         +31.4% ( 53.7%)     95.4%
 REDUCED MASS        0.3092         H 36 -- O 38          +2.9% ( 16.2%)     99.8%
 EFFECTIVE MASS      1.1419
 FORCE CONSTANT      1.3980

      SYMMETRY NUMBER FOR POINT-GROUP C1  =  1


          SYSTEM IS A GROUND STATE



 Title: ASE calculation


          MOLECULE IS NOT LINEAR

          THERE ARE  108 GENUINE VIBRATIONS IN THIS SYSTEM
          THIS THERMODYNAMICS CALCULATION IS LIMITED TO
          MOLECULES WHICH HAVE NO INTERNAL ROTATIONS




                    CALCULATED THERMODYNAMIC PROPERTIES
                                          *
   TEMP. (K)   PARTITION FUNCTION   H.O.F.    ENTHALPY  HEAT CAPACITY ENTROPY
                                   KCAL/MOL   CAL/MOLE    CAL/K/MOL  CAL/K/MOL


 298.00  VIB.     0.2018D+10                 11271.1187    69.3906    80.3995
         ROT.     0.7406D+07                   888.2803     2.9808    34.4140
         INT.     0.1495D+17                 12159.3990    72.3714   114.8135
         TRA.     0.4818D+28                  1480.4672     4.9680    42.9074
         TOT.                     -119.306   13639.8662    77.3394   157.7209

   *: NOTE: HEATS OF FORMATION ARE RELATIVE TO THE
            ELEMENTS IN THEIR STANDARD STATE AT 298K
              (=  Standard Enthalpy of Formation).

            Hvib:  Zero-point energy is not included.
                   frequencies of less than zero cm-1 are not included.
            Hrot = (3/2)RT
            Htra = (3/2)RT + pV = (5/2)RT

            Heat capacity is Cp, not Cv

          For more information, see: HTTP://OpenMOPAC.net/Manual/thermochemistry.html


           FORCE CONSTANT IN CARTESIAN COORDINATES (Millidynes/A)

    ATOM   CHEMICAL       X               Y               Z
   NUMBER   SYMBOL  FORCE CONSTANT  FORCE CONSTANT  FORCE CONSTANT

      1       C       11.200392       10.197096        2.281607
      2       C       11.327210       10.008725        2.284861
      3       C       10.918917       11.506109        2.720831
      4       C       11.223589        9.979180        2.164796
      5       C       11.208502        9.073999        1.784036
      6       C        9.910796       11.498260        2.202745
      7       H        1.754025        3.383293        0.399189
      8       H        1.741532        3.408384        0.368641
      9       H        1.744978        3.345721        0.355416
     10      Cl        1.299657        2.964163        0.138209
     11       H        4.184421        0.930988        0.361187
     12       C        8.765799        3.799319        7.931568
     13       C        6.354388        6.133105        6.704855
     14       H        4.032826        0.586725        0.733584
     15       H        0.731720        3.732775        0.838340
     16       H        0.898394        1.567497        2.872147
     17       N       13.713924        4.093164       11.396905
     18       O       11.591145        0.576115        1.515404
     19       O        5.005263        0.861194        7.649416
     20       N        8.076034        7.461420        5.802687
     21       C        7.220008        7.074580        6.680836
     22       C        7.200055        6.762398        6.701200
     23       O        7.483292        3.578991        3.472431
     24       C        7.296102        6.651141        6.701237
     25       C        7.116459        7.164388        6.618649
     26       H        2.273406        1.908677        1.290203
     27       H        0.791068        0.991532        3.705597
     28       H        3.001585        0.955744        1.517811
     29       H        0.805864        1.042072        3.624512
     30       H        1.913406        2.183254        1.343817
     31       H        0.775387        0.977876        3.718393
     32       H        0.766522        0.976678        3.782978
     33       H        0.783258        0.207106        0.682917
     34       H        1.417710        3.909569        0.754609
     35       H        3.361156        0.866302        1.234350
     36       H        3.491069        0.540492        0.767380
     37       H        0.899841        0.864888        0.821261
     38       O        3.849482        1.671911        3.619704

 **********************
 *                    *
 * JOB ENDED NORMALLY *
 *                    *
 **********************



 TOTAL JOB TIME:            14.84 SECONDS

 == MOPAC DONE ==
