 *******************************************************************************
 **                                                                           **
 **                              MOPAC v22.0.6                                **
 **                                                                           **
 *******************************************************************************
 **          Digital Object Identifier (DOI): 10.5281/zenodo.6511958          **
 **    Visit the DOI location for information on how to cite this program.    **
 *******************************************************************************

                              PM7 CALCULATION RESULTS

 *******************************************************************************
 *  CALCULATION DONE:                                Tue Mar 26 11:38:19 2024  *
 *  PM7        - The PM7 Hamiltonian to be used
 *  SINGLET    - SPIN STATE DEFINED AS A SINGLET
 *
 *
 *
 *                 CHARGE ON SYSTEM = 0
 *
 *
 *
 *  EPS=78.4   - USE ANDREAS KLAMT'S COSMO IMPLICIT SOLVATION MODEL
 *  LET        - OVERRIDE SOME SAFETY CHECKS
 *  THREADS    - USE A MAXIMUM OF 30 THREADS
 *  T=         - A TIME OF 14.0 DAYS REQUESTED
 *  DUMP=N     - RESTART FILE WRITTEN EVERY 30.0 MINUTES REQUESTED
 *  RELSCF     - DEFAULT SCF CRITERION MULTIPLIED BY 1.0000
 *              (DEFAULT SCF CRITERION = 0.00010)
 *  ITRY=      - DO A MAXIMUM OF 15000 ITERATIONS FOR SCF
 *  AUX        - OUTPUT AUXILIARY INFORMATION
 *  ISOTOPE    - SAVE THE FORCE MATRIX FOR USE LATER
 *  BONDS      - FINAL BOND-ORDER MATRIX TO BE PRINTED
 *  LARGE      - EXPANDED OUTPUT TO BE PRINTED
 *  THERMO     - THERMODYNAMIC QUANTITIES TO BE CALCULATED
 *******************************************************************************
PM7 AUX LARGE THERMO(298,298) LET ISOTOPE BONDS DUMP=30M ITRY=15000 T=14D THREADS=30 CHARGE=0 SINGLET eps=78.4 RELSCF=1
 Title: ASE calculation

   ATOM   CHEMICAL          X               Y               Z
  NUMBER   SYMBOL      (ANGSTROMS)     (ANGSTROMS)     (ANGSTROMS)

     1       C          1.85476000  *   2.79668000  *   2.95151000  *
     2       C          2.08132000  *   1.43757000  *   2.73889000  *
     3       C          1.20618000  *   0.68913000  *   1.94951000  *
     4       C          0.09035000  *   1.29860000  *   1.37132000  *
     5       C         -0.10776000  *   2.65111000  *   1.60368000  *
     6       C          0.74759000  *   3.42151000  *   2.37994000  *
     7       H          2.54805000  *   3.37468000  *   3.56824000  *
     8       H          2.94937000  *   0.96009000  *   3.20466000  *
     9       H         -0.60164000  *   0.71972000  *   0.75242000  *
    10      Cl         -1.47819000  *   3.40381000  *   0.89494000  *
    11       H          0.56856000  *   4.48657000  *   2.54453000  *
    12       C          1.46909000  *  -0.78052000  *   1.75872000  *
    13       C          0.30024000  *  -1.63734000  *   2.23003000  *
    14       H          0.51394000  *  -2.71429000  *   2.15052000  *
    15       H         -0.62692000  *  -1.44248000  *   1.67184000  *
    16       H          0.07824000  *  -1.43839000  *   3.29185000  *
    17       N          1.71422000  *  -1.06007000  *   0.30073000  *
    18       O          2.74748000  *  -1.63897000  *  -0.00394000  *
    19       O          0.89775000  *  -0.70037000  *  -0.52651000  *
    20       N          5.03085000  *  -0.74593000  *   1.92489000  *
    21       C          6.15514000  *  -1.69800000  *   2.10439000  *
    22       C          7.04839000  *  -1.17235000  *   3.24001000  *
    23       O          7.51539000  *   0.13146000  *   2.93397000  *
    24       C          6.46280000  *   1.06249000  *   2.74189000  *
    25       C          5.55181000  *   0.60340000  *   1.59247000  *
    26       H          4.69314000  *   1.29956000  *   1.47458000  *
    27       H          6.11025000  *   0.61794000  *   0.63115000  *
    28       H          6.99494000  *   2.00032000  *   2.50117000  *
    29       H          5.90548000  *   1.18307000  *   3.68806000  *
    30       H          7.98009000  *  -1.75689000  *   3.34408000  *
    31       H          6.51355000  *  -1.15042000  *   4.20712000  *
    32       H          6.75073000  *  -1.83289000  *   1.17604000  *
    33       D          2.40404000  *  -1.09072000  *   2.31931000  *
    34       H          4.39207000  *  -1.07204000  *   1.19705000  *
    35       H          5.73882000  *  -2.69487000  *   2.36849000  *
    36       H          3.50266000  *  -1.64241000  *   4.62009000  *
    37       H          4.29512000  *  -0.69432000  *   3.70835000  *
    38       O          3.81826000  *  -0.73947000  *   4.56609000  *


                                Isotopes Used

              Atom:   33  H  Default mass  1.0079,  mass used:  2.0140 amu


          CARTESIAN COORDINATES 

    NO.       ATOM           X           Y           Z

     1         C          1.8548      2.7967      2.9515
     2         C          2.0813      1.4376      2.7389
     3         C          1.2062      0.6891      1.9495
     4         C          0.0903      1.2986      1.3713
     5         C         -0.1078      2.6511      1.6037
     6         C          0.7476      3.4215      2.3799
     7         H          2.5480      3.3747      3.5682
     8         H          2.9494      0.9601      3.2047
     9         H         -0.6016      0.7197      0.7524
    10        Cl         -1.4782      3.4038      0.8949
    11         H          0.5686      4.4866      2.5445
    12         C          1.4691     -0.7805      1.7587
    13         C          0.3002     -1.6373      2.2300
    14         H          0.5139     -2.7143      2.1505
    15         H         -0.6269     -1.4425      1.6718
    16         H          0.0782     -1.4384      3.2919
    17         N          1.7142     -1.0601      0.3007
    18         O          2.7475     -1.6390     -0.0039
    19         O          0.8978     -0.7004     -0.5265
    20         N          5.0309     -0.7459      1.9249
    21         C          6.1551     -1.6980      2.1044
    22         C          7.0484     -1.1724      3.2400
    23         O          7.5154      0.1315      2.9340
    24         C          6.4628      1.0625      2.7419
    25         C          5.5518      0.6034      1.5925
    26         H          4.6931      1.2996      1.4746
    27         H          6.1102      0.6179      0.6312
    28         H          6.9949      2.0003      2.5012
    29         H          5.9055      1.1831      3.6881
    30         H          7.9801     -1.7569      3.3441
    31         H          6.5136     -1.1504      4.2071
    32         H          6.7507     -1.8329      1.1760
    33         H          2.4040     -1.0907      2.3193
    34         H          4.3921     -1.0720      1.1970
    35         H          5.7388     -2.6949      2.3685
    36         H          3.5027     -1.6424      4.6201
    37         H          4.2951     -0.6943      3.7084
    38         O          3.8183     -0.7395      4.5661

 General Reference for PM7:
 "Optimization of Parameters for Semiempirical Methods VI: More Modifications to the 
 NDDO Approximations and Re-optimization of Parameters", J. J. P. Stewart, J. Mol. Mod., 1:32, 19 (2013)
 https://link.springer.com/article/10.1007/s00894-012-1667-x

           Empirical Formula: C12 H19 N2 O4 Cl  =    38 atoms



      MOLECULAR POINT GROUP   :   C1  


 SINGLET STATE CALCULATION


      RHF CALCULATION, NO. OF DOUBLY OCCUPIED LEVELS = 54

  SCF CRITERION =    0.1000E-03


          HEAT OF FORMATION =    -133.323105 KCALS/MOLE


          CARTESIAN COORDINATE DERIVATIVES

   NUMBER  ATOM         X            Y            Z

     1       C      0.000078    -0.079938    -0.068644
     2       C      0.121909     0.190736    -0.030369
     3       C      0.051256    -0.258332     0.122015
     4       C      0.069839     0.117723     0.092273
     5       C      0.050584     0.144844    -0.137989
     6       C     -0.087243    -0.060089    -0.041909
     7       H     -0.035613    -0.075483    -0.010219
     8       H      0.033595     0.214720    -0.017111
     9       H      0.000018    -0.172622    -0.020185
    10      Cl      0.077803     0.059830    -0.050653
    11       H     -0.039091    -0.022325    -0.034620
    12       C      0.032833     0.047222     0.140384
    13       C      0.051632    -0.065817     0.052305
    14       H      0.125595    -0.054697     0.006681
    15       H     -0.060980    -0.138541    -0.109245
    16       H     -0.172391    -0.061935    -0.180759
    17       N     -0.138451    -0.027839     0.339253
    18       O     -0.060488     0.168626    -0.101815
    19       O     -0.095044     0.199230    -0.023681
    20       N      0.031509    -0.078723     0.260710
    21       C      0.035728     0.018627    -0.103203
    22       C     -0.006692    -0.099256    -0.071424
    23       O     -0.101647    -0.003671     0.273449
    24       C      0.106686    -0.034544    -0.109738
    25       C     -0.009341    -0.098856     0.069112
    26       H      0.231738     0.116298     0.052721
    27       H      0.043074     0.026218    -0.125369
    28       H      0.127687     0.078627    -0.130722
    29       H     -0.036489    -0.068850     0.068579
    30       H     -0.085969    -0.059532    -0.090108
    31       H     -0.029334     0.141661    -0.094380
    32       H     -0.041953     0.133702    -0.150462
    33       H     -0.072192    -0.053314    -0.012111
    34       H      0.003714    -0.071713    -0.053480
    35       H     -0.012712    -0.036422     0.036453
    36       H     -0.178701    -0.049916     0.118636
    37       H      0.110045    -0.122821    -0.027451
    38       O     -0.040706     0.137320     0.163221

 DIPOLE           X         Y         Z       TOTAL
 POINT-CHG.     1.090    -2.283    -3.588     4.390
 HYBRID         0.763     0.717     1.332     1.694
 SUM            1.854    -1.567    -2.256     3.314


          GRADIENT NORM =   1.14420


          TIME FOR SCF CALCULATION =    0.10

          TIME FOR DERIVATIVES     =    0.04

          MOLECULAR WEIGHT =  291.75



          ROTATIONAL CONSTANTS IN CM(-1)

          A =    0.01706326   B =    0.00562813   C =    0.00489307



           PRINCIPAL MOMENTS OF INERTIA IN UNITS OF 10**(-40)*GRAM-CM**2

          A =     1640.5273   B =     4973.7233   C =     5720.9016


          ORIENTATION OF MOLECULE IN FORCE CALCULATION

    NO.       ATOM         X         Y         Z

     1          C      -2.5118   -0.1338   -0.7678
     2          C      -1.1176   -0.1338   -0.7678
     3          C      -0.4098    1.0696   -0.7678
     4          C      -1.0971    2.2855   -0.7746
     5          C      -2.4832    2.2512   -0.7766
     6          C      -3.2136    1.0705   -0.7719
     7          H      -3.0566   -1.0816   -0.7641
     8          H      -0.5821   -1.0886   -0.7762
     9          H      -0.5509    3.2334   -0.7761
    10         Cl      -3.3316    3.7436   -0.7851
    11          H      -4.3061    1.0728   -0.7711
    12          C       1.0947    1.0327   -0.7898
    13          C       1.6681    1.7691   -1.9944
    14          H       2.7649    1.6906   -2.0479
    15          H       1.4126    2.8386   -2.0049
    16          H       1.2762    1.3409   -2.9321
    17          N       1.6294    1.6702    0.4639
    18          O       2.4081    1.0206    1.1475
    19          O       1.2722    2.7929    0.7675
    20          N       1.6144   -1.9937    1.0229
    21          C       2.6979   -2.9742    1.2828
    22          C       2.1574   -4.3777    0.9637
    23          O       1.0090   -4.6520    1.7495
    24          C      -0.0404   -3.7224    1.5344
    25          C       0.4344   -2.2997    1.8694
    26          H      -0.3658   -1.5602    1.6487
    27          H       0.6576   -2.2155    2.9554
    28          H      -0.8315   -4.0695    2.2231
    29          H      -0.3928   -3.8054    0.4907
    30          H       2.8628   -5.1748    1.2597
    31          H       1.9016   -4.4863   -0.1062
    32          H       3.0678   -2.9320    2.3297
    33          H       1.4635   -0.0390   -0.8021
    34          H       1.9395   -1.0401    1.1937
    35          H       3.5618   -2.7327    0.6253
    36          H       1.8290   -2.2189   -2.1874
    37          H       1.1726   -2.4007   -0.8111
    38          O       1.0083   -2.4919   -1.7754


    FIRST DERIVATIVES WILL BE USED IN THE CALCULATION OF SECOND DERIVATIVES

          ESTIMATED TIME TO COMPLETE CALCULATION =       30.28 SECONDS

    FOR POINT-GROUP C1   THERE ARE   1 UNIQUE SYMMETRY FUNCTIONS.

 STEP:   1 TIME =     0.11 SECS, INTEGRAL =      0.11 TIME LEFT:1209599.76
 STEP:   2 TIME =     0.11 SECS, INTEGRAL =      0.22 TIME LEFT:1209599.64
 STEP:   3 TIME =     0.13 SECS, INTEGRAL =      0.36 TIME LEFT:1209599.51
 STEP:   4 TIME =     0.15 SECS, INTEGRAL =      0.50 TIME LEFT:1209599.36
 STEP:   5 TIME =     0.14 SECS, INTEGRAL =      0.64 TIME LEFT:1209599.22
 STEP:   6 TIME =     0.12 SECS, INTEGRAL =      0.76 TIME LEFT:1209599.11
 STEP:   7 TIME =     0.13 SECS, INTEGRAL =      0.89 TIME LEFT:1209598.97
 STEP:   8 TIME =     0.15 SECS, INTEGRAL =      1.04 TIME LEFT:1209598.82
 STEP:   9 TIME =     0.14 SECS, INTEGRAL =      1.18 TIME LEFT:1209598.68
 STEP:  10 TIME =     0.14 SECS, INTEGRAL =      1.32 TIME LEFT:1209598.54
 STEP:  11 TIME =     0.16 SECS, INTEGRAL =      1.48 TIME LEFT:1209598.38
 STEP:  12 TIME =     0.14 SECS, INTEGRAL =      1.62 TIME LEFT:1209598.25
 STEP:  13 TIME =     0.15 SECS, INTEGRAL =      1.77 TIME LEFT:1209598.10
 STEP:  14 TIME =     0.15 SECS, INTEGRAL =      1.92 TIME LEFT:1209597.95
 STEP:  15 TIME =     0.14 SECS, INTEGRAL =      2.06 TIME LEFT:1209597.81
 STEP:  16 TIME =     0.14 SECS, INTEGRAL =      2.20 TIME LEFT:1209597.67
 STEP:  17 TIME =     0.16 SECS, INTEGRAL =      2.35 TIME LEFT:1209597.52
 STEP:  18 TIME =     0.14 SECS, INTEGRAL =      2.49 TIME LEFT:1209597.38
 STEP:  19 TIME =     0.14 SECS, INTEGRAL =      2.62 TIME LEFT:1209597.24
 STEP:  20 TIME =     0.13 SECS, INTEGRAL =      2.75 TIME LEFT:1209597.11
 STEP:  21 TIME =     0.13 SECS, INTEGRAL =      2.89 TIME LEFT:1209596.98
 STEP:  22 TIME =     0.12 SECS, INTEGRAL =      3.01 TIME LEFT:1209596.86
 STEP:  23 TIME =     0.13 SECS, INTEGRAL =      3.14 TIME LEFT:1209596.73
 STEP:  24 TIME =     0.16 SECS, INTEGRAL =      3.30 TIME LEFT:1209596.56
 STEP:  25 TIME =     0.13 SECS, INTEGRAL =      3.43 TIME LEFT:1209596.43
 STEP:  26 TIME =     0.13 SECS, INTEGRAL =      3.56 TIME LEFT:1209596.30
 STEP:  27 TIME =     0.13 SECS, INTEGRAL =      3.69 TIME LEFT:1209596.18
 STEP:  28 TIME =     0.14 SECS, INTEGRAL =      3.83 TIME LEFT:1209596.04
 STEP:  29 TIME =     0.13 SECS, INTEGRAL =      3.96 TIME LEFT:1209595.90
 STEP:  30 TIME =     0.14 SECS, INTEGRAL =      4.10 TIME LEFT:1209595.77
 STEP:  31 TIME =     0.13 SECS, INTEGRAL =      4.23 TIME LEFT:1209595.64
 STEP:  32 TIME =     0.14 SECS, INTEGRAL =      4.38 TIME LEFT:1209595.49
 STEP:  33 TIME =     0.13 SECS, INTEGRAL =      4.51 TIME LEFT:1209595.36
 STEP:  34 TIME =     0.14 SECS, INTEGRAL =      4.64 TIME LEFT:1209595.22
 STEP:  35 TIME =     0.14 SECS, INTEGRAL =      4.78 TIME LEFT:1209595.09
 STEP:  36 TIME =     0.14 SECS, INTEGRAL =      4.92 TIME LEFT:1209594.95
 STEP:  37 TIME =     0.14 SECS, INTEGRAL =      5.06 TIME LEFT:1209594.81
 STEP:  38 TIME =     0.13 SECS, INTEGRAL =      5.19 TIME LEFT:1209594.68
 STEP:  39 TIME =     0.14 SECS, INTEGRAL =      5.33 TIME LEFT:1209594.54
 STEP:  40 TIME =     0.16 SECS, INTEGRAL =      5.48 TIME LEFT:1209594.38
 STEP:  41 TIME =     0.13 SECS, INTEGRAL =      5.61 TIME LEFT:1209594.25
 STEP:  42 TIME =     0.13 SECS, INTEGRAL =      5.74 TIME LEFT:1209594.12
 STEP:  43 TIME =     0.13 SECS, INTEGRAL =      5.87 TIME LEFT:1209594.00
 STEP:  44 TIME =     0.13 SECS, INTEGRAL =      6.00 TIME LEFT:1209593.87
 STEP:  45 TIME =     0.13 SECS, INTEGRAL =      6.13 TIME LEFT:1209593.74
 STEP:  46 TIME =     0.19 SECS, INTEGRAL =      6.32 TIME LEFT:1209593.55
 STEP:  47 TIME =     0.13 SECS, INTEGRAL =      6.45 TIME LEFT:1209593.42
 STEP:  48 TIME =     0.12 SECS, INTEGRAL =      6.57 TIME LEFT:1209593.30
 STEP:  49 TIME =     0.14 SECS, INTEGRAL =      6.71 TIME LEFT:1209593.16
 STEP:  50 TIME =     0.14 SECS, INTEGRAL =      6.85 TIME LEFT:1209593.02
 STEP:  51 TIME =     0.15 SECS, INTEGRAL =      7.00 TIME LEFT:1209592.87
 STEP:  52 TIME =     0.13 SECS, INTEGRAL =      7.13 TIME LEFT:1209592.73
 STEP:  53 TIME =     0.17 SECS, INTEGRAL =      7.30 TIME LEFT:1209592.57
 STEP:  54 TIME =     0.14 SECS, INTEGRAL =      7.44 TIME LEFT:1209592.43
 STEP:  55 TIME =     0.14 SECS, INTEGRAL =      7.57 TIME LEFT:1209592.29
 STEP:  56 TIME =     0.14 SECS, INTEGRAL =      7.71 TIME LEFT:1209592.16
 STEP:  57 TIME =     0.14 SECS, INTEGRAL =      7.86 TIME LEFT:1209592.01
 STEP:  58 TIME =     0.14 SECS, INTEGRAL =      7.99 TIME LEFT:1209591.88
 STEP:  59 TIME =     0.14 SECS, INTEGRAL =      8.13 TIME LEFT:1209591.74
 STEP:  60 TIME =     0.18 SECS, INTEGRAL =      8.31 TIME LEFT:1209591.56
 STEP:  61 TIME =     0.14 SECS, INTEGRAL =      8.45 TIME LEFT:1209591.42
 STEP:  62 TIME =     0.14 SECS, INTEGRAL =      8.58 TIME LEFT:1209591.29
 STEP:  63 TIME =     0.14 SECS, INTEGRAL =      8.72 TIME LEFT:1209591.15
 STEP:  64 TIME =     0.14 SECS, INTEGRAL =      8.86 TIME LEFT:1209591.01
 STEP:  65 TIME =     0.14 SECS, INTEGRAL =      8.99 TIME LEFT:1209590.88
 STEP:  66 TIME =     0.14 SECS, INTEGRAL =      9.13 TIME LEFT:1209590.74
 STEP:  67 TIME =     0.16 SECS, INTEGRAL =      9.29 TIME LEFT:1209590.58
 STEP:  68 TIME =     0.14 SECS, INTEGRAL =      9.42 TIME LEFT:1209590.45
 STEP:  69 TIME =     0.16 SECS, INTEGRAL =      9.59 TIME LEFT:1209590.28
 STEP:  70 TIME =     0.13 SECS, INTEGRAL =      9.72 TIME LEFT:1209590.15
 STEP:  71 TIME =     0.14 SECS, INTEGRAL =      9.86 TIME LEFT:1209590.01
 STEP:  72 TIME =     0.14 SECS, INTEGRAL =      9.99 TIME LEFT:1209589.88
 STEP:  73 TIME =     0.14 SECS, INTEGRAL =     10.13 TIME LEFT:1209589.73
 STEP:  74 TIME =     0.20 SECS, INTEGRAL =     10.34 TIME LEFT:1209589.53
 STEP:  75 TIME =     0.16 SECS, INTEGRAL =     10.49 TIME LEFT:1209589.38
 STEP:  76 TIME =     0.13 SECS, INTEGRAL =     10.62 TIME LEFT:1209589.24
 STEP:  77 TIME =     0.13 SECS, INTEGRAL =     10.75 TIME LEFT:1209589.11
 STEP:  78 TIME =     0.13 SECS, INTEGRAL =     10.88 TIME LEFT:1209588.98
 STEP:  79 TIME =     0.14 SECS, INTEGRAL =     11.02 TIME LEFT:1209588.85
 STEP:  80 TIME =     0.13 SECS, INTEGRAL =     11.15 TIME LEFT:1209588.71
 STEP:  81 TIME =     0.18 SECS, INTEGRAL =     11.33 TIME LEFT:1209588.54
 STEP:  82 TIME =     0.13 SECS, INTEGRAL =     11.46 TIME LEFT:1209588.41
 STEP:  83 TIME =     0.12 SECS, INTEGRAL =     11.59 TIME LEFT:1209588.28
 STEP:  84 TIME =     0.13 SECS, INTEGRAL =     11.71 TIME LEFT:1209588.15
 STEP:  85 TIME =     0.12 SECS, INTEGRAL =     11.84 TIME LEFT:1209588.03
 STEP:  86 TIME =     0.13 SECS, INTEGRAL =     11.97 TIME LEFT:1209587.89
 STEP:  87 TIME =     0.13 SECS, INTEGRAL =     12.10 TIME LEFT:1209587.77
 STEP:  88 TIME =     0.13 SECS, INTEGRAL =     12.23 TIME LEFT:1209587.64
 STEP:  89 TIME =     0.16 SECS, INTEGRAL =     12.39 TIME LEFT:1209587.48
 STEP:  90 TIME =     0.12 SECS, INTEGRAL =     12.51 TIME LEFT:1209587.36
 STEP:  91 TIME =     0.14 SECS, INTEGRAL =     12.65 TIME LEFT:1209587.22
 STEP:  92 TIME =     0.13 SECS, INTEGRAL =     12.78 TIME LEFT:1209587.09
 STEP:  93 TIME =     0.13 SECS, INTEGRAL =     12.91 TIME LEFT:1209586.96
 STEP:  94 TIME =     0.13 SECS, INTEGRAL =     13.04 TIME LEFT:1209586.83
 STEP:  95 TIME =     0.13 SECS, INTEGRAL =     13.17 TIME LEFT:1209586.70
 STEP:  96 TIME =     0.14 SECS, INTEGRAL =     13.30 TIME LEFT:1209586.56
 STEP:  97 TIME =     0.13 SECS, INTEGRAL =     13.43 TIME LEFT:1209586.43
 STEP:  98 TIME =     0.13 SECS, INTEGRAL =     13.56 TIME LEFT:1209586.30
 STEP:  99 TIME =     0.12 SECS, INTEGRAL =     13.69 TIME LEFT:1209586.18
 STEP: 100 TIME =     0.13 SECS, INTEGRAL =     13.82 TIME LEFT:1209586.05
 STEP: 101 TIME =     0.13 SECS, INTEGRAL =     13.95 TIME LEFT:1209585.92
 STEP: 102 TIME =     0.13 SECS, INTEGRAL =     14.08 TIME LEFT:1209585.79
 STEP: 103 TIME =     0.12 SECS, INTEGRAL =     14.20 TIME LEFT:1209585.66
 STEP: 104 TIME =     0.13 SECS, INTEGRAL =     14.33 TIME LEFT:1209585.54
 STEP: 105 TIME =     0.12 SECS, INTEGRAL =     14.46 TIME LEFT:1209585.41
 STEP: 106 TIME =     0.13 SECS, INTEGRAL =     14.59 TIME LEFT:1209585.28
 STEP: 107 TIME =     0.13 SECS, INTEGRAL =     14.72 TIME LEFT:1209585.14
 STEP: 108 TIME =     0.13 SECS, INTEGRAL =     14.86 TIME LEFT:1209585.01
 STEP: 109 TIME =     0.13 SECS, INTEGRAL =     14.99 TIME LEFT:1209584.88
 STEP: 110 TIME =     0.13 SECS, INTEGRAL =     15.12 TIME LEFT:1209584.75
 STEP: 111 TIME =     0.13 SECS, INTEGRAL =     15.25 TIME LEFT:1209584.62
 STEP: 112 TIME =     0.13 SECS, INTEGRAL =     15.38 TIME LEFT:1209584.48
 STEP: 113 TIME =     0.14 SECS, INTEGRAL =     15.52 TIME LEFT:1209584.35
 STEP: 114 TIME =     0.13 SECS, INTEGRAL =     15.65 TIME LEFT:1209584.21

(To convert to Hartree/Bohr^2, multiply by (10^(-21) x N x a0^2)/(4.184 x 627.51) =  0.0642)


           FORCE MATRIX IN MILLIDYNES/ANGSTROM


                  C  1       C  2       C  3       C  4       C  5       C  6
 ------------------------------------------------------------------------------
     C    1  15.157607
     C    2   6.005785  15.180702
     C    3   2.213942   6.002061  15.936867
     C    4   1.431420   2.057419   5.987103  15.407707
     C    5   2.329419   1.567688   2.280975   6.333270  14.567333
     C    6   6.110558   2.194348   1.533506   2.048384   6.130603  15.153744
     H    7   3.425896   0.735607   0.087513   0.012734   0.093528   0.755373
     H    8   0.742106   3.378014   0.742156   0.079383   0.012832   0.085633
     H    9   0.007668   0.084112   0.733959   3.401252   0.738628   0.080396
    Cl   10   0.097839   0.014103   0.084222   0.814727   2.515552   0.809169
     H   11   0.726286   0.089158   0.010536   0.078424   0.733790   3.376226
     C   12   0.089381   0.783869   3.296292   0.739531   0.093225   0.016950
     C   13   0.013771   0.027501   0.679874   0.051293   0.023496   0.007662
     H   14   0.001849   0.004296   0.043975   0.002690   0.002766   0.001246
     H   15   0.001002   0.002948   0.017523   0.012401   0.007020   0.002534
     H   16   0.001424   0.003386   0.022202   0.003471   0.007206   0.003397
     N   17   0.020261   0.052121   0.870051   0.035263   0.045809   0.021165
     O   18   0.005352   0.021900   0.085492   0.021370   0.026856   0.011024
     O   19   0.003501   0.017937   0.064620   0.048507   0.020368   0.007741
     N   20   0.004966   0.015352   0.003031   0.005178   0.006802   0.002328
     C   21   0.001451   0.003206   0.001742   0.001810   0.002788   0.001217
     C   22   0.000973   0.001451   0.001148   0.000913   0.001386   0.000886
     O   23   0.001690   0.002928   0.001459   0.001670   0.002492   0.001505
     C   24   0.002047   0.003881   0.001203   0.001768   0.002352   0.001363
     C   25   0.002381   0.010544   0.001901   0.002243   0.004290   0.001338
     H   26   0.002573   0.007323   0.001407   0.002949   0.002866   0.001175
     H   27   0.000533   0.001744   0.000526   0.000752   0.001431   0.000492
     H   28   0.000814   0.001173   0.000598   0.000494   0.000980   0.000755
     H   29   0.000668   0.001641   0.000415   0.000562   0.000739   0.000368
     H   30   0.000493   0.000588   0.000443   0.000580   0.001465   0.000572
     H   31   0.000326   0.001245   0.000272   0.000266   0.000437   0.000279
     H   32   0.000502   0.000670   0.000687   0.000812   0.001273   0.000512
     H   33   0.005381   0.053981   0.677129   0.036596   0.009354   0.003601
     H   34   0.003374   0.005676   0.003414   0.004077   0.003621   0.001499
     H   35   0.000466   0.001136   0.000390   0.000786   0.000868   0.000405
     H   36   0.004162   0.007657   0.002994   0.003669   0.003880   0.000985
     H   37   0.005631   0.011762   0.004047   0.006039   0.006535   0.002728
     O   38   0.009821   0.044375   0.005591   0.010136   0.012289   0.004323


                  H  7       H  8       H  9      Cl 10       H 11       C 12
 ------------------------------------------------------------------------------
     H    7   4.304654
     H    8   0.032933   4.284356
     H    9   0.010941   0.008178   4.292834
    Cl   10   0.014540   0.012048   0.055957   3.898782
     H   11   0.034462   0.010786   0.010400   0.041937   4.248654
     C   12   0.009491   0.040473   0.031081   0.012938   0.012714  12.138936
     C   13   0.004283   0.007900   0.009529   0.008778   0.006705   2.893229
     H   14   0.000529   0.001849   0.003373   0.001313   0.000599   0.686554
     H   15   0.001260   0.001135   0.017930   0.005718   0.001990   0.675933
     H   16   0.002031   0.002273   0.003742   0.003517   0.002665   0.690821
     N   17   0.010648   0.019925   0.068683   0.029137   0.013393   2.579112
     O   18   0.005256   0.010977   0.020868   0.013174   0.006897   1.025699
     O   19   0.004238   0.007745   0.038747   0.022688   0.006321   1.016135
     N   20   0.003516   0.020600   0.002070   0.003998   0.002211   0.028029
     C   21   0.000977   0.005214   0.001381   0.001859   0.001291   0.004696
     C   22   0.001161   0.002357   0.000701   0.001100   0.000772   0.002291
     O   23   0.001261   0.003897   0.000662   0.002158   0.001314   0.000961
     C   24   0.001899   0.006658   0.000814   0.001982   0.001298   0.002385
     C   25   0.001657   0.003720   0.001034   0.002859   0.001342   0.003469
     H   26   0.001837   0.013983   0.000836   0.001577   0.000999   0.002347
     H   27   0.000410   0.002514   0.000409   0.000946   0.000252   0.001550
     H   28   0.000784   0.001602   0.000244   0.000786   0.000742   0.000562
     H   29   0.000857   0.004009   0.000428   0.000516   0.000410   0.001351
     H   30   0.000221   0.000710   0.000494   0.001227   0.000577   0.000646
     H   31   0.000331   0.002088   0.000229   0.000248   0.000163   0.001279
     H   32   0.000366   0.001225   0.000436   0.000914   0.000402   0.001318
     H   33   0.002698   0.028385   0.003542   0.001965   0.002583   3.010152
     H   34   0.001573   0.009963   0.002835   0.001771   0.001410   0.013030
     H   35   0.000489   0.001662   0.000574   0.000631   0.000301   0.001736
     H   36   0.001353   0.019183   0.001442   0.002653   0.001011   0.006933
     H   37   0.003079   0.048870   0.001858   0.004139   0.002343   0.008677
     O   38   0.005383   0.026414   0.003305   0.007710   0.003759   0.019770


                  C 13       H 14       H 15       H 16       N 17       O 18
 ------------------------------------------------------------------------------
     C   13  10.958293
     H   14   3.333062   4.119129
     H   15   3.349487   0.451114   4.136769
     H   16   3.318749   0.452150   0.449238   4.124501
     N   17   0.776545   0.058454   0.069103   0.075579  19.069848
     O   18   0.097585   0.017786   0.019080   0.016878   9.501665  12.090202
     O   19   0.065245   0.014550   0.017320   0.015899   9.880344   2.649372
     N   20   0.008688   0.002927   0.001634   0.003510   0.064756   0.071637
     C   21   0.003338   0.000816   0.001256   0.000828   0.026234   0.019060
     C   22   0.001902   0.000778   0.000439   0.000617   0.010809   0.008046
     O   23   0.002007   0.000766   0.000703   0.000846   0.004261   0.003151
     C   24   0.001991   0.000552   0.000654   0.000784   0.012997   0.008741
     C   25   0.003257   0.001134   0.001069   0.000847   0.016730   0.009598
     H   26   0.002344   0.000684   0.000526   0.000681   0.015997   0.006816
     H   27   0.001315   0.000350   0.000359   0.000570   0.013082   0.007429
     H   28   0.001449   0.000374   0.000506   0.000273   0.002850   0.001837
     H   29   0.000852   0.000280   0.000199   0.000573   0.003832   0.002867
     H   30   0.000944   0.000321   0.000432   0.000246   0.002117   0.001617
     H   31   0.000749   0.000221   0.000234   0.000539   0.003445   0.002651
     H   32   0.001352   0.000351   0.000313   0.000614   0.008636   0.006796
     H   33   0.657758   0.020706   0.041967   0.021753   0.838111   0.072329
     H   34   0.009216   0.002836   0.002472   0.002754   0.172928   0.099328
     H   35   0.001348   0.000778   0.000391   0.000430   0.011628   0.009903
     H   36   0.006109   0.002596   0.001368   0.003910   0.015216   0.006934
     H   37   0.007089   0.002488   0.001430   0.003384   0.040551   0.024596
     O   38   0.013411   0.004537   0.002653   0.006408   0.039738   0.019235


                  O 19       N 20       C 21       C 22       O 23       C 24
 ------------------------------------------------------------------------------
     O   19  12.443140
     N   20   0.031045  12.009750
     C   21   0.013873   3.946246  12.213473
     C   22   0.005521   0.883376   2.724849  12.063487
     O   23   0.002379   0.053529   0.965101   4.228491   9.656491
     C   24   0.006465   0.881726   0.074936   1.110705   4.201482  12.049506
     C   25   0.008188   3.948368   0.860319   0.076159   0.966372   2.734544
     H   26   0.007204   0.772293   0.078333   0.014627   0.071081   0.640212
     H   27   0.006556   0.823911   0.029423   0.016961   0.036715   0.699122
     H   28   0.001619   0.058338   0.008956   0.108205   0.737283   3.287365
     H   29   0.001757   0.010540   0.006014   0.062083   0.742243   3.261544
     H   30   0.001075   0.057697   0.623520   3.295686   0.739889   0.111913
     H   31   0.001728   0.010330   0.676050   3.252413   0.736154   0.069463
     H   32   0.004769   0.826622   3.198804   0.693575   0.036803   0.019407
     H   33   0.087354   0.017951   0.007115   0.003034   0.001646   0.003286
     H   34   0.065305   3.691162   0.862258   0.075604   0.021220   0.075639
     H   35   0.005861   0.775279   3.223351   0.642169   0.067184   0.014693
     H   36   0.008750   0.057240   0.006740   0.007253   0.002380   0.005593
     H   37   0.018753   0.142958   0.078549   0.023470   0.021145   0.022806
     O   38   0.021200   0.310159   0.031165   0.027248   0.014340   0.022615


                  C 25       H 26       H 27       H 28       H 29       H 30
 ------------------------------------------------------------------------------
     C   25  12.221323
     H   26   3.231582   4.182296
     H   27   3.192359   0.448401   4.149497
     H   28   0.628470   0.014541   0.017168   4.163309
     H   29   0.673097   0.016664   0.047098   0.436164   4.143054
     H   30   0.008759   0.001170   0.002836   0.025268   0.005520   4.160766
     H   31   0.006223   0.002110   0.002550   0.005843   0.015529   0.440983
     H   32   0.032144   0.003910   0.017095   0.003664   0.003377   0.018711
     H   33   0.005987   0.003882   0.001629   0.000656   0.001793   0.000680
     H   34   0.850754   0.036882   0.023550   0.012396   0.004577   0.012242
     H   35   0.078097   0.015074   0.006122   0.001546   0.002327   0.015658
     H   36   0.007273   0.003782   0.001590   0.001070   0.005447   0.001704
     H   37   0.063184   0.019916   0.016067   0.007512   0.021143   0.008543
     O   38   0.033187   0.013221   0.007764   0.005295   0.015239   0.006830


                  H 31       H 32       H 33       H 34       H 35       H 36
 ------------------------------------------------------------------------------
     H   31   4.135118
     H   32   0.047776   4.157451
     H   33   0.001711   0.001847   4.098478
     H   34   0.004742   0.029601   0.036134   4.523152
     H   35   0.016031   0.439702   0.002793   0.036450   4.181114
     H   36   0.006899   0.001292   0.025438   0.009564   0.006013   4.368767
     H   37   0.029124   0.014182   0.034918   0.058164   0.024058   0.775925
     O   38   0.016537   0.006850   0.038687   0.023443   0.015439   3.963095


                  H 37       O 38
 ------------------------------
     H   37   3.785858
     O   38   3.483769   6.126827


          HEAT OF FORMATION =    -133.323105 KCALS/MOLE


          TRIVIAL VIBRATIONS, SHOULD BE ZERO

  18.4294=TX   0.9821=TY -25.1086=TZ  19.9052=RX  -2.3748=RY -11.8392=RZ


      MOLECULAR POINT GROUP   :   C1  


           EIGENVECTORS  


   Root No.       1         2         3         4         5         6         7         8

                 1 A       2 A       3 A       4 A       5 A       6 A       7 A       8 A   

                  -0.0      -0.0      -0.0       0.0       0.0       0.0       0.0       0.0
  
           1    0.0068    0.0388    0.0280    0.0945    0.0833   -0.0986   -0.0610   -0.0356
           2    0.0002   -0.0331   -0.1043   -0.0743   -0.0542    0.0615    0.0569    0.0669
           3   -0.0086    0.0266    0.0378   -0.1002    0.1318   -0.2002    0.1153    0.0418
           4    0.0068    0.0395    0.0284    0.0944    0.0847   -0.0994   -0.0624   -0.0362
           5    0.0011   -0.0178   -0.0686   -0.0177   -0.0293    0.0191    0.0460    0.0500
           6   -0.0325   -0.0375    0.0387   -0.0737    0.0780   -0.1548    0.0694    0.0083
           7    0.0044    0.0260   -0.0022    0.0463    0.0618   -0.0625   -0.0543   -0.0232
           8    0.0026   -0.0107   -0.0511    0.0102   -0.0177   -0.0007    0.0432    0.0432
           9   -0.0167    0.0033    0.0233   -0.0126   -0.0133   -0.0212   -0.0391   -0.0281
          10    0.0040    0.0116   -0.0337   -0.0033    0.0392   -0.0251   -0.0442   -0.0105
          11    0.0024   -0.0171   -0.0684   -0.0171   -0.0290    0.0197    0.0467    0.0498
          12    0.0214    0.1123    0.0054    0.0437   -0.0558    0.0935   -0.1291   -0.0409
          13    0.0040    0.0125   -0.0324   -0.0019    0.0413   -0.0273   -0.0460   -0.0115
          14    0.0012   -0.0320   -0.1035   -0.0727   -0.0535    0.0614    0.0566    0.0662
          15    0.0474    0.1930    0.0013    0.0236   -0.0088    0.0777   -0.1157   -0.0186
          16    0.0057    0.0256   -0.0024    0.0457    0.0626   -0.0628   -0.0529   -0.0234
          17   -0.0001   -0.0413   -0.1228   -0.1028   -0.0681    0.0842    0.0636    0.0753
          18    0.0321    0.1448    0.0177   -0.0569    0.0892   -0.0829    0.0220    0.0297
          19    0.0070    0.0487    0.0518    0.1342    0.0986   -0.1247   -0.0720   -0.0484
          20   -0.0000   -0.0395   -0.1183   -0.0971   -0.0637    0.0773    0.0632    0.0743
          21   -0.0212   -0.0131    0.0539   -0.1549    0.2105   -0.3305    0.2231    0.0775
          22    0.0097    0.0495    0.0522    0.1318    0.1008   -0.1258   -0.0663   -0.0452
          23    0.0018   -0.0112   -0.0553    0.0037   -0.0194    0.0057    0.0441    0.0453
          24   -0.0657   -0.1223    0.0502   -0.1005    0.1110   -0.2248    0.1200    0.0127
          25    0.0031   -0.0002   -0.0576   -0.0416    0.0252    0.0005   -0.0363   -0.0023
          26    0.0029   -0.0106   -0.0547    0.0045   -0.0206    0.0047    0.0423    0.0460
          27    0.0303    0.1353   -0.0051    0.1032   -0.1255    0.1929   -0.2064   -0.0649
          28    0.0015   -0.0071   -0.0706   -0.0631    0.0132    0.0176   -0.0328    0.0089
          29   -0.0001   -0.0425   -0.1257   -0.1073   -0.0702    0.0882    0.0637    0.0777
          30    0.0934    0.3313   -0.0276    0.0970   -0.0728    0.2537   -0.2594   -0.0489
          31    0.0055    0.0254   -0.0024    0.0454    0.0623   -0.0626   -0.0531   -0.0235
          32   -0.0008   -0.0531   -0.1518   -0.1495   -0.0878    0.1185    0.0710    0.0881
          33    0.0516    0.2004    0.0157   -0.0839    0.1347   -0.1187    0.0561    0.0581
          34    0.0040    0.0262   -0.0013    0.0480    0.0623   -0.0636   -0.0549   -0.0233
          35    0.0033    0.0071   -0.0148    0.0700    0.0153   -0.0513    0.0366    0.0362
          36   -0.0413   -0.0705    0.0184   -0.0103   -0.0551   -0.0199   -0.0441   -0.0386
          37   -0.0159   -0.0473   -0.0283    0.0228    0.0174   -0.0537   -0.0366   -0.0278
          38    0.0240    0.0404   -0.0265    0.1813    0.0310   -0.0836    0.1343    0.0528
          39   -0.0375   -0.0848   -0.0018    0.0460   -0.0660   -0.0363    0.0238   -0.0298
          40   -0.0163   -0.0480   -0.0257    0.0305    0.0159   -0.0598   -0.0524    0.0157
          41    0.0287    0.0699    0.0119    0.2740    0.0389   -0.1461   -0.0225    0.4898
          42   -0.0563   -0.1381   -0.0011    0.0690   -0.1046   -0.0642   -0.0694    0.2375
          43   -0.0185   -0.0768   -0.0680   -0.0630    0.0110    0.0038    0.1267   -0.4577
          44    0.0238    0.0338   -0.0362    0.1617    0.0298   -0.0700    0.1757   -0.0520
          45   -0.0155   -0.0551   -0.0305    0.0995   -0.0463   -0.0301    0.2090   -0.2817
          46   -0.0289   -0.0796   -0.0142    0.0816   -0.0125   -0.1017   -0.1707    0.3598
          47    0.0403    0.0447   -0.0660    0.2022    0.0388   -0.0633    0.3398   -0.2726
          48   -0.0396   -0.0732    0.0103    0.0119   -0.0570   -0.0256   -0.0134   -0.0435
          49    0.0233    0.0748   -0.0042    0.0186    0.0599   -0.0212   -0.0654   -0.0230
          50   -0.0217   -0.0098    0.0224    0.0017    0.0246   -0.0550   -0.0547    0.0200
          51   -0.0368   -0.0827    0.0001    0.0366   -0.0585   -0.0370    0.0080   -0.0297
          52    0.0062    0.0653    0.0373    0.0267   -0.0133   -0.0012   -0.0290   -0.0347
          53   -0.0514   -0.0341    0.0634   -0.0251   -0.0034   -0.0569   -0.0788    0.0027
          54   -0.0452   -0.0947   -0.0081    0.0024   -0.0024   -0.0612   -0.0571   -0.0330
          55    0.0527    0.1193   -0.0407   -0.0114    0.1191   -0.0000   -0.1099   -0.0102
          56   -0.0160    0.0030    0.0133   -0.0263    0.0582   -0.0510   -0.0948    0.0219
          57   -0.0254   -0.0782   -0.0087    0.1031   -0.1119   -0.0270    0.1058   -0.0224
          58   -0.0119   -0.0159    0.1237   -0.0413   -0.1797    0.0217    0.0697    0.0296
          59   -0.0744    0.0213    0.0266   -0.0160    0.0253   -0.0091   -0.0878   -0.0687
          60   -0.0687   -0.0189    0.0330   -0.0865    0.0382    0.0415   -0.0389    0.0093
          61   -0.0102   -0.0374    0.0105   -0.0434   -0.1209    0.0236    0.0402    0.0193
          62   -0.0476    0.0322   -0.1027   -0.0256    0.0668   -0.0208   -0.1091   -0.0792
          63    0.0242    0.1096    0.0180   -0.1087   -0.0464   -0.0099    0.0062    0.0142
          64    0.0022   -0.0013   -0.1460   -0.0984   -0.0699   -0.0041    0.0083    0.0088
          65   -0.0765    0.0171   -0.0254   -0.0333    0.0610   -0.0061   -0.1124   -0.0771
          66    0.1313    0.1132   -0.0647    0.0219   -0.1032   -0.0247    0.0716    0.0195
          67   -0.0059   -0.0843   -0.1918   -0.0277   -0.0105    0.0422   -0.0104    0.0024
          68   -0.0170    0.0411    0.0680    0.0425   -0.0386   -0.0120   -0.0431   -0.0631
          69    0.1387    0.0004   -0.0969    0.1514   -0.0515    0.0407    0.0681    0.0146
          70   -0.0113   -0.0606   -0.0787   -0.0343   -0.0712    0.0309    0.0181    0.0121
          71   -0.0452    0.0367    0.2053    0.0396   -0.0828   -0.0091   -0.0263   -0.0552
          72    0.0469   -0.1335   -0.0647    0.1736    0.0547    0.1100    0.0037    0.0027
          73   -0.0287   -0.0942    0.0893    0.0101   -0.1279    0.0479    0.0508    0.0235
          74   -0.0128    0.0446    0.1279    0.0615   -0.0680   -0.0066   -0.0265   -0.0588
          75   -0.0689   -0.1200    0.0225    0.0147    0.0753    0.0778   -0.0427    0.0042
          76   -0.0291   -0.0730    0.1770    0.0032   -0.1763    0.0412    0.0727    0.0308
          77   -0.0376    0.0394    0.2373    0.0510   -0.1021   -0.0087   -0.0139   -0.0520
          78   -0.1525   -0.2145    0.0747    0.0010    0.1347    0.0935   -0.0781    0.0018
          79   -0.0556   -0.1960    0.1119    0.0816   -0.0879    0.0811    0.0407    0.0202
          80    0.0877    0.0702    0.0331    0.1575   -0.0919    0.0055    0.0083   -0.0620
          81   -0.0710   -0.1015    0.0254   -0.0072    0.0696    0.0703   -0.0433    0.0051
          82   -0.0149   -0.1337   -0.1355    0.0245   -0.0056    0.0767   -0.0075    0.0035
          83    0.0063    0.0534    0.2569    0.1049   -0.1461   -0.0075    0.0224   -0.0464
          84    0.0695   -0.2090   -0.1038    0.2746    0.0988    0.1637   -0.0013   -0.0028
          85   -0.0014    0.0508   -0.0694   -0.1318   -0.1397   -0.0383    0.0416    0.0201
          86   -0.1385    0.0094    0.3081   -0.0387   -0.0652   -0.0094   -0.0598   -0.0551
          87    0.0513   -0.1695   -0.0759    0.2131    0.0769    0.1340   -0.0014    0.0001
          88    0.0032   -0.0291   -0.2422   -0.0863   -0.0152    0.0051   -0.0162    0.0003
          89   -0.0475    0.0322   -0.1222   -0.0297    0.0754   -0.0231   -0.1137   -0.0811
          90    0.2079    0.2200   -0.0972    0.0021   -0.1965   -0.0940    0.1285    0.0305
          91    0.0192    0.1165   -0.1445   -0.2071   -0.1305   -0.0732    0.0234    0.0145
          92   -0.1690   -0.0238    0.0604   -0.0951    0.1148    0.0301   -0.1633   -0.0824
          93    0.1379    0.0894   -0.0742    0.0537   -0.0948   -0.0122    0.0739    0.0190
          94   -0.0232   -0.1276   -0.0190    0.0355   -0.0884    0.0522    0.0379    0.0172
          95    0.0391    0.0724   -0.1978    0.0303    0.0296   -0.0485   -0.0715   -0.0801
          96    0.0250    0.1393    0.0331   -0.1384   -0.0564   -0.0186    0.0057    0.0150
          97    0.0022    0.0403    0.0233    0.0898    0.0865   -0.1003   -0.0602   -0.0221
          98    0.0043    0.0121   -0.0069    0.0860    0.0243   -0.0651    0.0363    0.0369
          99   -0.0632   -0.1112    0.0396   -0.0881   -0.0652   -0.0125   -0.1270   -0.0506
         100   -0.0197   -0.0326    0.2187   -0.0066   -0.2159    0.0340    0.0921    0.0352
         101   -0.0602    0.0268   -0.0096   -0.0160    0.0335   -0.0129   -0.0904   -0.0697
         102   -0.1257   -0.0237    0.0510   -0.1473    0.0622    0.0381   -0.0675    0.0057
         103   -0.0032    0.0176    0.0568   -0.0874   -0.1528    0.0079    0.0489    0.0233
         104   -0.0946    0.0098   -0.1680   -0.0839    0.1420   -0.0134   -0.1631   -0.0907
         105    0.0156    0.1728    0.0563   -0.1873   -0.0598   -0.0271   -0.0023    0.0154
         106   -0.0602    0.1917    0.1168    0.0019    0.3572    0.4001    0.2955    0.1261
         107    0.7764   -0.3225    0.2063   -0.2240    0.1167   -0.0218   -0.1793   -0.0629
         108    0.0112   -0.0039    0.0173   -0.0445    0.1697    0.1881    0.0678    0.0671
         109    0.0632    0.0666    0.1389   -0.0811   -0.0197    0.0684    0.0695    0.0220
         110   -0.2168    0.0403    0.0576   -0.0835    0.0622    0.1199    0.0759    0.0240
         111   -0.0524   -0.0192    0.0107   -0.0700   -0.0179    0.0472   -0.0113    0.0273
         112    0.1201    0.0979    0.1459   -0.0374    0.2354    0.2509    0.1582    0.0655
         113    0.0815   -0.0587    0.1019   -0.1470    0.1235    0.1563    0.0842    0.0422
         114   -0.0911   -0.0166    0.0060   -0.0708   -0.0658    0.0105   -0.0302    0.0164


   Root No.       9        10        11        12        13        14        15        16

                 9 A      10 A      11 A      12 A      13 A      14 A      15 A      16 A   

                   0.0       0.0       0.0       0.0       0.0       0.1       0.1       0.1
  
           1    0.0455    0.0465   -0.0174   -0.0130    0.0242    0.0501    0.0139   -0.0069
           2    0.0095    0.0260   -0.0121   -0.0053   -0.0437    0.0025   -0.0346    0.0010
           3   -0.0867   -0.0052    0.0032   -0.0231   -0.0225   -0.0055    0.0018   -0.0310
           4    0.0442    0.0440   -0.0144   -0.0132    0.0242    0.0448    0.0142    0.0018
           5    0.0387    0.0676   -0.0559   -0.0052   -0.0274    0.0689   -0.0286   -0.0766
           6   -0.0777    0.1120    0.1244   -0.1061   -0.0301   -0.0102    0.0062   -0.0821
           7    0.0202    0.0078    0.0189   -0.0118    0.0175    0.0012    0.0156    0.0401
           8    0.0533    0.0905   -0.0786   -0.0051   -0.0244    0.0992   -0.0308   -0.1089
           9   -0.0638    0.1377    0.1198   -0.1043   -0.0364   -0.0068    0.0060   -0.0140
          10   -0.0044   -0.0241    0.0533   -0.0120    0.0045   -0.0476    0.0115    0.0925
          11    0.0389    0.0700   -0.0565   -0.0054   -0.0310    0.0678   -0.0323   -0.0730
          12   -0.0211    0.1106    0.1014   -0.0762   -0.0231   -0.0007    0.0044   -0.0297
          13   -0.0048   -0.0252    0.0554   -0.0125    0.0051   -0.0511    0.0122    0.1012
          14    0.0102    0.0281   -0.0131   -0.0052   -0.0453    0.0022   -0.0360    0.0021
          15   -0.0176   -0.0067   -0.0466    0.0315    0.0102    0.0110   -0.0077   -0.0140
          16    0.0199    0.0110    0.0194   -0.0129    0.0135   -0.0018    0.0123    0.0492
          17   -0.0043    0.0071    0.0067   -0.0046   -0.0515   -0.0253   -0.0372    0.0300
          18   -0.0628   -0.0907   -0.1261    0.0753    0.0040    0.0083   -0.0097    0.0511
          19    0.0664    0.0751   -0.0446   -0.0140    0.0377    0.0952    0.0192   -0.0566
          20   -0.0020    0.0099    0.0036   -0.0048   -0.0515   -0.0228   -0.0379    0.0295
          21   -0.1158   -0.0448   -0.0115   -0.0196   -0.0323   -0.0100    0.0059   -0.0569
          22    0.0639    0.0782   -0.0464   -0.0140    0.0260    0.0892    0.0090   -0.0463
          23    0.0492    0.0865   -0.0741   -0.0049   -0.0260    0.0944   -0.0294   -0.1045
          24   -0.0824    0.1688    0.2067   -0.1541   -0.0260   -0.0158    0.0027   -0.1827
          25   -0.0240   -0.0508    0.0852   -0.0136   -0.0039   -0.0979    0.0111    0.1494
          26    0.0499    0.0852   -0.0753   -0.0042   -0.0266    0.0960   -0.0325   -0.1036
          27    0.0023    0.1541    0.1784   -0.1160   -0.0339    0.0094    0.0087   -0.0601
          28   -0.0376   -0.0729    0.1050   -0.0127   -0.0130   -0.1253    0.0076    0.2080
          29   -0.0078    0.0003    0.0140   -0.0045   -0.0548   -0.0382   -0.0389    0.0599
          30    0.0441   -0.0776   -0.1717    0.1425    0.0739    0.0333   -0.0237   -0.0994
          31    0.0198    0.0110    0.0205   -0.0133    0.0138   -0.0020    0.0125    0.0507
          32   -0.0291   -0.0299    0.0428   -0.0036   -0.0632   -0.0797   -0.0402    0.0951
          33   -0.0793   -0.2308   -0.2995    0.1950    0.0239    0.0209   -0.0214    0.1667
          34    0.0215    0.0085    0.0166   -0.0112    0.0192   -0.0020    0.0166    0.0415
          35    0.0822    0.1085   -0.0892   -0.0095   -0.0154    0.0844   -0.0246   -0.0315
          36   -0.1177    0.1068    0.0207   -0.0459   -0.0328    0.0133   -0.0003    0.0363
          37   -0.0574   -0.0871   -0.1227    0.0938    0.0410    0.0591    0.0105   -0.0935
          38    0.1654   -0.0340    0.0166   -0.0028   -0.0060   -0.0395   -0.0033    0.0307
          39   -0.1057   -0.0249    0.0141    0.0102   -0.0162   -0.0335    0.0097    0.0069
          40   -0.0641   -0.0986   -0.1192    0.0972    0.0423    0.0566    0.0118   -0.1005
          41    0.1551   -0.0897    0.1503   -0.0417   -0.0124   -0.1242    0.0112    0.1070
          42   -0.2037   -0.1440   -0.0558    0.0940    0.0044   -0.0073    0.0124   -0.1200
          43   -0.0425   -0.0480   -0.2552    0.1389    0.0493    0.1311   -0.0023   -0.1714
          44    0.1711   -0.0258   -0.0132    0.0075   -0.0044   -0.0265   -0.0061    0.0166
          45    0.0004   -0.1061    0.0695    0.0149   -0.0094   -0.1360    0.0248    0.0712
          46   -0.1408   -0.2154   -0.1326    0.1531    0.0589    0.0534    0.0185   -0.1856
          47    0.2502   -0.1133    0.0062    0.0321    0.0041   -0.1015    0.0040    0.0472
          48   -0.1097    0.0630    0.0224   -0.0294   -0.0276   -0.0042    0.0035    0.0358
          49    0.0503    0.0503    0.1428   -0.0869   -0.0069    0.0461    0.0156   -0.0568
          50    0.0289    0.2313   -0.1751   -0.0199   -0.0184    0.1173   -0.0340    0.0682
          51   -0.1042    0.0201    0.0070   -0.0042   -0.0196   -0.0282    0.0051    0.0332
          52    0.0051   -0.1068    0.3087   -0.1224   -0.1366    0.5207   -0.0582    0.0316
          53   -0.0245    0.2014   -0.1731   -0.0212   -0.0696    0.3310   -0.0711    0.2004
          54   -0.1048    0.1697   -0.1781    0.0352    0.0797   -0.3658    0.0548    0.0542
          55    0.1163    0.2116    0.0977   -0.1117    0.0897   -0.3320    0.0846   -0.2250
          56    0.0486    0.3358   -0.2353   -0.0255    0.0351   -0.0783   -0.0006    0.0236
          57   -0.0965   -0.1731    0.1734   -0.0145   -0.1016    0.2482   -0.0379    0.0103
          58    0.0286   -0.0081   -0.0635   -0.0716   -0.0073   -0.0259    0.0550    0.0179
          59   -0.0644   -0.0525    0.0485    0.0291   -0.0169   -0.0253    0.0173    0.0475
          60    0.1514   -0.0343   -0.0051   -0.0045    0.0458    0.0227   -0.0486    0.1353
          61    0.0194   -0.0060   -0.0280   -0.0270   -0.0087   -0.0247    0.0391    0.0093
          62   -0.0810   -0.0637    0.0795    0.0520   -0.0325   -0.0349   -0.0082   -0.0095
          63    0.1240   -0.0767   -0.0376   -0.1031   -0.0073   -0.0102   -0.0882   -0.0534
          64    0.0113   -0.0098    0.0086   -0.0034   -0.0128   -0.0166    0.0122   -0.0355
          65   -0.0509   -0.0932    0.0450   -0.0019   -0.0522   -0.0451   -0.0057   -0.0073
          66   -0.0064    0.0488    0.0459    0.0700    0.0849    0.0174   -0.0443    0.0094
          67   -0.0169   -0.0293   -0.0245   -0.0676   -0.0080   -0.0099    0.0292    0.0112
          68   -0.1039   -0.0416    0.0460    0.0334   -0.0204   -0.0428    0.0409    0.0213
          69   -0.0659    0.0361   -0.0027   -0.0135    0.1015    0.0265   -0.0035    0.0851
          70    0.0049   -0.0124   -0.0203   -0.0340   -0.0068   -0.0163    0.0244   -0.0045
          71   -0.0617   -0.0394    0.0431    0.0599   -0.0334   -0.0585    0.0189   -0.0169
          72    0.0028   -0.0372   -0.0429   -0.0789    0.0399   -0.0032   -0.0612    0.0042
          73    0.0358    0.0071   -0.0173    0.0215   -0.0110   -0.0368   -0.0068   -0.0525
          74   -0.1036   -0.0540    0.0188   -0.0081   -0.0335   -0.0500    0.0457   -0.0057
          75    0.1457   -0.0123    0.0470    0.1098    0.0369   -0.0006   -0.1300    0.0157
          76    0.0506    0.0138   -0.0250    0.0293   -0.0127   -0.0477    0.0039   -0.0493
          77   -0.0620   -0.0349    0.0407    0.0655   -0.0363   -0.0673    0.0198   -0.0326
          78    0.2404    0.0311    0.1606    0.3520    0.0326   -0.0196   -0.2830   -0.1157
          79    0.0609    0.0387    0.0547    0.1840   -0.0161   -0.0630   -0.1205   -0.1990
          80   -0.2275   -0.0898   -0.0710   -0.2104   -0.0347   -0.0474    0.1517    0.0350
          81    0.1505   -0.0156    0.0400    0.0938    0.0383    0.0045   -0.1186    0.0399
          82   -0.0149   -0.0604   -0.0709   -0.1396   -0.0359   -0.0278    0.0195   -0.0472
          83   -0.1112   -0.0259    0.0140    0.0199   -0.0233   -0.0626    0.0498   -0.0255
          84   -0.0458   -0.0863   -0.1181   -0.2248    0.0108   -0.0176   -0.0510   -0.0503
          85    0.0224    0.0494    0.0553    0.1027    0.0434    0.0049    0.0319    0.0705
          86    0.0472   -0.0387    0.0917    0.1760   -0.0478   -0.0740   -0.0484   -0.0388
          87   -0.0118   -0.0581   -0.0728   -0.1350    0.0243   -0.0093   -0.0602   -0.0210
          88   -0.0086   -0.0113    0.0198   -0.0020   -0.0058   -0.0067    0.0077   -0.0229
          89   -0.0848   -0.0591    0.0900    0.0658   -0.0279   -0.0320   -0.0107   -0.0103
          90   -0.0510    0.1534    0.1457    0.2622    0.1379    0.0330   -0.0466   -0.0309
          91    0.0435    0.0228    0.0694    0.1015   -0.0182   -0.0193   -0.0164   -0.1154
          92    0.0434   -0.2072   -0.0414   -0.1745   -0.1174   -0.0737   -0.0321   -0.0287
          93   -0.0239    0.0539    0.0413    0.0644    0.0945    0.0216   -0.0357    0.0286
          94   -0.0239    0.0889    0.0423    0.1426    0.0777    0.0093    0.0989    0.2201
          95   -0.1667   -0.0059    0.1368    0.1429    0.0035   -0.0307    0.0033   -0.0366
          96    0.1428   -0.1134   -0.0655   -0.1685   -0.0399   -0.0227   -0.1118   -0.1325
          97    0.0439    0.0198    0.0186   -0.0189    0.0230   -0.0314    0.0218    0.1484
          98    0.0920    0.1100   -0.0856   -0.0122   -0.0149    0.0679   -0.0228    0.0130
          99   -0.1829    0.2113   -0.1040   -0.0316   -0.0366    0.0801   -0.0186    0.0818
         100    0.0215    0.0046   -0.0729   -0.0766    0.0028   -0.0146    0.0749    0.0436
         101   -0.0653   -0.0564    0.0538    0.0356   -0.0283   -0.0306    0.0062    0.0133
         102    0.1501   -0.0095   -0.0327   -0.0391    0.1034    0.0427   -0.0192    0.3006
         103    0.0488   -0.0623   -0.0771   -0.1343   -0.0606   -0.0477    0.0061   -0.1152
         104   -0.0420   -0.1030    0.0795    0.0279   -0.0595   -0.0363   -0.0267   -0.0086
         105    0.1789   -0.1686   -0.1050   -0.2590   -0.0883   -0.0424   -0.1449   -0.2291
         106   -0.2327    0.1135    0.0129    0.0674   -0.1379   -0.0006   -0.0040   -0.0757
         107    0.0609   -0.0816    0.0560    0.0414   -0.0183    0.0024    0.0395    0.0194
         108    0.1103    0.0346    0.0012    0.1539   -0.2747    0.0670    0.5454   -0.0832
         109   -0.0430   -0.0320   -0.0395   -0.1179    0.0828   -0.0622   -0.3475    0.2736
         110   -0.0585   -0.0648    0.0727   -0.1223    0.5861    0.0969    0.0888    0.0050
         111    0.1900   -0.0412   -0.0206    0.0376   -0.0676    0.0476    0.3669    0.0969
         112   -0.1491    0.0579   -0.0139    0.0359   -0.1942   -0.0509   -0.1654    0.0992
         113   -0.0436   -0.0536    0.0931   -0.0860    0.5402    0.1162    0.1754   -0.1473
         114    0.2035   -0.0550   -0.0262    0.0090   -0.0212    0.0423    0.3079    0.1427


   Root No.      17        18        19        20        21        22        23        24

                17 A      18 A      19 A      20 A      21 A      22 A      23 A      24 A   

                   0.1       0.1       0.2       0.2       0.2       0.2       0.3       0.4
  
           1   -0.0174   -0.0155   -0.0205   -0.0467   -0.0713    0.0933   -0.0030    0.0002
           2    0.0173   -0.0041   -0.0056   -0.0183   -0.0211    0.0283   -0.0011   -0.0010
           3    0.0377   -0.0110   -0.0065    0.1334   -0.0232    0.0374   -0.0593   -0.0000
           4   -0.0256   -0.0126   -0.0198   -0.0423   -0.0673    0.0857   -0.0006    0.0002
           5    0.0811   -0.0462   -0.0083   -0.0667   -0.0407    0.0711   -0.0122   -0.0005
           6    0.0584    0.1636   -0.0054   -0.0340    0.0052   -0.0334    0.1387    0.0022
           7   -0.0568    0.0126   -0.0099   -0.0071   -0.0339    0.0386    0.0020   -0.0001
           8    0.1104   -0.0628   -0.0124   -0.0865   -0.0551    0.0934   -0.0154   -0.0005
           9    0.0003   -0.0440    0.0008   -0.0511    0.0154   -0.0527    0.0430    0.0025
          10   -0.1007    0.0397   -0.0111    0.0159   -0.0333    0.0279    0.0061   -0.0003
          11    0.0797   -0.0472   -0.0130   -0.0721   -0.0540    0.0858   -0.0117   -0.0006
          12    0.0215   -0.1293    0.0003    0.1710   -0.0113   -0.0008    0.1385    0.0014
          13   -0.1100    0.0417   -0.0119    0.0184   -0.0343    0.0266    0.0085   -0.0002
          14    0.0163   -0.0046   -0.0084   -0.0227   -0.0301    0.0395   -0.0005   -0.0010
          15    0.0040    0.0295    0.0001    0.0191    0.0003   -0.0164    0.0912    0.0013
          16   -0.0658    0.0132   -0.0181   -0.0162   -0.0589    0.0676    0.0027   -0.0001
          17   -0.0063    0.0128   -0.0044   -0.0004   -0.0145    0.0145    0.0023   -0.0012
          18   -0.0400   -0.1179    0.0058   -0.0620    0.0118   -0.0351    0.1048    0.0000
          19    0.0208   -0.0445   -0.0247   -0.0872   -0.0937    0.1337   -0.0092    0.0007
          20   -0.0043    0.0123   -0.0040    0.0039   -0.0109    0.0092    0.0006   -0.0013
          21    0.0844   -0.0338   -0.0204    0.4629   -0.0862    0.1839   -0.4622   -0.0038
          22    0.0228   -0.0396   -0.0317   -0.0895   -0.1050    0.1440   -0.0057    0.0006
          23    0.1042   -0.0641   -0.0112   -0.0926   -0.0590    0.1071   -0.0178   -0.0003
          24    0.1267    0.4943   -0.0089   -0.1446    0.0156   -0.0659    0.4728   -0.0000
          25   -0.1523    0.0643   -0.0098    0.0472   -0.0225   -0.0011    0.0164   -0.0006
          26    0.1073   -0.0595   -0.0142   -0.0908   -0.0618    0.1046   -0.0179   -0.0005
          27    0.0543   -0.2909   -0.0036    0.5126   -0.0592    0.0833    0.3129   -0.0012
          28   -0.2083    0.1065   -0.0086    0.0955   -0.0093   -0.0330    0.0322   -0.0001
          29   -0.0361    0.0339   -0.0068    0.0183   -0.0160    0.0065    0.0100   -0.0009
          30    0.0569    0.6010   -0.0181   -0.0412   -0.0262    0.0585   -0.2879   -0.0006
          31   -0.0676    0.0138   -0.0187   -0.0157   -0.0606    0.0695    0.0026    0.0000
          32   -0.0612    0.0449   -0.0008    0.0367    0.0048   -0.0236    0.0131   -0.0016
          33   -0.1381   -0.3146    0.0210   -0.3006    0.0488   -0.1078    0.3015   -0.0024
          34   -0.0574    0.0122   -0.0084   -0.0046   -0.0298    0.0351    0.0011   -0.0003
          35    0.0192   -0.0188   -0.0138   -0.0172   -0.0396    0.0374    0.0183   -0.0002
          36   -0.0556   -0.0518   -0.0038   -0.1140    0.0072   -0.0405   -0.1111    0.0016
          37    0.0705    0.0154    0.0084    0.0799    0.0205   -0.0207    0.0509   -0.0000
          38   -0.0042    0.0239    0.0083    0.0312    0.0278   -0.0266    0.0220    0.0007
          39   -0.0074   -0.0262    0.0154   -0.0518    0.0646   -0.0973   -0.0942    0.0022
          40    0.0783    0.0177    0.0114    0.0900    0.0298   -0.0320    0.0580    0.0000
          41   -0.0611    0.0403    0.0138   -0.0026    0.0458   -0.0365   -0.0305    0.0005
          42    0.1183   -0.0167    0.0438    0.0481    0.1574   -0.2129   -0.0384    0.0034
          43    0.1349    0.0118    0.0103    0.1372    0.0275   -0.0400    0.1195   -0.0004
          44    0.0085    0.0246    0.0103    0.0452    0.0351   -0.0379    0.0332    0.0006
          45   -0.0344    0.0059    0.0454   -0.0071    0.1652   -0.2128   -0.1412    0.0032
          46    0.1695    0.0324    0.0336    0.1726    0.0983   -0.1078    0.1190    0.0006
          47    0.0113    0.0590    0.0383    0.1188    0.1246   -0.1348    0.0406    0.0007
          48   -0.0526   -0.0485   -0.0054   -0.1245    0.0000   -0.0275   -0.1327    0.0021
          49    0.0701   -0.0852    0.0288   -0.0987    0.0906   -0.1104   -0.0961   -0.0006
          50   -0.1040    0.0361    0.0006    0.0757    0.0421   -0.1164   -0.0043    0.0031
          51   -0.0523   -0.0321   -0.0256   -0.1116   -0.0808    0.0933   -0.0593   -0.0001
          52    0.0093   -0.0500    0.0471   -0.0740    0.1861   -0.2364   -0.1500    0.0039
          53   -0.2310    0.1200    0.0137    0.1845    0.1152   -0.2200    0.0053    0.0063
          54   -0.1011    0.0038   -0.0360   -0.0464   -0.1254    0.1426    0.0045   -0.0014
          55    0.2591   -0.2201    0.0706   -0.2120    0.1999   -0.2257   -0.2150   -0.0046
          56   -0.0545    0.0005    0.0237    0.0663    0.1106   -0.1979   -0.0447    0.0015
          57   -0.0193   -0.0545   -0.0594   -0.1939   -0.1983    0.2567   -0.0376   -0.0003
          58    0.0108    0.0092    0.0365   -0.0010    0.0598    0.0554    0.0085    0.0914
          59    0.0509    0.0018    0.0165   -0.0049    0.0363    0.0306    0.0003   -0.0379
          60    0.1141    0.0052    0.0773   -0.0021    0.1490    0.1372    0.0158   -0.0087
          61    0.0126    0.0032    0.0309   -0.0030    0.0332    0.0411    0.0068    0.1388
          62    0.0165   -0.0081   -0.0066   -0.0073   -0.0183   -0.0062   -0.0043    0.0527
          63   -0.0411   -0.0041    0.0595    0.0003    0.0207    0.0318    0.0030    0.1080
          64   -0.0266   -0.0034   -0.0331   -0.0032    0.0426    0.0270    0.0017   -0.0240
          65    0.0227   -0.0060    0.0146   -0.0087   -0.0071    0.0106   -0.0013    0.1054
          66   -0.0034   -0.0025    0.0722    0.0017   -0.0172    0.0036   -0.0010    0.1369
          67    0.0165    0.0033    0.1216   -0.0025   -0.0582   -0.0160   -0.0012   -0.0801
          68    0.0413    0.0008    0.0843   -0.0085   -0.0446   -0.0011   -0.0002    0.0256
          69    0.0652    0.0099    0.3454    0.0025   -0.1958   -0.0716   -0.0057    0.0214
          70   -0.0018    0.0026    0.0867   -0.0016   -0.0251    0.0008    0.0010   -0.1316
          71    0.0047   -0.0045   -0.0112   -0.0079    0.0219    0.0287    0.0024   -0.0548
          72   -0.0040   -0.0075    0.0269    0.0010    0.0008    0.0093    0.0002   -0.0843
          73   -0.0482   -0.0046    0.0117    0.0011   -0.0107   -0.0045   -0.0008    0.0188
          74    0.0139   -0.0002    0.0090   -0.0082    0.0072    0.0191    0.0023   -0.0961
          75    0.0133   -0.0142    0.0533    0.0008    0.0293    0.0421    0.0025   -0.1272
          76   -0.0445   -0.0041    0.0100    0.0000    0.0192    0.0234    0.0025    0.1310
          77   -0.0079   -0.0058   -0.0095   -0.0078    0.0132    0.0236    0.0017    0.0279
          78   -0.1011   -0.0373    0.0142    0.0078   -0.1013   -0.0763   -0.0154   -0.0495
          79   -0.1780   -0.0302   -0.0355    0.0085   -0.1847   -0.1560   -0.0269    0.0526
          80    0.0526    0.0141    0.0131   -0.0148    0.0437    0.0552    0.0133   -0.3894
          81    0.0339   -0.0105    0.0616    0.0001    0.0599    0.0678    0.0064   -0.1042
          82   -0.0426   -0.0044   -0.1245   -0.0021    0.0888    0.0368    0.0029   -0.1133
          83   -0.0097    0.0002   -0.0020   -0.0064   -0.0072    0.0045    0.0006    0.0923
          84   -0.0608   -0.0131   -0.2333    0.0016    0.1314    0.0434    0.0019    0.0349
          85    0.0735    0.0134    0.4465   -0.0022   -0.2212   -0.0611   -0.0028   -0.2927
          86   -0.0054   -0.0169   -0.0834   -0.0100    0.0952    0.0811    0.0070   -0.3049
          87   -0.0305   -0.0104   -0.0948    0.0015    0.0656    0.0276    0.0010   -0.0030
          88   -0.0156   -0.0036    0.0091   -0.0027   -0.0033   -0.0033   -0.0036   -0.1575
          89    0.0134   -0.0098   -0.0453   -0.0079    0.0058    0.0003   -0.0059   -0.0347
          90   -0.0624   -0.0130   -0.2372    0.0035    0.1655    0.0633    0.0003    0.0205
          91   -0.1064   -0.0160   -0.3620   -0.0039    0.2599    0.1148    0.0074   -0.0486
          92    0.0282   -0.0047    0.1393   -0.0126   -0.0574    0.0158    0.0026    0.4478
          93    0.0121    0.0002    0.1339    0.0024   -0.0586   -0.0155   -0.0027    0.0999
          94    0.1929    0.0113    0.0428   -0.0087    0.1610    0.1608    0.0243    0.3608
          95   -0.0069   -0.0141   -0.0323   -0.0089   -0.0909   -0.0641   -0.0133    0.2796
          96   -0.1098   -0.0069    0.0587    0.0025   -0.0235   -0.0101   -0.0033    0.0092
          97   -0.1791    0.0699   -0.0151    0.0574   -0.0396    0.0219    0.0348    0.0005
          98   -0.0304    0.0059   -0.0154    0.0095   -0.0403    0.0265    0.0308   -0.0005
          99   -0.1182   -0.0406   -0.0027   -0.1028    0.0266   -0.0806   -0.1872   -0.0000
         100    0.0229    0.0138    0.0548   -0.0042    0.1110    0.0866    0.0089   -0.0261
         101    0.0266   -0.0018    0.0005   -0.0025   -0.0063   -0.0026   -0.0015    0.0008
         102    0.2216    0.0235    0.1333   -0.0052    0.3466    0.2790    0.0219   -0.0205
         103   -0.0944   -0.0006    0.0233    0.0000   -0.0256   -0.0151   -0.0009    0.0964
         104    0.0267   -0.0107   -0.0218   -0.0103    0.0172    0.0202   -0.0023   -0.0933
         105   -0.1898   -0.0107    0.0512    0.0040   -0.0563   -0.0421   -0.0077   -0.0301
         106   -0.0712    0.0090    0.0860   -0.0031    0.0717    0.0544    0.0015    0.0109
         107    0.0140    0.0070    0.0196    0.0016    0.0135    0.0192    0.0041   -0.0210
         108   -0.0973    0.0087    0.0225    0.0004   -0.0012   -0.0002    0.0008    0.0069
         109    0.3652    0.0029   -0.3375    0.0066   -0.2609   -0.2341   -0.0053    0.0038
         110   -0.0523   -0.0230   -0.0911    0.0053   -0.0908   -0.0682   -0.0157   -0.0673
         111    0.1231   -0.0022   -0.2237    0.0076   -0.2011   -0.1716   -0.0081   -0.0069
         112    0.1408    0.0144   -0.0691    0.0019   -0.0508   -0.0479    0.0016   -0.0300
         113   -0.1915   -0.0252    0.0157   -0.0005    0.0058    0.0030   -0.0101    0.0643
         114    0.1735   -0.0013   -0.2577    0.0079   -0.2212   -0.1893   -0.0069   -0.0137


   Root No.      25        26        27        28        29        30        31        32

                25 A      26 A      27 A      28 A      29 A      30 A      31 A      32 A   

                   0.4       0.4       0.5       0.5       0.6       0.6       0.7       0.7
  
           1   -0.0245    0.0948    0.0404    0.0196    0.0368    0.0090    0.0506   -0.0007
           2   -0.0013    0.0287    0.0116   -0.0047   -0.0463   -0.0046   -0.0709   -0.0003
           3    0.0005   -0.0215   -0.0062    0.2307   -0.0341   -0.0021   -0.0285    0.0002
           4   -0.0202    0.0759    0.0324    0.0155    0.0193    0.0077    0.0442   -0.0005
           5   -0.0114    0.0785    0.0306    0.0048   -0.0039   -0.0059   -0.0962   -0.0006
           6   -0.0010   -0.0219   -0.0043    0.2029   -0.0301   -0.0007   -0.0174   -0.0018
           7   -0.0009    0.0112    0.0047   -0.0101   -0.0558   -0.0057   -0.0844    0.0002
           8   -0.0181    0.1016    0.0403    0.0139    0.0368   -0.0004   -0.0379   -0.0007
           9    0.0005   -0.0487   -0.0142    0.2364   -0.0292    0.0001    0.0031    0.0000
          10   -0.0130    0.0486    0.0243    0.0035   -0.0801    0.0114    0.0886   -0.0008
          11   -0.0240    0.1241    0.0523    0.0160   -0.0267    0.0091    0.0504   -0.0011
          12   -0.0007   -0.0179   -0.0053    0.2536   -0.0315   -0.0020   -0.0234    0.0015
          13   -0.0141    0.0464    0.0233    0.0051   -0.0861    0.0136    0.1159   -0.0007
          14   -0.0110    0.0639    0.0286    0.0079   -0.0452    0.0074    0.0525   -0.0010
          15    0.0005   -0.0327   -0.0115    0.4471   -0.0627   -0.0049   -0.0540    0.0033
          16   -0.0260    0.0979    0.0455    0.0171   -0.0560    0.0210    0.1800   -0.0012
          17   -0.0026    0.0297    0.0135   -0.0027   -0.0617    0.0011   -0.0028   -0.0006
          18    0.0001   -0.0185   -0.0069    0.2806   -0.0426   -0.0032   -0.0368    0.0017
          19   -0.0403    0.1640    0.0697    0.0517    0.1743    0.0094   -0.0139   -0.0011
          20    0.0048   -0.0004   -0.0015   -0.0243   -0.1308   -0.0045   -0.0348   -0.0002
          21    0.0019    0.0086    0.0022   -0.1876    0.0281    0.0021    0.0228   -0.0001
          22   -0.0688    0.2109    0.0714    0.0551    0.1485    0.0117    0.1684   -0.0002
          23   -0.0323    0.1536    0.0584    0.0300    0.0662   -0.0035   -0.0408   -0.0012
          24    0.0020    0.0615    0.0254   -0.2675    0.0306    0.0030    0.0052   -0.0034
          25   -0.0108    0.0108    0.0110    0.0060   -0.1645    0.0353    0.4088   -0.0009
          26   -0.0270    0.1561    0.0658    0.0178    0.0186   -0.0026   -0.1217   -0.0013
          27   -0.0057    0.0855    0.0294   -0.3745    0.0449    0.0038    0.0179   -0.0022
          28    0.0007   -0.1002   -0.0465    0.0733    0.6898   -0.0183   -0.1510   -0.0011
          29   -0.0042   -0.0160   -0.0119    0.0419    0.3940   -0.0125   -0.1145   -0.0008
          30    0.0035    0.0012    0.0003   -0.1812    0.0223    0.0027    0.0283   -0.0016
          31   -0.0287    0.1054    0.0487    0.0227   -0.0586    0.0233    0.2015   -0.0013
          32    0.0014    0.0106    0.0079   -0.0258   -0.2881    0.0113    0.1141    0.0004
          33   -0.0014    0.0486    0.0152   -0.3691    0.0551    0.0040    0.0344   -0.0027
          34    0.0068   -0.0106   -0.0067   -0.0264   -0.0983   -0.0146   -0.1658    0.0011
          35    0.0438   -0.2043   -0.0833   -0.0151    0.0476   -0.0000    0.0784    0.0007
          36   -0.0007   -0.0344   -0.0076   -0.0255    0.0011    0.0021    0.0044    0.0003
          37    0.0105   -0.0285   -0.0130   -0.0238   -0.0594   -0.0126   -0.1444    0.0017
          38    0.0216   -0.1107   -0.0555   -0.0019    0.0131   -0.0063    0.0542    0.0016
          39   -0.0178    0.0369    0.0193   -0.0142    0.0122    0.0042    0.0198    0.0004
          40    0.0119   -0.0306   -0.0127   -0.0183   -0.0629   -0.0127   -0.1495    0.0017
          41   -0.0018    0.0125   -0.0060   -0.0546   -0.0797   -0.0219   -0.1987    0.0056
          42   -0.0210    0.0247    0.0235    0.0808    0.1671    0.0394    0.4821   -0.0040
          43    0.0525   -0.2242   -0.0999    0.0168   -0.0284   -0.0172   -0.0202    0.0046
          44    0.0288   -0.1452   -0.0704    0.0050    0.0226   -0.0065    0.0851    0.0022
          45   -0.0891    0.3672    0.1746   -0.0303   -0.0533    0.0099   -0.2760   -0.0018
          46    0.0087    0.0003    0.0069    0.0417   -0.0480   -0.0066   -0.1700   -0.0010
          47   -0.0085    0.0589    0.0257    0.0341    0.0407    0.0109    0.1295   -0.0031
          48   -0.0059   -0.0458   -0.0225   -0.0560   -0.0042   -0.0055   -0.0032    0.0037
          49    0.0191   -0.0434   -0.0127   -0.0264   -0.0450   -0.0082   -0.0935    0.0003
          50    0.0024   -0.1020   -0.0177   -0.0154    0.0231    0.0143    0.0543   -0.0012
          51    0.0233   -0.0946   -0.0467   -0.0320   -0.0213   -0.0095   -0.0290    0.0013
          52    0.0007    0.0032    0.0022   -0.0403   -0.0323   -0.0111   -0.0581    0.0007
          53   -0.0574    0.1057    0.0516    0.0308   -0.0364   -0.0034   -0.0336    0.0011
          54   -0.0087    0.0311   -0.0055    0.0183   -0.0941   -0.0235   -0.1569    0.0026
          55    0.0598   -0.1944   -0.0817   -0.1147    0.0381   -0.0040    0.0363    0.0004
          56   -0.0039   -0.0820   -0.0138   -0.0291    0.0385    0.0127    0.0757   -0.0005
          57    0.0835   -0.3215   -0.1440   -0.0735    0.0187   -0.0055    0.0434    0.0007
          58    0.0351    0.0176   -0.0306    0.0021    0.0006   -0.0132    0.0035   -0.0441
          59    0.0995    0.0874   -0.1453    0.0045    0.0016   -0.0971    0.0119    0.0124
          60   -0.0643   -0.0438    0.0334    0.0027    0.0011    0.0730   -0.0021    0.0016
          61   -0.0338   -0.0352    0.0533   -0.0012    0.0001    0.0623   -0.0058   -0.0188
          62    0.0119    0.0218   -0.0446    0.0001    0.0003   -0.0028   -0.0002   -0.0132
          63   -0.0479   -0.0562    0.0971   -0.0015    0.0006   -0.0202    0.0022    0.0045
          64   -0.0179   -0.0172    0.0263   -0.0014    0.0006    0.0432   -0.0039    0.0301
          65    0.0006    0.0106   -0.0291   -0.0002    0.0005    0.0059   -0.0007   -0.0419
          66   -0.0058   -0.0278    0.0644   -0.0013    0.0005   -0.0542    0.0042   -0.0234
          67    0.0007    0.0128   -0.0343    0.0000    0.0002    0.0802   -0.0067    0.0275
          68    0.0002    0.0273   -0.0788   -0.0008    0.0007    0.1786   -0.0155    0.0196
          69    0.0264    0.0289   -0.0588    0.0007    0.0002    0.0945   -0.0076    0.0073
          70   -0.0021   -0.0022    0.0079    0.0005    0.0002   -0.0435    0.0045    0.0471
          71   -0.0181   -0.0002   -0.0177   -0.0001    0.0003    0.0398   -0.0030    0.0199
          72   -0.0445   -0.0387    0.0667    0.0004   -0.0011   -0.0330    0.0012   -0.0014
          73    0.0290    0.0122   -0.0092    0.0021   -0.0003   -0.0615    0.0057   -0.0201
          74   -0.0148    0.0027   -0.0195   -0.0009    0.0005    0.0436   -0.0033    0.0294
          75   -0.1033   -0.0772    0.1132    0.0010   -0.0011    0.0125   -0.0021   -0.0099
          76    0.0235    0.0107   -0.0433    0.0028    0.0000    0.2289   -0.0177   -0.1813
          77   -0.0004    0.0209   -0.0875   -0.0003    0.0009    0.3718   -0.0295   -0.0897
          78    0.0147    0.0217   -0.0321   -0.0010   -0.0000    0.0501   -0.0040    0.1651
          79    0.1518    0.1066   -0.1163    0.0050   -0.0032   -0.3663    0.0256    0.0584
          80   -0.1530   -0.1142    0.2098   -0.0094   -0.0016   -0.2467    0.0152    0.1037
          81   -0.1111   -0.0820    0.1083    0.0013   -0.0002    0.1037   -0.0079   -0.0222
          82    0.0186    0.0110   -0.0147    0.0009    0.0003    0.0096   -0.0003   -0.0197
          83    0.1042    0.0961   -0.1833    0.0028    0.0034    0.0332    0.0074    0.4063
          84    0.0487    0.0302   -0.0505    0.0025    0.0005    0.0314    0.0004    0.1093
          85   -0.0507   -0.0376    0.0655   -0.0005    0.0005   -0.0552    0.0063    0.2658
          86   -0.1921   -0.1485    0.2467   -0.0013   -0.0038   -0.1765    0.0068   -0.3293
          87   -0.0092   -0.0110    0.0183    0.0012   -0.0007    0.0027   -0.0012   -0.0431
          88    0.0288    0.0477   -0.1104    0.0025   -0.0002    0.0312    0.0004   -0.3535
          89    0.0631    0.0836   -0.1760    0.0041    0.0002    0.0086    0.0026   -0.3866
          90    0.0564    0.0212   -0.0191    0.0013    0.0018   -0.0013    0.0019   -0.0171
          91   -0.0433   -0.0567    0.1141   -0.0040    0.0021   -0.0262    0.0032    0.3855
          92   -0.0735   -0.1198    0.2531   -0.0060    0.0019   -0.1960    0.0147    0.1272
          93    0.0090   -0.0012    0.0048    0.0002   -0.0000   -0.0043    0.0000   -0.1295
          94   -0.1721   -0.1580    0.2362   -0.0033   -0.0005    0.1529   -0.0141   -0.0206
          95    0.0187   -0.0132    0.0903   -0.0072   -0.0007   -0.3563    0.0228   -0.0892
          96    0.0072   -0.0054    0.0162   -0.0002    0.0009   -0.0297    0.0036   -0.0017
          97    0.0628   -0.2288   -0.0840   -0.0641   -0.2272   -0.0206   -0.2393   -0.0016
          98    0.0687   -0.2810   -0.1012   -0.0259    0.0028    0.0018    0.0547   -0.0006
          99    0.0000   -0.0070    0.0315   -0.1533    0.0178    0.0182   -0.0537   -0.0017
         100    0.1047    0.0695   -0.1027    0.0017    0.0034   -0.0805    0.0115   -0.0198
         101    0.0441    0.0474   -0.0857    0.0035    0.0003   -0.0380    0.0058    0.0020
         102    0.2390    0.1916   -0.3335    0.0129    0.0044   -0.3143    0.0370    0.0264
         103    0.0316    0.0160   -0.0172   -0.0007    0.0000    0.0388   -0.0044   -0.1448
         104   -0.0395    0.0275   -0.1195    0.0002    0.0011    0.3798   -0.0333    0.2367
         105    0.0301    0.0225   -0.0376   -0.0002    0.0006    0.0878   -0.0078   -0.0650
         106   -0.0451   -0.0038   -0.0223   -0.0028   -0.0013   -0.0070   -0.0004    0.0000
         107    0.1672   -0.0002    0.0980    0.0071    0.0044    0.0213   -0.0011   -0.0029
         108    0.0187    0.0107   -0.0133   -0.0016    0.0010   -0.0202    0.0039   -0.0036
         109   -0.2304    0.0077   -0.1461   -0.0118   -0.0104   -0.0411   -0.0065    0.0103
         110    0.5382   -0.0237    0.3647    0.0164    0.0194    0.1109    0.0015   -0.0161
         111   -0.0303    0.0085   -0.0225   -0.0015   -0.0021   -0.0085   -0.0016    0.0041
         112    0.1857   -0.0099    0.1204    0.0041    0.0037    0.0363   -0.0048   -0.0016
         113   -0.5244    0.0124   -0.3005   -0.0152   -0.0146   -0.0766    0.0008    0.0130
         114    0.0021    0.0074   -0.0019   -0.0023   -0.0012   -0.0027   -0.0025    0.0020


   Root No.      33        34        35        36        37        38        39        40

                33 A      34 A      35 A      36 A      37 A      38 A      39 A      40 A   

                   0.8       0.8       0.8       0.9       0.9       0.9       0.9       1.0
  
           1    0.0001    0.0012    0.0003   -0.0102   -0.0610   -0.0014   -0.0003   -0.0751
           2    0.0003   -0.0142    0.0024    0.0333   -0.0572   -0.0017   -0.0012   -0.1683
           3    0.0000    0.0282   -0.0043   -0.0250    0.0079    0.0004    0.0000    0.0039
           4    0.0000    0.0007    0.0003   -0.0002   -0.0383   -0.0012   -0.0005   -0.0466
           5    0.0003   -0.0191    0.0034    0.0414    0.0346    0.0003   -0.0001   -0.0817
           6    0.0010    0.0032   -0.0003    0.0070   -0.0016    0.0014    0.0030   -0.0228
           7    0.0002   -0.0129    0.0022    0.0500    0.0053   -0.0005   -0.0014   -0.0639
           8    0.0002   -0.0091    0.0017    0.0040   -0.0088   -0.0002    0.0000   -0.0493
           9    0.0004   -0.0384    0.0055    0.0503   -0.0111    0.0002    0.0020   -0.0483
          10    0.0005    0.0073   -0.0005   -0.0147    0.0071    0.0001    0.0005   -0.0210
          11    0.0004   -0.0017    0.0010   -0.0104   -0.0134   -0.0003    0.0005   -0.0586
          12   -0.0008    0.0142   -0.0018   -0.0121   -0.0014   -0.0005   -0.0011    0.0077
          13    0.0005    0.0104   -0.0010   -0.0160    0.0318    0.0004    0.0007    0.0047
          14    0.0006    0.0019    0.0001   -0.0190   -0.0927   -0.0016    0.0000   -0.1132
          15   -0.0024    0.0705   -0.0108   -0.0729    0.0071   -0.0016   -0.0043    0.0550
          16    0.0006    0.0179   -0.0020   -0.0508   -0.0602   -0.0007    0.0008   -0.0058
          17    0.0005   -0.0042    0.0008    0.0086   -0.0625   -0.0013   -0.0007   -0.0923
          18   -0.0011    0.0485   -0.0076   -0.0500    0.0074   -0.0006   -0.0025    0.0318
          19   -0.0017   -0.0205    0.0058    0.0638    0.5401    0.0042    0.0051   -0.3401
          20    0.0013   -0.0042   -0.0006   -0.0035   -0.4210   -0.0055   -0.0047   -0.0556
          21    0.0009   -0.0235    0.0028    0.0218    0.0013   -0.0002   -0.0006   -0.0036
          22    0.0012    0.0035   -0.0040    0.0207   -0.2250   -0.0010   -0.0050    0.5768
          23    0.0020   -0.0209    0.0029    0.0601   -0.0673    0.0013   -0.0015    0.2553
          24    0.0023    0.0148   -0.0021   -0.0217    0.0061    0.0016    0.0020    0.0221
          25    0.0010    0.0656   -0.0117   -0.2610   -0.1018    0.0016    0.0089   -0.1396
          26    0.0002   -0.0351    0.0078    0.1267    0.0451   -0.0012   -0.0039   -0.0101
          27    0.0010   -0.0109    0.0024   -0.0070    0.0038    0.0010    0.0014    0.0016
          28    0.0004   -0.0093    0.0011    0.0054    0.0587    0.0010    0.0002    0.1125
          29    0.0003   -0.0135    0.0014    0.0037   -0.0769   -0.0017   -0.0006   -0.0668
          30    0.0015   -0.0278    0.0040    0.0282   -0.0037    0.0010    0.0015   -0.0212
          31    0.0005    0.0209   -0.0024   -0.0574   -0.0586   -0.0008    0.0008   -0.0054
          32   -0.0007   -0.0021    0.0013    0.1457    0.6187    0.0068   -0.0007    0.4201
          33    0.0025   -0.0435    0.0061    0.0419   -0.0077    0.0011    0.0019   -0.0284
          34   -0.0003   -0.0246    0.0033    0.0413   -0.0061   -0.0006   -0.0020   -0.0658
          35   -0.0005    0.0345   -0.0057   -0.0563    0.0094    0.0004    0.0032    0.0207
          36   -0.0001   -0.0448    0.0070    0.0177   -0.0046   -0.0002    0.0013   -0.0250
          37   -0.0013   -0.0106    0.0016   -0.0708    0.0081   -0.0000    0.0001   -0.0247
          38   -0.0006   -0.0567    0.0032   -0.0304    0.0083    0.0002   -0.0003    0.0043
[...]
 FORCE CONSTANT      0.2003

 VIBRATION         76   76A           ATOM PAIR      ENERGY CONTRIBUTION    RADIAL
 FREQUENCY          1333.58         C 21 -- H 35         +17.9% ( 46.2%)      0.1%
 TRANSITION DIPOLE   0.2116         C 21 -- H 32         +15.0% ( 42.3%)      0.1%
 TRAVEL (Ang.)       0.4999         C 24 -- H 28         +10.3% ( 35.0%)      0.3%
 REDUCED MASS        0.2023         C 25 -- H 26          +9.0% ( 32.7%)      1.6%
 EFFECTIVE MASS      2.4482
 FORCE CONSTANT      0.2120

 VIBRATION         77   77A           ATOM PAIR      ENERGY CONTRIBUTION    RADIAL
 FREQUENCY          1334.71         C  3 -- C 12         +16.4% ( 58.8%)     99.3%
 TRANSITION DIPOLE   1.1611         C  2 -- C  3         +11.5% ( 49.4%)     56.6%
 TRAVEL (Ang.)       0.1973         C  3 -- C  4         +11.3% ( 48.9%)     54.4%
 REDUCED MASS        1.2984         C  1 -- C  2          +9.9% ( 45.6%)     90.1%
 EFFECTIVE MASS      9.6220
 FORCE CONSTANT      1.3628

 VIBRATION         78   78A           ATOM PAIR      ENERGY CONTRIBUTION    RADIAL
 FREQUENCY          1339.59         C 22 -- H 30         +17.0% ( 47.1%)      0.0%
 TRANSITION DIPOLE   0.4882         C 24 -- H 28         +13.5% ( 41.9%)      0.0%
 TRAVEL (Ang.)       0.3734         C 22 -- H 31         +13.3% ( 41.7%)      1.3%
 REDUCED MASS        0.3610         C 24 -- H 29          +8.7% ( 33.7%)      3.2%
 EFFECTIVE MASS      3.8750
 FORCE CONSTANT      0.3817

 VIBRATION         79   79A           ATOM PAIR      ENERGY CONTRIBUTION    RADIAL
 FREQUENCY          1369.61         C 13 -- H 14         +22.6% ( 50.0%)      0.6%
 TRANSITION DIPOLE   0.9093         C 13 -- H 15         +18.6% ( 45.3%)      1.1%
 TRAVEL (Ang.)       0.3833         C 13 -- H 16         +17.6% ( 44.2%)      0.8%
 REDUCED MASS        0.3351         C  3 -- C 12          +9.2% ( 31.8%)     83.1%
 EFFECTIVE MASS      3.2649
 FORCE CONSTANT      0.3703

 VIBRATION         80   80A           ATOM PAIR      ENERGY CONTRIBUTION    RADIAL
 FREQUENCY          1382.08         C  1 -- C  6         +12.0% ( 49.2%)     94.6%
 TRANSITION DIPOLE   0.1476         C  1 -- C  2         +11.9% ( 49.1%)     96.2%
 TRAVEL (Ang.)       0.2240         C  2 -- C  3         +10.1% ( 45.2%)     98.7%
 REDUCED MASS        0.9722         C  4 -- C  5         +10.0% ( 45.1%)     98.9%
 EFFECTIVE MASS      7.1136
 FORCE CONSTANT      1.0942

 VIBRATION         81   81A           ATOM PAIR      ENERGY CONTRIBUTION    RADIAL
 FREQUENCY          1390.24         C 25 -- H 26         +15.9% ( 47.0%)      0.1%
 TRANSITION DIPOLE   0.4746         C 21 -- H 35         +11.6% ( 40.2%)      0.1%
 TRAVEL (Ang.)       0.3244         C 25 -- H 27         +11.6% ( 40.2%)      0.0%
 REDUCED MASS        0.4609         C 21 -- H 32          +7.8% ( 32.9%)      0.0%
 EFFECTIVE MASS      4.3650
 FORCE CONSTANT      0.5248

 VIBRATION         82   82A           ATOM PAIR      ENERGY CONTRIBUTION    RADIAL
 FREQUENCY          1420.22         H 37 -- O 38         +59.1% ( 61.6%)      6.9%
 TRANSITION DIPOLE   0.9335         H 36 -- O 38         +39.3% ( 50.3%)      9.0%
 TRAVEL (Ang.)       0.3012         C 25 -- H 27          +0.4% (  4.8%)      0.8%
 REDUCED MASS        0.5234         C 25 -- H 26          +0.2% (  3.7%)      0.5%
 EFFECTIVE MASS      1.6219
 FORCE CONSTANT      0.6220

 VIBRATION         83   83A           ATOM PAIR      ENERGY CONTRIBUTION    RADIAL
 FREQUENCY          1493.14         N 17 -- O 18         +34.3% ( 79.2%)     74.3%
 TRANSITION DIPOLE   4.1624         N 17 -- O 19         +28.1% ( 71.7%)     60.0%
 TRAVEL (Ang.)       0.0964         O 18 -- O 19         +20.2% ( 60.8%)     99.8%
 REDUCED MASS        4.8566         C 12 -- N 17         +13.6% ( 49.8%)     99.7%
 EFFECTIVE MASS     14.8882
 FORCE CONSTANT      6.3795

 VIBRATION         84   84A           ATOM PAIR      ENERGY CONTRIBUTION    RADIAL
 FREQUENCY          1515.95         C  4 -- C  5         +13.1% ( 50.7%)     98.7%
 TRANSITION DIPOLE   1.8924         C  5 -- C  6         +12.0% ( 48.6%)     27.1%
 TRAVEL (Ang.)       0.1763         C  1 -- C  6         +11.8% ( 48.2%)     27.0%
 REDUCED MASS        1.4306         C  1 -- C  2         +10.8% ( 46.2%)     99.3%
 EFFECTIVE MASS      9.9712         C  6 -- H 11         +10.6% ( 45.7%)      0.0%
 FORCE CONSTANT      1.9371

 VIBRATION         85   85A           ATOM PAIR      ENERGY CONTRIBUTION    RADIAL
 FREQUENCY          1534.37         N 20 -- H 34         +75.1% ( 90.3%)      0.0%
 TRANSITION DIPOLE   0.5372         N 20 -- C 21          +5.1% ( 23.5%)     21.8%
 TRAVEL (Ang.)       0.2400         N 20 -- C 25          +5.0% ( 23.2%)     26.7%
 REDUCED MASS        0.7631         C 21 -- H 35          +2.9% ( 17.8%)      3.7%
 EFFECTIVE MASS      2.4833
 FORCE CONSTANT      1.0585

 VIBRATION         86   86A           ATOM PAIR      ENERGY CONTRIBUTION    RADIAL
 FREQUENCY          1554.55         C  2 -- C  3         +16.8% ( 57.2%)     66.3%
 TRANSITION DIPOLE   0.9713         C  3 -- C  4         +13.8% ( 51.8%)     62.4%
 TRAVEL (Ang.)       0.1721         C  1 -- C  2          +8.8% ( 41.5%)      0.7%
 REDUCED MASS        1.4646         C  3 -- C 12          +8.6% ( 40.9%)    100.0%
 EFFECTIVE MASS      9.9977
 FORCE CONSTANT      2.0853

 VIBRATION         87   87A           ATOM PAIR      ENERGY CONTRIBUTION    RADIAL
 FREQUENCY          1682.90         C  3 -- C  4         +16.9% ( 58.0%)     99.5%
 TRANSITION DIPOLE   2.6612         C  1 -- C  6         +14.0% ( 52.7%)     99.8%
 TRAVEL (Ang.)       0.1405         C  2 -- C  3         +10.4% ( 45.6%)     54.1%
 REDUCED MASS        2.0297         C  3 -- C 12          +7.3% ( 38.2%)      5.6%
 EFFECTIVE MASS     12.3430
 FORCE CONSTANT      3.3869

 VIBRATION         88   88A           ATOM PAIR      ENERGY CONTRIBUTION    RADIAL
 FREQUENCY          1689.14         N 17 -- O 19         +32.3% ( 80.7%)     92.2%
 TRANSITION DIPOLE  10.4856         N 17 -- O 18         +28.2% ( 75.3%)     85.3%
 TRAVEL (Ang.)       0.0896         C 12 -- N 17         +18.5% ( 61.0%)      0.8%
 REDUCED MASS        4.9761         O 18 -- O 19          +5.3% ( 32.6%)      3.1%
 EFFECTIVE MASS     14.1493
 FORCE CONSTANT      8.3651

 VIBRATION         89   89A           ATOM PAIR      ENERGY CONTRIBUTION    RADIAL
 FREQUENCY          1715.53         C  4 -- C  5         +18.6% ( 60.6%)     91.3%
 TRANSITION DIPOLE   0.6322         C  5 -- C  6         +16.7% ( 57.3%)     84.0%
 TRAVEL (Ang.)       0.1239         C  1 -- C  2         +13.1% ( 50.7%)     93.6%
 REDUCED MASS        2.5610         C  2 -- C  3         +11.6% ( 47.9%)     84.0%
 EFFECTIVE MASS     11.9925
 FORCE CONSTANT      4.4407

 VIBRATION         90   90A           ATOM PAIR      ENERGY CONTRIBUTION    RADIAL
 FREQUENCY          1920.73         C 12 -- H 33         +89.6% ( 99.2%)    100.0%
 TRANSITION DIPOLE   0.8874         C 12 -- N 17          +3.2% ( 18.6%)      1.0%
 TRAVEL (Ang.)       0.1441         C 12 -- C 13          +3.1% ( 18.5%)      7.3%
 REDUCED MASS        1.6913         C  3 -- C 12          +3.1% ( 18.4%)      7.7%
 EFFECTIVE MASS      2.9510
 FORCE CONSTANT      3.6763

 VIBRATION         91   91A           ATOM PAIR      ENERGY CONTRIBUTION    RADIAL
 FREQUENCY          2548.96         H 37 -- O 38         +87.1% ( 95.2%)     98.3%
 TRANSITION DIPOLE   2.7775         H 36 -- O 38         +12.2% ( 35.7%)     89.1%
 TRAVEL (Ang.)       0.1840         N 20 -- H 34          +0.3% (  5.6%)     99.6%
 REDUCED MASS        0.7811         C 21 -- H 35          +0.1% (  3.8%)     98.2%
 EFFECTIVE MASS      1.4657
 FORCE CONSTANT      2.9902

 VIBRATION         92   92A           ATOM PAIR      ENERGY CONTRIBUTION    RADIAL
 FREQUENCY          2629.65         C 25 -- H 27         +22.6% ( 49.3%)     98.7%
 TRANSITION DIPOLE   0.6488         C 25 -- H 26         +14.8% ( 40.0%)     97.7%
 TRAVEL (Ang.)       0.4240         C 22 -- H 31         +13.1% ( 37.5%)     98.9%
 REDUCED MASS        0.1426         C 24 -- H 29         +12.5% ( 36.8%)     98.8%
 EFFECTIVE MASS      1.4233         C 21 -- H 32         +12.2% ( 36.3%)     98.9%
 FORCE CONSTANT      0.5810

 VIBRATION         93   93A           ATOM PAIR      ENERGY CONTRIBUTION    RADIAL
 FREQUENCY          2630.69         C 21 -- H 32         +20.7% ( 47.1%)     98.8%
 TRANSITION DIPOLE   0.3128         C 25 -- H 27         +17.9% ( 43.8%)     98.8%
 TRAVEL (Ang.)       0.4182         C 22 -- H 31         +15.0% ( 40.1%)     98.8%
 REDUCED MASS        0.1466         C 21 -- H 35         +13.2% ( 37.7%)     97.7%
 EFFECTIVE MASS      1.4331         C 25 -- H 26         +11.5% ( 35.2%)     97.7%
 FORCE CONSTANT      0.5976

 VIBRATION         94   94A           ATOM PAIR      ENERGY CONTRIBUTION    RADIAL
 FREQUENCY          2639.64         C 13 -- H 16         +61.0% ( 80.7%)     99.2%
 TRANSITION DIPOLE   1.0102         C 13 -- H 14         +33.1% ( 59.4%)     94.7%
 TRAVEL (Ang.)       0.2261         C 13 -- H 15          +4.9% ( 22.9%)     57.0%
 REDUCED MASS        0.4995         C 12 -- C 13          +0.9% (  9.7%)      0.1%
 EFFECTIVE MASS      1.4447
 FORCE CONSTANT      2.0505

 VIBRATION         95   95A           ATOM PAIR      ENERGY CONTRIBUTION    RADIAL
 FREQUENCY          2644.81         C 13 -- H 15         +59.5% ( 79.7%)     99.2%
 TRANSITION DIPOLE   1.0115         C 13 -- H 14         +33.3% ( 59.6%)     94.9%
 TRAVEL (Ang.)       0.2296         C 13 -- H 16          +5.5% ( 24.3%)     60.0%
 REDUCED MASS        0.4838         C 12 -- C 13          +0.9% (  9.8%)      0.0%
 EFFECTIVE MASS      1.4538
 FORCE CONSTANT      1.9939

 VIBRATION         96   96A           ATOM PAIR      ENERGY CONTRIBUTION    RADIAL
 FREQUENCY          2645.92         C 22 -- H 31         +20.6% ( 46.9%)     98.5%
 TRANSITION DIPOLE   0.4014         C 22 -- H 30         +18.9% ( 44.9%)     97.7%
 TRAVEL (Ang.)       0.3973         C 21 -- H 32         +17.8% ( 43.6%)     98.6%
 REDUCED MASS        0.1615         C 21 -- H 35         +17.6% ( 43.3%)     98.0%
 EFFECTIVE MASS      1.4684
 FORCE CONSTANT      0.6660

 VIBRATION         97   97A           ATOM PAIR      ENERGY CONTRIBUTION    RADIAL
 FREQUENCY          2648.79         C 24 -- H 29         +28.2% ( 54.8%)     98.5%
 TRANSITION DIPOLE   1.2619         C 24 -- H 28         +25.3% ( 51.9%)     97.8%
 TRAVEL (Ang.)       0.3656         C 25 -- H 26         +11.9% ( 35.6%)     98.1%
 REDUCED MASS        0.1905         C 25 -- H 27         +10.4% ( 33.2%)     98.3%
 EFFECTIVE MASS      1.4837
 FORCE CONSTANT      0.7874

 VIBRATION         98   98A           ATOM PAIR      ENERGY CONTRIBUTION    RADIAL
 FREQUENCY          2710.76         C 22 -- H 30         +46.2% ( 66.8%)     97.6%
 TRANSITION DIPOLE   0.7766         C 22 -- H 31         +31.6% ( 55.3%)     95.1%
 TRAVEL (Ang.)       0.2796         C 24 -- H 28          +8.2% ( 28.1%)     97.5%
 REDUCED MASS        0.3181         C 24 -- H 29          +5.5% ( 23.1%)     95.6%
 EFFECTIVE MASS      1.2112
 FORCE CONSTANT      1.3773

 VIBRATION         99   99A           ATOM PAIR      ENERGY CONTRIBUTION    RADIAL
 FREQUENCY          2713.02         C 24 -- H 28         +44.1% ( 65.3%)     97.4%
 TRANSITION DIPOLE   0.4575         C 24 -- H 29         +32.5% ( 56.1%)     95.3%
 TRAVEL (Ang.)       0.2830         C 22 -- H 30          +9.8% ( 30.9%)     97.4%
 REDUCED MASS        0.3104         C 22 -- H 31          +7.3% ( 26.6%)     94.7%
 EFFECTIVE MASS      1.2235
 FORCE CONSTANT      1.3463

 VIBRATION        100  100A           ATOM PAIR      ENERGY CONTRIBUTION    RADIAL
 FREQUENCY          2716.56         C  6 -- H 11         +84.0% ( 92.6%)    100.0%
 TRANSITION DIPOLE   1.5941         C  4 -- H  9          +6.4% ( 25.5%)    100.0%
 TRAVEL (Ang.)       0.1894         C  1 -- H  7          +5.5% ( 23.7%)     99.7%
 REDUCED MASS        0.6922         C  1 -- C  6          +0.9% (  9.8%)     10.3%
 EFFECTIVE MASS      1.3761
 FORCE CONSTANT      3.0096

 VIBRATION        101  101A           ATOM PAIR      ENERGY CONTRIBUTION    RADIAL
 FREQUENCY          2717.93         C 21 -- H 35         +38.7% ( 61.3%)     97.1%
 TRANSITION DIPOLE   0.2713         C 21 -- H 32         +30.5% ( 54.4%)     95.3%
 TRAVEL (Ang.)       0.3037         C 25 -- H 26         +13.2% ( 35.8%)     97.3%
 REDUCED MASS        0.2689         C 25 -- H 27         +10.2% ( 31.4%)     94.9%
 EFFECTIVE MASS      1.2546
 FORCE CONSTANT      1.1705

 VIBRATION        102  102A           ATOM PAIR      ENERGY CONTRIBUTION    RADIAL
 FREQUENCY          2719.09         C 25 -- H 26         +36.0% ( 59.0%)     97.1%
 TRANSITION DIPOLE   0.3973         C 25 -- H 27         +29.0% ( 53.0%)     95.9%
 TRAVEL (Ang.)       0.3224         C 21 -- H 35         +12.0% ( 34.0%)     96.7%
 REDUCED MASS        0.2385         C 21 -- H 32         +10.2% ( 31.3%)     96.0%
 EFFECTIVE MASS      1.2465
 FORCE CONSTANT      1.0390

 VIBRATION        103  103A           ATOM PAIR      ENERGY CONTRIBUTION    RADIAL
 FREQUENCY          2722.24         C  2 -- H  8         +76.0% ( 88.1%)    100.0%
 TRANSITION DIPOLE   1.1667         C  1 -- H  7         +14.5% ( 38.4%)     99.8%
 TRAVEL (Ang.)       0.2064         C  4 -- H  9          +3.5% ( 18.8%)    100.0%
 REDUCED MASS        0.5812         C 25 -- H 26          +1.3% ( 11.3%)     97.5%
 EFFECTIVE MASS      1.3639
 FORCE CONSTANT      2.5375

 VIBRATION        104  104A           ATOM PAIR      ENERGY CONTRIBUTION    RADIAL
 FREQUENCY          2724.06         C  4 -- H  9         +79.1% ( 90.0%)    100.0%
 TRANSITION DIPOLE   1.4388         C  1 -- H  7         +16.0% ( 40.5%)    100.0%
 TRAVEL (Ang.)       0.1971         C  6 -- H 11          +2.3% ( 15.2%)     99.9%
 REDUCED MASS        0.6371         C  4 -- C  5          +0.9% (  9.8%)     25.7%
 EFFECTIVE MASS      1.4007
 FORCE CONSTANT      2.7853

 VIBRATION        105  105A           ATOM PAIR      ENERGY CONTRIBUTION    RADIAL
 FREQUENCY          2738.16         C  1 -- H  7         +61.6% ( 79.2%)    100.0%
 TRANSITION DIPOLE   1.1581         C  2 -- H  8         +18.2% ( 43.1%)     99.9%
 TRAVEL (Ang.)       0.2427         C  6 -- H 11          +9.2% ( 30.5%)     99.9%
 REDUCED MASS        0.4181         C  4 -- H  9          +8.0% ( 28.5%)    100.0%
 EFFECTIVE MASS      1.4401
 FORCE CONSTANT      1.8468

 VIBRATION        106  106A           ATOM PAIR      ENERGY CONTRIBUTION    RADIAL
 FREQUENCY          2762.84         N 20 -- H 34         +95.1% ( 97.7%)     99.5%
 TRANSITION DIPOLE   1.3130         C 21 -- H 35          +0.7% (  8.4%)     92.2%
 TRAVEL (Ang.)       0.1678         C 25 -- H 26          +0.7% (  8.2%)     91.8%
 REDUCED MASS        0.8671         C 21 -- H 32          +0.6% (  7.9%)     91.2%
 EFFECTIVE MASS      1.3300
 FORCE CONSTANT      3.8995

 VIBRATION        107  107A           ATOM PAIR      ENERGY CONTRIBUTION    RADIAL
 FREQUENCY          2767.82         C 13 -- H 15         +34.3% ( 56.0%)     95.6%
 TRANSITION DIPOLE   0.6693         C 13 -- H 14         +32.4% ( 54.5%)     95.3%
 TRAVEL (Ang.)       0.2749         C 13 -- H 16         +32.3% ( 54.4%)     95.2%
 REDUCED MASS        0.3224         N 20 -- H 34          +0.6% (  7.1%)     99.3%
 EFFECTIVE MASS      1.1403
 FORCE CONSTANT      1.4553

 VIBRATION        108  108A           ATOM PAIR      ENERGY CONTRIBUTION    RADIAL
 FREQUENCY          2801.70         H 36 -- O 38         +90.6% ( 92.6%)     99.6%
 TRANSITION DIPOLE   0.9941         H 37 -- O 38          +8.7% ( 28.7%)     93.7%
 TRAVEL (Ang.)       0.1781         C  2 -- H  8          +0.5% (  7.1%)     99.9%
 REDUCED MASS        0.7584
 EFFECTIVE MASS      1.2414
 FORCE CONSTANT      3.5075

      SYMMETRY NUMBER FOR POINT-GROUP C1  =  1


          SYSTEM IS A GROUND STATE



 Title: ASE calculation


          MOLECULE IS NOT LINEAR

          THERE ARE  108 GENUINE VIBRATIONS IN THIS SYSTEM
          THIS THERMODYNAMICS CALCULATION IS LIMITED TO
          MOLECULES WHICH HAVE NO INTERNAL ROTATIONS




                    CALCULATED THERMODYNAMIC PROPERTIES
                                          *
   TEMP. (K)   PARTITION FUNCTION   H.O.F.    ENTHALPY  HEAT CAPACITY ENTROPY
                                   KCAL/MOL   CAL/MOLE    CAL/K/MOL  CAL/K/MOL


 298.00  VIB.     0.5217D+11                 12229.4780    71.7749    90.0784
         ROT.     0.7707D+07                   888.2803     2.9808    34.4933
         INT.     0.4021D+18                 13117.7583    74.7557   124.5717
         TRA.     0.4818D+28                  1480.4672     4.9680    42.9074
         TOT.                     -133.323   14598.2255    79.7237   167.4791

   *: NOTE: HEATS OF FORMATION ARE RELATIVE TO THE
            ELEMENTS IN THEIR STANDARD STATE AT 298K
              (=  Standard Enthalpy of Formation).

            Hvib:  Zero-point energy is not included.
                   frequencies of less than zero cm-1 are not included.
            Hrot = (3/2)RT
            Htra = (3/2)RT + pV = (5/2)RT

            Heat capacity is Cp, not Cv

          For more information, see: HTTP://OpenMOPAC.net/Manual/thermochemistry.html


           FORCE CONSTANT IN CARTESIAN COORDINATES (Millidynes/A)

    ATOM   CHEMICAL       X               Y               Z
   NUMBER   SYMBOL  FORCE CONSTANT  FORCE CONSTANT  FORCE CONSTANT

      1       C       10.904192       10.223139        2.370342
      2       C       11.042104       10.151837        2.436945
      3       C       10.498398       11.631173        2.786725
      4       C       11.291812       10.158063        2.375000
      5       C       11.071075        9.099485        1.837801
      6       C        9.936834       11.161517        2.294066
      7       H        1.715525        3.359274        0.381816
      8       H        1.716420        3.382993        0.389913
      9       H        1.741712        3.363300        0.396954
     10      Cl        1.312310        3.043836        0.136714
     11       H        4.134551        0.873359        0.364448
     12       C        7.504385        7.223790        6.237677
     13       C        6.260174        6.346350        6.350112
     14       H        3.997973        0.595330        0.685170
     15       H        0.741319        3.870830        0.679217
     16       H        0.987900        1.075550        3.214859
     17       N        7.578676       13.151716        8.609508
     18       O        5.092148        4.541176        4.277538
     19       O        1.896748       10.585551        1.758066
     20       N        7.924694        7.693208        4.367951
     21       C        7.430828        7.153880        6.538634
     22       C        7.145201        6.926883        6.768272
     23       O        6.997603        4.360019        3.216023
     24       C        7.351308        6.752895        6.749116
     25       C        7.252753        7.173194        6.675359
     26       H        2.527458        2.255291        0.758937
     27       H        0.877744        0.754190        3.884029
     28       H        2.513940        1.119190        1.841704
     29       H        1.109593        0.834980        3.577595
     30       H        2.142513        2.486246        0.827564
     31       H        0.932198        0.769761        3.805979
     32       H        1.127413        0.840432        3.551223
     33       H        1.193363        3.589954        0.872103
     34       H        1.485825        3.997693        0.659444
     35       H        2.848811        0.979469        1.703868
     36       H        2.988823        0.342845        1.533222
     37       H        0.669162        0.290626        3.681875
     38       O        3.460200        0.636709        4.675165

 **********************
 *                    *
 * JOB ENDED NORMALLY *
 *                    *
 **********************



 TOTAL JOB TIME:            15.94 SECONDS

 == MOPAC DONE ==
