 *******************************************************************************
 **                                                                           **
 **                              MOPAC v22.0.6                                **
 **                                                                           **
 *******************************************************************************
 **          Digital Object Identifier (DOI): 10.5281/zenodo.6511958          **
 **    Visit the DOI location for information on how to cite this program.    **
 *******************************************************************************

                              PM7 CALCULATION RESULTS

 *******************************************************************************
 *  CALCULATION DONE:                                Tue Mar 26 11:09:45 2024  *
 *  PM7        - The PM7 Hamiltonian to be used
 *  SINGLET    - SPIN STATE DEFINED AS A SINGLET
 *
 *
 *
 *                 CHARGE ON SYSTEM = 0
 *
 *
 *
 *  EPS=78.4   - USE ANDREAS KLAMT'S COSMO IMPLICIT SOLVATION MODEL
 *  T=         - A TIME OF 14.0 DAYS REQUESTED
 *  DUMP=N     - RESTART FILE WRITTEN EVERY 30.0 MINUTES REQUESTED
 *  RELSCF     - DEFAULT SCF CRITERION MULTIPLIED BY 1.0000
 *              (DEFAULT SCF CRITERION = 0.00010)
 *  ITRY=      - DO A MAXIMUM OF 15000 ITERATIONS FOR SCF
 *  AUX        - OUTPUT AUXILIARY INFORMATION
 *  BONDS      - FINAL BOND-ORDER MATRIX TO BE PRINTED
 *******************************************************************************
PM7 BONDS AUX DUMP=30M ITRY=15000 T=14D CHARGE=0 SINGLET eps=78.4 RELSCF=1
 Title: ASE calculation

   ATOM   CHEMICAL          X               Y               Z
  NUMBER   SYMBOL      (ANGSTROMS)     (ANGSTROMS)     (ANGSTROMS)

     1       C          0.86072000  *   3.32235000  *   1.89819000  *
     2       C          1.36530000  *   2.02853000  *   1.82602000  *
     3       C          0.49126000  *   0.94514000  *   1.71096000  *
     4       C         -0.88904000  *   1.16186000  *   1.67377000  *
     5       C         -1.39038000  *   2.45705000  *   1.75316000  *
     6       C         -0.51763000  *   3.53895000  *   1.86539000  *
     7       H          1.54231000  *   4.16829000  *   1.98943000  *
     8       H          2.44534000  *   1.86421000  *   1.87453000  *
     9       H         -1.57205000  *   0.31386000  *   1.58513000  *
    10       H         -0.90454000  *   4.55502000  *   1.93694000  *
    11       C          1.06392000  *  -0.44399000  *   1.66017000  *
    12       C          0.50873000  *  -1.34616000  *   2.75596000  *
    13       H          0.97970000  *  -2.34026000  *   2.74676000  *
    14       H         -0.57817000  *  -1.49357000  *   2.68503000  *
    15       H          0.70179000  *  -0.90930000  *   3.74923000  *
    16       N          0.75649000  *  -1.05586000  *   0.32361000  *
    17       O          1.69312000  *  -1.40179000  *  -0.37964000  *
    18       O         -0.40428000  *  -1.18977000  *  -0.02880000  *
    19       N          5.08159000  *   1.36181000  *   4.81147000  *
    20       C          5.66537000  *  -0.00475000  *   4.80392000  *
    21       C          6.81235000  *  -0.11821000  *   5.82088000  *
    22       C          7.88822000  *   0.92598000  *   5.50581000  *
    23       C          7.25543000  *   2.31945000  *   5.56849000  *
    24       C          6.10150000  *   2.41280000  *   4.55657000  *
    25       H          5.59201000  *   3.39757000  *   4.65497000  *
    26       H          6.50899000  *   2.35880000  *   3.52338000  *
    27       H          8.00750000  *   3.10131000  *   5.35735000  *
    28       H          6.88089000  *   2.51984000  *   6.58971000  *
    29       H          7.23706000  *  -1.13783000  *   5.79798000  *
    30       H          6.42468000  *   0.03081000  *   6.84610000  *
    31       H          6.03800000  *  -0.29815000  *   3.79671000  *
    32       H          2.19658000  *  -0.40784000  *   1.74986000  *
    33       H          4.35463000  *   1.41707000  *   4.08724000  *
    34       H          4.84966000  *  -0.71398000  *   5.07179000  *
    35       H          8.73232000  *   0.84462000  *   6.21395000  *
    36       H          8.31613000  *   0.74466000  *   4.50114000  *
    37       H         -2.46813000  *   2.62576000  *   1.73443000  *
    38       H          4.73849000  *   0.11127000  *   2.38661000  *
    39       H          4.35949000  *  -0.14105000  *   0.94305000  *
    40       O          4.17648000  *   0.45028000  *   1.68536000  *



          CARTESIAN COORDINATES 

    NO.       ATOM           X           Y           Z

     1         C          0.8607      3.3224      1.8982
     2         C          1.3653      2.0285      1.8260
     3         C          0.4913      0.9451      1.7110
     4         C         -0.8890      1.1619      1.6738
     5         C         -1.3904      2.4571      1.7532
     6         C         -0.5176      3.5389      1.8654
     7         H          1.5423      4.1683      1.9894
     8         H          2.4453      1.8642      1.8745
     9         H         -1.5720      0.3139      1.5851
    10         H         -0.9045      4.5550      1.9369
    11         C          1.0639     -0.4440      1.6602
    12         C          0.5087     -1.3462      2.7560
    13         H          0.9797     -2.3403      2.7468
    14         H         -0.5782     -1.4936      2.6850
    15         H          0.7018     -0.9093      3.7492
    16         N          0.7565     -1.0559      0.3236
    17         O          1.6931     -1.4018     -0.3796
    18         O         -0.4043     -1.1898     -0.0288
    19         N          5.0816      1.3618      4.8115
    20         C          5.6654     -0.0047      4.8039
    21         C          6.8124     -0.1182      5.8209
    22         C          7.8882      0.9260      5.5058
    23         C          7.2554      2.3195      5.5685
    24         C          6.1015      2.4128      4.5566
    25         H          5.5920      3.3976      4.6550
    26         H          6.5090      2.3588      3.5234
    27         H          8.0075      3.1013      5.3574
    28         H          6.8809      2.5198      6.5897
    29         H          7.2371     -1.1378      5.7980
    30         H          6.4247      0.0308      6.8461
    31         H          6.0380     -0.2982      3.7967
    32         H          2.1966     -0.4078      1.7499
    33         H          4.3546      1.4171      4.0872
    34         H          4.8497     -0.7140      5.0718
    35         H          8.7323      0.8446      6.2139
    36         H          8.3161      0.7447      4.5011
    37         H         -2.4681      2.6258      1.7344
    38         H          4.7385      0.1113      2.3866
    39         H          4.3595     -0.1411      0.9431
    40         O          4.1765      0.4503      1.6854

 General Reference for PM7:
 "Optimization of Parameters for Semiempirical Methods VI: More Modifications to the 
 NDDO Approximations and Re-optimization of Parameters", J. J. P. Stewart, J. Mol. Mod., 1:32, 19 (2013)
 https://link.springer.com/article/10.1007/s00894-012-1667-x

           Empirical Formula: C13 H22 N2 O3  =    40 atoms



      MOLECULAR POINT GROUP   :   C1  


 SINGLET STATE CALCULATION


      RHF CALCULATION, NO. OF DOUBLY OCCUPIED LEVELS = 51


          Geometry optimization using L-BFGS
  SCF CRITERION =    0.1000E-03
 CYCLE:     1 TIME:   0.238 TIME LEFT:  2.00W  GRAD.:     8.153 HEAT: -85.24675
 CYCLE:     2 TIME:   0.113 TIME LEFT:  2.00W  GRAD.:     7.963 HEAT: -85.24740
 CYCLE:     3 TIME:   0.109 TIME LEFT:  2.00W  GRAD.:     4.305 HEAT: -85.30799
 CYCLE:     4 TIME:   0.113 TIME LEFT:  2.00W  GRAD.:     7.920 HEAT: -85.24740
 CYCLE:     5 TIME:   0.113 TIME LEFT:  2.00W  GRAD.:     7.914 HEAT: -85.24843
 CYCLE:     6 TIME:   0.109 TIME LEFT:  2.00W  GRAD.:    15.964 HEAT: -85.19016
 CYCLE:     7 TIME:   0.113 TIME LEFT:  2.00W  GRAD.:     7.681 HEAT: -85.26583
 CYCLE:     8 TIME:   0.117 TIME LEFT:  2.00W  GRAD.:     4.956 HEAT: -85.25261
 CYCLE:     9 TIME:   0.117 TIME LEFT:  2.00W  GRAD.:     4.267 HEAT: -85.29554
 CYCLE:    10 TIME:   0.121 TIME LEFT:  2.00W  GRAD.:     4.921 HEAT: -85.26443
 CYCLE:    11 TIME:   0.109 TIME LEFT:  2.00W  GRAD.:     4.638 HEAT: -85.27552
 CYCLE:    12 TIME:   0.109 TIME LEFT:  2.00W  GRAD.:     5.164 HEAT: -85.30810
 CYCLE:    13 TIME:   0.102 TIME LEFT:  2.00W  GRAD.:     5.624 HEAT: -85.30300
 CYCLE:    14 TIME:   0.062 TIME LEFT:  2.00W  GRAD.:     4.692 HEAT: -85.30475
 CYCLE:    15 TIME:   0.055 TIME LEFT:  2.00W  GRAD.:     5.427 HEAT: -85.28566
 CYCLE:    16 TIME:   0.059 TIME LEFT:  2.00W  GRAD.:     5.517 HEAT: -85.28107
 CYCLE:    17 TIME:   0.098 TIME LEFT:  2.00W  GRAD.:     8.477 HEAT: -85.20587
 CYCLE:    18 TIME:   0.102 TIME LEFT:  2.00W  GRAD.:     4.352 HEAT: -85.21872
 CYCLE:    19 TIME:   0.059 TIME LEFT:  2.00W  GRAD.:     2.666 HEAT: -85.22190
 CYCLE:    20 TIME:   0.059 TIME LEFT:  2.00W  GRAD.:     2.746 HEAT: -85.22441
 CYCLE:    21 TIME:   0.059 TIME LEFT:  2.00W  GRAD.:     3.889 HEAT: -85.21916
 CYCLE:    22 TIME:   0.105 TIME LEFT:  2.00W  GRAD.:     5.658 HEAT: -85.21008
 CYCLE:    23 TIME:   0.066 TIME LEFT:  2.00W  GRAD.:     5.476 HEAT: -85.20800
 CYCLE:    24 TIME:   0.059 TIME LEFT:  2.00W  GRAD.:     5.175 HEAT: -85.18329
 CYCLE:    25 TIME:   0.059 TIME LEFT:  2.00W  GRAD.:     4.504 HEAT: -85.17824
 CYCLE:    26 TIME:   0.074 TIME LEFT:  2.00W  GRAD.:     4.080 HEAT: -85.19984
 CYCLE:    27 TIME:   0.109 TIME LEFT:  2.00W  GRAD.:     4.993 HEAT: -85.22135
 CYCLE:    28 TIME:   0.070 TIME LEFT:  2.00W  GRAD.:    23.802 HEAT: -85.11749
 CYCLE:    29 TIME:   0.059 TIME LEFT:  2.00W  GRAD.:     9.402 HEAT: -85.19418
 CYCLE:    30 TIME:   0.059 TIME LEFT:  2.00W  GRAD.:     5.090 HEAT: -85.21986
 CYCLE:    31 TIME:   0.059 TIME LEFT:  2.00W  GRAD.:    10.768 HEAT: -85.20135
 CYCLE:    32 TIME:   0.066 TIME LEFT:  2.00W  GRAD.:     5.034 HEAT: -85.22937
 CYCLE:    33 TIME:   0.059 TIME LEFT:  2.00W  GRAD.:     7.076 HEAT: -85.20336
 CYCLE:    34 TIME:   0.059 TIME LEFT:  2.00W  GRAD.:     5.033 HEAT: -85.25906
 CYCLE:    35 TIME:   0.059 TIME LEFT:  2.00W  GRAD.:     4.068 HEAT: -85.27451
 CYCLE:    36 TIME:   0.059 TIME LEFT:  2.00W  GRAD.:     2.605 HEAT: -85.28417
 CYCLE:    37 TIME:   0.082 TIME LEFT:  2.00W  GRAD.:     6.853 HEAT: -85.23425
 CYCLE:    38 TIME:   0.059 TIME LEFT:  2.00W  GRAD.:     3.098 HEAT: -85.28166
 CYCLE:    39 TIME:   0.059 TIME LEFT:  2.00W  GRAD.:     2.352 HEAT: -85.28554
 CYCLE:    40 TIME:   0.062 TIME LEFT:  2.00W  GRAD.:     5.244 HEAT: -85.29558
 CYCLE:    41 TIME:   0.059 TIME LEFT:  2.00W  GRAD.:     4.401 HEAT: -85.24986
 CYCLE:    42 TIME:   0.062 TIME LEFT:  2.00W  GRAD.:     8.413 HEAT: -85.09242


           HEAT OF FORMATION IS ESSENTIALLY STATIONARY


          CURRENT BEST VALUE OF HEAT OF FORMATION =    -85.308725

 PM7 BONDS AUX DUMP=30M ITRY=15000 T=14D CHARGE=0 SINGLET eps=78.4 RELSCF=1
 Title: ASE calculation

  C     0.85914182 +1   3.32399644 +1   1.90650762 +1
  C     1.36379171 +1   2.02727750 +1   1.83204295 +1
  C     0.49212992 +1   0.94429700 +1   1.71700528 +1
  C    -0.88761012 +1   1.16181017 +1   1.67697339 +1
  C    -1.38819981 +1   2.45694410 +1   1.75516011 +1
  C    -0.51639770 +1   3.54024580 +1   1.86996215 +1
  H     1.54382063 +1   4.16929696 +1   1.98881087 +1
  H     2.44483123 +1   1.86532260 +1   1.86359632 +1
  H    -1.57362279 +1   0.31759625 +1   1.58214476 +1
  H    -0.91385866 +1   4.55389592 +1   1.92954080 +1
  C     1.06534547 +1  -0.44571011 +1   1.66229101 +1
  C     0.50849925 +1  -1.34811912 +1   2.75633096 +1
  H     0.97634869 +1  -2.34360634 +1   2.75321316 +1
  H    -0.57843261 +1  -1.49252128 +1   2.67850014 +1
  H     0.70344712 +1  -0.91079865 +1   3.74894361 +1
  N     0.75652078 +1  -1.05552100 +1   0.32459067 +1
  O     1.69306766 +1  -1.40096987 +1  -0.37848113 +1
  O    -0.40445072 +1  -1.18695399 +1  -0.02656801 +1
  N     5.08250120 +1   1.36193590 +1   4.81177956 +1
  C     5.66533444 +1  -0.00556680 +1   4.80397681 +1
  C     6.81230846 +1  -0.11980879 +1   5.82095000 +1
  C     7.88798483 +1   0.92575759 +1   5.50851506 +1
  C     7.25467723 +1   2.31985130 +1   5.56887128 +1
  C     6.10187075 +1   2.41313076 +1   4.55646049 +1
  H     5.58944340 +1   3.39713244 +1   4.64804013 +1
  H     6.50689742 +1   2.35907449 +1   3.52249485 +1
  H     8.00535210 +1   3.10241325 +1   5.35450581 +1
  H     6.88022098 +1   2.52116349 +1   6.59068881 +1
  H     7.23562921 +1  -1.14088366 +1   5.79618100 +1
  H     6.42614254 +1   0.03058107 +1   6.84664981 +1
  H     6.03867031 +1  -0.30031801 +1   3.79738117 +1
  H     2.19760687 +1  -0.40743765 +1   1.75090742 +1
  H     4.35925204 +1   1.42052942 +1   4.08517747 +1
  H     4.84890376 +1  -0.71511053 +1   5.06821404 +1
  H     8.72848525 +1   0.84662722 +1   6.22084787 +1
  H     8.32177060 +1   0.74310778 +1   4.50677537 +1
  H    -2.46553109 +1   2.62663664 +1   1.72920255 +1
  H     4.73610574 +1   0.11113553 +1   2.38811129 +1
  H     4.36267026 +1  -0.14234485 +1   0.93678563 +1
  O     4.18116160 +1   0.45069077 +1   1.67952804 +1



 -------------------------------------------------------------------------------
 PM7 BONDS AUX DUMP=30M ITRY=15000 T=14D CHARGE=0 SINGLET eps=78.4 RELSCF=1
 Title: ASE calculation



     HERBERTS TEST WAS SATISFIED IN BFGS                      
     SCF FIELD WAS ACHIEVED                                   


                              PM7 CALCULATION
                                                       MOPAC v22.0.6 Linux
                                                       Tue Mar 26 11:09:48 2024




          FINAL HEAT OF FORMATION =        -85.30873 KCAL/MOL =    -356.93171 KJ/MOL
          VAN DER WAALS AREA      =        310.75 SQUARE ANGSTROMS



          DIELECTRIC ENERGY       =         -0.81364 EV
          COSMO AREA              =        310.75 SQUARE ANGSTROMS
          COSMO VOLUME            =        338.45 CUBIC ANGSTROMS

          GRADIENT NORM           =          5.16398          =       0.81650 PER ATOM
          IONIZATION POTENTIAL    =          9.487027 EV
          HOMO LUMO ENERGIES (EV) =         -9.487 -0.514
          NO. OF FILLED LEVELS    =         51
          MOLECULAR WEIGHT        =        254.3284         POINT GROUP:  C1  

          MOLECULAR DIMENSIONS (Angstroms)

            Atom       Atom       Distance
            H    37    H    35    12.19218
            H    28    O    17     6.72290
            H    13    H     7     5.05086


          SCF CALCULATIONS        =         45

          WALL-CLOCK TIME         =      3.672 SECONDS
          COMPUTATION TIME        =          5 MINUTES AND 16.703 SECONDS



       FINAL  POINT  AND  DERIVATIVES

   PARAMETER     ATOM    TYPE            VALUE        GRADIENT
      1          1  C    CARTESIAN X     0.859142     -0.050132  KCAL/ANGSTROM
      2          1  C    CARTESIAN Y     3.323996      0.006208  KCAL/ANGSTROM
      3          1  C    CARTESIAN Z     1.906508      0.148328  KCAL/ANGSTROM
      4          2  C    CARTESIAN X     1.363792     -0.506262  KCAL/ANGSTROM
      5          2  C    CARTESIAN Y     2.027277     -0.637119  KCAL/ANGSTROM
      6          2  C    CARTESIAN Z     1.832043      0.149079  KCAL/ANGSTROM
      7          3  C    CARTESIAN X     0.492130      1.514846  KCAL/ANGSTROM
      8          3  C    CARTESIAN Y     0.944297     -0.285926  KCAL/ANGSTROM
      9          3  C    CARTESIAN Z     1.717005     -0.076956  KCAL/ANGSTROM
     10          4  C    CARTESIAN X    -0.887610     -1.482547  KCAL/ANGSTROM
     11          4  C    CARTESIAN Y     1.161810      1.415523  KCAL/ANGSTROM
     12          4  C    CARTESIAN Z     1.676973     -0.128716  KCAL/ANGSTROM
     13          5  C    CARTESIAN X    -1.388200      0.435186  KCAL/ANGSTROM
     14          5  C    CARTESIAN Y     2.456944     -1.757291  KCAL/ANGSTROM
     15          5  C    CARTESIAN Z     1.755160     -0.165907  KCAL/ANGSTROM
     16          6  C    CARTESIAN X    -0.516398      0.440212  KCAL/ANGSTROM
     17          6  C    CARTESIAN Y     3.540246      0.942012  KCAL/ANGSTROM
     18          6  C    CARTESIAN Z     1.869962      0.155866  KCAL/ANGSTROM
     19          7  H    CARTESIAN X     1.543821      0.039271  KCAL/ANGSTROM
     20          7  H    CARTESIAN Y     4.169297      0.129135  KCAL/ANGSTROM
     21          7  H    CARTESIAN Z     1.988811     -0.313878  KCAL/ANGSTROM
     22          8  H    CARTESIAN X     2.444831     -0.069770  KCAL/ANGSTROM
     23          8  H    CARTESIAN Y     1.865323     -0.143565  KCAL/ANGSTROM
     24          8  H    CARTESIAN Z     1.863596      0.039027  KCAL/ANGSTROM
     25          9  H    CARTESIAN X    -1.573623      0.092093  KCAL/ANGSTROM
     26          9  H    CARTESIAN Y     0.317596      0.184869  KCAL/ANGSTROM
     27          9  H    CARTESIAN Z     1.582145      0.017692  KCAL/ANGSTROM
     28         10  H    CARTESIAN X    -0.913859     -0.158257  KCAL/ANGSTROM
     29         10  H    CARTESIAN Y     4.553896     -0.171616  KCAL/ANGSTROM
     30         10  H    CARTESIAN Z     1.929541      0.001527  KCAL/ANGSTROM
     31         11  C    CARTESIAN X     1.065345     -0.256321  KCAL/ANGSTROM
     32         11  C    CARTESIAN Y    -0.445710      0.161619  KCAL/ANGSTROM
     33         11  C    CARTESIAN Z     1.662291     -0.063301  KCAL/ANGSTROM
     34         12  C    CARTESIAN X     0.508499     -0.022005  KCAL/ANGSTROM
     35         12  C    CARTESIAN Y    -1.348119      0.032612  KCAL/ANGSTROM
     36         12  C    CARTESIAN Z     2.756331     -0.019536  KCAL/ANGSTROM
     37         13  H    CARTESIAN X     0.976349      0.100564  KCAL/ANGSTROM
     38         13  H    CARTESIAN Y    -2.343606      0.053304  KCAL/ANGSTROM
     39         13  H    CARTESIAN Z     2.753213      0.027406  KCAL/ANGSTROM
     40         14  H    CARTESIAN X    -0.578433      0.033407  KCAL/ANGSTROM
     41         14  H    CARTESIAN Y    -1.492521      0.025170  KCAL/ANGSTROM
     42         14  H    CARTESIAN Z     2.678500     -0.049270  KCAL/ANGSTROM
     43         15  H    CARTESIAN X     0.703447      0.253068  KCAL/ANGSTROM
     44         15  H    CARTESIAN Y    -0.910799      0.067775  KCAL/ANGSTROM
     45         15  H    CARTESIAN Z     3.748944     -0.166438  KCAL/ANGSTROM
     46         16  N    CARTESIAN X     0.756521      1.035150  KCAL/ANGSTROM
     47         16  N    CARTESIAN Y    -1.055521     -0.626383  KCAL/ANGSTROM
     48         16  N    CARTESIAN Z     0.324591     -0.678627  KCAL/ANGSTROM
     49         17  O    CARTESIAN X     1.693068     -0.342953  KCAL/ANGSTROM
     50         17  O    CARTESIAN Y    -1.400970      0.307914  KCAL/ANGSTROM
     51         17  O    CARTESIAN Z    -0.378481      0.555028  KCAL/ANGSTROM
     52         18  O    CARTESIAN X    -0.404451     -0.735903  KCAL/ANGSTROM
     53         18  O    CARTESIAN Y    -1.186954     -0.070501  KCAL/ANGSTROM
     54         18  O    CARTESIAN Z    -0.026568     -0.145100  KCAL/ANGSTROM
     55         19  N    CARTESIAN X     5.082501      0.081537  KCAL/ANGSTROM
     56         19  N    CARTESIAN Y     1.361936      0.031611  KCAL/ANGSTROM
     57         19  N    CARTESIAN Z     4.811780      0.120651  KCAL/ANGSTROM
     58         20  C    CARTESIAN X     5.665334     -0.053146  KCAL/ANGSTROM
     59         20  C    CARTESIAN Y    -0.005567      0.075776  KCAL/ANGSTROM
     60         20  C    CARTESIAN Z     4.803977      0.080611  KCAL/ANGSTROM
     61         21  C    CARTESIAN X     6.812308      0.068458  KCAL/ANGSTROM
     62         21  C    CARTESIAN Y    -0.119809     -0.086773  KCAL/ANGSTROM
     63         21  C    CARTESIAN Z     5.820950      0.024450  KCAL/ANGSTROM
     64         22  C    CARTESIAN X     7.887985      0.036369  KCAL/ANGSTROM
     65         22  C    CARTESIAN Y     0.925758     -0.071805  KCAL/ANGSTROM
     66         22  C    CARTESIAN Z     5.508515     -0.171401  KCAL/ANGSTROM
     67         23  C    CARTESIAN X     7.254677      0.130226  KCAL/ANGSTROM
     68         23  C    CARTESIAN Y     2.319851     -0.058848  KCAL/ANGSTROM
     69         23  C    CARTESIAN Z     5.568871      0.191697  KCAL/ANGSTROM
     70         24  C    CARTESIAN X     6.101871     -0.026911  KCAL/ANGSTROM
     71         24  C    CARTESIAN Y     2.413131      0.140722  KCAL/ANGSTROM
     72         24  C    CARTESIAN Z     4.556460      0.065099  KCAL/ANGSTROM
     73         25  H    CARTESIAN X     5.589443     -0.084087  KCAL/ANGSTROM
     74         25  H    CARTESIAN Y     3.397132      0.001056  KCAL/ANGSTROM
     75         25  H    CARTESIAN Z     4.648040     -0.026395  KCAL/ANGSTROM
     76         26  H    CARTESIAN X     6.506897     -0.227621  KCAL/ANGSTROM
     77         26  H    CARTESIAN Y     2.359074      0.134354  KCAL/ANGSTROM
     78         26  H    CARTESIAN Z     3.522495      0.071957  KCAL/ANGSTROM
     79         27  H    CARTESIAN X     8.005352     -0.022701  KCAL/ANGSTROM
     80         27  H    CARTESIAN Y     3.102413      0.067992  KCAL/ANGSTROM
     81         27  H    CARTESIAN Z     5.354506     -0.046465  KCAL/ANGSTROM
     82         28  H    CARTESIAN X     6.880221     -0.008709  KCAL/ANGSTROM
     83         28  H    CARTESIAN Y     2.521163     -0.093101  KCAL/ANGSTROM
     84         28  H    CARTESIAN Z     6.590689      0.229157  KCAL/ANGSTROM
     85         29  H    CARTESIAN X     7.235629      0.041039  KCAL/ANGSTROM
     86         29  H    CARTESIAN Y    -1.140884     -0.200266  KCAL/ANGSTROM
     87         29  H    CARTESIAN Z     5.796181      0.006263  KCAL/ANGSTROM
     88         30  H    CARTESIAN X     6.426143      0.097284  KCAL/ANGSTROM
     89         30  H    CARTESIAN Y     0.030581      0.250938  KCAL/ANGSTROM
     90         30  H    CARTESIAN Z     6.846650     -0.007815  KCAL/ANGSTROM
     91         31  H    CARTESIAN X     6.038670     -0.064141  KCAL/ANGSTROM
     92         31  H    CARTESIAN Y    -0.300318     -0.072252  KCAL/ANGSTROM
     93         31  H    CARTESIAN Z     3.797381      0.062949  KCAL/ANGSTROM
     94         32  H    CARTESIAN X     2.197607     -0.094099  KCAL/ANGSTROM
     95         32  H    CARTESIAN Y    -0.407438      0.107248  KCAL/ANGSTROM
     96         32  H    CARTESIAN Z     1.750907     -0.109228  KCAL/ANGSTROM
     97         33  H    CARTESIAN X     4.359252      0.830244  KCAL/ANGSTROM
     98         33  H    CARTESIAN Y     1.420529      0.690829  KCAL/ANGSTROM
     99         33  H    CARTESIAN Z     4.085177     -0.067570  KCAL/ANGSTROM
    100         34  H    CARTESIAN X     4.848904     -0.003879  KCAL/ANGSTROM
    101         34  H    CARTESIAN Y    -0.715111     -0.051927  KCAL/ANGSTROM
    102         34  H    CARTESIAN Z     5.068214     -0.016520  KCAL/ANGSTROM
    103         35  H    CARTESIAN X     8.728485      0.144495  KCAL/ANGSTROM
    104         35  H    CARTESIAN Y     0.846627     -0.067408  KCAL/ANGSTROM
    105         35  H    CARTESIAN Z     6.220848     -0.461187  KCAL/ANGSTROM
    106         36  H    CARTESIAN X     8.321771     -0.205059  KCAL/ANGSTROM
    107         36  H    CARTESIAN Y     0.743108     -0.027165  KCAL/ANGSTROM
    108         36  H    CARTESIAN Z     4.506775     -0.308828  KCAL/ANGSTROM
    109         37  H    CARTESIAN X    -2.465531     -0.009181  KCAL/ANGSTROM
    110         37  H    CARTESIAN Y     2.626637      0.067537  KCAL/ANGSTROM
    111         37  H    CARTESIAN Z     1.729203      0.191456  KCAL/ANGSTROM
    112         38  H    CARTESIAN X     4.736106     -0.412982  KCAL/ANGSTROM
    113         38  H    CARTESIAN Y     0.111136     -0.436570  KCAL/ANGSTROM
    114         38  H    CARTESIAN Z     2.388111      0.831975  KCAL/ANGSTROM
    115         39  H    CARTESIAN X     4.362670      1.077599  KCAL/ANGSTROM
    116         39  H    CARTESIAN Y    -0.142345      1.190929  KCAL/ANGSTROM
    117         39  H    CARTESIAN Z     0.936786     -0.885932  KCAL/ANGSTROM
    118         40  O    CARTESIAN X     4.181162     -1.614411  KCAL/ANGSTROM
    119         40  O    CARTESIAN Y     0.450691     -1.226563  KCAL/ANGSTROM
    120         40  O    CARTESIAN Z     1.679528      0.938922  KCAL/ANGSTROM




   ATOM   CHEMICAL          X               Y               Z
  NUMBER   SYMBOL      (ANGSTROMS)     (ANGSTROMS)     (ANGSTROMS)

     1       C          0.85914182  *   3.32399644  *   1.90650762  *
     2       C          1.36379171  *   2.02727750  *   1.83204295  *
     3       C          0.49212992  *   0.94429700  *   1.71700528  *
     4       C         -0.88761012  *   1.16181017  *   1.67697339  *
     5       C         -1.38819981  *   2.45694410  *   1.75516011  *
     6       C         -0.51639770  *   3.54024580  *   1.86996215  *
     7       H          1.54382063  *   4.16929696  *   1.98881087  *
     8       H          2.44483123  *   1.86532260  *   1.86359632  *
     9       H         -1.57362279  *   0.31759625  *   1.58214476  *
    10       H         -0.91385866  *   4.55389592  *   1.92954080  *
    11       C          1.06534547  *  -0.44571011  *   1.66229101  *
    12       C          0.50849925  *  -1.34811912  *   2.75633096  *
    13       H          0.97634869  *  -2.34360634  *   2.75321316  *
    14       H         -0.57843261  *  -1.49252128  *   2.67850014  *
    15       H          0.70344712  *  -0.91079865  *   3.74894361  *
    16       N          0.75652078  *  -1.05552100  *   0.32459067  *
    17       O          1.69306766  *  -1.40096987  *  -0.37848113  *
    18       O         -0.40445072  *  -1.18695399  *  -0.02656801  *
    19       N          5.08250120  *   1.36193590  *   4.81177956  *
    20       C          5.66533444  *  -0.00556680  *   4.80397681  *
    21       C          6.81230846  *  -0.11980879  *   5.82095000  *
    22       C          7.88798483  *   0.92575759  *   5.50851506  *
    23       C          7.25467723  *   2.31985130  *   5.56887128  *
    24       C          6.10187075  *   2.41313076  *   4.55646049  *
    25       H          5.58944340  *   3.39713244  *   4.64804013  *
    26       H          6.50689742  *   2.35907449  *   3.52249485  *
    27       H          8.00535210  *   3.10241325  *   5.35450581  *
    28       H          6.88022098  *   2.52116349  *   6.59068881  *
    29       H          7.23562921  *  -1.14088366  *   5.79618100  *
    30       H          6.42614254  *   0.03058107  *   6.84664981  *
    31       H          6.03867031  *  -0.30031801  *   3.79738117  *
    32       H          2.19760687  *  -0.40743765  *   1.75090742  *
    33       H          4.35925204  *   1.42052942  *   4.08517747  *
    34       H          4.84890376  *  -0.71511053  *   5.06821404  *
    35       H          8.72848525  *   0.84662722  *   6.22084787  *
    36       H          8.32177060  *   0.74310778  *   4.50677537  *
    37       H         -2.46553109  *   2.62663664  *   1.72920255  *
    38       H          4.73610574  *   0.11113553  *   2.38811129  *
    39       H          4.36267026  *  -0.14234485  *   0.93678563  *
    40       O          4.18116160  *   0.45069077  *   1.67952804  *

                             CARTESIAN COORDINATES

   1    C        0.859141819     3.323996437     1.906507619
   2    C        1.363791709     2.027277496     1.832042946
   3    C        0.492129925     0.944296999     1.717005285
   4    C       -0.887610123     1.161810166     1.676973390
   5    C       -1.388199815     2.456944104     1.755160115
   6    C       -0.516397697     3.540245797     1.869962155
   7    H        1.543820629     4.169296955     1.988810873
   8    H        2.444831234     1.865322595     1.863596318
   9    H       -1.573622790     0.317596248     1.582144756
  10    H       -0.913858659     4.553895917     1.929540801
  11    C        1.065345470    -0.445710112     1.662291014
  12    C        0.508499253    -1.348119120     2.756330963
  13    H        0.976348692    -2.343606340     2.753213162
  14    H       -0.578432613    -1.492521281     2.678500139
  15    H        0.703447121    -0.910798645     3.748943613
  16    N        0.756520776    -1.055521003     0.324590673
  17    O        1.693067656    -1.400969874    -0.378481128
  18    O       -0.404450716    -1.186953994    -0.026568007
  19    N        5.082501204     1.361935900     4.811779555
  20    C        5.665334436    -0.005566802     4.803976811
  21    C        6.812308458    -0.119808789     5.820949996
  22    C        7.887984831     0.925757593     5.508515058
  23    C        7.254677229     2.319851304     5.568871284
  24    C        6.101870748     2.413130759     4.556460487
  25    H        5.589443401     3.397132441     4.648040132
  26    H        6.506897415     2.359074486     3.522494853
  27    H        8.005352100     3.102413245     5.354505809
  28    H        6.880220984     2.521163492     6.590688811
  29    H        7.235629209    -1.140883660     5.796181002
  30    H        6.426142539     0.030581068     6.846649813
  31    H        6.038670307    -0.300318013     3.797381171
  32    H        2.197606870    -0.407437653     1.750907416
  33    H        4.359252037     1.420529420     4.085177472
  34    H        4.848903759    -0.715110528     5.068214043
  35    H        8.728485252     0.846627223     6.220847871
  36    H        8.321770602     0.743107783     4.506775374
  37    H       -2.465531087     2.626636643     1.729202553
  38    H        4.736105739     0.111135530     2.388111288
  39    H        4.362670256    -0.142344850     0.936785631
  40    O        4.181161597     0.450690774     1.679528042


           Empirical Formula: C13 H22 N2 O3  =    40 atoms



      MOLECULAR POINT GROUP   :   C1  


                  EIGENVALUES  
 -37.32664 -35.41237 -31.05332 -30.76286 -29.38523 -28.98255 -28.46586 -26.18400
 -26.16344 -25.66395 -24.93929 -22.29956 -22.20151 -21.32471 -21.27120 -20.39366
 -19.27396 -18.50463 -18.41808 -17.93753 -17.50721 -17.37403 -17.05213 -15.96504
 -15.59879 -15.33885 -15.25172 -14.87593 -14.77922 -14.56811 -14.20805 -14.08597
 -14.08059 -13.99861 -13.93216 -13.43381 -13.12641 -13.01863 -12.39508 -12.22576
 -12.16260 -12.02023 -11.90792 -11.75411 -11.63693 -11.41625 -11.34990 -11.29858
 -10.12725 -10.06777  -9.48703  -0.51441  -0.29005  -0.04280   0.61239   2.22865
   2.95704   3.05717   3.28985   3.74256   3.88644   3.91814   4.06194   4.21378
   4.23941   4.35192   4.55225   4.70240   4.72088   4.73950   4.88827   4.99214
   5.11221   5.39441   5.43347   5.48687   5.53169   5.56360   5.70235   5.71537
   5.79841   5.97010   6.01270   6.04513   6.06068   6.06895   6.15029   6.16300
   6.34449   6.51842   6.58015   6.58133   6.59849   6.66250


              NET ATOMIC CHARGES AND DIPOLE CONTRIBUTIONS

  ATOM NO.   TYPE          CHARGE      No. of ELECS.   s-Pop       p-Pop       
    1          C          -0.163138        4.1631     1.08650     3.07664
    2          C          -0.140779        4.1408     1.09192     3.04886
    3          C          -0.070787        4.0708     1.06651     3.00428
    4          C          -0.135048        4.1350     1.08913     3.04592
    5          C          -0.167241        4.1672     1.08629     3.08095
    6          C          -0.136137        4.1361     1.08977     3.04636
    7          H           0.167086        0.8329     0.83291
    8          H           0.178832        0.8212     0.82117
    9          H           0.173201        0.8268     0.82680
   10          H           0.163485        0.8365     0.83652
   11          C          -0.047619        4.0476     1.09706     2.95056
   12          C          -0.466342        4.4663     1.05822     3.40812
   13          H           0.177343        0.8227     0.82266
   14          H           0.175802        0.8242     0.82420
   15          H           0.185326        0.8147     0.81467
   16          N           0.624245        4.3758     1.48052     2.89524
   17          O          -0.453581        6.4536     1.93973     4.51385
   18          O          -0.449146        6.4491     1.93913     4.51001
   19          N          -0.585769        5.5858     1.67839     3.90737
   20          C          -0.118970        4.1190     1.06866     3.05031
   21          C          -0.279804        4.2798     1.06130     3.21851
   22          C          -0.268106        4.2681     1.05774     3.21037
   23          C          -0.280803        4.2808     1.06141     3.21939
   24          C          -0.115717        4.1157     1.06834     3.04738
   25          H           0.142950        0.8571     0.85705
   26          H           0.125288        0.8747     0.87471
   27          H           0.142185        0.8578     0.85782
   28          H           0.146743        0.8533     0.85326
   29          H           0.142645        0.8574     0.85735
   30          H           0.146310        0.8537     0.85369
   31          H           0.122021        0.8780     0.87798
   32          H           0.214338        0.7857     0.78566
   33          H           0.259657        0.7403     0.74034
   34          H           0.144427        0.8556     0.85557
   35          H           0.139742        0.8603     0.86026
   36          H           0.141395        0.8586     0.85860
   37          H           0.166972        0.8330     0.83303
   38          H           0.353698        0.6463     0.64630
   39          H           0.374305        0.6257     0.62569
   40          O          -0.729008        6.7290     1.81679     4.91222
 DIPOLE           X         Y         Z       TOTAL
 POINT-CHG.     3.518     0.724     4.511     5.766
 HYBRID         0.034    -0.636    -1.352     1.495
 SUM            3.552     0.088     3.159     4.755


          ATOMIC ORBITAL ELECTRON POPULATIONS

     Atom    s        px        py        pz   
    1  C   1.08650   1.02696   1.04645   1.00323
    2  C   1.09192   1.08923   0.98313   0.97649
    3  C   1.06651   0.99210   0.95089   1.06129
    4  C   1.08913   1.01626   1.05296   0.97669
    5  C   1.08629   1.08943   0.98591   1.00562
    6  C   1.08977   0.99913   1.07432   0.97291
    7  H   0.83291
    8  H   0.82117
    9  H   0.82680
   10  H   0.83652
   11  C   1.09706   1.14227   0.97219   0.83610
   12  C   1.05822   1.18323   1.13049   1.09440
   13  H   0.82266
   14  H   0.82420
   15  H   0.81467
   16  N   1.48052   0.95447   0.92676   1.01401
   17  O   1.93973   1.36591   1.55866   1.58928
   18  O   1.93913   1.09259   1.61524   1.80218
   19  N   1.67839   1.21597   1.11223   1.57918
   20  C   1.06866   1.05654   0.90449   1.08927
   21  C   1.06130   1.02833   1.09265   1.09752
   22  C   1.05774   1.05324   0.99718   1.15995
   23  C   1.06141   1.06170   1.04871   1.10899
   24  C   1.06834   0.97599   0.99449   1.07691
   25  H   0.85705
   26  H   0.87471
   27  H   0.85782
   28  H   0.85326
   29  H   0.85735
   30  H   0.85369
   31  H   0.87798
   32  H   0.78566
   33  H   0.74034
   34  H   0.85557
   35  H   0.86026
   36  H   0.85860
   37  H   0.83303
   38  H   0.64630
   39  H   0.62569
   40  O   1.81679   1.77198   1.68836   1.45187

          BONDING CONTRIBUTION OF EACH M.O.

  1.3122  1.3453  1.7685  1.1203  1.2010  1.6778  1.9300  1.9656  1.9278  1.5790
  1.3630  1.9064  1.6946  1.8990  1.9746  1.6579  1.8702  1.5145  1.4415  1.8077
  1.6287  1.8257  1.7628  1.9370  1.9542  1.9043  1.9102  1.9048  1.6113  1.6153
  1.3777  1.9366  1.9093  1.9463  1.7386  1.9669  1.9994  1.7116  0.9357  1.6879
  1.9376  1.2112  0.8813  0.6253  1.8868  0.9273  2.0053  2.0093  2.0169  1.9300
  0.9408 -2.2358 -2.1728 -1.9801 -2.0524 -1.9965 -1.9607 -1.9641 -1.9641 -1.9337
 -1.9697 -1.9811 -1.9183 -1.9089 -1.9735 -1.9372 -1.9731 -1.9706 -1.9638 -1.9203
 -2.0041 -1.9866 -1.9497 -1.9517 -1.9642 -1.9567 -1.9739 -1.9630 -1.9649 -1.9804
 -1.9624 -1.9745 -1.9619 -1.9726 -1.9690 -1.9711 -1.9808 -1.9628 -1.8926 -1.8540
 -1.9019 -1.9126 -1.8936 -1.9113





            (VALENCIES)   BOND ORDERS

     1  C     (3.972)     6  C 1.445     2  C 1.441     7  H 0.960     4  C 0.111

     2  C     (3.966)     1  C 1.441     3  C 1.427     8  H 0.952     5  C 0.111

     3  C     (3.989)     2  C 1.427     4  C 1.416    11  C 0.992     6  C 0.113

     4  C     (3.969)     5  C 1.453     3  C 1.416     9  H 0.956     1  C 0.111

     5  C     (3.972)     4  C 1.453     6  C 1.433    37  H 0.960     2  C 0.111

     6  C     (3.972)     1  C 1.445     5  C 1.433    10  H 0.961     3  C 0.113

     7  H     (0.972)     1  C 0.960

     8  H     (0.968)     2  C 0.952

     9  H     (0.970)     4  C 0.956

    10  H     (0.973)     6  C 0.961

    11  C     (3.898)     3  C 0.992    12  C 0.991    32  H 0.931    16  N 0.819    18  O 0.068    17  O 0.065

    12  C     (3.897)    11  C 0.991    13  H 0.959    14  H 0.959    15  H 0.950

    13  H     (0.969)    12  C 0.959

    14  H     (0.969)    12  C 0.959

    15  H     (0.966)    12  C 0.950

    16  N     (3.741)    18  O 1.446    17  O 1.441    11  C 0.819

    17  O     (1.833)    16  N 1.441    18  O 0.301    11  C 0.065

    18  O     (1.839)    16  N 1.446    17  O 0.301    11  C 0.068

    19  N     (2.876)    20  C 0.966    24  C 0.965    33  H 0.905

    20  C     (3.936)    21  C 1.001    19  N 0.966    31  H 0.966    34  H 0.964

    21  C     (3.959)    22  C 1.003    20  C 1.001    30  H 0.968    29  H 0.967

    22  C     (3.960)    21  C 1.003    23  C 1.003    36  H 0.970    35  H 0.969

    23  C     (3.959)    22  C 1.003    24  C 1.001    28  H 0.968    27  H 0.967

    24  C     (3.934)    23  C 1.001    26  H 0.970    19  N 0.965    25  H 0.964

    25  H     (0.980)    24  C 0.964

    26  H     (0.984)    24  C 0.970

    27  H     (0.980)    23  C 0.967

    28  H     (0.978)    23  C 0.968

    29  H     (0.980)    21  C 0.967

    30  H     (0.979)    21  C 0.968

    31  H     (0.985)    20  C 0.966

    32  H     (0.954)    11  C 0.931

    33  H     (0.933)    19  N 0.905

    34  H     (0.979)    20  C 0.964

    35  H     (0.980)    22  C 0.969

    36  H     (0.980)    22  C 0.970

    37  H     (0.972)     5  C 0.960

    38  H     (0.875)    40  O 0.864

    39  H     (0.860)    40  O 0.856

    40  O     (1.738)    38  H 0.864    39  H 0.856


 **********************
 *                    *
 * JOB ENDED NORMALLY *
 *                    *
 **********************



 TOTAL JOB TIME:             3.69 SECONDS

 == MOPAC DONE ==
