 *******************************************************************************
 **                                                                           **
 **                              MOPAC v22.0.6                                **
 **                                                                           **
 *******************************************************************************
 **          Digital Object Identifier (DOI): 10.5281/zenodo.6511958          **
 **    Visit the DOI location for information on how to cite this program.    **
 *******************************************************************************

                              PM7 CALCULATION RESULTS

 *******************************************************************************
 *  CALCULATION DONE:                                Tue Mar 26 12:51:59 2024  *
 *  PM7        - The PM7 Hamiltonian to be used
 *  SINGLET    - SPIN STATE DEFINED AS A SINGLET
 *
 *
 *
 *                 CHARGE ON SYSTEM = 0
 *
 *
 *
 *  EPS=32.66  - USE ANDREAS KLAMT'S COSMO IMPLICIT SOLVATION MODEL
 *  SADDLE     - TRANSITION STATE TO BE OPTIMIZED
 *  T=         - A TIME OF 14.0 DAYS REQUESTED
 *  DUMP=N     - RESTART FILE WRITTEN EVERY 30.0 MINUTES REQUESTED
 *  RELSCF     - DEFAULT SCF CRITERION MULTIPLIED BY 1.0000
 *              (DEFAULT SCF CRITERION = 0.00010)
 *  ITRY=      - DO A MAXIMUM OF 15000 ITERATIONS FOR SCF
 *  AUX        - OUTPUT AUXILIARY INFORMATION
 *  BONDS      - FINAL BOND-ORDER MATRIX TO BE PRINTED
 *******************************************************************************
SADDLE PM7 BONDS AUX DUMP=30M ITRY=15000 T=14D CHARGE=0 SINGLET eps=32.66 RELSCF=1


   ATOM   CHEMICAL          X               Y               Z
  NUMBER   SYMBOL      (ANGSTROMS)     (ANGSTROMS)     (ANGSTROMS)

     1       C         -1.74928000  *   0.54299000  *  -2.88639000  *
     2       C         -0.94544000  *   0.64221000  *  -1.73358000  *
     3       C         -1.18881000  *  -0.19847000  *  -0.60375000  *
     4       C         -2.22447000  *  -1.15199000  *  -0.61179000  *
     5       C         -2.99540000  *  -1.23165000  *  -1.75423000  *
     6       N         -4.08023000  *  -2.05474000  *  -2.03814000  *
     7       C         -4.52183000  *  -1.76905000  *  -3.33552000  *
     8       C         -3.76263000  *  -0.75663000  *  -3.88422000  *
     9       C         -2.76892000  *  -0.37982000  *  -2.91036000  *
    10       H         -3.86915000  *  -0.31275000  *  -4.85070000  *
    11       H         -5.35567000  *  -2.31007000  *  -3.75751000  *
    12       H         -2.39951000  *  -1.79369000  *   0.24763000  *
    13       H         -1.55791000  *   1.19261000  *  -3.74264000  *
    14       N         -0.41335000  *  -0.10104000  *   0.54174000  *
    15       C          0.57020000  *   0.77485000  *   0.58261000  *
    16       C          0.88388000  *   1.64544000  *  -0.50871000  *
    17       H          1.71232000  *   2.34302000  *  -0.40492000  *
    18       H          1.16264000  *   0.81973000  *   1.50916000  *
    19       C          0.13152000  *   1.57622000  *  -1.64620000  *
    20       H          0.33358000  *   2.22450000  *  -2.50368000  *
    21       H         -4.39009000  *  -2.81534000  *  -1.44332000  *
    22       C         -0.85504000  *  -2.17604000  *   3.61338000  *
    23       H         -0.38567000  *  -3.00414000  *   3.07054000  *
    24       H         -0.09875000  *  -1.46585000  *   3.96469000  *
    25       H         -1.45167000  *  -2.54855000  *   4.45402000  *
    26       H         -1.30413000  *  -1.08682000  *   2.00722000  *
    27       O         -1.78349000  *  -1.51171000  *   2.77325000  *
    28       C         -5.61213000  *  -4.78240000  *  -0.21233000  *
    29       H         -5.61803000  *  -5.60761000  *   0.50791000  *
    30       H         -6.37240000  *  -4.03707000  *   0.04541000  *
    31       H         -5.76984000  *  -5.16184000  *  -1.22943000  *
    32       H         -4.08959000  *  -3.80909000  *   0.64645000  *
    33       O         -4.33209000  *  -4.18289000  *  -0.24504000  *
    34       C         -3.60660000  *  -4.38816000  *   3.00015000  *
    35       H         -2.70077000  *  -4.93065000  *   2.70708000  *
    36       H         -3.56476000  *  -4.10381000  *   4.05713000  *
    37       H         -4.50121000  *  -4.99078000  *   2.80071000  *
    38       H         -2.98950000  *  -2.60985000  *   2.33022000  *
    39       O         -3.76126000  *  -3.23104000  *   2.19791000  *



          CARTESIAN COORDINATES 

    NO.       ATOM           X           Y           Z

     1         C         -1.7493      0.5430     -2.8864
     2         C         -0.9454      0.6422     -1.7336
     3         C         -1.1888     -0.1985     -0.6038
     4         C         -2.2245     -1.1520     -0.6118
     5         C         -2.9954     -1.2316     -1.7542
     6         N         -4.0802     -2.0547     -2.0381
     7         C         -4.5218     -1.7691     -3.3355
     8         C         -3.7626     -0.7566     -3.8842
     9         C         -2.7689     -0.3798     -2.9104
    10         H         -3.8692     -0.3128     -4.8507
    11         H         -5.3557     -2.3101     -3.7575
    12         H         -2.3995     -1.7937      0.2476
    13         H         -1.5579      1.1926     -3.7426
    14         N         -0.4134     -0.1010      0.5417
    15         C          0.5702      0.7749      0.5826
    16         C          0.8839      1.6454     -0.5087
    17         H          1.7123      2.3430     -0.4049
    18         H          1.1626      0.8197      1.5092
    19         C          0.1315      1.5762     -1.6462
    20         H          0.3336      2.2245     -2.5037
    21         H         -4.3901     -2.8153     -1.4433
    22         C         -0.8550     -2.1760      3.6134
    23         H         -0.3857     -3.0041      3.0705
    24         H         -0.0988     -1.4659      3.9647
    25         H         -1.4517     -2.5486      4.4540
    26         H         -1.3041     -1.0868      2.0072
    27         O         -1.7835     -1.5117      2.7732
    28         C         -5.6121     -4.7824     -0.2123
    29         H         -5.6180     -5.6076      0.5079
    30         H         -6.3724     -4.0371      0.0454
    31         H         -5.7698     -5.1618     -1.2294
    32         H         -4.0896     -3.8091      0.6465
    33         O         -4.3321     -4.1829     -0.2450
    34         C         -3.6066     -4.3882      3.0002
    35         H         -2.7008     -4.9306      2.7071
    36         H         -3.5648     -4.1038      4.0571
    37         H         -4.5012     -4.9908      2.8007
    38         H         -2.9895     -2.6099      2.3302
    39         O         -3.7613     -3.2310      2.1979

 General Reference for PM7:
 "Optimization of Parameters for Semiempirical Methods VI: More Modifications to the 
 NDDO Approximations and Re-optimization of Parameters", J. J. P. Stewart, J. Mol. Mod., 1:32, 19 (2013)
 https://link.springer.com/article/10.1007/s00894-012-1667-x

           Empirical Formula: C14 H20 N2 O3  =    39 atoms



      MOLECULAR POINT GROUP   :   C1  


 SINGLET STATE CALCULATION


      RHF CALCULATION, NO. OF DOUBLY OCCUPIED LEVELS = 52



  CARTESIAN GEOMETRY OF FIRST SYSTEM


   1    C         -2.71762      -2.62140       0.52976
   2    C         -2.09142      -1.45804       1.01923
   3    C         -0.69431      -1.45680       1.32059
   4    C          0.08620      -2.61744       1.16269
   5    C         -0.54831      -3.74101       0.67277
   6    N         -0.03515      -5.00601       0.40695
   7    C         -1.07204      -5.80695      -0.08503
   8    C         -2.24962      -5.08948      -0.12802
   9    C         -1.96505      -3.75829       0.34694
  10    H         -3.21121      -5.43063      -0.44827
  11    H         -0.88064      -6.83355      -0.35924
  12    H          1.14160      -2.61848       1.42189
  13    H         -3.78536      -2.61053       0.30200
  14    N         -0.05774      -0.30815       1.76724
  15    C         -0.76284       0.79098       1.94330
  16    C         -2.16993       0.86467       1.69175
  17    H         -2.68933       1.80404       1.86952
  18    H         -0.22226       1.68136       2.29933
  19    C         -2.81677      -0.24622       1.23147
  20    H         -3.88986      -0.23496       1.02006
  21    H          0.94072      -5.26388       0.50058
  22    C          2.62058      -0.96363      -0.66244
  23    H          1.83020      -1.69563      -0.86158
  24    H          2.39281      -0.00829      -1.14835
  25    H          3.59512      -1.34489      -0.99100
  26    H          1.89673      -0.49370       1.13716
  27    O          2.76723      -0.75706       0.73412
  28    C          2.88861      -6.35944       1.81718
  29    H          3.92742      -6.42328       2.15794
  30    H          2.21988      -6.14244       2.65762
  31    H          2.59042      -7.28765       1.31657
  32    H          3.04073      -4.46932       1.19516
  33    O          2.76456      -5.35621       0.82708
  34    C          4.93142      -3.06180       2.06464
  35    H          5.40084      -3.06816       1.07534
  36    H          5.26646      -2.19557       2.64608
  37    H          5.14416      -3.99292       2.60349
  38    H          3.23017      -2.20169       1.46082
  39    O          3.52185      -3.03323       1.93391


  CARTESIAN GEOMETRY OF SECOND SYSTEM


   1    C         -2.95907      -2.77862       0.71055
   2    C         -2.27412      -1.54750       0.72310
   3    C         -0.84938      -1.50994       0.82896
   4    C         -0.09122      -2.69320       0.91235
   5    C         -0.78573      -3.88617       0.89465
   6    N         -0.31161      -5.19130       0.97702
   7    C         -1.40536      -6.06222       0.90599
   8    C         -2.57931      -5.34459       0.80963
   9    C         -2.23499      -3.94491       0.79594
  10    H         -3.57524      -5.72871       0.75450
  11    H         -1.25282      -7.13065       0.94164
  12    H          0.99254      -2.65816       0.98483
  13    H         -4.04790      -2.79653       0.63357
  14    N         -0.16474      -0.30433       0.85606
  15    C         -0.84066       0.82364       0.77217
  16    C         -2.26589       0.87086       0.65470
  17    H         -2.75727       1.83925       0.58784
  18    H         -0.25998       1.75838       0.79583
  19    C         -2.96609      -0.30131       0.63334
  20    H         -4.05648      -0.31255       0.54797
  21    H          0.67020      -5.44394       0.95373
  22    C          3.54116       0.05168       1.13044
  23    H          3.60516      -0.24177       0.07663
  24    H          3.23705       1.09994       1.22226
  25    H          4.49599      -0.11718       1.64150
  26    H          1.69669      -0.63470       1.43813
  27    O          2.61306      -0.77824       1.80797
  28    C          3.03879      -6.56640       1.04282
  29    H          4.11340      -6.55805       0.83094
  30    H          2.85613      -6.67073       2.11786
  31    H          2.54571      -7.37234       0.48544
  32    H          2.83575      -4.57634       1.00540
  33    O          2.44500      -5.37765       0.55985
  34    C          4.90434      -3.25762       1.30610
  35    H          4.90855      -2.97587       0.24718
  36    H          5.50525      -2.55800       1.89706
  37    H          5.27194      -4.28291       1.43611
  38    H          3.16344      -2.37446       1.73191
  39    O          3.57596      -3.28251       1.79727


   "DISTANCE":     7.323339


  REACTION COORDINATE VECTOR


   1    C          0.24145       0.15722      -0.18078
   2    C          0.18270       0.08946       0.29613
   3    C          0.15507       0.05314       0.49163
   4    C          0.17742       0.07576       0.25034
   5    C          0.23742       0.14516      -0.22188
   6    N          0.27647       0.18530      -0.57007
   7    C          0.33332       0.25527      -0.99102
   8    C          0.32969       0.25511      -0.93764
   9    C          0.26994       0.18663      -0.44900
  10    H          0.36403       0.29808      -1.20277
  11    H          0.37218       0.29710      -1.30089
  12    H          0.14906       0.03968       0.43706
  13    H          0.26253       0.18599      -0.33158
  14    N          0.10700      -0.00382       0.91118
  15    C          0.07783      -0.03266       1.17113
  16    C          0.09597      -0.00619       1.03704
  17    H          0.06794      -0.03521       1.28168
  18    H          0.03772      -0.07702       1.50350
  19    C          0.14932       0.05510       0.59813
  20    H          0.16662       0.07759       0.47209
  21    H          0.27052       0.18006      -0.45315
  22    C         -0.92057      -1.01531      -1.79289
  23    H         -1.77496      -1.45387      -0.93821
  24    H         -0.84424      -1.10823      -2.37061
  25    H         -0.90087      -1.22771      -2.63250
  26    H          0.20004       0.14100      -0.30097
  27    O          0.15417       0.02118      -1.07386
  28    C         -0.15018       0.20696       0.77436
  29    H         -0.18598       0.13477       1.32700
  30    H         -0.63626       0.52830       0.53977
  31    H          0.04472       0.08469       0.83113
  32    H          0.20498       0.10702       0.18976
  33    O          0.31956       0.02144       0.26723
  34    C          0.02708       0.19582       0.75854
  35    H          0.49230      -0.09229       0.82816
  36    H         -0.23880       0.36243       0.74902
  37    H         -0.12778       0.28999       1.16738
  38    H          0.06674       0.17277      -0.27109
  39    O         -0.05411       0.24928       0.13665
 *+*+*+*+*+*+*+*+*+*+*+*+*+*+*+*+*+*+*+*+*+*+*+*+*+*+*+*+*+*+*+*+*+*+*+*+*+*+*+*+
            BAR SHORTENED BY       0.000 PERCENT
 GRADIENT CRITERION IN FLEPO =     1.000
  SCF CRITERION =    0.1000E-03


          FOR POINT    1 SECOND STRUCTURE
 DISTANCE A - B      7.323339
 HEAT             -120.781575
 GRADIENT NORM       1.812570
 DIRECTION COSINE    0.000492
* ===============================
* Input file for Mopac
* ===============================
 PM7 BONDS AUX DUMP=30M ITRY=15000 T=14D CHARGE=0 SINGLET eps=32.66 RELSCF=1


  C     0.00000000 +0    0.0000000 +0    0.0000000 +0     0     0     0
  C     1.40893521 +1    0.0000000 +0    0.0000000 +0     1     0     0
  C     1.42924561 +1  120.5586900 +1    0.0000000 +0     2     1     0
  C     1.40754923 +1  121.1768031 +1   -1.2340288 +1     3     2     1
  C     1.38023578 +1  117.1385749 +1    1.6520846 +1     4     3     2
  N     1.39076109 +1  129.6911906 +1  179.4063647 +1     5     4     3
  C     1.39953867 +1  108.3221692 +1 -179.7325168 +1     6     5     4
  C     1.37960830 +1  110.2255454 +1   -0.6999007 +1     7     6     5
  C     1.37560799 +1  119.0409266 +1    0.0687608 +1     1     2     3
  H     1.06938671 +1  127.6579268 +1 -179.4524874 +1     8     7     6
  H     1.07968475 +1  120.1386805 +1  179.7143013 +1     7     6     5
  H     1.08676445 +1  120.8337200 +1 -178.1417883 +1     4     3     2
  H     1.09181892 +1  119.9273474 +1 -179.9407880 +1     1     2     3
  N     1.38712694 +1  121.1450286 +1  178.1654622 +1     3     2     1
  C     1.31766890 +1  119.2220890 +1    1.4994805 +1    14     3     2
  C     1.43129493 +1  123.0603677 +1   -0.1490035 +1    15    14     3
  H     1.08802828 +1  119.0157281 +1  179.3623369 +1    16    15    14
  H     1.10080087 +1  117.0734537 +1  179.9563105 +1    15    14     3
  C     1.36540469 +1  118.8870016 +1   -0.8630550 +1    16    15    14
  H     1.09377739 +1  121.4366977 +1 -179.6509852 +1    19    16    15
  H     1.01369888 +1  124.6767751 +1   -3.5322258 +1     6     5     4
  C     3.04473065 +1  107.9349244 +1  -71.4531503 +1    12     4     3
  H     1.09553226 +1   53.9017131 +1  -43.0327160 +1    22    12     4
  H     1.09574533 +1  132.5685352 +1   42.4778597 +1    22    12     4
  H     1.09683208 +1  116.5981023 +1 -140.2304262 +1    22    12     4
  H     1.99583610 +1   48.2819681 +1   95.4571997 +1    22    12     4
  O     0.99476867 +1   41.8381895 +1   97.2404948 +1    26    22    12
  C     2.59382642 +1  151.3157674 +1   99.4972963 +1    21     6     5
  H     1.09514064 +1  153.4969205 +1 -143.2645995 +1    28    21     6
  H     1.09573597 +1   81.2200341 +1  -24.0583317 +1    28    21     6
  H     1.09594735 +1   85.5003706 +1   87.6244511 +1    28    21     6
  H     1.99564399 +1   59.9337471 +1 -125.8300165 +1    28    21     6
  O     0.99915980 +1   41.6740490 +1  -46.8048915 +1    32    28    21
  C     2.51233345 +1  118.6929475 +1  168.8050921 +1    32    28    21
  H     1.09503830 +1   90.3834754 +1  110.3854248 +1    34    32    28
  H     1.09575615 +1  148.9412114 +1 -115.5743522 +1    34    32    28
  H     1.09663330 +1   80.8138946 +1   -0.6764322 +1    34    32    28
  H     1.68207809 +1  107.0476097 +1 -118.6677975 +1    27    26    22
  O     1.00017424 +1  177.0213628 +1  -79.4226484 +1    38    27    26

 TIME=     3.94
  REACTANTS AND PRODUCTS SWAPPED AROUND
 *+*+*+*+*+*+*+*+*+*+*+*+*+*+*+*+*+*+*+*+*+*+*+*+*+*+*+*+*+*+*+*+*+*+*+*+*+*+*+*+
            BAR SHORTENED BY       1.000 PERCENT
 GRADIENT CRITERION IN FLEPO =     1.000
           THERE HAVE BEEN 3 ATTEMPTS TO REDUCE THE GRADIENT.
           DURING THESE ATTEMPTS THE ENERGY DROPPED BY LESS THAN 0.3 KCAL/MOLE
           FURTHER CALCULATION IS NOT JUSTIFIED AT THIS TIME.
           TO CONTINUE, START AGAIN WITH THE WORD "PRECISE"


          FOR POINT    2 FIRST  STRUCTURE
 DISTANCE A - B      7.250105
 HEAT             -119.502190
 GRADIENT NORM       2.943740
 DIRECTION COSINE   -0.016563
* ===============================
* Input file for Mopac
* ===============================
 PM7 BONDS AUX DUMP=30M ITRY=15000 T=14D CHARGE=0 SINGLET eps=32.66 RELSCF=1


  C     0.00000000 +0    0.0000000 +0    0.0000000 +0     0     0     0
  C     1.40893882 +1    0.0000000 +0    0.0000000 +0     1     0     0
  C     1.42905365 +1  120.5464923 +1    0.0000000 +0     2     1     0
  C     1.40750941 +1  121.3089824 +1    0.5893249 +1     3     2     1
  C     1.38062707 +1  117.0041346 +1   -0.4525345 +1     4     3     2
  N     1.39102672 +1  129.6522555 +1 -179.1368445 +1     5     4     3
  C     1.39953911 +1  108.2942277 +1 -179.5211231 +1     6     5     4
  C     1.37867887 +1  110.2469642 +1   -1.3292185 +1     7     6     5
  C     1.37537078 +1  118.9645749 +1   -0.3045720 +1     1     2     3
  H     1.06833480 +1  127.6389233 +1 -179.0941138 +1     8     7     6
  H     1.08008591 +1  120.1928752 +1  179.2769273 +1     7     6     5
  H     1.08644916 +1  120.9897148 +1  179.5570579 +1     4     3     2
  H     1.09213555 +1  119.9977052 +1  179.7381190 +1     1     2     3
  N     1.38653027 +1  121.0940659 +1 -179.3489316 +1     3     2     1
  C     1.31760301 +1  119.3004864 +1   -0.5433416 +1    14     3     2
  C     1.43076042 +1  123.0064065 +1    0.0937336 +1    15    14     3
  H     1.08785756 +1  118.9904716 +1 -179.8517178 +1    16    15    14
  H     1.10034435 +1  117.0440332 +1 -179.9407896 +1    15    14     3
  C     1.36562377 +1  118.9324537 +1    0.2905929 +1    16    15    14
  H     1.09355491 +1  121.3800682 +1  179.7163609 +1    19    16    15
  H     1.01391255 +1  124.2084957 +1   -7.6399180 +1     6     5     4
  C     3.71163617 +1  135.0691497 +1    0.1275533 +1    12     4     3
  H     1.09602399 +1   78.5087322 +1  -99.5886644 +1    22    12     4
  H     1.09571840 +1  120.6241296 +1    7.8351339 +1    22    12     4
  H     1.09523898 +1  120.0397487 +1  152.8952244 +1    22    12     4
  H     1.97006289 +1  108.8670361 +1  166.9868161 +1    14     3     2
  O     0.99893834 +1  174.9546276 +1 -102.8534302 +1    26    14     3
  C     2.62041193 +1  168.4168084 +1  166.6836280 +1    21     6     5
  H     1.09354562 +1  151.2888406 +1  170.3949200 +1    28    21     6
  H     1.09564250 +1   85.5884189 +1  -62.9421980 +1    28    21     6
  H     1.09697324 +1   83.6489805 +1   48.4433365 +1    28    21     6
  H     2.00053597 +1   58.8532918 +1 -162.0568213 +1    28    21     6
  O     0.99704227 +1   41.2943542 +1  -42.6435864 +1    32    28    21
  C     2.47184529 +1  116.4139663 +1  173.3277582 +1    32    28    21
  H     1.09599808 +1   91.2568505 +1  107.1190039 +1    34    32    28
  H     1.09458648 +1  149.9285401 +1 -114.5359972 +1    34    32    28
  H     1.09718121 +1   78.2400753 +1   -3.7507583 +1    34    32    28
  H     1.68676986 +1  114.7238090 +1  121.0883638 +1    27    26    14
  O     1.00015391 +1  171.9550057 +1 -156.2246641 +1    38    27    26

 TIME=    10.34
  REACTANTS AND PRODUCTS SWAPPED AROUND
 *+*+*+*+*+*+*+*+*+*+*+*+*+*+*+*+*+*+*+*+*+*+*+*+*+*+*+*+*+*+*+*+*+*+*+*+*+*+*+*+
            BAR SHORTENED BY       1.000 PERCENT
 GRADIENT CRITERION IN FLEPO =     1.000


          FOR POINT    3 SECOND STRUCTURE
 DISTANCE A - B      7.177604
 HEAT             -120.878686
 GRADIENT NORM       1.844240
 DIRECTION COSINE   -0.137593
* ===============================
* Input file for Mopac
* ===============================
 PM7 BONDS AUX DUMP=30M ITRY=15000 T=14D CHARGE=0 SINGLET eps=32.66 RELSCF=1


  C     0.00000000 +0    0.0000000 +0    0.0000000 +0     0     0     0
  C     1.40865616 +1    0.0000000 +0    0.0000000 +0     1     0     0
  C     1.42920039 +1  120.5821508 +1    0.0000000 +0     2     1     0
  C     1.40731374 +1  121.1914677 +1   -1.2735817 +1     3     2     1
  C     1.38036082 +1  117.1082771 +1    1.7063294 +1     4     3     2
  N     1.39042122 +1  129.6771959 +1  179.2907101 +1     5     4     3
  C     1.39964459 +1  108.3336282 +1 -179.7018713 +1     6     5     4
  C     1.37947187 +1  110.1713514 +1   -0.6680280 +1     7     6     5
  C     1.37568727 +1  118.9921479 +1    0.0812984 +1     1     2     3
  H     1.06887463 +1  127.5798505 +1 -179.5749439 +1     8     7     6
  H     1.08002005 +1  120.2024980 +1  179.5806992 +1     7     6     5
  H     1.08649958 +1  120.9006007 +1 -178.1516692 +1     4     3     2
  H     1.09171699 +1  120.0042520 +1 -179.8605266 +1     1     2     3
  N     1.38689812 +1  121.1481399 +1  178.2460327 +1     3     2     1
  C     1.31811238 +1  119.2093612 +1    1.5168831 +1    14     3     2
  C     1.43084342 +1  123.0357419 +1   -0.2693972 +1    15    14     3
  H     1.08782351 +1  118.9381324 +1  179.5096564 +1    16    15    14
  H     1.10065890 +1  117.0319190 +1 -179.9462738 +1    15    14     3
  C     1.36548089 +1  118.9489181 +1   -0.7380555 +1    16    15    14
  H     1.09369695 +1  121.4039027 +1 -179.5884068 +1    19    16    15
  H     1.01323817 +1  124.6562585 +1   -3.3395281 +1     6     5     4
  C     3.04501685 +1  108.3658873 +1  -70.8081961 +1    12     4     3
  H     1.09556998 +1   53.8688009 +1  -43.4340728 +1    22    12     4
  H     1.09603281 +1  132.3831180 +1   42.2830713 +1    22    12     4
  H     1.09582796 +1  116.6121676 +1 -140.5585005 +1    22    12     4
  H     1.99430028 +1   48.1305484 +1   95.0713991 +1    22    12     4
  O     0.99508609 +1   41.9385028 +1   97.2619707 +1    26    22    12
  C     2.58985354 +1  151.6591252 +1  100.0538032 +1    21     6     5
  H     1.09546694 +1  153.4944385 +1 -143.7670912 +1    28    21     6
  H     1.09608670 +1   81.2057176 +1  -24.4794635 +1    28    21     6
  H     1.09652115 +1   85.5116259 +1   87.2888894 +1    28    21     6
  H     1.99663746 +1   59.9369173 +1 -126.1717098 +1    28    21     6
  O     1.00009942 +1   41.6369345 +1  -46.7775846 +1    32    28    21
  C     2.51203343 +1  118.6912497 +1  168.8354947 +1    32    28    21
  H     1.09519256 +1   90.3471837 +1  110.2857870 +1    34    32    28
  H     1.09581059 +1  148.8653113 +1 -115.6992411 +1    34    32    28
  H     1.09707991 +1   80.8751264 +1   -0.6195058 +1    34    32    28
  H     1.68061756 +1  107.1669602 +1 -118.3901879 +1    27    26    22
  O     1.00103535 +1  176.7546416 +1  -81.6442491 +1    38    27    26

 *+*+*+*+*+*+*+*+*+*+*+*+*+*+*+*+*+*+*+*+*+*+*+*+*+*+*+*+*+*+*+*+*+*+*+*+*+*+*+*+
            BAR SHORTENED BY       1.000 PERCENT
 GRADIENT CRITERION IN FLEPO =     1.000
           THERE HAVE BEEN 3 ATTEMPTS TO REDUCE THE GRADIENT.
           DURING THESE ATTEMPTS THE ENERGY DROPPED BY LESS THAN 0.3 KCAL/MOLE
           FURTHER CALCULATION IS NOT JUSTIFIED AT THIS TIME.
           TO CONTINUE, START AGAIN WITH THE WORD "PRECISE"


          FOR POINT    4 SECOND STRUCTURE
 DISTANCE A - B      7.105828
 HEAT             -120.851236
 GRADIENT NORM       6.761945
 DIRECTION COSINE   -0.066019
* ===============================
* Input file for Mopac
* ===============================
 PM7 BONDS AUX DUMP=30M ITRY=15000 T=14D CHARGE=0 SINGLET eps=32.66 RELSCF=1


  C     0.00000000 +0    0.0000000 +0    0.0000000 +0     0     0     0
  C     1.40813676 +1    0.0000000 +0    0.0000000 +0     1     0     0
  C     1.42952336 +1  120.6378913 +1    0.0000000 +0     2     1     0
  C     1.40730282 +1  121.1086631 +1   -1.2574529 +1     3     2     1
  C     1.37925220 +1  117.1915247 +1    1.7300534 +1     4     3     2
  N     1.39036263 +1  129.7180605 +1  179.3256107 +1     5     4     3
  C     1.39916930 +1  108.3103575 +1 -179.8582364 +1     6     5     4
  C     1.37997808 +1  110.1914367 +1   -0.5755334 +1     7     6     5
  C     1.37561730 +1  118.9318782 +1    0.0312450 +1     1     2     3
  H     1.06860152 +1  127.5239643 +1 -179.6596585 +1     8     7     6
  H     1.07818640 +1  120.3062180 +1  179.4175601 +1     7     6     5
  H     1.08992045 +1  120.7936792 +1 -178.3084376 +1     4     3     2
  H     1.09141380 +1  119.9642331 +1 -179.8893189 +1     1     2     3
  N     1.38576963 +1  121.1897153 +1  178.2718328 +1     3     2     1
  C     1.31649445 +1  119.2227802 +1    1.4902933 +1    14     3     2
  C     1.43143419 +1  123.0424464 +1   -0.2102639 +1    15    14     3
  H     1.08867803 +1  118.8664697 +1  179.5635750 +1    16    15    14
  H     1.10102978 +1  117.0563376 +1 -179.9736616 +1    15    14     3
  C     1.36455186 +1  118.9808288 +1   -0.8259502 +1    16    15    14
  H     1.09349988 +1  121.4255914 +1 -179.5466622 +1    19    16    15
  H     1.01325009 +1  124.6385183 +1   -3.4410067 +1     6     5     4
  C     3.04214877 +1  108.8777335 +1  -70.2058855 +1    12     4     3
  H     1.09293366 +1   53.8998544 +1  -43.7077964 +1    22    12     4
  H     1.09674084 +1  132.1911540 +1   42.1016302 +1    22    12     4
  H     1.09734680 +1  116.7962635 +1 -140.3713283 +1    22    12     4
  H     1.98983634 +1   48.0104232 +1   94.6956940 +1    22    12     4
  O     0.99361767 +1   42.0449663 +1   97.0739561 +1    26    22    12
  C     2.58511745 +1  151.9055499 +1  100.7315635 +1    21     6     5
  H     1.09578185 +1  153.4616294 +1 -144.1930654 +1    28    21     6
  H     1.09550865 +1   81.2117334 +1  -24.8151425 +1    28    21     6
  H     1.09650031 +1   85.5044203 +1   86.9583987 +1    28    21     6
  H     1.99611484 +1   59.9340230 +1 -126.4878181 +1    28    21     6
  O     1.00012106 +1   41.6539398 +1  -46.7300922 +1    32    28    21
  C     2.51162882 +1  118.7191208 +1  168.8439341 +1    32    28    21
  H     1.09474659 +1   90.3370637 +1  110.2335123 +1    34    32    28
  H     1.09536812 +1  148.9101899 +1 -115.8875993 +1    34    32    28
  H     1.09726300 +1   80.8130005 +1   -0.6181637 +1    34    32    28
  H     1.67980894 +1  107.4449330 +1 -118.2471441 +1    27    26    22
  O     1.00082773 +1  176.5914085 +1  -83.6186578 +1    38    27    26

 TIME=    12.82
  REACTANTS AND PRODUCTS SWAPPED AROUND
 *+*+*+*+*+*+*+*+*+*+*+*+*+*+*+*+*+*+*+*+*+*+*+*+*+*+*+*+*+*+*+*+*+*+*+*+*+*+*+*+
            BAR SHORTENED BY       1.000 PERCENT
 GRADIENT CRITERION IN FLEPO =     3.762


          FOR POINT    5 FIRST  STRUCTURE
 DISTANCE A - B      7.034770
 HEAT             -119.450354
 GRADIENT NORM       8.461463
 DIRECTION COSINE    0.008172
* ===============================
* Input file for Mopac
* ===============================
 PM7 BONDS AUX DUMP=30M ITRY=15000 T=14D CHARGE=0 SINGLET eps=32.66 RELSCF=1


  C     0.00000000 +0    0.0000000 +0    0.0000000 +0     0     0     0
  C     1.40972383 +1    0.0000000 +0    0.0000000 +0     1     0     0
  C     1.42924605 +1  120.5359917 +1    0.0000000 +0     2     1     0
  C     1.40743852 +1  121.3384665 +1    0.4987727 +1     3     2     1
  C     1.38029743 +1  116.9604220 +1   -0.3452175 +1     4     3     2
  N     1.39047922 +1  129.6084003 +1 -179.2045408 +1     5     4     3
  C     1.39996564 +1  108.2737625 +1 -179.4941171 +1     6     5     4
  C     1.37963892 +1  110.2113791 +1   -1.4334599 +1     7     6     5
  C     1.37407561 +1  118.9205528 +1   -0.3857054 +1     1     2     3
  H     1.07097051 +1  127.5197309 +1 -179.0795031 +1     8     7     6
  H     1.08045216 +1  120.2120270 +1  179.3506973 +1     7     6     5
  H     1.08609265 +1  121.0712944 +1  179.4603259 +1     4     3     2
  H     1.09119167 +1  119.9682612 +1  179.7058696 +1     1     2     3
  N     1.38641895 +1  121.1012557 +1 -179.3969742 +1     3     2     1
  C     1.31741120 +1  119.2777423 +1   -0.4806534 +1    14     3     2
  C     1.43058749 +1  123.0279257 +1    0.0210665 +1    15    14     3
  H     1.08780468 +1  119.0345269 +1 -179.9021733 +1    16    15    14
  H     1.10061328 +1  117.0234615 +1  179.9850967 +1    15    14     3
  C     1.36564920 +1  118.9333042 +1    0.3883786 +1    16    15    14
  H     1.09466504 +1  121.4400587 +1  179.7272425 +1    19    16    15
  H     1.01431243 +1  124.2542722 +1   -8.4721608 +1     6     5     4
  C     3.70121923 +1  134.9770820 +1   -0.4019839 +1    12     4     3
  H     1.09814495 +1   78.0391139 +1  -99.2304186 +1    22    12     4
  H     1.10026144 +1  120.7089484 +1    7.9279956 +1    22    12     4
  H     1.09783084 +1  119.8660791 +1  153.4909658 +1    22    12     4
  H     1.96339012 +1  108.7196680 +1  167.3767580 +1    14     3     2
  O     0.99841134 +1  174.6608693 +1 -108.1911662 +1    26    14     3
  C     2.61506003 +1  167.9851004 +1  161.4848569 +1    21     6     5
  H     1.09731573 +1  151.2798467 +1  175.3563728 +1    28    21     6
  H     1.10235196 +1   85.5440012 +1  -57.6250041 +1    28    21     6
  H     1.09664868 +1   83.5770559 +1   53.8318406 +1    28    21     6
  H     2.00011055 +1   58.9766457 +1 -156.5049717 +1    28    21     6
  O     0.99718944 +1   41.2833630 +1  -42.4047114 +1    32    28    21
  C     2.47171621 +1  116.5753924 +1  173.6203475 +1    32    28    21
  H     1.09584981 +1   91.2760898 +1  107.2211359 +1    34    32    28
  H     1.09606338 +1  149.9164636 +1 -114.5800122 +1    34    32    28
  H     1.09873022 +1   78.4215486 +1   -3.7367722 +1    34    32    28
  H     1.68324009 +1  115.0603638 +1  124.8649176 +1    27    26    14
  O     0.99960333 +1  173.8450647 +1 -170.8115127 +1    38    27    26

 TIME=     0.98
  REACTANTS AND PRODUCTS SWAPPED AROUND
 *+*+*+*+*+*+*+*+*+*+*+*+*+*+*+*+*+*+*+*+*+*+*+*+*+*+*+*+*+*+*+*+*+*+*+*+*+*+*+*+
            BAR SHORTENED BY       1.000 PERCENT
 GRADIENT CRITERION IN FLEPO =     5.461


          FOR POINT    6 SECOND STRUCTURE
 DISTANCE A - B      6.964422
 HEAT             -120.694425
 GRADIENT NORM       7.897803
 DIRECTION COSINE   -0.111022
* ===============================
* Input file for Mopac
* ===============================
 PM7 BONDS AUX DUMP=30M ITRY=15000 T=14D CHARGE=0 SINGLET eps=32.66 RELSCF=1


  C     0.00000000 +0    0.0000000 +0    0.0000000 +0     0     0     0
  C     1.40788133 +1    0.0000000 +0    0.0000000 +0     1     0     0
  C     1.42883542 +1  120.5750378 +1    0.0000000 +0     2     1     0
  C     1.40702811 +1  121.2619566 +1   -1.2492039 +1     3     2     1
  C     1.37975562 +1  117.0571701 +1    1.7152893 +1     4     3     2
  N     1.38967129 +1  129.6193466 +1  179.4193989 +1     5     4     3
  C     1.39964306 +1  108.2267104 +1 -179.7621058 +1     6     5     4
  C     1.37932384 +1  110.2203860 +1   -0.7786400 +1     7     6     5
  C     1.37494810 +1  118.9013422 +1    0.0877830 +1     1     2     3
  H     1.06813481 +1  127.5774660 +1 -179.4908911 +1     8     7     6
  H     1.07870975 +1  120.1738359 +1  179.4924241 +1     7     6     5
  H     1.08702048 +1  120.6511324 +1 -178.4201185 +1     4     3     2
  H     1.09204340 +1  119.9471445 +1 -179.9189865 +1     1     2     3
  N     1.38665379 +1  121.1591066 +1  178.3311271 +1     3     2     1
  C     1.31783278 +1  119.1586942 +1    1.4243357 +1    14     3     2
  C     1.43052590 +1  123.0600191 +1   -0.1719073 +1    15    14     3
  H     1.08908785 +1  118.8198557 +1  179.6601812 +1    16    15    14
  H     1.10447206 +1  117.0641777 +1 -179.8259542 +1    15    14     3
  C     1.36521864 +1  118.9976571 +1   -0.8406373 +1    16    15    14
  H     1.09332767 +1  121.3678090 +1 -179.5177319 +1    19    16    15
  H     1.01351640 +1  124.6788827 +1   -3.5867828 +1     6     5     4
  C     3.04143197 +1  109.5024746 +1  -69.7500697 +1    12     4     3
  H     1.09366044 +1   53.8753358 +1  -43.9132638 +1    22    12     4
  H     1.10198486 +1  133.0601210 +1   41.6267808 +1    22    12     4
  H     1.09776288 +1  116.8304478 +1 -141.0000007 +1    22    12     4
  H     1.98905319 +1   47.8202677 +1   94.5963916 +1    22    12     4
  O     0.99430842 +1   42.1862282 +1   97.0860340 +1    26    22    12
  C     2.58085928 +1  152.1242234 +1  101.4338747 +1    21     6     5
  H     1.09637457 +1  153.4789962 +1 -144.5264154 +1    28    21     6
  H     1.09596254 +1   81.2046487 +1  -25.1335066 +1    28    21     6
  H     1.09681132 +1   85.4822060 +1   86.6724009 +1    28    21     6
  H     1.99594301 +1   59.8822584 +1 -126.7593520 +1    28    21     6
  O     0.99918826 +1   41.6541801 +1  -46.7276156 +1    32    28    21
  C     2.51302432 +1  118.6666197 +1  168.8761265 +1    32    28    21
  H     1.09474140 +1   90.3183319 +1  110.1792682 +1    34    32    28
  H     1.09556440 +1  148.8892496 +1 -116.0693856 +1    34    32    28
  H     1.09661363 +1   80.7738713 +1   -0.6812391 +1    34    32    28
  H     1.67859963 +1  107.6323791 +1 -117.9625226 +1    27    26    22
  O     1.00222262 +1  176.2900067 +1  -85.6970695 +1    38    27    26

 TIME=     6.43
  REACTANTS AND PRODUCTS SWAPPED AROUND
 *+*+*+*+*+*+*+*+*+*+*+*+*+*+*+*+*+*+*+*+*+*+*+*+*+*+*+*+*+*+*+*+*+*+*+*+*+*+*+*+
            BAR SHORTENED BY       1.000 PERCENT
 GRADIENT CRITERION IN FLEPO =     4.898


          FOR POINT    7 FIRST  STRUCTURE
 DISTANCE A - B      6.894778
 HEAT             -119.486370
 GRADIENT NORM       9.071648
 DIRECTION COSINE   -0.138574
* ===============================
* Input file for Mopac
* ===============================
 PM7 BONDS AUX DUMP=30M ITRY=15000 T=14D CHARGE=0 SINGLET eps=32.66 RELSCF=1


  C     0.00000000 +0    0.0000000 +0    0.0000000 +0     0     0     0
  C     1.40837557 +1    0.0000000 +0    0.0000000 +0     1     0     0
  C     1.42884818 +1  120.5779840 +1    0.0000000 +0     2     1     0
  C     1.40735261 +1  121.3516396 +1    0.4674290 +1     3     2     1
  C     1.37972525 +1  116.9274581 +1   -0.2986589 +1     4     3     2
  N     1.39203343 +1  129.6072516 +1 -179.2024951 +1     5     4     3
  C     1.40049444 +1  108.2718896 +1 -179.5021661 +1     6     5     4
  C     1.37957115 +1  110.1888090 +1   -1.4666911 +1     7     6     5
  C     1.37486729 +1  118.8724078 +1   -0.2563510 +1     1     2     3
  H     1.06880411 +1  127.6010946 +1 -178.9907336 +1     8     7     6
  H     1.07959328 +1  120.1813786 +1  179.1566510 +1     7     6     5
  H     1.08698863 +1  121.0781712 +1  179.5367363 +1     4     3     2
  H     1.09309201 +1  120.1005396 +1  179.7505995 +1     1     2     3
  N     1.38586671 +1  121.1118468 +1 -179.4175826 +1     3     2     1
  C     1.31980904 +1  119.3391979 +1   -0.5053203 +1    14     3     2
  C     1.43032331 +1  122.8496022 +1    0.0466023 +1    15    14     3
  H     1.08870396 +1  118.9006380 +1 -179.9071296 +1    16    15    14
  H     1.09799524 +1  116.9972893 +1  179.9066365 +1    15    14     3
  C     1.36551970 +1  119.0561608 +1    0.3456525 +1    16    15    14
  H     1.09391287 +1  121.4558815 +1  179.7034962 +1    19    16    15
  H     1.01351821 +1  124.1419251 +1   -8.3033465 +1     6     5     4
  C     3.68728046 +1  134.9524772 +1   -1.2562268 +1    12     4     3
  H     1.09662812 +1   78.2219567 +1  -99.1477874 +1    22    12     4
  H     1.09479942 +1  120.7928309 +1    8.3514370 +1    22    12     4
  H     1.10087048 +1  119.9868694 +1  154.4138922 +1    22    12     4
  H     1.95711873 +1  108.7178176 +1  167.7494030 +1    14     3     2
  O     0.99824461 +1  174.5319361 +1 -109.7087898 +1    26    14     3
  C     2.61270032 +1  167.7633315 +1  160.9350794 +1    21     6     5
  H     1.09530369 +1  151.2871587 +1  175.5206275 +1    28    21     6
  H     1.09570964 +1   85.6965137 +1  -57.5533698 +1    28    21     6
  H     1.09685187 +1   83.5329160 +1   54.0034853 +1    28    21     6
  H     2.00037441 +1   58.9525434 +1 -156.6258995 +1    28    21     6
  O     0.99406302 +1   41.2461625 +1  -42.4063473 +1    32    28    21
  C     2.47491110 +1  116.5468092 +1  173.1795234 +1    32    28    21
  H     1.09565676 +1   90.9969339 +1  107.6010612 +1    34    32    28
  H     1.09453350 +1  150.0537919 +1 -114.4120215 +1    34    32    28
  H     1.09663731 +1   78.3816032 +1   -3.3886453 +1    34    32    28
  H     1.68188927 +1  115.1549855 +1  126.0263597 +1    27    26    14
  O     1.00034805 +1  173.4787155 +1 -161.7999457 +1    38    27    26

 TIME=     3.02
  REACTANTS AND PRODUCTS SWAPPED AROUND
 *+*+*+*+*+*+*+*+*+*+*+*+*+*+*+*+*+*+*+*+*+*+*+*+*+*+*+*+*+*+*+*+*+*+*+*+*+*+*+*+
            BAR SHORTENED BY       1.000 PERCENT
 GRADIENT CRITERION IN FLEPO =     6.072


          FOR POINT    8 SECOND STRUCTURE
 DISTANCE A - B      6.825830
 HEAT             -120.703767
 GRADIENT NORM       9.916119
 DIRECTION COSINE   -0.124234
* ===============================
* Input file for Mopac
* ===============================
 PM7 BONDS AUX DUMP=30M ITRY=15000 T=14D CHARGE=0 SINGLET eps=32.66 RELSCF=1


  C     0.00000000 +0    0.0000000 +0    0.0000000 +0     0     0     0
  C     1.40761846 +1    0.0000000 +0    0.0000000 +0     1     0     0
  C     1.42876054 +1  120.5941200 +1    0.0000000 +0     2     1     0
  C     1.40642032 +1  121.3045773 +1   -1.1617008 +1     3     2     1
  C     1.38048063 +1  117.0154432 +1    1.5917369 +1     4     3     2
  N     1.38990433 +1  129.6477461 +1  179.4250221 +1     5     4     3
  C     1.39933307 +1  108.2527104 +1 -179.6951942 +1     6     5     4
  C     1.37793486 +1  110.2940815 +1   -0.8294356 +1     7     6     5
  C     1.37520314 +1  118.8959445 +1    0.0239530 +1     1     2     3
  H     1.06843359 +1  127.8377501 +1 -179.5098943 +1     8     7     6
  H     1.07993409 +1  120.1222580 +1  179.6259636 +1     7     6     5
  H     1.08605056 +1  120.8795937 +1 -178.4045120 +1     4     3     2
  H     1.09148302 +1  119.9675079 +1 -179.9576114 +1     1     2     3
  N     1.38638178 +1  121.1792496 +1  178.3622398 +1     3     2     1
  C     1.31681870 +1  119.1511166 +1    1.4044128 +1    14     3     2
  C     1.43099463 +1  123.0629066 +1   -0.1485045 +1    15    14     3
  H     1.08801968 +1  118.8708399 +1  179.6453396 +1    16    15    14
  H     1.10175023 +1  117.0759266 +1 -179.8302584 +1    15    14     3
  C     1.36461560 +1  119.0192236 +1   -0.8441776 +1    16    15    14
  H     1.09353595 +1  121.4475568 +1 -179.4827778 +1    19    16    15
  H     1.01334580 +1  124.6392569 +1   -3.5183886 +1     6     5     4
  C     3.04226912 +1  109.8580753 +1  -69.1763111 +1    12     4     3
  H     1.09196977 +1   53.8664429 +1  -44.3832248 +1    22    12     4
  H     1.09703585 +1  132.4844633 +1   41.1850749 +1    22    12     4
  H     1.09959335 +1  117.1550972 +1 -140.6642719 +1    22    12     4
  H     1.98470266 +1   47.7747719 +1   94.0054526 +1    22    12     4
  O     0.99273569 +1   42.1439033 +1   96.9881627 +1    26    22    12
  C     2.57826401 +1  152.3392438 +1  101.9638393 +1    21     6     5
  H     1.09500288 +1  153.3961299 +1 -144.9085917 +1    28    21     6
  H     1.09506687 +1   81.2400182 +1  -25.3812049 +1    28    21     6
  H     1.09758802 +1   85.4166755 +1   86.4550900 +1    28    21     6
  H     1.99590868 +1   59.9097981 +1 -126.9936272 +1    28    21     6
  O     0.99956357 +1   41.6259206 +1  -46.6621725 +1    32    28    21
  C     2.50994692 +1  118.6515690 +1  168.9478255 +1    32    28    21
  H     1.09431062 +1   90.3135216 +1  110.1319595 +1    34    32    28
  H     1.09891586 +1  148.8476234 +1 -116.2310947 +1    34    32    28
  H     1.09924563 +1   81.0940199 +1   -0.9999633 +1    34    32    28
  H     1.68259587 +1  107.6556158 +1 -118.0382041 +1    27    26    22
  O     0.99803287 +1  176.6562701 +1  -95.4059175 +1    38    27    26

 TIME=     1.82
  REACTANTS AND PRODUCTS SWAPPED AROUND
 *+*+*+*+*+*+*+*+*+*+*+*+*+*+*+*+*+*+*+*+*+*+*+*+*+*+*+*+*+*+*+*+*+*+*+*+*+*+*+*+
            BAR SHORTENED BY       1.000 PERCENT
 GRADIENT CRITERION IN FLEPO =     6.916


          FOR POINT    9 FIRST  STRUCTURE
 DISTANCE A - B      6.757572
 HEAT             -119.446307
 GRADIENT NORM       9.298374
 DIRECTION COSINE   -0.222424
* ===============================
* Input file for Mopac
* ===============================
 PM7 BONDS AUX DUMP=30M ITRY=15000 T=14D CHARGE=0 SINGLET eps=32.66 RELSCF=1


  C     0.00000000 +0    0.0000000 +0    0.0000000 +0     0     0     0
  C     1.40823880 +1    0.0000000 +0    0.0000000 +0     1     0     0
  C     1.42874790 +1  120.5705187 +1    0.0000000 +0     2     1     0
  C     1.40741917 +1  121.3770768 +1    0.4574526 +1     3     2     1
  C     1.37942422 +1  116.9079991 +1   -0.2845287 +1     4     3     2
  N     1.39025093 +1  129.6682339 +1  179.4360782 +1     5     4     3
  C     1.39849870 +1  108.3956523 +1  179.9573742 +1     6     5     4
  C     1.37937848 +1  110.1634306 +1    0.4588988 +1     7     6     5
  C     1.37462165 +1  118.8631024 +1   -0.2405791 +1     1     2     3
  H     1.06870225 +1  127.6197401 +1 -179.9070681 +1     8     7     6
  H     1.07945952 +1  120.2308531 +1  179.8181624 +1     7     6     5
  H     1.08664217 +1  121.0889979 +1  179.5541339 +1     4     3     2
  H     1.09235669 +1  120.0707020 +1  179.7629014 +1     1     2     3
  N     1.38554958 +1  121.0987018 +1 -179.4358403 +1     3     2     1
  C     1.31861231 +1  119.3296047 +1   -0.4641850 +1    14     3     2
  C     1.43031288 +1  122.8967071 +1    0.0472829 +1    15    14     3
  H     1.08820266 +1  118.9522301 +1 -179.8475994 +1    16    15    14
  H     1.09908383 +1  116.9868814 +1  179.9067366 +1    15    14     3
  C     1.36531197 +1  119.0302891 +1    0.2881056 +1    16    15    14
  H     1.09376326 +1  121.4296063 +1  179.7257230 +1    19    16    15
  H     1.01348092 +1  124.2930175 +1   -5.4807570 +1     6     5     4
  C     3.67514772 +1  134.9356448 +1   -1.9326406 +1    12     4     3
  H     1.09356474 +1   77.7885847 +1  -98.4951382 +1    22    12     4
  H     1.09511843 +1  120.8488845 +1    8.6189882 +1    22    12     4
  H     1.09581709 +1  120.1614282 +1  154.9034314 +1    22    12     4
  H     1.95326855 +1  108.7312068 +1  168.0891325 +1    14     3     2
  O     0.99690563 +1  174.5193275 +1 -110.5122809 +1    26    14     3
  C     2.61049928 +1  167.9944104 +1  161.6427471 +1    21     6     5
  H     1.09505892 +1  151.2722850 +1  172.5094259 +1    28    21     6
  H     1.09563393 +1   85.8087362 +1  -60.5476940 +1    28    21     6
  H     1.09662970 +1   83.4425757 +1   50.9413013 +1    28    21     6
  H     2.00018919 +1   59.0164186 +1 -159.5065598 +1    28    21     6
  O     0.99557468 +1   41.2387426 +1  -42.2361150 +1    32    28    21
  C     2.47345323 +1  116.6415796 +1  173.3990460 +1    32    28    21
  H     1.09525636 +1   90.9664779 +1  107.6291143 +1    34    32    28
  H     1.09472493 +1  150.0842992 +1 -114.5219813 +1    34    32    28
  H     1.09692359 +1   78.4411576 +1   -3.3790195 +1    34    32    28
  H     1.68051254 +1  115.2020660 +1  126.3939359 +1    27    26    14
  O     1.00116642 +1  173.1735608 +1 -159.0765938 +1    38    27    26

 TIME=     4.71
  REACTANTS AND PRODUCTS SWAPPED AROUND
 *+*+*+*+*+*+*+*+*+*+*+*+*+*+*+*+*+*+*+*+*+*+*+*+*+*+*+*+*+*+*+*+*+*+*+*+*+*+*+*+
            BAR SHORTENED BY       1.000 PERCENT
 GRADIENT CRITERION IN FLEPO =     6.298


          FOR POINT   10 SECOND STRUCTURE
 DISTANCE A - B      6.689996
 HEAT             -120.653565
 GRADIENT NORM       8.577700
 DIRECTION COSINE   -0.144579
* ===============================
* Input file for Mopac
* ===============================
 PM7 BONDS AUX DUMP=30M ITRY=15000 T=14D CHARGE=0 SINGLET eps=32.66 RELSCF=1


  C     0.00000000 +0    0.0000000 +0    0.0000000 +0     0     0     0
  C     1.40800607 +1    0.0000000 +0    0.0000000 +0     1     0     0
  C     1.42854396 +1  120.5715348 +1    0.0000000 +0     2     1     0
  C     1.40723492 +1  121.3889076 +1   -1.1390019 +1     3     2     1
  C     1.38018188 +1  116.8908338 +1    1.5353474 +1     4     3     2
  N     1.38974146 +1  129.5687295 +1  179.4471115 +1     5     4     3
  C     1.39876611 +1  108.2610559 +1 -179.7079281 +1     6     5     4
  C     1.37941784 +1  110.2430398 +1   -0.7947098 +1     7     6     5
  C     1.37524023 +1  118.8598427 +1    0.0795044 +1     1     2     3
  H     1.06510927 +1  127.7867403 +1 -178.4652943 +1     8     7     6
  H     1.07904924 +1  120.0530810 +1  179.8823956 +1     7     6     5
  H     1.08623694 +1  120.9623330 +1 -178.3407702 +1     4     3     2
  H     1.09556029 +1  119.9771460 +1  179.9335756 +1     1     2     3
  N     1.38652856 +1  121.1635664 +1  178.3834877 +1     3     2     1
  C     1.31943009 +1  119.1775633 +1    1.3296971 +1    14     3     2
  C     1.43046257 +1  122.9350524 +1   -0.0568184 +1    15    14     3
  H     1.08774035 +1  118.8295233 +1  179.6692782 +1    16    15    14
  H     1.09827930 +1  117.0084024 +1 -179.7962242 +1    15    14     3
  C     1.36520938 +1  119.1103802 +1   -0.9197140 +1    16    15    14
  H     1.09410973 +1  121.4983871 +1 -179.2934568 +1    19    16    15
  H     1.01467472 +1  124.4675606 +1   -2.6411895 +1     6     5     4
  C     3.04614501 +1  110.0896883 +1  -68.7952103 +1    12     4     3
  H     1.09426511 +1   53.8338064 +1  -44.6580153 +1    22    12     4
  H     1.09362550 +1  131.9889706 +1   41.2215250 +1    22    12     4
  H     1.09599994 +1  116.6932802 +1 -141.3967340 +1    22    12     4
  H     1.98930768 +1   47.6705718 +1   93.6573392 +1    22    12     4
  O     0.99563830 +1   42.2454617 +1   96.9867092 +1    26    22    12
  C     2.56924635 +1  153.3973049 +1  102.8732290 +1    21     6     5
  H     1.09801445 +1  153.4990832 +1 -145.7385989 +1    28    21     6
  H     1.09570012 +1   81.0404326 +1  -26.5651909 +1    28    21     6
  H     1.09620504 +1   85.5595940 +1   85.2393146 +1    28    21     6
  H     1.99763847 +1   59.9374600 +1 -128.2874369 +1    28    21     6
  O     1.00173666 +1   41.6274996 +1  -46.8460825 +1    32    28    21
  C     2.51002754 +1  118.6267969 +1  168.7145296 +1    32    28    21
  H     1.09539268 +1   90.1944901 +1  110.0141878 +1    34    32    28
  H     1.09591488 +1  148.8258309 +1 -116.5067212 +1    34    32    28
  H     1.09557844 +1   80.9997987 +1   -1.0038140 +1    34    32    28
  H     1.68082303 +1  107.7364079 +1 -117.5911802 +1    27    26    22
  O     1.00153042 +1  176.2208426 +1  -96.0181987 +1    38    27    26

 TIME=     0.51
  REACTANTS AND PRODUCTS SWAPPED AROUND
 *+*+*+*+*+*+*+*+*+*+*+*+*+*+*+*+*+*+*+*+*+*+*+*+*+*+*+*+*+*+*+*+*+*+*+*+*+*+*+*+
            BAR SHORTENED BY       1.000 PERCENT
 GRADIENT CRITERION IN FLEPO =     5.578


          FOR POINT   11 FIRST  STRUCTURE
 DISTANCE A - B      6.623096
 HEAT             -119.488782
 GRADIENT NORM       7.885625
 DIRECTION COSINE   -0.115087
* ===============================
* Input file for Mopac
* ===============================
 PM7 BONDS AUX DUMP=30M ITRY=15000 T=14D CHARGE=0 SINGLET eps=32.66 RELSCF=1


  C     0.00000000 +0    0.0000000 +0    0.0000000 +0     0     0     0
  C     1.40800818 +1    0.0000000 +0    0.0000000 +0     1     0     0
  C     1.42902664 +1  120.5968714 +1    0.0000000 +0     2     1     0
  C     1.40735896 +1  121.3525834 +1    0.4439449 +1     3     2     1
  C     1.37922725 +1  116.8966002 +1   -0.0623326 +1     4     3     2
  N     1.39054346 +1  129.5945215 +1 -179.6709866 +1     5     4     3
  C     1.39917135 +1  108.3333976 +1  179.9380091 +1     6     5     4
  C     1.37983919 +1  110.2636181 +1   -0.9259573 +1     7     6     5
  C     1.37615794 +1  118.9190582 +1   -0.1217314 +1     1     2     3
  H     1.07036056 +1  127.6455672 +1 -179.6799274 +1     8     7     6
  H     1.08059170 +1  120.2174677 +1  179.4892107 +1     7     6     5
  H     1.08704643 +1  121.0603557 +1  179.5585008 +1     4     3     2
  H     1.09232058 +1  120.1678365 +1  179.9098149 +1     1     2     3
  N     1.38505521 +1  121.1282536 +1 -179.3842784 +1     3     2     1
  C     1.31843210 +1  119.2779245 +1   -0.6931009 +1    14     3     2
  C     1.43044330 +1  122.9611370 +1    0.2656163 +1    15    14     3
  H     1.08705200 +1  118.9582033 +1  179.8271843 +1    16    15    14
  H     1.10009342 +1  116.9495942 +1 -179.9530213 +1    15    14     3
  C     1.36480464 +1  119.0033491 +1    0.2023801 +1    16    15    14
  H     1.09260597 +1  121.4367763 +1  179.6185817 +1    19    16    15
  H     1.01410674 +1  124.2558620 +1   -7.3565943 +1     6     5     4
  C     3.66611028 +1  134.9361685 +1   -2.7408897 +1    12     4     3
  H     1.09791523 +1   77.2095003 +1  -97.8251070 +1    22    12     4
  H     1.09661473 +1  121.3103813 +1    8.9651944 +1    22    12     4
  H     1.09970108 +1  120.2708919 +1  155.6467582 +1    22    12     4
  H     1.94311116 +1  108.6392284 +1  168.4875701 +1    14     3     2
  O     0.99916575 +1  174.2047000 +1 -113.8735476 +1    26    14     3
  C     2.60753689 +1  167.6307165 +1  159.0241186 +1    21     6     5
  H     1.09622898 +1  151.3685809 +1  176.2059119 +1    28    21     6
  H     1.09669252 +1   85.7786582 +1  -57.0161801 +1    28    21     6
  H     1.09540649 +1   83.4225654 +1   54.3149770 +1    28    21     6
  H     1.99994890 +1   59.0753527 +1 -155.9201866 +1    28    21     6
  O     0.99740765 +1   41.2720068 +1  -42.2761923 +1    32    28    21
  C     2.47260054 +1  116.7028065 +1  173.4913334 +1    32    28    21
  H     1.09615981 +1   90.8638822 +1  107.7229202 +1    34    32    28
  H     1.09506380 +1  150.0873437 +1 -114.8261596 +1    34    32    28
  H     1.09831098 +1   78.8601614 +1   -3.2399329 +1    34    32    28
  H     1.68348788 +1  114.9137120 +1  129.0810714 +1    27    26    14
  O     0.99984543 +1  172.5952475 +1 -160.8620416 +1    38    27    26

 TIME=     2.00
  REACTANTS AND PRODUCTS SWAPPED AROUND
 *+*+*+*+*+*+*+*+*+*+*+*+*+*+*+*+*+*+*+*+*+*+*+*+*+*+*+*+*+*+*+*+*+*+*+*+*+*+*+*+
            BAR SHORTENED BY       1.000 PERCENT
 GRADIENT CRITERION IN FLEPO =     4.886


          FOR POINT   12 SECOND STRUCTURE
 DISTANCE A - B      6.556865
 HEAT             -120.627249
 GRADIENT NORM       9.683447
 DIRECTION COSINE   -0.333249
* ===============================
* Input file for Mopac
* ===============================
 PM7 BONDS AUX DUMP=30M ITRY=15000 T=14D CHARGE=0 SINGLET eps=32.66 RELSCF=1


  C     0.00000000 +0    0.0000000 +0    0.0000000 +0     0     0     0
  C     1.40808282 +1    0.0000000 +0    0.0000000 +0     1     0     0
  C     1.42871011 +1  120.6766215 +1    0.0000000 +0     2     1     0
  C     1.40770310 +1  121.3069587 +1   -1.1545311 +1     3     2     1
  C     1.38013729 +1  116.9264176 +1    1.5473705 +1     4     3     2
  N     1.38945444 +1  129.5685052 +1  179.4455629 +1     5     4     3
  C     1.39849465 +1  108.2482271 +1 -179.7528819 +1     6     5     4
  C     1.37899334 +1  110.1996449 +1   -0.8195487 +1     7     6     5
  C     1.37547282 +1  118.7630286 +1    0.0881885 +1     1     2     3
  H     1.06775728 +1  127.6996549 +1 -178.7872053 +1     8     7     6
  H     1.08161884 +1  120.0908450 +1  179.8470214 +1     7     6     5
  H     1.08631968 +1  120.9476937 +1 -178.3480101 +1     4     3     2
  H     1.09309145 +1  120.0234376 +1  179.9127519 +1     1     2     3
  N     1.38462139 +1  121.2540516 +1  178.4327576 +1     3     2     1
  C     1.31826968 +1  119.1291885 +1    1.2437222 +1    14     3     2
  C     1.43044402 +1  123.0216082 +1   -0.0103165 +1    15    14     3
  H     1.08730262 +1  118.9184100 +1  179.6226284 +1    16    15    14
  H     1.09953107 +1  116.9749514 +1 -179.7918812 +1    15    14     3
  C     1.36508307 +1  119.0506172 +1   -0.9264151 +1    16    15    14
  H     1.09377107 +1  121.4956727 +1 -179.3331108 +1    19    16    15
  H     1.01400922 +1  124.5705851 +1   -2.7913528 +1     6     5     4
  C     3.04400692 +1  110.4738760 +1  -68.3061473 +1    12     4     3
  H     1.09083094 +1   53.9263712 +1  -44.9794260 +1    22    12     4
  H     1.09890603 +1  132.7754860 +1   41.2964908 +1    22    12     4
  H     1.09709357 +1  116.9241046 +1 -142.0948080 +1    22    12     4
  H     1.98378990 +1   47.6259505 +1   93.3200071 +1    22    12     4
  O     0.99416143 +1   42.2520550 +1   96.8533057 +1    26    22    12
  C     2.56824262 +1  153.4714039 +1  103.1146886 +1    21     6     5
  H     1.09590799 +1  153.4365777 +1 -145.7513422 +1    28    21     6
  H     1.09505226 +1   81.0943668 +1  -26.4671993 +1    28    21     6
  H     1.09684421 +1   85.4838921 +1   85.3459786 +1    28    21     6
  H     1.99684456 +1   59.9485632 +1 -128.1471826 +1    28    21     6
  O     1.00165255 +1   41.7028667 +1  -46.8484562 +1    32    28    21
  C     2.50994697 +1  118.6503298 +1  168.7834151 +1    32    28    21
  H     1.09653950 +1   90.1437589 +1  109.9864638 +1    34    32    28
  H     1.09558077 +1  148.8919187 +1 -116.5173268 +1    34    32    28
  H     1.09565892 +1   80.9755500 +1   -1.0045457 +1    34    32    28
  H     1.67984226 +1  107.9665352 +1 -117.5381518 +1    27    26    22
  O     1.00094237 +1  176.1074806 +1  -97.2393466 +1    38    27    26

 TIME=     9.96
  REACTANTS AND PRODUCTS SWAPPED AROUND
 *+*+*+*+*+*+*+*+*+*+*+*+*+*+*+*+*+*+*+*+*+*+*+*+*+*+*+*+*+*+*+*+*+*+*+*+*+*+*+*+
            BAR SHORTENED BY       1.000 PERCENT
 GRADIENT CRITERION IN FLEPO =     6.683


          FOR POINT   13 FIRST  STRUCTURE
 DISTANCE A - B      6.491297
 HEAT             -119.456579
 GRADIENT NORM       8.242501
 DIRECTION COSINE   -0.375988
* ===============================
* Input file for Mopac
* ===============================
 PM7 BONDS AUX DUMP=30M ITRY=15000 T=14D CHARGE=0 SINGLET eps=32.66 RELSCF=1


  C     0.00000000 +0    0.0000000 +0    0.0000000 +0     0     0     0
  C     1.40783603 +1    0.0000000 +0    0.0000000 +0     1     0     0
  C     1.42876279 +1  120.5791062 +1    0.0000000 +0     2     1     0
  C     1.40704980 +1  121.3960183 +1    0.5355951 +1     3     2     1
  C     1.37936109 +1  116.8696751 +1   -0.1961057 +1     4     3     2
  N     1.39009236 +1  129.5626984 +1 -179.6004697 +1     5     4     3
  C     1.39953317 +1  108.3074817 +1 -179.8824074 +1     6     5     4
  C     1.38002564 +1  110.2320406 +1   -1.0134818 +1     7     6     5
  C     1.37543938 +1  118.8926688 +1   -0.1976903 +1     1     2     3
  H     1.06923715 +1  127.6397745 +1 -179.4168516 +1     8     7     6
  H     1.07920645 +1  120.2668382 +1  178.3864932 +1     7     6     5
  H     1.08672471 +1  121.1067227 +1  179.6204104 +1     4     3     2
  H     1.09195392 +1  120.1101972 +1  179.9001902 +1     1     2     3
  N     1.38500758 +1  121.1028571 +1 -179.4059201 +1     3     2     1
  C     1.31772525 +1  119.2806839 +1   -0.5931503 +1    14     3     2
  C     1.43033378 +1  122.9859604 +1    0.2399400 +1    15    14     3
  H     1.08732039 +1  119.0063836 +1  179.9283334 +1    16    15    14
  H     1.10002457 +1  116.9598340 +1 -179.9854965 +1    15    14     3
  C     1.36483906 +1  118.9901437 +1    0.1383243 +1    16    15    14
  H     1.09413991 +1  121.4960324 +1  179.6968970 +1    19    16    15
  H     1.01659529 +1  124.2468157 +1   -7.3759299 +1     6     5     4
  C     3.65479629 +1  134.8759004 +1   -3.5566971 +1    12     4     3
  H     1.09410083 +1   76.9894095 +1  -97.2602703 +1    22    12     4
  H     1.09519305 +1  121.2636422 +1    9.4015999 +1    22    12     4
  H     1.09630725 +1  120.1853592 +1  156.2604958 +1    22    12     4
  H     1.94131606 +1  108.6578918 +1  168.4703884 +1    14     3     2
  O     0.99549093 +1  175.0833017 +1 -119.0508974 +1    26    14     3
  C     2.60312956 +1  167.4277839 +1  158.0597858 +1    21     6     5
  H     1.09518227 +1  151.3530066 +1  177.1165647 +1    28    21     6
  H     1.09587772 +1   85.7184775 +1  -56.1861357 +1    28    21     6
  H     1.09597606 +1   83.4316489 +1   55.1635805 +1    28    21     6
  H     1.99923430 +1   59.0866316 +1 -154.8672878 +1    28    21     6
  O     1.00082497 +1   41.3842309 +1  -42.4850599 +1    32    28    21
  C     2.47192814 +1  116.8044016 +1  173.8777172 +1    32    28    21
  H     1.09533980 +1   91.0142846 +1  107.4625617 +1    34    32    28
  H     1.09515553 +1  149.9259766 +1 -115.0518338 +1    34    32    28
  H     1.09789287 +1   78.8346940 +1   -3.7641404 +1    34    32    28
  H     1.68175906 +1  115.1901934 +1  133.5660963 +1    27    26    14
  O     1.00017486 +1  172.5580097 +1 -158.8496455 +1    38    27    26

 TIME=     4.56
  REACTANTS AND PRODUCTS SWAPPED AROUND
 *+*+*+*+*+*+*+*+*+*+*+*+*+*+*+*+*+*+*+*+*+*+*+*+*+*+*+*+*+*+*+*+*+*+*+*+*+*+*+*+
            BAR SHORTENED BY       1.000 PERCENT
 GRADIENT CRITERION IN FLEPO =     5.243


          FOR POINT   14 SECOND STRUCTURE
 DISTANCE A - B      6.426384
 HEAT             -120.585737
 GRADIENT NORM      14.004519
 DIRECTION COSINE   -0.185449
* ===============================
* Input file for Mopac
* ===============================
 PM7 BONDS AUX DUMP=30M ITRY=15000 T=14D CHARGE=0 SINGLET eps=32.66 RELSCF=1


  C     0.00000000 +0    0.0000000 +0    0.0000000 +0     0     0     0
  C     1.40795918 +1    0.0000000 +0    0.0000000 +0     1     0     0
  C     1.43048243 +1  120.4807322 +1    0.0000000 +0     2     1     0
  C     1.40381171 +1  121.4708565 +1   -1.1197589 +1     3     2     1
  C     1.37843602 +1  116.9801392 +1    1.7937900 +1     4     3     2
  N     1.39095658 +1  129.6340144 +1  179.5050270 +1     5     4     3
  C     1.39826044 +1  108.2293167 +1 -179.8818708 +1     6     5     4
  C     1.38089169 +1  110.2746757 +1   -0.9541033 +1     7     6     5
  C     1.37379554 +1  118.8010032 +1   -0.2781280 +1     1     2     3
  H     1.06931484 +1  127.7125283 +1 -179.1371169 +1     8     7     6
  H     1.07852918 +1  120.2223320 +1  179.5411977 +1     7     6     5
  H     1.08854854 +1  120.7664643 +1 -178.3725899 +1     4     3     2
  H     1.09104848 +1  120.0282126 +1 -179.7316103 +1     1     2     3
  N     1.38762021 +1  121.0598719 +1  178.7848369 +1     3     2     1
  C     1.31675451 +1  119.1444233 +1    0.9273435 +1    14     3     2
  C     1.43102950 +1  123.1088104 +1    0.1016389 +1    15    14     3
  H     1.08834921 +1  118.8596701 +1  179.2704113 +1    16    15    14
  H     1.10200967 +1  116.9637656 +1 -179.8281707 +1    15    14     3
  C     1.36337805 +1  119.1538814 +1   -0.8717694 +1    16    15    14
  H     1.09093678 +1  121.7167047 +1 -179.5838238 +1    19    16    15
  H     1.01439573 +1  124.5476730 +1   -3.5525568 +1     6     5     4
  C     3.04312998 +1  111.0598177 +1  -67.7485631 +1    12     4     3
  H     1.09194190 +1   53.9977431 +1  -45.1327734 +1    22    12     4
  H     1.09428211 +1  132.0287369 +1   41.1686162 +1    22    12     4
  H     1.10020991 +1  117.3202543 +1 -141.2552974 +1    22    12     4
  H     1.98214132 +1   47.4472331 +1   93.0760086 +1    22    12     4
  O     0.99476644 +1   42.2513423 +1   96.6421677 +1    26    22    12
  C     2.56607573 +1  153.2001817 +1  103.9646321 +1    21     6     5
  H     1.09502387 +1  153.3516960 +1 -146.0831595 +1    28    21     6
  H     1.09770706 +1   81.2015387 +1  -26.4857530 +1    28    21     6
  H     1.09802194 +1   85.4792557 +1   85.3350396 +1    28    21     6
  H     1.99571115 +1   59.8394858 +1 -128.1863851 +1    28    21     6
  O     0.99839574 +1   41.7042779 +1  -46.8556632 +1    32    28    21
  C     2.51022517 +1  118.5850331 +1  168.9515146 +1    32    28    21
  H     1.09600920 +1   90.0504674 +1  109.9988257 +1    34    32    28
  H     1.09724518 +1  148.9940992 +1 -116.8110202 +1    34    32    28
  H     1.09583241 +1   81.1230922 +1   -1.1880162 +1    34    32    28
  H     1.67893910 +1  108.1453073 +1 -117.5306354 +1    27    26    22
  O     1.00168668 +1  176.1250365 +1 -100.5108391 +1    38    27    26

 TIME=     0.91
  REACTANTS AND PRODUCTS SWAPPED AROUND
 *+*+*+*+*+*+*+*+*+*+*+*+*+*+*+*+*+*+*+*+*+*+*+*+*+*+*+*+*+*+*+*+*+*+*+*+*+*+*+*+
            BAR SHORTENED BY       1.000 PERCENT
 GRADIENT CRITERION IN FLEPO =    10.000


          FOR POINT   15 FIRST  STRUCTURE
 DISTANCE A - B      6.362120
 HEAT             -119.426352
 GRADIENT NORM      14.957360
 DIRECTION COSINE   -0.087005
* ===============================
* Input file for Mopac
* ===============================
 PM7 BONDS AUX DUMP=30M ITRY=15000 T=14D CHARGE=0 SINGLET eps=32.66 RELSCF=1


  C     0.00000000 +0    0.0000000 +0    0.0000000 +0     0     0     0
  C     1.41155155 +1    0.0000000 +0    0.0000000 +0     1     0     0
  C     1.42832285 +1  120.5896391 +1    0.0000000 +0     2     1     0
  C     1.40634084 +1  121.6444499 +1    0.6950479 +1     3     2     1
  C     1.38212573 +1  116.6913006 +1   -0.5474414 +1     4     3     2
  N     1.39079765 +1  129.4297235 +1 -179.5229156 +1     5     4     3
  C     1.40286330 +1  108.2016756 +1 -179.5310094 +1     6     5     4
  C     1.37931036 +1  110.0879968 +1   -1.1295066 +1     7     6     5
  C     1.37544584 +1  118.5596112 +1   -0.1919925 +1     1     2     3
  H     1.06964297 +1  127.4412974 +1 -179.4258241 +1     8     7     6
  H     1.08128032 +1  120.1273177 +1  178.8475494 +1     7     6     5
  H     1.08415876 +1  121.3872533 +1  179.4615622 +1     4     3     2
  H     1.08893816 +1  120.2605238 +1  179.7816625 +1     1     2     3
  N     1.38701706 +1  120.9714305 +1 -179.4463057 +1     3     2     1
  C     1.32019399 +1  119.4919022 +1   -0.5175095 +1    14     3     2
  C     1.43021261 +1  122.6323351 +1    0.2411522 +1    15    14     3
  H     1.08826722 +1  118.9506697 +1  179.8736648 +1    16    15    14
  H     1.09896500 +1  117.0969430 +1 -179.9246838 +1    15    14     3
  C     1.36777371 +1  119.1997783 +1    0.1953736 +1    16    15    14
  H     1.09172621 +1  121.3947535 +1  179.7068572 +1    19    16    15
  H     1.01318237 +1  124.2390299 +1   -7.4764535 +1     6     5     4
  C     3.64708080 +1  134.7062644 +1   -4.2080917 +1    12     4     3
  H     1.09274474 +1   76.5119720 +1  -96.8856631 +1    22    12     4
  H     1.09465873 +1  121.1081770 +1    9.5467186 +1    22    12     4
  H     1.09617120 +1  120.1692125 +1  156.8609422 +1    22    12     4
  H     1.93536020 +1  108.6314542 +1  169.0306243 +1    14     3     2
  O     0.99724248 +1  174.8039431 +1 -117.2832967 +1    26    14     3
  C     2.60485362 +1  167.0542558 +1  156.4348178 +1    21     6     5
  H     1.09543647 +1  151.8547495 +1  178.2931002 +1    28    21     6
  H     1.09594127 +1   85.6077549 +1  -54.5645604 +1    28    21     6
  H     1.09788644 +1   83.3178012 +1   56.8268268 +1    28    21     6
  H     1.99910201 +1   59.0039932 +1 -153.3529698 +1    28    21     6
  O     0.99696318 +1   41.4551603 +1  -42.8505435 +1    32    28    21
  C     2.47521750 +1  116.7328028 +1  173.7676958 +1    32    28    21
  H     1.09700745 +1   90.8529964 +1  107.5078221 +1    34    32    28
  H     1.09627592 +1  149.9755490 +1 -115.3344483 +1    34    32    28
  H     1.09542953 +1   78.9941834 +1   -3.4526193 +1    34    32    28
  H     1.67774756 +1  115.3791495 +1  131.2681450 +1    27    26    14
  O     1.00233458 +1  172.6117209 +1 -157.7098583 +1    38    27    26

 TIME=     0.54
  REACTANTS AND PRODUCTS SWAPPED AROUND
 *+*+*+*+*+*+*+*+*+*+*+*+*+*+*+*+*+*+*+*+*+*+*+*+*+*+*+*+*+*+*+*+*+*+*+*+*+*+*+*+
            BAR SHORTENED BY       1.000 PERCENT
 GRADIENT CRITERION IN FLEPO =    10.000


          FOR POINT   16 SECOND STRUCTURE
 DISTANCE A - B      6.298499
 HEAT             -120.603914
 GRADIENT NORM      14.564230
 DIRECTION COSINE   -0.321801
* ===============================
* Input file for Mopac
* ===============================
 PM7 BONDS AUX DUMP=30M ITRY=15000 T=14D CHARGE=0 SINGLET eps=32.66 RELSCF=1


  C     0.00000000 +0    0.0000000 +0    0.0000000 +0     0     0     0
  C     1.40953920 +1    0.0000000 +0    0.0000000 +0     1     0     0
  C     1.42761029 +1  120.6135980 +1    0.0000000 +0     2     1     0
  C     1.40822642 +1  121.4874637 +1   -1.0734323 +1     3     2     1
  C     1.38046896 +1  116.8216701 +1    1.7212552 +1     4     3     2
  N     1.38747996 +1  129.4259708 +1  179.6959632 +1     5     4     3
  C     1.40064231 +1  108.2908984 +1  179.8755078 +1     6     5     4
  C     1.37911588 +1  110.0272176 +1   -0.8657569 +1     7     6     5
  C     1.37751987 +1  118.6046504 +1   -0.0763477 +1     1     2     3
  H     1.06911253 +1  127.5201340 +1 -179.1374516 +1     8     7     6
  H     1.07792429 +1  120.1735852 +1  179.4138912 +1     7     6     5
  H     1.08462256 +1  120.9102210 +1 -178.5740402 +1     4     3     2
  H     1.09155153 +1  120.2463710 +1  179.9067121 +1     1     2     3
  N     1.38578466 +1  121.0892041 +1  178.4806505 +1     3     2     1
  C     1.31835679 +1  119.3343423 +1    1.3014954 +1    14     3     2
  C     1.43071858 +1  122.7944004 +1   -0.1698078 +1    15    14     3
  H     1.08792654 +1  118.7971839 +1  179.6190040 +1    16    15    14
  H     1.09795410 +1  117.2440680 +1 -179.9065260 +1    15    14     3
  C     1.36621883 +1  119.1593097 +1   -0.8986710 +1    16    15    14
  H     1.09524270 +1  121.4317819 +1 -179.4930167 +1    19    16    15
  H     1.01369763 +1  124.8566177 +1   -3.9922499 +1     6     5     4
  C     3.04631197 +1  111.4693712 +1  -67.2015580 +1    12     4     3
  H     1.09234924 +1   53.9190369 +1  -45.5711238 +1    22    12     4
  H     1.09542754 +1  131.6819096 +1   40.6503201 +1    22    12     4
  H     1.09574201 +1  117.0752762 +1 -142.0112004 +1    22    12     4
  H     1.98151476 +1   47.4407114 +1   92.5792319 +1    22    12     4
  O     0.99635077 +1   42.3122470 +1   96.4869408 +1    26    22    12
  C     2.56554754 +1  153.2563122 +1  104.0010357 +1    21     6     5
  H     1.09679271 +1  153.3020822 +1 -145.8249007 +1    28    21     6
  H     1.09484479 +1   81.3616160 +1  -26.0898174 +1    28    21     6
  H     1.09308565 +1   85.5572004 +1   85.7586698 +1    28    21     6
  H     1.99722267 +1   59.9867820 +1 -127.6187895 +1    28    21     6
  O     1.00300537 +1   41.6490429 +1  -46.6929575 +1    32    28    21
  C     2.50857179 +1  118.7776575 +1  169.1217825 +1    32    28    21
  H     1.09567121 +1   89.8776945 +1  109.8486992 +1    34    32    28
  H     1.09346539 +1  148.8961208 +1 -116.6936320 +1    34    32    28
  H     1.10215372 +1   81.8512801 +1   -0.5508199 +1    34    32    28
  H     1.67747821 +1  108.2968006 +1 -117.5158283 +1    27    26    22
  O     1.00340791 +1  176.0401683 +1 -105.5803085 +1    38    27    26

 TIME=     0.60
  REACTANTS AND PRODUCTS SWAPPED AROUND
 *+*+*+*+*+*+*+*+*+*+*+*+*+*+*+*+*+*+*+*+*+*+*+*+*+*+*+*+*+*+*+*+*+*+*+*+*+*+*+*+
            BAR SHORTENED BY       1.000 PERCENT
 GRADIENT CRITERION IN FLEPO =    10.000


          FOR POINT   17 FIRST  STRUCTURE
 DISTANCE A - B      6.235514
 HEAT             -119.488454
 GRADIENT NORM      12.602529
 DIRECTION COSINE    0.024664
* ===============================
* Input file for Mopac
* ===============================
 PM7 BONDS AUX DUMP=30M ITRY=15000 T=14D CHARGE=0 SINGLET eps=32.66 RELSCF=1


  C     0.00000000 +0    0.0000000 +0    0.0000000 +0     0     0     0
  C     1.40672262 +1    0.0000000 +0    0.0000000 +0     1     0     0
  C     1.43090284 +1  120.6700579 +1    0.0000000 +0     2     1     0
  C     1.40768451 +1  121.3435661 +1    0.3487125 +1     3     2     1
  C     1.37769429 +1  116.8849611 +1    0.0690439 +1     4     3     2
  N     1.39216108 +1  129.6025244 +1 -179.4745943 +1     5     4     3
  C     1.39818123 +1  108.3174721 +1 -179.7416326 +1     6     5     4
  C     1.37987601 +1  110.2911648 +1   -1.4749713 +1     7     6     5
  C     1.37626083 +1  118.8039943 +1   -0.1827430 +1     1     2     3
  H     1.06908047 +1  127.4481096 +1  179.7668694 +1     8     7     6
  H     1.08016422 +1  120.2702661 +1  179.0332488 +1     7     6     5
  H     1.08726339 +1  121.0611318 +1  179.4021775 +1     4     3     2
  H     1.09284754 +1  120.3285668 +1 -179.8649898 +1     1     2     3
  N     1.38506403 +1  121.0014330 +1 -179.4673968 +1     3     2     1
  C     1.31693734 +1  119.5064700 +1   -0.4712052 +1    14     3     2
  C     1.43007812 +1  122.8820767 +1    0.0210261 +1    15    14     3
  H     1.08809345 +1  118.9338674 +1 -179.9155249 +1    16    15    14
  H     1.10317617 +1  116.9435123 +1 -179.9407317 +1    15    14     3
  C     1.36567263 +1  118.9325875 +1    0.2425401 +1    16    15    14
  H     1.09517436 +1  121.4618960 +1  179.7500552 +1    19    16    15
  H     1.01654215 +1  124.0704816 +1   -8.3414992 +1     6     5     4
  C     3.63633871 +1  134.8417992 +1   -4.2976955 +1    12     4     3
  H     1.09170946 +1   76.2330658 +1  -96.9036102 +1    22    12     4
  H     1.09438479 +1  121.1882781 +1    9.4778513 +1    22    12     4
  H     1.09537069 +1  120.1979362 +1  157.1863986 +1    22    12     4
  H     1.93275671 +1  108.4778341 +1  169.0552725 +1    14     3     2
  O     0.99746188 +1  174.9058535 +1 -119.0262656 +1    26    14     3
  C     2.60084476 +1  166.6521429 +1  153.7475227 +1    21     6     5
  H     1.09731971 +1  151.5542550 +1 -178.9372206 +1    28    21     6
  H     1.10234656 +1   85.3395603 +1  -51.7245779 +1    28    21     6
  H     1.09492786 +1   83.2576971 +1   59.7832215 +1    28    21     6
  H     2.00144767 +1   59.1105213 +1 -150.5925652 +1    28    21     6
  O     0.99807502 +1   41.2566398 +1  -42.9142720 +1    32    28    21
  C     2.47584696 +1  116.8452584 +1  173.6764126 +1    32    28    21
  H     1.09658126 +1   90.4849168 +1  107.7613441 +1    34    32    28
  H     1.09548124 +1  149.9899979 +1 -115.4881819 +1    34    32    28
  H     1.09809241 +1   78.9865631 +1   -3.1108099 +1    34    32    28
  H     1.68080102 +1  115.5080309 +1  132.3846356 +1    27    26    14
  O     0.99988383 +1  172.4977967 +1 -159.5942986 +1    38    27    26

 TIME=     0.56
  REACTANTS AND PRODUCTS SWAPPED AROUND
 *+*+*+*+*+*+*+*+*+*+*+*+*+*+*+*+*+*+*+*+*+*+*+*+*+*+*+*+*+*+*+*+*+*+*+*+*+*+*+*+
            BAR SHORTENED BY       1.000 PERCENT
 GRADIENT CRITERION IN FLEPO =     9.603


          FOR POINT   18 SECOND STRUCTURE
 DISTANCE A - B      6.173159
 HEAT             -120.553144
 GRADIENT NORM      18.360260
 DIRECTION COSINE   -0.293990
* ===============================
* Input file for Mopac
* ===============================
 PM7 BONDS AUX DUMP=30M ITRY=15000 T=14D CHARGE=0 SINGLET eps=32.66 RELSCF=1


  C     0.00000000 +0    0.0000000 +0    0.0000000 +0     0     0     0
  C     1.40629763 +1    0.0000000 +0    0.0000000 +0     1     0     0
  C     1.43163747 +1  120.5054515 +1    0.0000000 +0     2     1     0
  C     1.40351818 +1  121.3946132 +1   -0.6378000 +1     3     2     1
  C     1.37734718 +1  117.0300853 +1    1.2974202 +1     4     3     2
  N     1.39110209 +1  129.6381620 +1  179.6941276 +1     5     4     3
  C     1.39705861 +1  108.2352899 +1  179.9692544 +1     6     5     4
  C     1.38013745 +1  110.3190115 +1   -0.8504704 +1     7     6     5
  C     1.37252882 +1  118.7800614 +1   -0.3438906 +1     1     2     3
  H     1.06541014 +1  127.7613271 +1 -179.5476219 +1     8     7     6
  H     1.07891053 +1  119.9276279 +1 -179.8914651 +1     7     6     5
  H     1.08870661 +1  121.0046288 +1 -178.4994542 +1     4     3     2
  H     1.09141714 +1  119.9237596 +1  179.8242451 +1     1     2     3
  N     1.38830516 +1  121.0409714 +1  178.5916479 +1     3     2     1
  C     1.31663299 +1  119.1429463 +1    1.3428388 +1    14     3     2
  C     1.43075418 +1  123.2436068 +1   -0.1562442 +1    15    14     3
  H     1.09600473 +1  118.7873965 +1  179.6849909 +1    16    15    14
  H     1.10346016 +1  116.9101706 +1  179.9545233 +1    15    14     3
  C     1.36550405 +1  118.9433597 +1   -0.7474985 +1    16    15    14
  H     1.09185203 +1  121.4076642 +1 -179.4984581 +1    19    16    15
  H     1.01370250 +1  124.5371325 +1   -3.5580077 +1     6     5     4
  C     3.04916367 +1  111.5244522 +1  -66.9649627 +1    12     4     3
  H     1.09245689 +1   53.9306738 +1  -45.9583892 +1    22    12     4
  H     1.09438914 +1  131.9833258 +1   40.5557457 +1    22    12     4
  H     1.09427563 +1  117.0693787 +1 -142.6062866 +1    22    12     4
  H     1.97942999 +1   47.3852831 +1   92.0615571 +1    22    12     4
  O     0.99728294 +1   42.3565768 +1   96.2490233 +1    26    22    12
  C     2.56351901 +1  153.4625981 +1  104.6934757 +1    21     6     5
  H     1.09491452 +1  153.3294604 +1 -147.1496893 +1    28    21     6
  H     1.09565438 +1   81.3434233 +1  -26.6070762 +1    28    21     6
  H     1.09857753 +1   85.4062760 +1   84.9566985 +1    28    21     6
  H     1.99405258 +1   59.8546738 +1 -128.4371074 +1    28    21     6
  O     0.99860686 +1   41.8038619 +1  -46.8722579 +1    32    28    21
  C     2.51181578 +1  118.5786802 +1  169.0682384 +1    32    28    21
  H     1.09642626 +1   89.7484731 +1  110.2273223 +1    34    32    28
  H     1.09621911 +1  148.8750021 +1 -116.9728954 +1    34    32    28
  H     1.09559374 +1   81.6888382 +1   -0.5471660 +1    34    32    28
  H     1.68037810 +1  108.5178350 +1 -117.4812499 +1    27    26    22
  O     1.00179653 +1  176.0180070 +1 -103.7664882 +1    38    27    26

 TIME=     0.59
  REACTANTS AND PRODUCTS SWAPPED AROUND
 *+*+*+*+*+*+*+*+*+*+*+*+*+*+*+*+*+*+*+*+*+*+*+*+*+*+*+*+*+*+*+*+*+*+*+*+*+*+*+*+
            BAR SHORTENED BY       1.000 PERCENT
 GRADIENT CRITERION IN FLEPO =    10.000


          FOR POINT   19 FIRST  STRUCTURE
 DISTANCE A - B      6.111427
 HEAT             -119.427512
 GRADIENT NORM      17.630846
 DIRECTION COSINE    0.195703
* ===============================
* Input file for Mopac
* ===============================
 PM7 BONDS AUX DUMP=30M ITRY=15000 T=14D CHARGE=0 SINGLET eps=32.66 RELSCF=1


  C     0.00000000 +0    0.0000000 +0    0.0000000 +0     0     0     0
  C     1.41132551 +1    0.0000000 +0    0.0000000 +0     1     0     0
  C     1.42733154 +1  120.5748920 +1    0.0000000 +0     2     1     0
  C     1.40636493 +1  121.6879196 +1    0.7201982 +1     3     2     1
  C     1.38203981 +1  116.6425406 +1   -0.5105631 +1     4     3     2
  N     1.38955290 +1  129.3738740 +1 -179.6168681 +1     5     4     3
  C     1.40316837 +1  108.1753829 +1 -179.4524188 +1     6     5     4
  C     1.37783866 +1  110.2083358 +1   -0.5674246 +1     7     6     5
  C     1.37761587 +1  118.6093118 +1   -0.3407171 +1     1     2     3
  H     1.07034291 +1  127.5003103 +1 -178.7699775 +1     8     7     6
  H     1.07946877 +1  120.3007862 +1  179.2280829 +1     7     6     5
  H     1.08357270 +1  121.4604528 +1  179.2655414 +1     4     3     2
  H     1.08920840 +1  120.1713624 +1  179.9499653 +1     1     2     3
  N     1.38653794 +1  120.9900430 +1 -179.5137435 +1     3     2     1
  C     1.31976144 +1  119.4369260 +1   -0.2661392 +1    14     3     2
  C     1.43340777 +1  122.8209425 +1    0.0534610 +1    15    14     3
  H     1.08535210 +1  119.0823979 +1 -179.9015952 +1    16    15    14
  H     1.09789841 +1  117.0664092 +1 -179.9965964 +1    15    14     3
  C     1.36534456 +1  118.9395635 +1    0.1633053 +1    16    15    14
  H     1.09194597 +1  121.4647078 +1 -179.8860332 +1    19    16    15
  H     1.01295901 +1  124.3529952 +1   -7.8537719 +1     6     5     4
  C     3.63016583 +1  134.5998610 +1   -5.1196367 +1    12     4     3
  H     1.08909075 +1   75.7692625 +1  -96.4273423 +1    22    12     4
  H     1.09368733 +1  121.2631641 +1    9.7469743 +1    22    12     4
  H     1.09411228 +1  120.1429584 +1  157.8361411 +1    22    12     4
  H     1.92683109 +1  108.6508271 +1  169.4461624 +1    14     3     2
  O     0.99595991 +1  175.1447950 +1 -120.3844554 +1    26    14     3
  C     2.60395277 +1  166.4794639 +1  152.1634012 +1    21     6     5
  H     1.09292406 +1  151.4708904 +1 -177.8606312 +1    28    21     6
  H     1.09698495 +1   85.3436463 +1  -50.6655699 +1    28    21     6
  H     1.09833633 +1   83.0837563 +1   61.0580807 +1    28    21     6
  H     2.00034286 +1   59.1158872 +1 -149.3379985 +1    28    21     6
  O     0.99792324 +1   41.5942928 +1  -42.7910656 +1    32    28    21
  C     2.47627527 +1  116.9091655 +1  173.7828276 +1    32    28    21
  H     1.09590596 +1   90.5878137 +1  107.9479388 +1    34    32    28
  H     1.09719794 +1  149.9675672 +1 -115.8124058 +1    34    32    28
  H     1.09499743 +1   79.1060259 +1   -3.2772532 +1    34    32    28
  H     1.67630178 +1  115.6658839 +1  133.3200574 +1    27    26    14
  O     1.00444755 +1  172.2403360 +1 -157.3889896 +1    38    27    26

 TIME=     0.58
  REACTANTS AND PRODUCTS SWAPPED AROUND
 *+*+*+*+*+*+*+*+*+*+*+*+*+*+*+*+*+*+*+*+*+*+*+*+*+*+*+*+*+*+*+*+*+*+*+*+*+*+*+*+
            BAR SHORTENED BY       1.000 PERCENT
 GRADIENT CRITERION IN FLEPO =    10.000


          FOR POINT   20 SECOND STRUCTURE
 DISTANCE A - B      6.050313
 HEAT             -120.563480
 GRADIENT NORM      16.091698
 DIRECTION COSINE    0.049646
* ===============================
* Input file for Mopac
* ===============================
 PM7 BONDS AUX DUMP=30M ITRY=15000 T=14D CHARGE=0 SINGLET eps=32.66 RELSCF=1


  C     0.00000000 +0    0.0000000 +0    0.0000000 +0     0     0     0
  C     1.40742986 +1    0.0000000 +0    0.0000000 +0     1     0     0
  C     1.42851891 +1  120.5323555 +1    0.0000000 +0     2     1     0
  C     1.40622524 +1  121.5159568 +1   -0.8793883 +1     3     2     1
  C     1.37890405 +1  116.8727532 +1    1.4975922 +1     4     3     2
  N     1.38921518 +1  129.5015720 +1  179.6562376 +1     5     4     3
  C     1.39669343 +1  108.2049756 +1  179.5796700 +1     6     5     4
  C     1.38043887 +1  110.2583015 +1   -0.2460526 +1     7     6     5
  C     1.37562271 +1  118.7106231 +1   -0.1839866 +1     1     2     3
  H     1.06753517 +1  127.6957505 +1 -179.4642448 +1     8     7     6
  H     1.08415534 +1  120.2264677 +1  179.5681030 +1     7     6     5
  H     1.08664156 +1  120.9976781 +1 -178.4697198 +1     4     3     2
  H     1.09436914 +1  120.0937181 +1  179.7482440 +1     1     2     3
  N     1.38634042 +1  121.0617876 +1  178.6551329 +1     3     2     1
[...]
  C     1.37945957 +1  110.1636719 +1   -0.9743086 +1     7     6     5
  C     1.37557809 +1  119.0084295 +1   -0.5390384 +1     1     2     3
  H     1.06886992 +1  127.5336562 +1 -179.2291635 +1     8     7     6
  H     1.08005224 +1  120.2225930 +1  179.5046728 +1     7     6     5
  H     1.08671588 +1  120.9246717 +1  179.3394155 +1     4     3     2
  H     1.09166455 +1  119.9764593 +1  179.5316372 +1     1     2     3
  N     1.38610113 +1  121.0288723 +1 -179.1042109 +1     3     2     1
  C     1.31689241 +1  119.4893280 +1   -0.9289291 +1    14     3     2
  C     1.43069202 +1  122.8747969 +1    0.1757987 +1    15    14     3
  H     1.08801228 +1  118.9415699 +1 -179.4778450 +1    16    15    14
  H     1.10069287 +1  117.1167991 +1 -179.8211226 +1    15    14     3
  C     1.36555032 +1  118.9337200 +1    0.4875689 +1    16    15    14
  H     1.09364230 +1  121.3653168 +1  179.6792451 +1    19    16    15
  H     1.01380492 +1  124.4334430 +1   -5.7138403 +1     6     5     4
  C     3.34919828 +1  131.5983415 +1  -31.6600043 +1    12     4     3
  H     1.09484752 +1   64.1989796 +1  -74.9307313 +1    22    12     4
  H     1.09500720 +1  125.0518005 +1   23.2527417 +1    22    12     4
  H     1.09560293 +1  122.4515349 +1 -174.3182194 +1    22    12     4
  H     1.92947789 +1  110.8099034 +1  178.3698501 +1    14     3     2
  O     1.00070532 +1  173.4561986 +1   87.6844610 +1    26    14     3
  C     2.58308974 +1  161.2730508 +1  131.5005899 +1    21     6     5
  H     1.09526749 +1  152.7877626 +1 -163.8060114 +1    28    21     6
  H     1.09573634 +1   84.1839454 +1  -38.6537565 +1    28    21     6
  H     1.09699360 +1   83.4469295 +1   73.0681229 +1    28    21     6
  H     1.99903752 +1   59.8287900 +1 -138.0128055 +1    28    21     6
  O     0.99826757 +1   41.4405743 +1  -44.5682951 +1    32    28    21
  C     2.47102626 +1  118.4258357 +1  173.9118172 +1    32    28    21
  H     1.09592995 +1   89.2670759 +1  109.1328492 +1    34    32    28
  H     1.09526021 +1  150.5499337 +1 -116.8080335 +1    34    32    28
  H     1.09637051 +1   80.0973058 +1   -1.9834485 +1    34    32    28
  H     1.68665896 +1  114.0270732 +1 -101.8715829 +1    27    26    14
  O     1.00148383 +1  171.6888072 +1 -155.1812542 +1    38    27    26

 TIME=     1.04
  REACTANTS AND PRODUCTS SWAPPED AROUND
 *+*+*+*+*+*+*+*+*+*+*+*+*+*+*+*+*+*+*+*+*+*+*+*+*+*+*+*+*+*+*+*+*+*+*+*+*+*+*+*+
            BAR SHORTENED BY       1.000 PERCENT
 GRADIENT CRITERION IN FLEPO =     2.013


          FOR POINT  324 SECOND STRUCTURE
 DISTANCE A - B      0.328083
 HEAT             -120.200124
 GRADIENT NORM       1.618360
 DIRECTION COSINE   -0.782885
* ===============================
* Input file for Mopac
* ===============================
 PM7 BONDS AUX DUMP=30M ITRY=15000 T=14D CHARGE=0 SINGLET eps=32.66 RELSCF=1


  C     0.00000000 +0    0.0000000 +0    0.0000000 +0     0     0     0
  C     1.40892975 +1    0.0000000 +0    0.0000000 +0     1     0     0
  C     1.42911742 +1  120.4982647 +1    0.0000000 +0     2     1     0
  C     1.40761725 +1  121.3182227 +1    0.8579075 +1     3     2     1
  C     1.38040058 +1  117.0307076 +1   -0.4509604 +1     4     3     2
  N     1.39069196 +1  129.6697404 +1 -179.5612999 +1     5     4     3
  C     1.39948228 +1  108.3466861 +1 -179.8360232 +1     6     5     4
  C     1.37946694 +1  110.1694154 +1   -0.9681665 +1     7     6     5
  C     1.37564632 +1  119.0098925 +1   -0.5231756 +1     1     2     3
  H     1.06888071 +1  127.5262285 +1 -179.1971606 +1     8     7     6
  H     1.08009121 +1  120.2144559 +1  179.5566726 +1     7     6     5
  H     1.08655913 +1  120.9403011 +1  179.3907435 +1     4     3     2
  H     1.09171174 +1  119.9823762 +1  179.5372969 +1     1     2     3
  N     1.38622759 +1  121.0378938 +1 -179.1973340 +1     3     2     1
  C     1.31698983 +1  119.4644757 +1   -0.8847497 +1    14     3     2
  C     1.43065566 +1  122.8965183 +1    0.1914583 +1    15    14     3
  H     1.08800901 +1  118.9401222 +1 -179.6617880 +1    16    15    14
  H     1.10070497 +1  117.0737479 +1 -179.8391048 +1    15    14     3
  C     1.36561476 +1  118.9331316 +1    0.4574752 +1    16    15    14
  H     1.09362793 +1  121.3737636 +1  179.6660630 +1    19    16    15
  H     1.01382323 +1  124.4370896 +1   -5.6879422 +1     6     5     4
  C     3.30967863 +1  130.4605418 +1  -35.1934575 +1    12     4     3
  H     1.09433748 +1   62.8930417 +1  -71.8992823 +1    22    12     4
  H     1.09524214 +1  125.5895546 +1   25.1262182 +1    22    12     4
  H     1.09550092 +1  122.1705676 +1 -170.6368353 +1    22    12     4
  H     1.92848782 +1  110.9964974 +1 -179.8326562 +1    14     3     2
  O     1.00079058 +1  172.6126284 +1   79.9866176 +1    26    14     3
  C     2.58135821 +1  160.5737098 +1  129.2143254 +1    21     6     5
  H     1.09524796 +1  152.8618030 +1 -162.3111970 +1    28    21     6
  H     1.09598694 +1   84.0027887 +1  -37.3351157 +1    28    21     6
  H     1.09672105 +1   83.4413915 +1   74.3752059 +1    28    21     6
  H     1.99905526 +1   59.8593272 +1 -136.7533757 +1    28    21     6
  O     0.99861556 +1   41.4462406 +1  -44.7255135 +1    32    28    21
  C     2.47043157 +1  118.4648966 +1  173.8749400 +1    32    28    21
  H     1.09577663 +1   89.0990631 +1  108.9620886 +1    34    32    28
  H     1.09517091 +1  150.5345645 +1 -117.2997031 +1    34    32    28
  H     1.09649817 +1   80.3329320 +1   -2.2359689 +1    34    32    28
  H     1.68584299 +1  113.8435284 +1  -97.8892526 +1    27    26    14
  O     1.00161678 +1  171.8853276 +1 -153.4783638 +1    38    27    26

 TIME=     0.19
  REACTANTS AND PRODUCTS SWAPPED AROUND
 *+*+*+*+*+*+*+*+*+*+*+*+*+*+*+*+*+*+*+*+*+*+*+*+*+*+*+*+*+*+*+*+*+*+*+*+*+*+*+*+
            BAR SHORTENED BY       1.000 PERCENT
 GRADIENT CRITERION IN FLEPO =     2.013


          FOR POINT  325 FIRST  STRUCTURE
 DISTANCE A - B      0.324803
 HEAT             -120.191970
 GRADIENT NORM       1.817681
 DIRECTION COSINE   -0.787400
* ===============================
* Input file for Mopac
* ===============================
 PM7 BONDS AUX DUMP=30M ITRY=15000 T=14D CHARGE=0 SINGLET eps=32.66 RELSCF=1


  C     0.00000000 +0    0.0000000 +0    0.0000000 +0     0     0     0
  C     1.40889215 +1    0.0000000 +0    0.0000000 +0     1     0     0
  C     1.42897156 +1  120.4949423 +1    0.0000000 +0     2     1     0
  C     1.40763687 +1  121.3251082 +1    0.9112891 +1     3     2     1
  C     1.38039859 +1  117.0275843 +1   -0.5091260 +1     4     3     2
  N     1.39063466 +1  129.6742975 +1 -179.5002671 +1     5     4     3
  C     1.39956683 +1  108.3455118 +1 -179.8648759 +1     6     5     4
  C     1.37945964 +1  110.1637534 +1   -0.9742449 +1     7     6     5
  C     1.37557845 +1  119.0084200 +1   -0.5388804 +1     1     2     3
  H     1.06886950 +1  127.5336106 +1 -179.2288452 +1     8     7     6
  H     1.08005203 +1  120.2224682 +1  179.5051940 +1     7     6     5
  H     1.08671404 +1  120.9248719 +1  179.3399248 +1     4     3     2
  H     1.09166481 +1  119.9764995 +1  179.5316943 +1     1     2     3
  N     1.38610140 +1  121.0289440 +1 -179.1051417 +1     3     2     1
  C     1.31689310 +1  119.4890581 +1   -0.9284885 +1    14     3     2
  C     1.43069149 +1  122.8750472 +1    0.1759583 +1    15    14     3
  H     1.08801170 +1  118.9416055 +1 -179.4796867 +1    16    15    14
  H     1.10069216 +1  117.1163453 +1 -179.8213015 +1    15    14     3
  C     1.36554995 +1  118.9337037 +1    0.4872652 +1    16    15    14
  H     1.09364202 +1  121.3653908 +1  179.6791148 +1    19    16    15
  H     1.01380505 +1  124.4335188 +1   -5.7135790 +1     6     5     4
  C     3.34877999 +1  131.5875143 +1  -31.6955721 +1    12     4     3
  H     1.09482221 +1   64.1856421 +1  -74.9002783 +1    22    12     4
  H     1.09500559 +1  125.0569250 +1   23.2715067 +1    22    12     4
  H     1.09559216 +1  122.4483396 +1 -174.2808144 +1    22    12     4
  H     1.92946196 +1  110.8120343 +1  178.3877713 +1    14     3     2
  O     1.00069824 +1  173.4482147 +1   87.5994830 +1    26    14     3
  C     2.58306833 +1  161.2661201 +1  131.4772271 +1    21     6     5
  H     1.09526551 +1  152.7884788 +1 -163.7904946 +1    28    21     6
  H     1.09573644 +1   84.1821245 +1  -38.6400616 +1    28    21     6
  H     1.09699064 +1   83.4468732 +1   73.0816718 +1    28    21     6
  H     1.99903646 +1   59.8291497 +1 -137.9996879 +1    28    21     6
  O     0.99827086 +1   41.4405614 +1  -44.5698539 +1    32    28    21
  C     2.47101952 +1  118.4263100 +1  173.9114518 +1    32    28    21
  H     1.09592618 +1   89.2654075 +1  109.1311339 +1    34    32    28
  H     1.09525873 +1  150.5498714 +1 -116.8129741 +1    34    32    28
  H     1.09636969 +1   80.0995525 +1   -1.9860076 +1    34    32    28
  H     1.68664646 +1  114.0260602 +1 -101.8239293 +1    27    26    14
  O     1.00148346 +1  171.6907797 +1 -155.1638073 +1    38    27    26

 TIME=     0.18
  REACTANTS AND PRODUCTS SWAPPED AROUND
 *+*+*+*+*+*+*+*+*+*+*+*+*+*+*+*+*+*+*+*+*+*+*+*+*+*+*+*+*+*+*+*+*+*+*+*+*+*+*+*+
            BAR SHORTENED BY       1.000 PERCENT
 GRADIENT CRITERION IN FLEPO =     2.013


          FOR POINT  326 SECOND STRUCTURE
 DISTANCE A - B      0.321555
 HEAT             -120.199427
 GRADIENT NORM       1.629880
 DIRECTION COSINE   -0.794551
* ===============================
* Input file for Mopac
* ===============================
 PM7 BONDS AUX DUMP=30M ITRY=15000 T=14D CHARGE=0 SINGLET eps=32.66 RELSCF=1


  C     0.00000000 +0    0.0000000 +0    0.0000000 +0     0     0     0
  C     1.40892813 +1    0.0000000 +0    0.0000000 +0     1     0     0
  C     1.42911569 +1  120.4982132 +1    0.0000000 +0     2     1     0
  C     1.40761719 +1  121.3183297 +1    0.8584421 +1     3     2     1
  C     1.38039932 +1  117.0306557 +1   -0.4515432 +1     4     3     2
  N     1.39069078 +1  129.6697562 +1 -179.5606894 +1     5     4     3
  C     1.39948202 +1  108.3466268 +1 -179.8363120 +1     6     5     4
  C     1.37946686 +1  110.1693824 +1   -0.9682250 +1     7     6     5
  C     1.37564533 +1  119.0098541 +1   -0.5233332 +1     1     2     3
  H     1.06888007 +1  127.5263304 +1 -179.1974791 +1     8     7     6
  H     1.08009023 +1  120.2144935 +1  179.5561590 +1     7     6     5
  H     1.08656041 +1  120.9401899 +1  179.3902315 +1     4     3     2
  H     1.09171106 +1  119.9822988 +1  179.5372414 +1     1     2     3
  N     1.38622535 +1  121.0377862 +1 -179.1964118 +1     3     2     1
  C     1.31698858 +1  119.4647004 +1   -0.8851882 +1    14     3     2
  C     1.43065587 +1  122.8963360 +1    0.1913063 +1    15    14     3
  H     1.08800850 +1  118.9401862 +1 -179.6599695 +1    16    15    14
  H     1.10070403 +1  117.0741509 +1 -179.8389259 +1    15    14     3
  C     1.36561311 +1  118.9331271 +1    0.4577705 +1    16    15    14
  H     1.09362794 +1  121.3736696 +1  179.6661950 +1    19    16    15
  H     1.01382299 +1  124.4370924 +1   -5.6881963 +1     6     5     4
  C     3.31004675 +1  130.4723461 +1  -35.1587268 +1    12     4     3
  H     1.09432251 +1   62.9056598 +1  -71.9291261 +1    22    12     4
  H     1.09523589 +1  125.5839831 +1   25.1077112 +1    22    12     4
  H     1.09549227 +1  122.1729590 +1 -170.6726626 +1    22    12     4
  H     1.92849166 +1  110.9949136 +1 -179.8504978 +1    14     3     2
  O     1.00078188 +1  172.6213680 +1   80.0555187 +1    26    14     3
  C     2.58137130 +1  160.5806926 +1  129.2364765 +1    21     6     5
  H     1.09524639 +1  152.8610461 +1 -162.3254450 +1    28    21     6
  H     1.09598208 +1   84.0045723 +1  -37.3476798 +1    28    21     6
  H     1.09672351 +1   83.4414454 +1   74.3627262 +1    28    21     6
  H     1.99905387 +1   59.8590787 +1 -136.7653390 +1    28    21     6
  O     0.99861193 +1   41.4461156 +1  -44.7239442 +1    32    28    21
  C     2.47043668 +1  118.4645928 +1  173.8753084 +1    32    28    21
  H     1.09577592 +1   89.1007376 +1  108.9637712 +1    34    32    28
  H     1.09517121 +1  150.5348071 +1 -117.2948614 +1    34    32    28
  H     1.09649484 +1   80.3304914 +1   -2.2335033 +1    34    32    28
  H     1.68584677 +1  113.8461571 +1  -97.9215761 +1    27    26    14
  O     1.00161378 +1  171.8833905 +1 -153.4947702 +1    38    27    26

 TIME=     0.18
  REACTANTS AND PRODUCTS SWAPPED AROUND
 *+*+*+*+*+*+*+*+*+*+*+*+*+*+*+*+*+*+*+*+*+*+*+*+*+*+*+*+*+*+*+*+*+*+*+*+*+*+*+*+
            BAR SHORTENED BY       1.000 PERCENT
 GRADIENT CRITERION IN FLEPO =     2.013


          FOR POINT  327 FIRST  STRUCTURE
 DISTANCE A - B      0.318339
 HEAT             -120.192639
 GRADIENT NORM       1.829310
 DIRECTION COSINE   -0.798247
* ===============================
* Input file for Mopac
* ===============================
 PM7 BONDS AUX DUMP=30M ITRY=15000 T=14D CHARGE=0 SINGLET eps=32.66 RELSCF=1


  C     0.00000000 +0    0.0000000 +0    0.0000000 +0     0     0     0
  C     1.40889129 +1    0.0000000 +0    0.0000000 +0     1     0     0
  C     1.42897273 +1  120.4949570 +1    0.0000000 +0     2     1     0
  C     1.40763642 +1  121.3250779 +1    0.9107615 +1     3     2     1
  C     1.38039738 +1  117.0275948 +1   -0.5085513 +1     4     3     2
  N     1.39063463 +1  129.6742229 +1 -179.5008711 +1     5     4     3
  C     1.39956490 +1  108.3454764 +1 -179.8645905 +1     6     5     4
  C     1.37945970 +1  110.1638328 +1   -0.9741825 +1     7     6     5
  C     1.37557881 +1  119.0084111 +1   -0.5387255 +1     1     2     3
  H     1.06886909 +1  127.5335653 +1 -179.2285333 +1     8     7     6
  H     1.08005183 +1  120.2223468 +1  179.5057047 +1     7     6     5
  H     1.08671224 +1  120.9250673 +1  179.3404241 +1     4     3     2
  H     1.09166507 +1  119.9765392 +1  179.5317503 +1     1     2     3
  N     1.38610167 +1  121.0290146 +1 -179.1060540 +1     3     2     1
  C     1.31689378 +1  119.4887938 +1   -0.9280565 +1    14     3     2
  C     1.43069099 +1  122.8752918 +1    0.1761147 +1    15    14     3
  H     1.08801114 +1  118.9416395 +1 -179.4814917 +1    16    15    14
  H     1.10069148 +1  117.1159009 +1 -179.8214769 +1    15    14     3
  C     1.36554960 +1  118.9336879 +1    0.4869677 +1    16    15    14
  H     1.09364174 +1  121.3654636 +1  179.6789870 +1    19    16    15
  H     1.01380518 +1  124.4335924 +1   -5.7133229 +1     6     5     4
  C     3.34837048 +1  131.5768916 +1  -31.7304278 +1    12     4     3
  H     1.09479780 +1   64.1725747 +1  -74.8704334 +1    22    12     4
  H     1.09500408 +1  125.0619526 +1   23.2898980 +1    22    12     4
  H     1.09558180 +1  122.4452154 +1 -174.2441646 +1    22    12     4
  H     1.92944647 +1  110.8141176 +1  178.4053370 +1    14     3     2
  O     1.00069145 +1  173.4403795 +1   87.5163651 +1    26    14     3
  C     2.58304744 +1  161.2593260 +1  131.4543392 +1    21     6     5
  H     1.09526361 +1  152.7891812 +1 -163.7752980 +1    28    21     6
  H     1.09573658 +1   84.1803401 +1  -38.6266494 +1    28    21     6
  H     1.09698774 +1   83.4468181 +1   73.0949414 +1    28    21     6
  H     1.99903545 +1   59.8295012 +1 -137.9868418 +1    28    21     6
  O     0.99827408 +1   41.4405500 +1  -44.5713819 +1    32    28    21
  C     2.47101294 +1  118.4267732 +1  173.9110936 +1    32    28    21
  H     1.09592252 +1   89.2637720 +1  109.1294529 +1    34    32    28
  H     1.09525728 +1  150.5498085 +1 -116.8178159 +1    34    32    28
  H     1.09636894 +1   80.1017567 +1   -1.9885150 +1    34    32    28
  H     1.68663429 +1  114.0250512 +1 -101.7773904 +1    27    26    14
  O     1.00148312 +1  171.6927128 +1 -155.1467149 +1    38    27    26

 TIME=     0.18
  REACTANTS AND PRODUCTS SWAPPED AROUND
 *+*+*+*+*+*+*+*+*+*+*+*+*+*+*+*+*+*+*+*+*+*+*+*+*+*+*+*+*+*+*+*+*+*+*+*+*+*+*+*+
            BAR SHORTENED BY       1.000 PERCENT
 GRADIENT CRITERION IN FLEPO =     2.013


          FOR POINT  328 SECOND STRUCTURE
 DISTANCE A - B      0.315156
 HEAT             -120.198684
 GRADIENT NORM       1.641482
 DIRECTION COSINE   -0.805219
* ===============================
* Input file for Mopac
* ===============================
 PM7 BONDS AUX DUMP=30M ITRY=15000 T=14D CHARGE=0 SINGLET eps=32.66 RELSCF=1


  C     0.00000000 +0    0.0000000 +0    0.0000000 +0     0     0     0
  C     1.40892657 +1    0.0000000 +0    0.0000000 +0     1     0     0
  C     1.42911399 +1  120.4981630 +1    0.0000000 +0     2     1     0
  C     1.40761713 +1  121.3184338 +1    0.8589661 +1     3     2     1
  C     1.38039812 +1  117.0306052 +1   -0.4521143 +1     4     3     2
  N     1.39068964 +1  129.6697723 +1 -179.5600910 +1     5     4     3
  C     1.39948179 +1  108.3465696 +1 -179.8365950 +1     6     5     4
  C     1.37946678 +1  110.1693496 +1   -0.9682824 +1     7     6     5
  C     1.37564436 +1  119.0098170 +1   -0.5234877 +1     1     2     3
  H     1.06887946 +1  127.5264298 +1 -179.1977912 +1     8     7     6
  H     1.08008928 +1  120.2145312 +1  179.5556556 +1     7     6     5
  H     1.08656167 +1  120.9400800 +1  179.3897298 +1     4     3     2
  H     1.09171041 +1  119.9822233 +1  179.5371870 +1     1     2     3
  N     1.38622317 +1  121.0376811 +1 -179.1955079 +1     3     2     1
  C     1.31698737 +1  119.4649211 +1   -0.8856179 +1    14     3     2
  C     1.43065607 +1  122.8961566 +1    0.1911572 +1    15    14     3
  H     1.08800801 +1  118.9402479 +1 -179.6581871 +1    16    15    14
  H     1.10070313 +1  117.0745464 +1 -179.8387506 +1    15    14     3
  C     1.36561152 +1  118.9331229 +1    0.4580599 +1    16    15    14
  H     1.09362795 +1  121.3735777 +1  179.6663242 +1    19    16    15
  H     1.01382277 +1  124.4370945 +1   -5.6884453 +1     6     5     4
  C     3.31040800 +1  130.4839052 +1  -35.1246820 +1    12     4     3
  H     1.09430823 +1   62.9180335 +1  -71.9583799 +1    22    12     4
  H     1.09522984 +1  125.5785272 +1   25.0895716 +1    22    12     4
  H     1.09548399 +1  122.1753106 +1 -170.7077895 +1    22    12     4
  H     1.92849553 +1  110.9933562 +1 -179.8679836 +1    14     3     2
  O     1.00077351 +1  172.6299272 +1   80.1231787 +1    26    14     3
  C     2.58138421 +1  160.5875354 +1  129.2581959 +1    21     6     5
  H     1.09524488 +1  152.8603048 +1 -162.3394200 +1    28    21     6
  H     1.09597736 +1   84.0063207 +1  -37.3600030 +1    28    21     6
  H     1.09672593 +1   83.4414983 +1   74.3504861 +1    28    21     6
  H     1.99905252 +1   59.8588341 +1 -136.7770737 +1    28    21     6
  O     0.99860837 +1   41.4459944 +1  -44.7224064 +1    32    28    21
  C     2.47044170 +1  118.4642935 +1  173.8756693 +1    32    28    21
  H     1.09577528 +1   89.1023786 +1  108.9654205 +1    34    32    28
  H     1.09517151 +1  150.5350431 +1 -117.2901156 +1    34    32    28
  H     1.09649162 +1   80.3281015 +1   -2.2310861 +1    34    32    28
  H     1.68585055 +1  113.8487177 +1  -97.9533818 +1    27    26    14
  O     1.00161086 +1  171.8814917 +1 -153.5108596 +1    38    27    26


          BOTH SYSTEMS ARE ON THE SAME SIDE OF THE TRANSITION STATE.

 ******************************************************************************
 *                                                                            *
 *     Error and normal termination messages reported in this calculation     *
 *                                                                            *
 * BOTH SYSTEMS ARE ON THE SAME SIDE OF THE TRANSITION STATE.                 *
 * JOB ENDED NORMALLY                                                         *
 *                                                                            *
 ******************************************************************************



 TOTAL JOB TIME:          1218.01 SECONDS

 == MOPAC DONE ==
