
                                 *****************
                                 * O   R   C   A *
                                 *****************

                                            #,                                       
                                            ###                                      
                                            ####                                     
                                            #####                                    
                                            ######                                   
                                           ########,                                 
                                     ,,################,,,,,                         
                               ,,#################################,,                 
                          ,,##########################################,,             
                       ,#########################################, ''#####,          
                    ,#############################################,,   '####,        
                  ,##################################################,,,,####,       
                ,###########''''           ''''###############################       
              ,#####''   ,,,,##########,,,,          '''####'''          '####       
            ,##' ,,,,###########################,,,                        '##       
           ' ,,###''''                  '''############,,,                           
         ,,##''                                '''############,,,,        ,,,,,,###''
      ,#''                                            '''#######################'''  
     '                                                          ''''####''''         
             ,#######,   #######,   ,#######,      ##                                
            ,#'     '#,  ##    ##  ,#'     '#,    #''#        ######   ,####,        
            ##       ##  ##   ,#'  ##            #'  '#       #        #'  '#        
            ##       ##  #######   ##           ,######,      #####,   #    #        
            '#,     ,#'  ##    ##  '#,     ,#' ,#      #,         ##   #,  ,#        
             '#######'   ##     ##  '#######'  #'      '#     #####' # '####'        



                  #######################################################
                  #                        -***-                        #
                  #          Department of theory and spectroscopy      #
                  #    Directorship and core code : Frank Neese         #
                  #        Max Planck Institute fuer Kohlenforschung    #
                  #                Kaiser Wilhelm Platz 1               #
                  #                 D-45470 Muelheim/Ruhr               #
                  #                      Germany                        #
                  #                                                     #
                  #                  All rights reserved                #
                  #                        -***-                        #
                  #######################################################


                         Program Version 5.0.4 -  RELEASE  -


 With contributions from (in alphabetic order):
   Daniel Aravena         : Magnetic Suceptibility
   Michael Atanasov       : Ab Initio Ligand Field Theory (pilot matlab implementation)
   Alexander A. Auer      : GIAO ZORA, VPT2 properties, NMR spectrum
   Ute Becker             : Parallelization
   Giovanni Bistoni       : ED, misc. LED, open-shell LED, HFLD
   Martin Brehm           : Molecular dynamics
   Dmytro Bykov           : SCF Hessian
   Vijay G. Chilkuri      : MRCI spin determinant printing, contributions to CSF-ICE
   Dipayan Datta          : RHF DLPNO-CCSD density
   Achintya Kumar Dutta   : EOM-CC, STEOM-CC
   Dmitry Ganyushin       : Spin-Orbit,Spin-Spin,Magnetic field MRCI
   Miquel Garcia          : C-PCM and meta-GGA Hessian, CC/C-PCM, Gaussian charge scheme
   Yang Guo               : DLPNO-NEVPT2, F12-NEVPT2, CIM, IAO-localization
   Andreas Hansen         : Spin unrestricted coupled pair/coupled cluster methods
   Benjamin Helmich-Paris : MC-RPA, TRAH-SCF, COSX integrals
   Lee Huntington         : MR-EOM, pCC
   Robert Izsak           : Overlap fitted RIJCOSX, COSX-SCS-MP3, EOM
   Marcus Kettner         : VPT2
   Christian Kollmar      : KDIIS, OOCD, Brueckner-CCSD(T), CCSD density, CASPT2, CASPT2-K
   Simone Kossmann        : Meta GGA functionals, TD-DFT gradient, OOMP2, MP2 Hessian
   Martin Krupicka        : Initial AUTO-CI
   Lucas Lang             : DCDCAS
   Marvin Lechner         : AUTO-CI (C++ implementation), FIC-MRCC
   Dagmar Lenk            : GEPOL surface, SMD
   Dimitrios Liakos       : Extrapolation schemes; Compound Job, initial MDCI parallelization
   Dimitrios Manganas     : Further ROCIS development; embedding schemes
   Dimitrios Pantazis     : SARC Basis sets
   Anastasios Papadopoulos: AUTO-CI, single reference methods and gradients
   Taras Petrenko         : DFT Hessian,TD-DFT gradient, ASA, ECA, R-Raman, ABS, FL, XAS/XES, NRVS
   Peter Pinski           : DLPNO-MP2, DLPNO-MP2 Gradient
   Christoph Reimann      : Effective Core Potentials
   Marius Retegan         : Local ZFS, SOC
   Christoph Riplinger    : Optimizer, TS searches, QM/MM, DLPNO-CCSD(T), (RO)-DLPNO pert. Triples
   Tobias Risthaus        : Range-separated hybrids, TD-DFT gradient, RPA, STAB
   Michael Roemelt        : Original ROCIS implementation
   Masaaki Saitow         : Open-shell DLPNO-CCSD energy and density
   Barbara Sandhoefer     : DKH picture change effects
   Avijit Sen             : IP-ROCIS
   Kantharuban Sivalingam : CASSCF convergence, NEVPT2, FIC-MRCI
   Bernardo de Souza      : ESD, SOC TD-DFT
   Georgi Stoychev        : AutoAux, RI-MP2 NMR, DLPNO-MP2 response
   Willem Van den Heuvel  : Paramagnetic NMR
   Boris Wezisla          : Elementary symmetry handling
   Frank Wennmohs         : Technical directorship


 We gratefully acknowledge several colleagues who have allowed us to
 interface, adapt or use parts of their codes:
   Stefan Grimme, W. Hujo, H. Kruse, P. Pracht,  : VdW corrections, initial TS optimization,
                  C. Bannwarth, S. Ehlert          DFT functionals, gCP, sTDA/sTD-DF
   Ed Valeev, F. Pavosevic, A. Kumar             : LibInt (2-el integral package), F12 methods
   Garnet Chan, S. Sharma, J. Yang, R. Olivares  : DMRG
   Ulf Ekstrom                                   : XCFun DFT Library
   Mihaly Kallay                                 : mrcc  (arbitrary order and MRCC methods)
   Jiri Pittner, Ondrej Demel                    : Mk-CCSD
   Frank Weinhold                                : gennbo (NPA and NBO analysis)
   Christopher J. Cramer and Donald G. Truhlar   : smd solvation model
   Lars Goerigk                                  : TD-DFT with DH, B97 family of functionals
   V. Asgeirsson, H. Jonsson                     : NEB implementation
   FAccTs GmbH                                   : IRC, NEB, NEB-TS, DLPNO-Multilevel, CI-OPT
                                                   MM, QMMM, 2- and 3-layer-ONIOM, Crystal-QMMM,
                                                   LR-CPCM, SF, NACMEs, symmetry and pop. for TD-DFT,
                                                   nearIR, NL-DFT gradient (VV10), updates on ESD,
                                                   ML-optimized integration grids
   S Lehtola, MJT Oliveira, MAL Marques          : LibXC Library
   Liviu Ungur et al                             : ANISO software


 Your calculation uses the libint2 library for the computation of 2-el integrals
 For citations please refer to: http://libint.valeyev.net

 Your ORCA version has been built with support for libXC version: 5.1.0
 For citations please refer to: https://tddft.org/programs/libxc/

 This ORCA versions uses:
   CBLAS   interface :  Fast vector & matrix operations
   LAPACKE interface :  Fast linear algebra routines
   SCALAPACK package :  Parallel linear algebra routines
   Shared memory     :  Shared parallel matrices
   BLAS/LAPACK       :  OpenBLAS 0.3.15  USE64BITINT DYNAMIC_ARCH NO_AFFINITY Prescott SINGLE_THREADED
        Core in use  :  Prescott
   Copyright (c) 2011-2014, The OpenBLAS Project


Your calculation utilizes the atom-pairwise dispersion correction
with the Becke-Johnson damping scheme (D3BJ)
Cite in your paper:
S.Grimme, S.Ehrlich, L.Goerigk, J Comput Chem, (2011), 32, 1456–1465 
S.Grimme, J.Antony, S.Ehrlich and H.Krieg, J.Chem.Phys., 132, (2010), 154104 
   

================================================================================

----- Orbital basis set information -----
Your calculation utilizes the basis: def2-TZVP
   F. Weigend and R. Ahlrichs, Phys. Chem. Chem. Phys. 7, 3297 (2005).

----- AuxJ basis set information -----
Your calculation utilizes the auxiliary basis: def2/J
   F. Weigend, Phys. Chem. Chem. Phys. 8, 1057 (2006).

================================================================================
                                        WARNINGS
                       Please study these warnings very carefully!
================================================================================


WARNING: Geometry Optimization
  ===> : Switching off AutoStart
         For restart on a previous wavefunction, please use MOREAD

INFO   : the flag for use of the SHARK integral package has been found!

================================================================================
                                       INPUT FILE
================================================================================
NAME = /home/rudenko/mop_saddle_orca_4_serv/for_orca/CH3NO2_H2O_near/orca/orca_start/start.inp
|  1> !  opt B3LYP def2-TZVP CPCM D3 
|  2> %pal nprocs 102 end
|  3> %cpcm epsilon 78.4 end 
|  4> *xyz 0 1 
|  5> C   0.43894599 -0.77639832 0.55622185
|  6> H   1.00103145 -1.42925313 -0.14513711
|  7> H   0.92667888 0.22334185 0.53474678
|  8> H   0.56277581 -1.18154808 1.57869132
|  9> N   -0.96542738 -0.66256387 0.18566748
| 10> O   -1.7978889 -0.48800953 1.06559165
| 11> O   -1.28184476 -0.73681258 -0.99344884
| 12> H   3.76887115 -1.65235434 1.37166354
| 13> O   2.95725465 -1.18060492 1.58833817
| 14> H   3.17575147 -0.25345875 1.42924301
| 15> *
| 16> 
| 17>                          ****END OF INPUT****
================================================================================

                       *****************************
                       * Geometry Optimization Run *
                       *****************************

Geometry optimization settings:
Update method            Update   .... BFGS
Choice of coordinates    CoordSys .... Z-matrix Internals
Initial Hessian          InHess   .... Almoef's Model

Convergence Tolerances:
Energy Change            TolE     ....  5.0000e-06 Eh
Max. Gradient            TolMAXG  ....  3.0000e-04 Eh/bohr
RMS Gradient             TolRMSG  ....  1.0000e-04 Eh/bohr
Max. Displacement        TolMAXD  ....  4.0000e-03 bohr
RMS Displacement         TolRMSD  ....  2.0000e-03 bohr
Strict Convergence                ....  False
------------------------------------------------------------------------------
                        ORCA OPTIMIZATION COORDINATE SETUP
------------------------------------------------------------------------------

The optimization will be done in new redundant internal coordinates
Making redundant internal coordinates   ...  (new redundants) done
Evaluating the initial hessian          ...  (Almloef) done
Evaluating the coordinates              ...  done
Calculating the B-matrix                .... done
Calculating the G-matrix                .... done
Diagonalizing the G-matrix              .... done
The first mode is                       ....   24
The number of degrees of freedom        ....   24

    -----------------------------------------------------------------
                    Redundant Internal Coordinates


    -----------------------------------------------------------------
         Definition                    Initial Value    Approx d2E/dq
    -----------------------------------------------------------------
      1. B(H   1,C   0)                  1.1109         0.333506   
      2. B(H   2,C   0)                  1.1126         0.331440   
      3. B(H   3,C   0)                  1.1068         0.338594   
      4. B(N   4,C   0)                  1.4569         0.437677   
      5. B(O   5,N   4)                  1.2238         0.922883   
      6. B(O   6,N   4)                  1.2231         0.925353   
      7. B(O   8,H   7)                  0.9634         0.513427   
      8. B(O   8,H   2)                  2.6841         0.000923   
      9. B(O   8,H   1)                  2.6256         0.001145   
     10. B(O   8,C   0)                  2.7515         0.003765   
     11. B(O   8,H   3)                  2.3945         0.002675   
     12. B(H   9,H   2)                  2.4669         0.000438   
     13. B(H   9,H   1)                  2.9310         0.000080   
     14. B(H   9,C   0)                  2.9199         0.000433   
     15. B(H   9,H   3)                  2.7769         0.000140   
     16. B(H   9,O   8)                  0.9657         0.509108   
     17. A(H   3,C   0,O   8)           59.8194         0.170303   
     18. A(H   2,C   0,O   8)           74.8120         0.169911   
     19. A(N   4,C   0,O   8)          171.5550         0.187807   
     20. A(H   1,C   0,H   2)          107.1029         0.283676   
     21. A(H   3,C   0,N   4)          111.8037         0.327551   
     22. A(H   2,C   0,H   3)          107.3210         0.284344   
     23. A(H   1,C   0,H   3)          108.1510         0.284619   
     24. A(H   1,C   0,N   4)          111.9056         0.326735   
     25. A(H   2,C   0,N   4)          110.3320         0.326401   
     26. A(H   1,C   0,O   8)           71.7834         0.170024   
     27. A(C   0,N   4,O   5)          118.9448         0.429357   
     28. A(O   5,N   4,O   6)          121.7244         0.488824   
     29. A(C   0,N   4,O   6)          119.3298         0.429563   
     30. A(C   0,O   8,H   7)          139.3411         0.177295   
     31. A(H   7,O   8,H   9)          104.0305         0.320064   
     32. A(C   0,O   8,H   9)           90.2432         0.177126   
     33. D(O   5,N   4,C   0,H   3)     28.2545         0.018618   
     34. D(O   6,N   4,C   0,H   1)    -30.6070         0.018618   
     35. D(O   5,N   4,C   0,H   1)    149.7544         0.018618   
     36. D(O   6,N   4,C   0,H   3)   -152.1070         0.018618   
     37. D(O   6,N   4,C   0,H   2)     88.5388         0.018618   
     38. D(O   6,N   4,C   0,O   8)   -145.0691         0.018618   
     39. D(O   5,N   4,C   0,O   8)     35.2923         0.018618   
     40. D(O   5,N   4,C   0,H   2)    -91.0997         0.018618   
     41. D(H   9,O   8,C   0,H   2)     -2.7846         0.001501   
     42. D(H   9,O   8,C   0,H   1)    111.4297         0.001501   
     43. D(H   7,O   8,C   0,N   4)    116.5220         0.001501   
     44. D(H   7,O   8,C   0,H   3)    124.0840         0.001501   
     45. D(H   7,O   8,C   0,H   2)   -114.9350         0.001501   
     46. D(H   9,O   8,C   0,H   3)   -123.7656         0.001501   
     47. D(H   7,O   8,C   0,H   1)     -0.7207         0.001501   
     48. D(H   9,O   8,C   0,N   4)   -131.3276         0.001501   
    -----------------------------------------------------------------

Number of atoms                         .... 10
Number of degrees of freedom            .... 48

         *************************************************************
         *                GEOMETRY OPTIMIZATION CYCLE   1            *
         *************************************************************
---------------------------------
CARTESIAN COORDINATES (ANGSTROEM)
---------------------------------
  C      0.438946   -0.776398    0.556222
  H      1.001031   -1.429253   -0.145137
  H      0.926679    0.223342    0.534747
  H      0.562776   -1.181548    1.578691
  N     -0.965427   -0.662564    0.185667
  O     -1.797889   -0.488010    1.065592
  O     -1.281845   -0.736813   -0.993449
  H      3.768871   -1.652354    1.371664
  O      2.957255   -1.180605    1.588338
  H      3.175751   -0.253459    1.429243

----------------------------
CARTESIAN COORDINATES (A.U.)
----------------------------
  NO LB      ZA    FRAG     MASS         X           Y           Z
   0 C     6.0000    0    12.011    0.829488   -1.467180    1.051107
   1 H     1.0000    0     1.008    1.891675   -2.700897   -0.274269
   2 H     1.0000    0     1.008    1.751169    0.422055    1.010525
   3 H     1.0000    0     1.008    1.063492   -2.232802    2.983294
   4 N     7.0000    0    14.007   -1.824393   -1.252064    0.350861
   5 O     8.0000    0    15.999   -3.397518   -0.922204    2.013676
   6 O     8.0000    0    15.999   -2.422336   -1.392374   -1.877346
   7 H     1.0000    0     1.008    7.122134   -3.122497    2.592068
   8 O     8.0000    0    15.999    5.588401   -2.231020    3.001524
   9 H     1.0000    0     1.008    6.001301   -0.478968    2.700878

--------------------------------
INTERNAL COORDINATES (ANGSTROEM)
--------------------------------
 C      0   0   0     0.000000000000     0.00000000     0.00000000
 H      1   0   0     1.110884268525     0.00000000     0.00000000
 H      1   2   0     1.112575821295   107.10285219     0.00000000
 H      1   2   3     1.106762833416   108.15095056   244.61582691
 N      1   2   3     1.456891686262   111.90556968   121.03433498
 O      5   1   2     1.223816957246   118.94478964   149.75439766
 O      5   1   2     1.223089581917   119.32978771   329.39296118
 H      2   1   3     3.164078849624   100.45108361    67.20117661
 O      8   2   1     0.963440062291    48.42243761   359.47276903
 H      9   8   2     0.965739173292   104.03054973   253.00380583

---------------------------
INTERNAL COORDINATES (A.U.)
---------------------------
 C      0   0   0     0.000000000000     0.00000000     0.00000000
 H      1   0   0     2.099267033993     0.00000000     0.00000000
 H      1   2   0     2.102463605471   107.10285219     0.00000000
 H      1   2   3     2.091478650359   108.15095056   244.61582691
 N      1   2   3     2.753126293821   111.90556968   121.03433498
 O      5   1   2     2.312678887244   118.94478964   149.75439766
 O      5   1   2     2.311304347075   119.32978771   329.39296118
 H      2   1   3     5.979242491923   100.45108361    67.20117661
 O      8   2   1     1.820637864179    48.42243761   359.47276903
 H      9   8   2     1.824982554322   104.03054973   253.00380583

---------------------
BASIS SET INFORMATION
---------------------
There are 4 groups of distinct atoms

 Group   1 Type C   : 11s6p2d1f contracted to 5s3p2d1f pattern {62111/411/11/1}
 Group   2 Type H   : 5s1p contracted to 3s1p pattern {311/1}
 Group   3 Type N   : 11s6p2d1f contracted to 5s3p2d1f pattern {62111/411/11/1}
 Group   4 Type O   : 11s6p2d1f contracted to 5s3p2d1f pattern {62111/411/11/1}

Atom   0C    basis set group =>   1
Atom   1H    basis set group =>   2
Atom   2H    basis set group =>   2
Atom   3H    basis set group =>   2
Atom   4N    basis set group =>   3
Atom   5O    basis set group =>   4
Atom   6O    basis set group =>   4
Atom   7H    basis set group =>   2
Atom   8O    basis set group =>   4
Atom   9H    basis set group =>   2
---------------------------------
AUXILIARY/J BASIS SET INFORMATION
---------------------------------
There are 4 groups of distinct atoms

 Group   1 Type C   : 12s5p4d2f1g contracted to 6s4p3d1f1g pattern {711111/2111/211/2/1}
 Group   2 Type H   : 5s2p1d contracted to 3s1p1d pattern {311/2/1}
 Group   3 Type N   : 12s5p4d2f1g contracted to 6s4p3d1f1g pattern {711111/2111/211/2/1}
 Group   4 Type O   : 12s5p4d2f1g contracted to 6s4p3d1f1g pattern {711111/2111/211/2/1}

Atom   0C    basis set group =>   1
Atom   1H    basis set group =>   2
Atom   2H    basis set group =>   2
Atom   3H    basis set group =>   2
Atom   4N    basis set group =>   3
Atom   5O    basis set group =>   4
Atom   6O    basis set group =>   4
Atom   7H    basis set group =>   2
Atom   8O    basis set group =>   4
Atom   9H    basis set group =>   2


           ************************************************************
           *        Program running with 102 parallel MPI-processes   *
           *              working on a common directory               *
           ************************************************************
------------------------------------------------------------------------------
                           ORCA GTO INTEGRAL CALCULATION
                           -- RI-GTO INTEGRALS CHOSEN --
------------------------------------------------------------------------------
------------------------------------------------------------------------------
                   ___                                                        
                  /   \      - P O W E R E D   B Y -                         
                 /     \                                                     
                 |  |  |   _    _      __       _____    __    __             
                 |  |  |  | |  | |    /  \     |  _  \  |  |  /  |          
                  \  \/   | |  | |   /    \    | | | |  |  | /  /          
                 / \  \   | |__| |  /  /\  \   | |_| |  |  |/  /          
                |  |  |   |  __  | /  /__\  \  |    /   |      \           
                |  |  |   | |  | | |   __   |  |    \   |  |\   \          
                \     /   | |  | | |  |  |  |  | |\  \  |  | \   \       
                 \___/    |_|  |_| |__|  |__|  |_| \__\ |__|  \__/        
                                                                              
                      - O R C A' S   B I G   F R I E N D -                    
                                      &                                       
                       - I N T E G R A L  F E E D E R -                       
                                                                              
 v1 FN, 2020, v2 2021                                                         
------------------------------------------------------------------------------


Reading SHARK input file /home/rudenko/mop_saddle_orca_4_serv/for_orca/CH3NO2_H2O_near/orca/orca_start/start.SHARKINP.tmp ... ok
----------------------
SHARK INTEGRAL PACKAGE
----------------------

Number of atoms                             ...     10
Number of basis functions                   ...    185
Number of shells                            ...     75
Maximum angular momentum                    ...      3
Integral batch strategy                     ... SHARK/LIBINT Hybrid
RI-J (if used) integral strategy            ... SPLIT-RIJ (Revised 2003 algorithm where possible)
Printlevel                                  ...      1
Contraction scheme used                     ... SEGMENTED contraction
Coulomb Range Separation                    ... NOT USED
Exchange Range Separation                   ... NOT USED
Finite Nucleus Model                        ... NOT USED
Auxiliary Coulomb fitting basis             ... AVAILABLE
   # of basis functions in Aux-J            ...    300
   # of shells in Aux-J                     ...    100
   Maximum angular momentum in Aux-J        ...      4
Auxiliary J/K fitting basis                 ... NOT available
Auxiliary Correlation fitting basis         ... NOT available
Auxiliary 'external' fitting basis          ... NOT available
Integral threshold                          ...     2.500000e-11
Primitive cut-off                           ...     2.500000e-12
Primitive pair pre-selection threshold      ...     2.500000e-12

Calculating pre-screening integrals         ... done (  0.0 sec) Dimension = 75
Organizing shell pair data                  ... done (  0.0 sec)
Shell pair information
Total number of shell pairs                 ...      2850
Shell pairs after pre-screening             ...      2515
Total number of primitive shell pairs       ...      8640
Primitive shell pairs kept                  ...      5921
          la=0 lb=0:    711 shell pairs
          la=1 lb=0:    729 shell pairs
          la=1 lb=1:    195 shell pairs
          la=2 lb=0:    345 shell pairs
          la=2 lb=1:    177 shell pairs
          la=2 lb=2:     48 shell pairs
          la=3 lb=0:    171 shell pairs
          la=3 lb=1:     87 shell pairs
          la=3 lb=2:     40 shell pairs
          la=3 lb=3:     12 shell pairs

Calculating one electron integrals          ... done (  0.0 sec)
Calculating RI/J V-Matrix + Cholesky decomp.... done (  0.0 sec)
Calculating Nuclear repulsion               ... done (  0.0 sec) ENN=    177.149687566411 Eh

SHARK setup successfully completed in   0.2 seconds

Maximum memory used throughout the entire GTOINT-calculation: 16.1 MB


           ************************************************************
           *        Program running with 102 parallel MPI-processes   *
           *              working on a common directory               *
           ************************************************************
-------------------------------------------------------------------------------
                                 ORCA SCF
-------------------------------------------------------------------------------

------------
SCF SETTINGS
------------
Hamiltonian:
 Density Functional     Method          .... DFT(GTOs)
 Exchange Functional    Exchange        .... B88
   X-Alpha parameter    XAlpha          ....  0.666667
   Becke's b parameter  XBeta           ....  0.004200
 Correlation Functional Correlation     .... LYP
 LDA part of GGA corr.  LDAOpt          .... VWN-5
 Gradients option       PostSCFGGA      .... off
 Hybrid DFT is turned on
   Fraction HF Exchange ScalHFX         ....  0.200000
   Scaling of DF-GGA-X  ScalDFX         ....  0.720000
   Scaling of DF-GGA-C  ScalDFC         ....  0.810000
   Scaling of DF-LDA-C  ScalLDAC        ....  1.000000
   Perturbative correction              ....  0.000000
   Density functional embedding theory  .... OFF
   NL short-range parameter             ....  4.800000
 RI-approximation to the Coulomb term is turned on
   Number of AuxJ basis functions       .... 300
   RIJ-COSX (HFX calculated with COS-X)).... on


General Settings:
 Integral files         IntName         .... /home/rudenko/mop_saddle_orca_4_serv/for_orca/CH3NO2_H2O_near/orca/orca_start/start
 Hartree-Fock type      HFTyp           .... RHF
 Total Charge           Charge          ....    0
 Multiplicity           Mult            ....    1
 Number of Electrons    NEL             ....   42
 Basis Dimension        Dim             ....  185
 Nuclear Repulsion      ENuc            ....    177.1496875664 Eh

Convergence Acceleration:
 DIIS                   CNVDIIS         .... on
   Start iteration      DIISMaxIt       ....    12
   Startup error        DIISStart       ....  0.200000
   # of expansion vecs  DIISMaxEq       ....     5
   Bias factor          DIISBfac        ....   1.050
   Max. coefficient     DIISMaxC        ....  10.000
 Trust-Rad. Augm. Hess. CNVTRAH         .... auto
   Auto Start mean grad. ratio tolernc. ....  1.125000
   Auto Start start iteration           ....    20
   Auto Start num. interpolation iter.  ....    10
   Max. Number of Micro iterations      ....    16
   Max. Number of Macro iterations      .... Maxiter - #DIIS iter
   Number of Davidson start vectors     ....     2
   Converg. threshold I  (grad. norm)   ....   1.000e-05
   Converg. threshold II (energy diff.) ....   1.000e-08
   Grad. Scal. Fac. for Micro threshold ....   0.100
   Minimum threshold for Micro iter.    ....   0.010
   NR start threshold (gradient norm)   ....   0.001
   Initial trust radius                 ....   0.400
   Minimum AH scaling param. (alpha)    ....   1.000
   Maximum AH scaling param. (alpha)    .... 1000.000
   Orbital update algorithm             .... Taylor
   White noise on init. David. guess    .... on
   Maximum white noise                  ....   0.010
   Quad. conv. algorithm                .... NR
 SOSCF                  CNVSOSCF        .... on
   Start iteration      SOSCFMaxIt      ....   150
   Startup grad/error   SOSCFStart      ....  0.003300
 Level Shifting         CNVShift        .... on
   Level shift para.    LevelShift      ....    0.2500
   Turn off err/grad.   ShiftErr        ....    0.0010
 Zerner damping         CNVZerner       .... off
 Static damping         CNVDamp         .... on
   Fraction old density DampFac         ....    0.7000
   Max. Damping (<1)    DampMax         ....    0.9800
   Min. Damping (>=0)   DampMin         ....    0.0000
   Turn off err/grad.   DampErr         ....    0.1000
 Fernandez-Rico         CNVRico         .... off

SCF Procedure:
 Maximum # iterations   MaxIter         ....   125
 SCF integral mode      SCFMode         .... Direct
   Integral package                     .... SHARK and LIBINT hybrid scheme
 Reset frequency        DirectResetFreq ....    20
 Integral Threshold     Thresh          ....  2.500e-11 Eh
 Primitive CutOff       TCut            ....  2.500e-12 Eh

Convergence Tolerance:
 Convergence Check Mode ConvCheckMode   .... Total+1el-Energy
 Convergence forced     ConvForced      .... 0
 Energy Change          TolE            ....  1.000e-08 Eh
 1-El. energy change                    ....  1.000e-05 Eh
 Orbital Gradient       TolG            ....  1.000e-05
 Orbital Rotation angle TolX            ....  1.000e-05
 DIIS Error             TolErr          ....  5.000e-07


Diagonalization of the overlap matrix:
Smallest eigenvalue                        ... 8.892e-04
Time for diagonalization                   ...    0.010 sec
Threshold for overlap eigenvalues          ... 1.000e-08
Number of eigenvalues below threshold      ... 0
Time for construction of square roots      ...    0.012 sec
Total time needed                          ...    0.025 sec

Time for model grid setup =    0.077 sec

------------------------------
INITIAL GUESS: MODEL POTENTIAL
------------------------------
Loading Hartree-Fock densities                     ... done
Calculating cut-offs                               ... done
Initializing the effective Hamiltonian             ... done
Setting up the integral package (SHARK)            ... done
Starting the Coulomb interaction                   ... done (   0.0 sec)
Reading the grid                                   ... done
Mapping shells                                     ... done
Starting the XC term evaluation                    ... done (   0.0 sec)
  promolecular density results
     # of electrons  =     41.997699945
     EX              =    -37.760589373
     EC              =     -1.459261259
     EX+EC           =    -39.219850633
Transforming the Hamiltonian                       ... done (   0.0 sec)
Diagonalizing the Hamiltonian                      ... done (   0.0 sec)
Back transforming the eigenvectors                 ... done (   0.0 sec)
Now organizing SCF variables                       ... done
                      ------------------
                      INITIAL GUESS DONE (   0.1 sec)
                      ------------------
-------------------
DFT GRID GENERATION
-------------------

General Integration Accuracy     IntAcc      ... 4.388
Radial Grid Type                 RadialGrid  ... OptM3 with GC (2021)
Angular Grid (max. ang.)         AngularGrid ... 4 (Lebedev-302)
Angular grid pruning method      GridPruning ... 4 (adaptive)
Weight generation scheme         WeightScheme... Becke
Basis function cutoff            BFCut       ... 1.0000e-11
Integration weight cutoff        WCut        ... 1.0000e-14
Angular grids for H and He will be reduced by one unit
Partially contracted basis set               ... off
Rotationally invariant grid construction     ... off

Total number of grid points                  ...    46784
Total number of batches                      ...      737
Average number of points per batch           ...       63
Average number of grid points per atom       ...     4678
Time for grid setup =    0.354 sec

--------------------
COSX GRID GENERATION
--------------------

GRIDX 1
-------
General Integration Accuracy     IntAcc      ... 3.816
Radial Grid Type                 RadialGrid  ... OptM3 with GC (2021)
Angular Grid (max. ang.)         AngularGrid ... 1 (Lebedev-50)
Angular grid pruning method      GridPruning ... 4 (adaptive)
Weight generation scheme         WeightScheme... Becke
Basis function cutoff            BFCut       ... 1.0000e-11
Integration weight cutoff        WCut        ... 1.0000e-14
Angular grids for H and He will be reduced by one unit
Partially contracted basis set               ... on
Rotationally invariant grid construction     ... off

Total number of grid points                  ...     6003
Total number of batches                      ...       99
Average number of points per batch           ...       60
Average number of grid points per atom       ...      600
UseSFitting                                  ... on

GRIDX 2
-------
General Integration Accuracy     IntAcc      ... 4.020
Radial Grid Type                 RadialGrid  ... OptM3 with GC (2021)
Angular Grid (max. ang.)         AngularGrid ... 2 (Lebedev-110)
Angular grid pruning method      GridPruning ... 4 (adaptive)
Weight generation scheme         WeightScheme... Becke
Basis function cutoff            BFCut       ... 1.0000e-11
Integration weight cutoff        WCut        ... 1.0000e-14
Angular grids for H and He will be reduced by one unit
Partially contracted basis set               ... on
Rotationally invariant grid construction     ... off

Total number of grid points                  ...    13178
Total number of batches                      ...      211
Average number of points per batch           ...       62
Average number of grid points per atom       ...     1318
UseSFitting                                  ... on

GRIDX 3
-------
General Integration Accuracy     IntAcc      ... 4.338
Radial Grid Type                 RadialGrid  ... OptM3 with GC (2021)
Angular Grid (max. ang.)         AngularGrid ... 3 (Lebedev-194)
Angular grid pruning method      GridPruning ... 4 (adaptive)
Weight generation scheme         WeightScheme... Becke
Basis function cutoff            BFCut       ... 1.0000e-11
Integration weight cutoff        WCut        ... 1.0000e-14
Angular grids for H and He will be reduced by one unit
Partially contracted basis set               ... on
Rotationally invariant grid construction     ... off

Total number of grid points                  ...    29063
Total number of batches                      ...      461
Average number of points per batch           ...       63
Average number of grid points per atom       ...     2906
UseSFitting                                  ... on

Time for X-Grid setup             =    0.298 sec


--------------------
CPCM SOLVATION MODEL
--------------------
CPCM parameters:
  Epsilon                                         ...      78.4000
  Refrac                                          ...       1.3300
  Rsolv                                           ...       1.3000
  Surface type                                    ... GAUSSIAN VDW
  Epsilon function type                           ...         CPCM
Radii:
 Radius for C  used is    3.8550 Bohr (=   2.0400 Ang.)
 Radius for H  used is    2.4944 Bohr (=   1.3200 Ang.)
 Radius for N  used is    3.5149 Bohr (=   1.8600 Ang.)
 Radius for O  used is    3.4469 Bohr (=   1.8240 Ang.)
Calculating surface                               ...        done! (  0.0s)
GEPOL surface points                              ...          671
GEPOL Volume                                      ...     671.1083
GEPOL Surface-area                                ...     451.3639
Calculating surface distance matrix               ...        done! (  0.0s)
Performing Cholesky decomposition & store         ...        done! (  0.0s)
Overall time for CPCM initialization              ...                 0.1s
--------------
SCF ITERATIONS
--------------
ITER       Energy         Delta-E        Max-DP      RMS-DP      [F,P]     Damp
               ***  Starting incremental Fock matrix formation  ***
  0   -321.1950179115   0.000000000000 0.06027033  0.00153317  0.3357233 0.7000
  1   -321.3191127190  -0.124094807504 0.03493348  0.00093791  0.1315711 0.7000
                               ***Turning on DIIS***
  2   -321.3574679364  -0.038355217410 0.03459480  0.00117368  0.0334763 0.0000
  3   -321.4318425680  -0.074374631632 0.02499352  0.00064460  0.0782400 0.0000
  4   -321.4426233640  -0.010780795961 0.00901598  0.00021243  0.0164026 0.0000
                      *** Initiating the SOSCF procedure ***
                           *** Shutting down DIIS ***
                      *** Re-Reading the Fockian *** 
                      *** Removing any level shift *** 
ITER      Energy       Delta-E        Grad      Rot      Max-DP    RMS-DP
  5   -321.44335524  -0.0007318775  0.000767  0.000767  0.002013  0.000056
               *** Restarting incremental Fock matrix formation ***
  6   -321.44337303  -0.0000177866  0.000476  0.001013  0.001285  0.000042
  7   -321.44336467   0.0000083602  0.001201  0.000947  0.000791  0.000020
  8   -321.44337923  -0.0000145617  0.000116  0.000209  0.000201  0.000005
  9   -321.44337901   0.0000002168  0.000172  0.000125  0.000138  0.000003
 10   -321.44337936  -0.0000003462  0.000025  0.000094  0.000058  0.000001
 11   -321.44337934   0.0000000170  0.000062  0.000072  0.000038  0.000001
 12   -321.44337936  -0.0000000216  0.000005  0.000007  0.000013  0.000000
 13   -321.44337936   0.0000000010  0.000007  0.000004  0.000007  0.000000
                 **** Energy Check signals convergence ****
              ***Rediagonalizing the Fockian in SOSCF/NRSCF***

               *****************************************************
               *                     SUCCESS                       *
               *           SCF CONVERGED AFTER  14 CYCLES          *
               *****************************************************

Old exchange energy                            =     -7.620524434 Eh
New exchange energy                            =     -7.620526078 Eh
Exchange energy change after final integration =     -0.000001643 Eh
Total energy after final integration           =   -321.443381008 Eh
Final COS-X integration done in                =     0.168 sec

----------------
TOTAL SCF ENERGY
----------------

Total Energy       :         -321.44338101 Eh           -8746.91908 eV

Components:
Nuclear Repulsion  :          177.14968757 Eh            4820.48807 eV
Electronic Energy  :         -498.59306857 Eh          -13567.40715 eV
One Electron Energy:         -790.80669156 Eh          -21518.94408 eV
Two Electron Energy:          292.21362299 Eh            7951.53693 eV
Max COSX asymmetry :            0.00000122 Eh               0.00003 eV
CPCM Dielectric    :           -0.02224782 Eh              -0.60539 eV

Virial components:
Potential Energy   :         -641.63040531 Eh          -17459.65096 eV
Kinetic Energy     :          320.18702430 Eh            8712.73188 eV
Virial Ratio       :            2.00392382


DFT components:
N(Alpha)           :       21.000003152649 electrons
N(Beta)            :       21.000003152649 electrons
N(Total)           :       42.000006305297 electrons
E(X)               :      -30.404463585229 Eh       
E(C)               :       -1.724679958081 Eh       
E(XC)              :      -32.129143543309 Eh       
DFET-embed. en.    :        0.000000000000 Eh       
CPCM Solvation Model Properties:
Surface-charge          :           -0.01387079
Charge-correction       :            0.00014626 Eh               0.00398 eV
Free-energy (cav+disp)  :  This term is not implemented in the current solvation scheme

---------------
SCF CONVERGENCE
---------------

  Last Energy change         ...   -1.9317e-09  Tolerance :   1.0000e-08
  Last MAX-Density change    ...    5.5511e-16  Tolerance :   1.0000e-07
  Last RMS-Density change    ...    1.9226e-17  Tolerance :   5.0000e-09
  Last Orbital Gradient      ...    1.4697e-07  Tolerance :   1.0000e-05
  Last Orbital Rotation      ...    2.0651e-07  Tolerance :   1.0000e-05

             **** THE GBW FILE WAS UPDATED (/home/rudenko/mop_saddle_orca_4_serv/for_orca/CH3NO2_H2O_near/orca/orca_start/start.gbw) ****
             **** DENSITY /home/rudenko/mop_saddle_orca_4_serv/for_orca/CH3NO2_H2O_near/orca/orca_start/start.scfp WAS UPDATED ****
             **** ENERGY FILE WAS UPDATED (/home/rudenko/mop_saddle_orca_4_serv/for_orca/CH3NO2_H2O_near/orca/orca_start/start.en.tmp) ****
             **** THE GBW FILE WAS UPDATED (/home/rudenko/mop_saddle_orca_4_serv/for_orca/CH3NO2_H2O_near/orca/orca_start/start.gbw) ****
             **** DENSITY /home/rudenko/mop_saddle_orca_4_serv/for_orca/CH3NO2_H2O_near/orca/orca_start/start.scfp WAS UPDATED ****
----------------
ORBITAL ENERGIES
----------------

  NO   OCC          E(Eh)            E(eV) 
   0   2.0000     -19.167618      -521.5774 
   1   2.0000     -19.167395      -521.5713 
   2   2.0000     -19.122769      -520.3570 
   3   2.0000     -14.558021      -396.1439 
   4   2.0000     -10.219770      -278.0941 
   5   2.0000      -1.242230       -33.8028 
   6   2.0000      -1.062372       -28.9086 
   7   2.0000      -1.008892       -27.4533 
   8   2.0000      -0.817492       -22.2451 
   9   2.0000      -0.621949       -16.9241 
  10   2.0000      -0.553997       -15.0750 
  11   2.0000      -0.548034       -14.9128 
  12   2.0000      -0.531855       -14.4725 
  13   2.0000      -0.523407       -14.2426 
  14   2.0000      -0.424034       -11.5386 
  15   2.0000      -0.410717       -11.1762 
  16   2.0000      -0.388866       -10.5816 
  17   2.0000      -0.330102        -8.9825 
  18   2.0000      -0.328544        -8.9401 
  19   2.0000      -0.314343        -8.5537 
  20   2.0000      -0.302733        -8.2378 
  21   0.0000      -0.083327        -2.2674 
  22   0.0000       0.026765         0.7283 
  23   0.0000       0.070597         1.9210 
  24   0.0000       0.103955         2.8288 
  25   0.0000       0.113703         3.0940 
  26   0.0000       0.140134         3.8132 
  27   0.0000       0.154871         4.2143 
  28   0.0000       0.180960         4.9242 
  29   0.0000       0.205151         5.5824 
  30   0.0000       0.211880         5.7656 
  31   0.0000       0.241484         6.5711 
  32   0.0000       0.315411         8.5828 
  33   0.0000       0.339521         9.2388 
  34   0.0000       0.378404        10.2969 
  35   0.0000       0.391645        10.6572 
  36   0.0000       0.399541        10.8721 
  37   0.0000       0.409700        11.1485 
  38   0.0000       0.412718        11.2306 
  39   0.0000       0.426802        11.6139 
  40   0.0000       0.442724        12.0471 
  41   0.0000       0.460704        12.5364 
  42   0.0000       0.468011        12.7352 
  43   0.0000       0.475167        12.9300 
  44   0.0000       0.493538        13.4298 
  45   0.0000       0.526020        14.3137 
  46   0.0000       0.526718        14.3327 
  47   0.0000       0.539997        14.6941 
  48   0.0000       0.572565        15.5803 
  49   0.0000       0.577762        15.7217 
  50   0.0000       0.588440        16.0123 
  51   0.0000       0.613321        16.6893 
  52   0.0000       0.686168        18.6716 
  53   0.0000       0.715087        19.4585 
  54   0.0000       0.787706        21.4346 
  55   0.0000       0.801719        21.8159 
  56   0.0000       0.891368        24.2554 
  57   0.0000       0.954999        25.9868 
  58   0.0000       0.989944        26.9377 
  59   0.0000       1.011499        27.5243 
  60   0.0000       1.151763        31.3411 
  61   0.0000       1.153717        31.3942 
  62   0.0000       1.199492        32.6398 
  63   0.0000       1.220364        33.2078 
  64   0.0000       1.323978        36.0273 
  65   0.0000       1.340466        36.4759 
  66   0.0000       1.381353        37.5885 
  67   0.0000       1.407901        38.3109 
  68   0.0000       1.481495        40.3135 
  69   0.0000       1.500752        40.8375 
  70   0.0000       1.517666        41.2978 
  71   0.0000       1.547684        42.1146 
  72   0.0000       1.557109        42.3711 
  73   0.0000       1.581877        43.0451 
  74   0.0000       1.598403        43.4948 
  75   0.0000       1.637194        44.5503 
  76   0.0000       1.644884        44.7596 
  77   0.0000       1.669658        45.4337 
  78   0.0000       1.753995        47.7286 
  79   0.0000       1.767936        48.1080 
  80   0.0000       1.796104        48.8745 
  81   0.0000       1.914327        52.0915 
  82   0.0000       1.925448        52.3941 
  83   0.0000       1.933894        52.6239 
  84   0.0000       2.002026        54.4779 
  85   0.0000       2.020622        54.9839 
  86   0.0000       2.026979        55.1569 
  87   0.0000       2.044665        55.6382 
  88   0.0000       2.095463        57.0204 
  89   0.0000       2.119547        57.6758 
  90   0.0000       2.162532        58.8455 
  91   0.0000       2.183611        59.4191 
  92   0.0000       2.210893        60.1615 
  93   0.0000       2.228100        60.6297 
  94   0.0000       2.263029        61.5801 
  95   0.0000       2.315175        62.9991 
  96   0.0000       2.347060        63.8668 
  97   0.0000       2.380529        64.7775 
  98   0.0000       2.423335        65.9423 
  99   0.0000       2.481360        67.5212 
 100   0.0000       2.532897        68.9236 
 101   0.0000       2.542511        69.1852 
 102   0.0000       2.554797        69.5196 
 103   0.0000       2.596005        70.6409 
 104   0.0000       2.608776        70.9884 
 105   0.0000       2.625478        71.4429 
 106   0.0000       2.645530        71.9885 
 107   0.0000       2.677453        72.8572 
 108   0.0000       2.696702        73.3810 
 109   0.0000       2.723157        74.1009 
 110   0.0000       2.867052        78.0165 
 111   0.0000       2.881394        78.4067 
 112   0.0000       2.913034        79.2677 
 113   0.0000       2.991297        81.3973 
 114   0.0000       3.000020        81.6347 
 115   0.0000       3.045010        82.8589 
 116   0.0000       3.127145        85.0939 
 117   0.0000       3.212428        87.4146 
 118   0.0000       3.222685        87.6937 
 119   0.0000       3.255366        88.5830 
 120   0.0000       3.423510        93.1584 
 121   0.0000       3.481363        94.7327 
 122   0.0000       3.513747        95.6139 
 123   0.0000       3.589104        97.6645 
 124   0.0000       3.656901        99.5093 
 125   0.0000       3.722422       101.2922 
 126   0.0000       3.780623       102.8760 
 127   0.0000       3.922805       106.7450 
 128   0.0000       3.985908       108.4621 
 129   0.0000       4.003687       108.9459 
 130   0.0000       4.088088       111.2425 
 131   0.0000       4.114970       111.9740 
 132   0.0000       4.287126       116.6586 
 133   0.0000       4.322361       117.6174 
 134   0.0000       4.543294       123.6293 
 135   0.0000       4.562717       124.1578 
 136   0.0000       4.644348       126.3791 
 137   0.0000       4.679272       127.3295 
 138   0.0000       4.739695       128.9737 
 139   0.0000       4.800342       130.6239 
 140   0.0000       4.904577       133.4603 
 141   0.0000       5.077123       138.1555 
 142   0.0000       5.085729       138.3897 
 143   0.0000       5.098310       138.7321 
 144   0.0000       5.116337       139.2226 
 145   0.0000       5.130519       139.6085 
 146   0.0000       5.134769       139.7242 
 147   0.0000       5.207044       141.6909 
 148   0.0000       5.269257       143.3838 
 149   0.0000       5.286265       143.8466 
 150   0.0000       5.297366       144.1487 
 151   0.0000       5.380584       146.4131 
 152   0.0000       5.442462       148.0969 
 153   0.0000       5.454603       148.4273 
 154   0.0000       5.558757       151.2615 
 155   0.0000       5.635123       153.3395 
 156   0.0000       5.697159       155.0276 
 157   0.0000       5.932617       161.4347 
 158   0.0000       6.023279       163.9018 
 159   0.0000       6.204654       168.8372 
 160   0.0000       6.229962       169.5259 
 161   0.0000       6.256445       170.2465 
 162   0.0000       6.320269       171.9833 
 163   0.0000       6.321325       172.0120 
 164   0.0000       6.335533       172.3986 
 165   0.0000       6.348461       172.7504 
 166   0.0000       6.372700       173.4100 
 167   0.0000       6.422273       174.7589 
 168   0.0000       6.455482       175.6626 
 169   0.0000       6.643847       180.7883 
 170   0.0000       6.833022       185.9360 
 171   0.0000       6.854079       186.5090 
 172   0.0000       6.889194       187.4645 
 173   0.0000       6.904601       187.8837 
 174   0.0000       7.011244       190.7856 
 175   0.0000       7.086353       192.8295 
 176   0.0000       7.202658       195.9943 
 177   0.0000       7.238610       196.9726 
 178   0.0000       7.277448       198.0294 
 179   0.0000       7.379111       200.7958 
 180   0.0000      22.314826       607.2173 
 181   0.0000      32.313222       879.2875 
 182   0.0000      43.303979      1178.3612 
 183   0.0000      43.870085      1193.7657 
 184   0.0000      43.926442      1195.2992 

                    ********************************
                    * MULLIKEN POPULATION ANALYSIS *
                    ********************************

-----------------------
MULLIKEN ATOMIC CHARGES
-----------------------
   0 C :   -0.277342
   1 H :    0.167670
   2 H :    0.180421
   3 H :    0.175824
   4 N :    0.443197
   5 O :   -0.355727
   6 O :   -0.355386
   7 H :    0.356489
   8 O :   -0.696085
   9 H :    0.360939
Sum of atomic charges:   -0.0000000

--------------------------------
MULLIKEN REDUCED ORBITAL CHARGES
--------------------------------
  0 C s       :     3.287965  s :     3.287965
      pz      :     1.097877  p :     2.932942
      px      :     0.744137
      py      :     1.090928
      dz2     :     0.009707  d :     0.050876
      dxz     :     0.012485
      dyz     :     0.005868
      dx2y2   :     0.012010
      dxy     :     0.010805
      f0      :     0.000739  f :     0.005558
      f+1     :     0.000841
      f-1     :     0.000665
      f+2     :     0.000824
      f-2     :     0.000215
      f+3     :     0.001410
      f-3     :     0.000865
  1 H s       :     0.811058  s :     0.811058
      pz      :     0.007237  p :     0.021271
      px      :     0.006574
      py      :     0.007460
  2 H s       :     0.798156  s :     0.798156
      pz      :     0.004357  p :     0.021423
      px      :     0.005799
      py      :     0.011267
  3 H s       :     0.802531  s :     0.802531
      pz      :     0.012550  p :     0.021645
      px      :     0.003542
      py      :     0.005554
  4 N s       :     3.307414  s :     3.307414
      pz      :     0.872738  p :     2.997190
      px      :     1.041610
      py      :     1.082842
      dz2     :     0.068751  d :     0.237668
      dxz     :     0.068533
      dyz     :     0.057684
      dx2y2   :     0.020676
      dxy     :     0.022024
      f0      :     0.003176  f :     0.014531
      f+1     :     0.003898
      f-1     :     0.001842
      f+2     :     0.002028
      f-2     :     0.001994
      f+3     :     0.000745
      f-3     :     0.000849
  5 O s       :     3.879120  s :     3.879120
      pz      :     1.493159  p :     4.432477
      px      :     1.524898
      py      :     1.414421
      dz2     :     0.007826  d :     0.040863
      dxz     :     0.014887
      dyz     :     0.006644
      dx2y2   :     0.005383
      dxy     :     0.006124
      f0      :     0.000426  f :     0.003266
      f+1     :     0.000994
      f-1     :     0.000167
      f+2     :     0.000710
      f-2     :     0.000668
      f+3     :     0.000141
      f-3     :     0.000162
  6 O s       :     3.879674  s :     3.879674
      pz      :     1.186939  p :     4.431540
      px      :     1.816581
      py      :     1.428020
      dz2     :     0.017420  d :     0.040901
      dxz     :     0.010241
      dyz     :     0.011403
      dx2y2   :     0.000759
      dxy     :     0.001078
      f0      :     0.001232  f :     0.003271
      f+1     :     0.000958
      f-1     :     0.000785
      f+2     :     0.000112
      f-2     :     0.000178
      f+3     :     0.000004
      f-3     :     0.000002
  7 H s       :     0.597504  s :     0.597504
      pz      :     0.015359  p :     0.046007
      px      :     0.017989
      py      :     0.012660
  8 O s       :     3.808278  s :     3.808278
      pz      :     1.927019  p :     4.866805
      px      :     1.580163
      py      :     1.359622
      dz2     :     0.003371  d :     0.019704
      dxz     :     0.002806
      dyz     :     0.001422
      dx2y2   :     0.006534
      dxy     :     0.005571
      f0      :     0.000215  f :     0.001298
      f+1     :     0.000188
      f-1     :     0.000320
      f+2     :     0.000074
      f-2     :     0.000090
      f+3     :     0.000041
      f-3     :     0.000370
  9 H s       :     0.593387  s :     0.593387
      pz      :     0.015066  p :     0.045675
      px      :     0.011809
      py      :     0.018800


                     *******************************
                     * LOEWDIN POPULATION ANALYSIS *
                     *******************************

----------------------
LOEWDIN ATOMIC CHARGES
----------------------
   0 C :   -0.284059
   1 H :    0.140924
   2 H :    0.151878
   3 H :    0.139943
   4 N :   -0.067244
   5 O :   -0.065003
   6 O :   -0.064303
   7 H :    0.171177
   8 O :   -0.298529
   9 H :    0.175217

-------------------------------
LOEWDIN REDUCED ORBITAL CHARGES
-------------------------------
  0 C s       :     2.872239  s :     2.872239
      pz      :     1.109263  p :     3.105074
      px      :     0.887348
      py      :     1.108464
      dz2     :     0.052721  d :     0.271506
      dxz     :     0.059929
      dyz     :     0.026407
      dx2y2   :     0.071869
      dxy     :     0.060581
      f0      :     0.003464  f :     0.035240
      f+1     :     0.005724
      f-1     :     0.002409
      f+2     :     0.006004
      f-2     :     0.003312
      f+3     :     0.008453
      f-3     :     0.005874
  1 H s       :     0.798248  s :     0.798248
      pz      :     0.021977  p :     0.060828
      px      :     0.017007
      py      :     0.021844
  2 H s       :     0.787089  s :     0.787089
      pz      :     0.012733  p :     0.061032
      px      :     0.014950
      py      :     0.033349
  3 H s       :     0.797874  s :     0.797874
      pz      :     0.036761  p :     0.062183
      px      :     0.009019
      py      :     0.016403
  4 N s       :     2.945103  s :     2.945103
      pz      :     1.110706  p :     3.295831
      px      :     1.178040
      py      :     1.007085
      dz2     :     0.235740  d :     0.752057
      dxz     :     0.234786
      dyz     :     0.149574
      dx2y2   :     0.071262
      dxy     :     0.060694
      f0      :     0.017343  f :     0.074253
      f+1     :     0.021583
      f-1     :     0.006608
      f+2     :     0.011499
      f-2     :     0.011156
      f+3     :     0.003024
      f-3     :     0.003040
  5 O s       :     3.505685  s :     3.505685
      pz      :     1.532266  p :     4.450556
      px      :     1.542219
      py      :     1.376071
      dz2     :     0.020853  d :     0.097817
      dxz     :     0.038522
      dyz     :     0.013190
      dx2y2   :     0.014269
      dxy     :     0.010983
      f0      :     0.001531  f :     0.010946
      f+1     :     0.003386
      f-1     :     0.000572
      f+2     :     0.002527
      f-2     :     0.001778
      f+3     :     0.000605
      f-3     :     0.000548
  6 O s       :     3.505266  s :     3.505266
      pz      :     1.340895  p :     4.450096
      px      :     1.724667
      py      :     1.384534
      dz2     :     0.045656  d :     0.097969
      dxz     :     0.027647
      dyz     :     0.021246
      dx2y2   :     0.001898
      dxy     :     0.001522
      f0      :     0.004451  f :     0.010972
      f+1     :     0.003426
      f-1     :     0.002224
      f+2     :     0.000437
      f-2     :     0.000403
      f+3     :     0.000019
      f-3     :     0.000011
  7 H s       :     0.668397  s :     0.668397
      pz      :     0.047860  p :     0.160427
      px      :     0.074733
      py      :     0.037834
  8 O s       :     3.453191  s :     3.453191
      pz      :     1.870380  p :     4.813412
      px      :     1.576705
      py      :     1.366327
      dz2     :     0.004647  d :     0.029542
      dxz     :     0.002229
      dyz     :     0.001895
      dx2y2   :     0.011168
      dxy     :     0.009602
      f0      :     0.000176  f :     0.002384
      f+1     :     0.000197
      f-1     :     0.000461
      f+2     :     0.000177
      f-2     :     0.000210
      f+3     :     0.000282
      f-3     :     0.000882
  9 H s       :     0.665457  s :     0.665457
      pz      :     0.045949  p :     0.159326
      px      :     0.036683
      py      :     0.076694


                      *****************************
                      * MAYER POPULATION ANALYSIS *
                      *****************************

  NA   - Mulliken gross atomic population
  ZA   - Total nuclear charge
  QA   - Mulliken gross atomic charge
  VA   - Mayer's total valence
  BVA  - Mayer's bonded valence
  FA   - Mayer's free valence

  ATOM       NA         ZA         QA         VA         BVA        FA
  0 C      6.2773     6.0000    -0.2773     3.7771     3.7771    -0.0000
  1 H      0.8323     1.0000     0.1677     0.9771     0.9771    -0.0000
  2 H      0.8196     1.0000     0.1804     0.9655     0.9655    -0.0000
  3 H      0.8242     1.0000     0.1758     0.9702     0.9702    -0.0000
  4 N      6.5568     7.0000     0.4432     4.0882     4.0882    -0.0000
  5 O      8.3557     8.0000    -0.3557     1.8791     1.8791    -0.0000
  6 O      8.3554     8.0000    -0.3554     1.8769     1.8769     0.0000
  7 H      0.6435     1.0000     0.3565     0.8885     0.8885     0.0000
  8 O      8.6961     8.0000    -0.6961     1.7927     1.7927    -0.0000
  9 H      0.6391     1.0000     0.3609     0.8829     0.8829    -0.0000

  Mayer bond orders larger than 0.100000
B(  0-C ,  1-H ) :   0.9459 B(  0-C ,  2-H ) :   0.9300 B(  0-C ,  3-H ) :   0.9463 
B(  0-C ,  4-N ) :   0.8835 B(  4-N ,  5-O ) :   1.6011 B(  4-N ,  6-O ) :   1.5974 
B(  5-O ,  6-O ) :   0.2089 B(  7-H ,  8-O ) :   0.8804 B(  8-O ,  9-H ) :   0.8786 


-------
TIMINGS
-------

Total SCF time: 0 days 0 hours 0 min 7 sec 

Total time                  ....       7.412 sec
Sum of individual times     ....       6.971 sec  ( 94.0%)

Fock matrix formation       ....       5.601 sec  ( 75.6%)
  Split-RI-J                ....       0.909 sec  ( 16.2% of F)
  Chain of spheres X        ....       1.691 sec  ( 30.2% of F)
  XC integration            ....       0.760 sec  ( 13.6% of F)
    Basis function eval.    ....       0.047 sec  (  6.1% of XC)
    Density eval.           ....       0.076 sec  ( 10.0% of XC)
    XC-Functional eval.     ....       0.008 sec  (  1.1% of XC)
    XC-Potential eval.      ....       0.052 sec  (  6.9% of XC)
Diagonalization             ....       0.155 sec  (  2.1%)
Density matrix formation    ....       0.061 sec  (  0.8%)
Population analysis         ....       0.025 sec  (  0.3%)
Initial guess               ....       0.054 sec  (  0.7%)
Orbital Transformation      ....       0.000 sec  (  0.0%)
Orbital Orthonormalization  ....       0.000 sec  (  0.0%)
DIIS solution               ....       0.122 sec  (  1.6%)
SOSCF solution              ....       0.223 sec  (  3.0%)
Grid generation             ....       0.730 sec  (  9.8%)

Maximum memory used throughout the entire SCF-calculation: 64.9 MB


-------------------------------------------------------------------------------
                          DFT DISPERSION CORRECTION                            
                                                                               
                              DFTD3 V3.1  Rev 1                                
                          USING Becke-Johnson damping                          
-------------------------------------------------------------------------------
The B3LYP functional is recognized
Active option DFTDOPT                   ...         4   

molecular C6(AA) [au] = 741.681193 


            DFT-D V3
 parameters
 s6 scaling factor         :     1.0000 
 a1 scaling factor         :     0.3981 
 s8 scaling factor         :     1.9889 
 a2 scaling factor         :     4.4211 
 ad hoc parameters k1-k3   :    16.0000     1.3333    -4.0000 

 Edisp/kcal,au: -5.149739873782  -0.008206631991 
 E6   /kcal   :  -2.603767912 
 E8   /kcal   :  -2.545971961 
 % E8         :  49.438845919 

-------------------------   ----------------
Dispersion correction           -0.008206632
-------------------------   ----------------


-------------------------   --------------------
FINAL SINGLE POINT ENERGY      -321.451587640048
-------------------------   --------------------



           ************************************************************
           *        Program running with 102 parallel MPI-processes   *
           *              working on a common directory               *
           ************************************************************
------------------------------------------------------------------------------
                         ORCA SCF GRADIENT CALCULATION
------------------------------------------------------------------------------

 ... reading COSX grid (gridx3)
Gradient of the Kohn-Sham DFT energy:
Kohn-Sham wavefunction type      ... RKS
Hartree-Fock exchange scaling    ...    0.200
Number of operators              ...    1
Number of atoms                  ...   10
Basis set dimensions             ...  185
Integral neglect threshold       ... 2.5e-11
Integral primitive cutoff        ... 2.5e-12
SHARK Integral package           ... ON

Nuc. rep. gradient       (SHARK) ... done (  0.0 sec)
HCore & Overlap gradient (SHARK) ... done (  0.0 sec)
RI-J gradient            (SHARK) ... done (  0.1 sec)
COSX-gradient                    ... done (  0.2 sec)
Exchange-correlation gradient    ... done
Dispersion correction            ... done

------------------
CARTESIAN GRADIENT
------------------

   1   C   :   -0.039512095    0.006321068   -0.009385998
   2   H   :    0.014911474   -0.009489047   -0.005825614
   3   H   :    0.012893605    0.009552423    0.001923314
   4   H   :    0.009687892   -0.006103010    0.013174478
   5   N   :    0.021579409   -0.000619974    0.004834569
   6   O   :   -0.005127238   -0.000810026   -0.006802329
   7   O   :   -0.008126532    0.000561768    0.004076899
   8   H   :   -0.001727108    0.001583136    0.000206526
   9   O   :   -0.004470172   -0.000949327   -0.001825256
  10   H   :    0.000003246   -0.000107481   -0.000481717

Difference to translation invariance:
           :    0.0001124796   -0.0000604721   -0.0001051270

Difference to rotation invariance:
           :    0.0003493374   -0.0004405579   -0.0005189000

Norm of the cartesian gradient     ...    0.0572456535
RMS gradient                       ...    0.0104515786
MAX gradient                       ...    0.0395120954

-------
TIMINGS
-------

Total SCF gradient time            ...        1.208 sec

One electron gradient       ....       0.022 sec  (  1.8%)
RI-J Coulomb gradient       ....       0.116 sec  (  9.6%)
COSX gradient               ....       0.208 sec  ( 17.2%)
XC gradient                 ....       0.121 sec  ( 10.0%)
CPCM gradient               ....       0.092 sec  (  7.6%)
   A-Matrix (El+Nuc)        ....       0.036 sec  (  3.0%)
   Potential                ....       0.056 sec  (  4.6%)

Maximum memory used throughout the entire SCFGRAD-calculation: 39.4 MB
------------------------------------------------------------------------------
                         ORCA GEOMETRY RELAXATION STEP
------------------------------------------------------------------------------

Reading the OPT-File                    .... done
Getting information on internals        .... done
Copying old internal coords+grads       .... done
Making the new internal coordinates     .... (new redundants).... done
Validating the new internal coordinates .... (new redundants).... done
Calculating the B-matrix                .... done
Calculating the G,G- and P matrices     .... done
Transforming gradient to internals      .... done
Projecting the internal gradient        .... done
Number of atoms                         ....  10
Number of internal coordinates          ....  48
Current Energy                          ....  -321.451587640 Eh
Current gradient norm                   ....     0.057245654 Eh/bohr
Maximum allowed component of the step   ....  0.300
Current trust radius                    ....  0.300
Evaluating the initial hessian          ....  (Almloef) done
Projecting the Hessian                  .... done
Forming the augmented Hessian           .... done
Diagonalizing the augmented Hessian     .... done
Last element of RFO vector              ....  0.915976195
Lowest eigenvalues of augmented Hessian:
 -0.004700400  0.001395120  0.002281765  0.010666239  0.016278656
Length of the computed step             ....  0.438038254
Warning: the length of the step is outside the trust region - taking restricted step instead
The input lambda is                     ....    -0.004700
   iter:   1  x=   -0.006428  g=   58.962007 f(x)=     0.101878
   iter:   2  x=   -0.007566  g=   27.705365 f(x)=     0.031524
   iter:   3  x=   -0.007878  g=   18.431808 f(x)=     0.005758
   iter:   4  x=   -0.007896  g=   16.637371 f(x)=     0.000287
   iter:   5  x=   -0.007896  g=   16.545369 f(x)=     0.000001
   iter:   6  x=   -0.007896  g=   16.545114 f(x)=     0.000000
   iter:   7  x=   -0.007896  g=   16.545114 f(x)=     0.000000
The output lambda is                    ....    -0.007896 (7 iterations)
The final length of the internal step   ....  0.300000000
Converting the step to cartesian space:
 Initial RMS(Int)=    0.0433012702
Transforming coordinates:
 Iter   0:  RMS(Cart)=    0.0339218174 RMS(Int)=    0.0434847263
 Iter   1:  RMS(Cart)=    0.0002459998 RMS(Int)=    0.0003006682
 Iter   2:  RMS(Cart)=    0.0000036886 RMS(Int)=    0.0000034470
 Iter   3:  RMS(Cart)=    0.0000000542 RMS(Int)=    0.0000000722
done
Storing new coordinates                 .... done

                                .--------------------.
          ----------------------|Geometry convergence|-------------------------
          Item                value                   Tolerance       Converged
          ---------------------------------------------------------------------
          RMS gradient        0.0049557317            0.0001000000      NO
          MAX gradient        0.0171221335            0.0003000000      NO
          RMS step            0.0433012702            0.0020000000      NO
          MAX step            0.1279591135            0.0040000000      NO
          ........................................................
          Max(Bonds)      0.0677      Max(Angles)    1.60
          Max(Dihed)        1.04      Max(Improp)    0.00
          ---------------------------------------------------------------------

The optimization has not yet converged - more geometry cycles are needed


    ---------------------------------------------------------------------------
                         Redundant Internal Coordinates
                            (Angstroem and degrees)

        Definition                    Value    dE/dq     Step     New-Value
    ----------------------------------------------------------------------------
     1. B(H   1,C   0)                1.1109  0.017122 -0.0263    1.0845   
     2. B(H   2,C   0)                1.1126  0.013513 -0.0221    1.0905   
     3. B(H   3,C   0)                1.1068  0.015035 -0.0235    1.0833   
     4. B(N   4,C   0)                1.4569 -0.008603  0.0102    1.4671   
     5. B(O   5,N   4)                1.2238 -0.001487  0.0008    1.2247   
     6. B(O   6,N   4)                1.2231 -0.001885  0.0011    1.2242   
     7. B(O   8,H   7)                0.9634 -0.002286  0.0023    0.9658   
     8. B(O   8,H   2)                2.6841 -0.000735  0.0585    2.7426   
     9. B(O   8,H   1)                2.6256 -0.003106  0.0595    2.6850   
    10. B(O   8,C   0)                2.7515  0.002013  0.0505    2.8020   
    11. B(O   8,H   3)                2.3945 -0.004349  0.0677    2.4622   
    12. B(H   9,H   2)                2.4669 -0.003603  0.0562    2.5231   
    13. B(H   9,H   1)                2.9310 -0.000218  0.0378    2.9688   
    14. B(H   9,C   0)                2.9199  0.003321  0.0338    2.9537   
    15. B(H   9,H   3)                2.7769 -0.000545  0.0446    2.8215   
    16. B(H   9,O   8)                0.9657 -0.000854 -0.0008    0.9649   
    17. A(H   3,C   0,O   8)           59.82 -0.002146    0.97     60.79   
    18. A(H   2,C   0,O   8)           74.81 -0.002188    0.80     75.61   
    19. A(N   4,C   0,O   8)          171.55 -0.000586    0.26    171.81   
    20. A(H   1,C   0,H   2)          107.10 -0.002677    0.83    107.94   
    21. A(H   3,C   0,N   4)          111.80  0.001561   -0.72    111.09   
    22. A(H   2,C   0,H   3)          107.32 -0.002019    0.71    108.03   
    23. A(H   1,C   0,H   3)          108.15 -0.003303    1.22    109.37   
    24. A(H   1,C   0,N   4)          111.91  0.003386   -0.90    111.00   
    25. A(H   2,C   0,N   4)          110.33  0.002569   -0.98    109.35   
    26. A(H   1,C   0,O   8)           71.78 -0.003151    0.81     72.60   
    27. A(C   0,N   4,O   5)          118.94  0.006036   -0.72    118.22   
    28. A(O   5,N   4,O   6)          121.72 -0.013332    1.60    123.32   
    29. A(C   0,N   4,O   6)          119.33  0.007301   -0.89    118.44   
    30. A(C   0,O   8,H   7)          139.34 -0.000277    0.16    139.50   
    31. A(H   7,O   8,H   9)          104.03 -0.000829    0.28    104.31   
    32. A(C   0,O   8,H   9)           90.24  0.000993   -0.86     89.39   
    33. D(O   5,N   4,C   0,H   3)     28.25 -0.000090    0.63     28.88   
    34. D(O   6,N   4,C   0,H   1)    -30.61 -0.000085   -0.56    -31.16   
    35. D(O   5,N   4,C   0,H   1)    149.75 -0.000822    1.04    150.80   
    36. D(O   6,N   4,C   0,H   3)   -152.11  0.000647   -0.97   -153.08   
    37. D(O   6,N   4,C   0,H   2)     88.54  0.000457   -0.75     87.79   
    38. D(O   6,N   4,C   0,O   8)   -145.07  0.000423   -0.85   -145.92   
    39. D(O   5,N   4,C   0,O   8)     35.29 -0.000315    0.74     36.04   
    40. D(O   5,N   4,C   0,H   2)    -91.10 -0.000280    0.85    -90.25   
    41. D(H   9,O   8,C   0,H   2)     -2.78  0.000240   -0.37     -3.16   
    42. D(H   9,O   8,C   0,H   1)    111.43 -0.000360   -0.17    111.26   
    43. D(H   7,O   8,C   0,N   4)    116.52  0.000037    0.46    116.98   
    44. D(H   7,O   8,C   0,H   3)    124.08 -0.000121    0.55    124.64   
    45. D(H   7,O   8,C   0,H   2)   -114.94  0.000454    0.18   -114.75   
    46. D(H   9,O   8,C   0,H   3)   -123.77 -0.000335   -0.00   -123.77   
    47. D(H   7,O   8,C   0,H   1)     -0.72 -0.000145    0.38     -0.34   
    48. D(H   9,O   8,C   0,N   4)   -131.33 -0.000177   -0.09   -131.42   
    ----------------------------------------------------------------------------

         *************************************************************
         *                GEOMETRY OPTIMIZATION CYCLE   2            *
         *************************************************************
---------------------------------
CARTESIAN COORDINATES (ANGSTROEM)
---------------------------------
  C      0.431536   -0.781317    0.556336
  H      0.968064   -1.418042   -0.138606
  H      0.892764    0.206513    0.531154
  H      0.537810   -1.175308    1.559791
  N     -0.982167   -0.667327    0.181026
  O     -1.803608   -0.477748    1.069334
  O     -1.277173   -0.729862   -1.005408
  H      3.816493   -1.651905    1.382734
  O      2.999641   -1.185452    1.601519
  H      3.202789   -0.257214    1.433699

----------------------------
CARTESIAN COORDINATES (A.U.)
----------------------------
  NO LB      ZA    FRAG     MASS         X           Y           Z
   0 C     6.0000    0    12.011    0.815484   -1.476475    1.051322
   1 H     1.0000    0     1.008    1.829375   -2.679712   -0.261927
   2 H     1.0000    0     1.008    1.687079    0.390253    1.003736
   3 H     1.0000    0     1.008    1.016313   -2.221010    2.947577
   4 N     7.0000    0    14.007   -1.856027   -1.261066    0.342089
   5 O     8.0000    0    15.999   -3.408326   -0.902812    2.020748
   6 O     8.0000    0    15.999   -2.413506   -1.379238   -1.899946
   7 H     1.0000    0     1.008    7.212127   -3.121648    2.612988
   8 O     8.0000    0    15.999    5.668500   -2.240180    3.026433
   9 H     1.0000    0     1.008    6.052393   -0.486064    2.709299

--------------------------------
INTERNAL COORDINATES (ANGSTROEM)
--------------------------------
 C      0   0   0     0.000000000000     0.00000000     0.00000000
 H      1   0   0     1.084539166377     0.00000000     0.00000000
 H      1   2   0     1.090492262970   107.92597015     0.00000000
 H      1   2   3     1.083256736001   109.35993951   242.72235607
 N      1   2   3     1.467108317526   111.00156160   119.81040034
 O      5   1   2     1.224662451453   118.21647333   150.79229071
 O      5   1   2     1.224158315968   118.43605755   328.83489813
 H      2   1   3     3.237702534427   100.16863981    68.04379390
 O      8   2   1     0.965760279561    47.73516628   359.75171701
 H      9   8   2     0.964913550905   104.30942615   253.78489863

---------------------------
INTERNAL COORDINATES (A.U.)
---------------------------
 C      0   0   0     0.000000000000     0.00000000     0.00000000
 H      1   0   0     2.049482005964     0.00000000     0.00000000
 H      1   2   0     2.060731728173   107.92597015     0.00000000
 H      1   2   3     2.047058563767   109.35993951   242.72235607
 N      1   2   3     2.772432928921   111.00156160   119.81040034
 O      5   1   2     2.314276639742   118.21647333   150.79229071
 O      5   1   2     2.313323961741   118.43605755   328.83489813
 H      2   1   3     6.118371093170   100.16863981    68.04379390
 O      8   2   1     1.825022439390    47.73516628   359.75171701
 H      9   8   2     1.823422354119   104.30942615   253.78489863



           ************************************************************
           *        Program running with 102 parallel MPI-processes   *
           *              working on a common directory               *
           ************************************************************
------------------------------------------------------------------------------
                   ___                                                        
                  /   \      - P O W E R E D   B Y -                         
                 /     \                                                     
                 |  |  |   _    _      __       _____    __    __             
                 |  |  |  | |  | |    /  \     |  _  \  |  |  /  |          
                  \  \/   | |  | |   /    \    | | | |  |  | /  /          
                 / \  \   | |__| |  /  /\  \   | |_| |  |  |/  /          
                |  |  |   |  __  | /  /__\  \  |    /   |      \           
                |  |  |   | |  | | |   __   |  |    \   |  |\   \          
                \     /   | |  | | |  |  |  |  | |\  \  |  | \   \       
                 \___/    |_|  |_| |__|  |__|  |_| \__\ |__|  \__/        
                                                                              
                      - O R C A' S   B I G   F R I E N D -                    
                                      &                                       
                       - I N T E G R A L  F E E D E R -                       
                                                                              
 v1 FN, 2020, v2 2021                                                         
------------------------------------------------------------------------------


Reading SHARK input file /home/rudenko/mop_saddle_orca_4_serv/for_orca/CH3NO2_H2O_near/orca/orca_start/start.SHARKINP.tmp ... ok
----------------------
SHARK INTEGRAL PACKAGE
----------------------

Number of atoms                             ...     10
Number of basis functions                   ...    185
Number of shells                            ...     75
Maximum angular momentum                    ...      3
Integral batch strategy                     ... SHARK/LIBINT Hybrid
RI-J (if used) integral strategy            ... SPLIT-RIJ (Revised 2003 algorithm where possible)
Printlevel                                  ...      1
Contraction scheme used                     ... SEGMENTED contraction
Coulomb Range Separation                    ... NOT USED
Exchange Range Separation                   ... NOT USED
Finite Nucleus Model                        ... NOT USED
Auxiliary Coulomb fitting basis             ... AVAILABLE
   # of basis functions in Aux-J            ...    300
   # of shells in Aux-J                     ...    100
   Maximum angular momentum in Aux-J        ...      4
Auxiliary J/K fitting basis                 ... NOT available
Auxiliary Correlation fitting basis         ... NOT available
Auxiliary 'external' fitting basis          ... NOT available
Integral threshold                          ...     2.500000e-11
Primitive cut-off                           ...     2.500000e-12
Primitive pair pre-selection threshold      ...     2.500000e-12

Calculating pre-screening integrals         ... done (  0.0 sec) Dimension = 75
Organizing shell pair data                  ... done (  0.1 sec)
Shell pair information
Total number of shell pairs                 ...      2850
Shell pairs after pre-screening             ...      2511
Total number of primitive shell pairs       ...      8640
Primitive shell pairs kept                  ...      5910
          la=0 lb=0:    712 shell pairs
          la=1 lb=0:    728 shell pairs
          la=1 lb=1:    195 shell pairs
          la=2 lb=0:    343 shell pairs
          la=2 lb=1:    177 shell pairs
          la=2 lb=2:     48 shell pairs
          la=3 lb=0:    171 shell pairs
          la=3 lb=1:     85 shell pairs
          la=3 lb=2:     40 shell pairs
          la=3 lb=3:     12 shell pairs

Calculating one electron integrals          ... done (  0.0 sec)
Calculating RI/J V-Matrix + Cholesky decomp.... done (  0.0 sec)
Calculating Nuclear repulsion               ... done (  0.0 sec) ENN=    176.596930365566 Eh

SHARK setup successfully completed in   0.3 seconds

Maximum memory used throughout the entire GTOINT-calculation: 16.1 MB


           ************************************************************
           *        Program running with 102 parallel MPI-processes   *
           *              working on a common directory               *
           ************************************************************

Diagonalization of the overlap matrix:
[...]
  68   0.0000       1.479480        40.2587 
  69   0.0000       1.497637        40.7528 
  70   0.0000       1.499388        40.8004 
  71   0.0000       1.533898        41.7395 
  72   0.0000       1.554773        42.3075 
  73   0.0000       1.584535        43.1174 
  74   0.0000       1.604758        43.6677 
  75   0.0000       1.610275        43.8178 
  76   0.0000       1.659901        45.1682 
  77   0.0000       1.689063        45.9617 
  78   0.0000       1.742506        47.4160 
  79   0.0000       1.756708        47.8025 
  80   0.0000       1.764767        48.0218 
  81   0.0000       1.905509        51.8515 
  82   0.0000       1.920301        52.2541 
  83   0.0000       1.924126        52.3581 
  84   0.0000       1.975264        53.7497 
  85   0.0000       2.013554        54.7916 
  86   0.0000       2.018371        54.9227 
  87   0.0000       2.067203        56.2515 
  88   0.0000       2.102771        57.2193 
  89   0.0000       2.105904        57.3046 
  90   0.0000       2.121683        57.7339 
  91   0.0000       2.172005        59.1033 
  92   0.0000       2.198030        59.8114 
  93   0.0000       2.235089        60.8199 
  94   0.0000       2.250021        61.2262 
  95   0.0000       2.299427        62.5706 
  96   0.0000       2.311286        62.8933 
  97   0.0000       2.352269        64.0085 
  98   0.0000       2.392426        65.1012 
  99   0.0000       2.492535        67.8253 
 100   0.0000       2.544378        69.2360 
 101   0.0000       2.558265        69.6139 
 102   0.0000       2.567721        69.8713 
 103   0.0000       2.583486        70.3002 
 104   0.0000       2.595759        70.6342 
 105   0.0000       2.610339        71.0309 
 106   0.0000       2.656752        72.2939 
 107   0.0000       2.687216        73.1229 
 108   0.0000       2.713683        73.8431 
 109   0.0000       2.749016        74.8045 
 110   0.0000       2.827486        76.9398 
 111   0.0000       2.831956        77.0614 
 112   0.0000       2.918587        79.4188 
 113   0.0000       2.972712        80.8916 
 114   0.0000       2.993857        81.4670 
 115   0.0000       3.058871        83.2361 
 116   0.0000       3.155051        85.8533 
 117   0.0000       3.217995        87.5661 
 118   0.0000       3.223418        87.7137 
 119   0.0000       3.347461        91.0890 
 120   0.0000       3.392835        92.3237 
 121   0.0000       3.456313        94.0511 
 122   0.0000       3.468393        94.3798 
 123   0.0000       3.554419        96.7206 
 124   0.0000       3.652179        99.3809 
 125   0.0000       3.713038       101.0369 
 126   0.0000       3.769907       102.5844 
 127   0.0000       3.919674       106.6597 
 128   0.0000       3.972976       108.1102 
 129   0.0000       4.018537       109.3499 
 130   0.0000       4.087911       111.2377 
 131   0.0000       4.153277       113.0164 
 132   0.0000       4.269847       116.1885 
 133   0.0000       4.405943       119.8918 
 134   0.0000       4.533707       123.3684 
 135   0.0000       4.546257       123.7099 
 136   0.0000       4.595115       125.0394 
 137   0.0000       4.666880       126.9923 
 138   0.0000       4.749371       129.2370 
 139   0.0000       4.794330       130.4603 
 140   0.0000       4.881478       132.8318 
 141   0.0000       5.057031       137.6088 
 142   0.0000       5.076462       138.1375 
 143   0.0000       5.095320       138.6507 
 144   0.0000       5.112670       139.1228 
 145   0.0000       5.125192       139.4636 
 146   0.0000       5.130575       139.6100 
 147   0.0000       5.198547       141.4596 
 148   0.0000       5.265737       143.2880 
 149   0.0000       5.285018       143.8126 
 150   0.0000       5.314115       144.6044 
 151   0.0000       5.374695       146.2529 
 152   0.0000       5.399423       146.9258 
 153   0.0000       5.453127       148.3871 
 154   0.0000       5.554735       151.1520 
 155   0.0000       5.598460       152.3418 
 156   0.0000       5.675234       154.4310 
 157   0.0000       5.921160       161.1229 
 158   0.0000       6.015155       163.6807 
 159   0.0000       6.200860       168.7340 
 160   0.0000       6.221772       169.3030 
 161   0.0000       6.256017       170.2349 
 162   0.0000       6.308562       171.6647 
 163   0.0000       6.321002       172.0032 
 164   0.0000       6.323958       172.0836 
 165   0.0000       6.337414       172.4498 
 166   0.0000       6.359935       173.0626 
 167   0.0000       6.398883       174.1224 
 168   0.0000       6.423490       174.7921 
 169   0.0000       6.629367       180.3942 
 170   0.0000       6.833388       185.9459 
 171   0.0000       6.853009       186.4799 
 172   0.0000       6.896629       187.6668 
 173   0.0000       6.911210       188.0636 
 174   0.0000       6.988602       190.1695 
 175   0.0000       7.065523       192.2626 
 176   0.0000       7.208472       196.1525 
 177   0.0000       7.240685       197.0291 
 178   0.0000       7.297505       198.5752 
 179   0.0000       7.368507       200.5073 
 180   0.0000      22.334281       607.7467 
 181   0.0000      32.300678       878.9461 
 182   0.0000      43.271695      1177.4827 
 183   0.0000      43.884049      1194.1457 
 184   0.0000      43.913363      1194.9434 

                    ********************************
                    * MULLIKEN POPULATION ANALYSIS *
                    ********************************

-----------------------
MULLIKEN ATOMIC CHARGES
-----------------------
   0 C :   -0.272704
   1 H :    0.173676
   2 H :    0.179143
   3 H :    0.164651
   4 N :    0.430187
   5 O :   -0.348128
   6 O :   -0.346947
   7 H :    0.360873
   8 O :   -0.701650
   9 H :    0.360899
Sum of atomic charges:    0.0000000

--------------------------------
MULLIKEN REDUCED ORBITAL CHARGES
--------------------------------
  0 C s       :     3.291669  s :     3.291669
      pz      :     1.055917  p :     2.926740
      px      :     0.777369
      py      :     1.093454
      dz2     :     0.010348  d :     0.049107
      dxz     :     0.011580
      dyz     :     0.005623
      dx2y2   :     0.011541
      dxy     :     0.010015
      f0      :     0.001110  f :     0.005188
      f+1     :     0.000686
      f-1     :     0.000372
      f+2     :     0.000796
      f-2     :     0.000285
      f+3     :     0.001243
      f-3     :     0.000696
  1 H s       :     0.804735  s :     0.804735
      pz      :     0.006450  p :     0.021589
      px      :     0.006323
      py      :     0.008816
  2 H s       :     0.799085  s :     0.799085
      pz      :     0.004244  p :     0.021773
      px      :     0.005751
      py      :     0.011778
  3 H s       :     0.813700  s :     0.813700
      pz      :     0.013735  p :     0.021649
      px      :     0.003130
      py      :     0.004784
  4 N s       :     3.315379  s :     3.315379
      pz      :     0.884987  p :     3.001799
      px      :     1.035415
      py      :     1.081398
      dz2     :     0.064733  d :     0.238245
      dxz     :     0.074083
      dyz     :     0.055569
      dx2y2   :     0.018991
      dxy     :     0.024869
      f0      :     0.002553  f :     0.014389
      f+1     :     0.004964
      f-1     :     0.001953
      f+2     :     0.001411
      f-2     :     0.001660
      f+3     :     0.000842
      f-3     :     0.001007
  5 O s       :     3.879041  s :     3.879041
      pz      :     1.550988  p :     4.424551
      px      :     1.455540
      py      :     1.418023
      dz2     :     0.006838  d :     0.041266
      dxz     :     0.015109
      dyz     :     0.005279
      dx2y2   :     0.006769
      dxy     :     0.007270
      f0      :     0.000399  f :     0.003270
      f+1     :     0.000908
      f-1     :     0.000072
      f+2     :     0.000807
      f-2     :     0.000638
      f+3     :     0.000197
      f-3     :     0.000249
  6 O s       :     3.875351  s :     3.875351
      pz      :     1.150757  p :     4.427184
      px      :     1.856275
      py      :     1.420151
      dz2     :     0.019138  d :     0.041142
      dxz     :     0.008948
      dyz     :     0.012245
      dx2y2   :     0.000406
      dxy     :     0.000405
      f0      :     0.001447  f :     0.003270
      f+1     :     0.000795
      f-1     :     0.000916
      f+2     :     0.000050
      f-2     :     0.000054
      f+3     :     0.000004
      f-3     :     0.000004
  7 H s       :     0.593141  s :     0.593141
      pz      :     0.017652  p :     0.045985
      px      :     0.015502
      py      :     0.012831
  8 O s       :     3.808369  s :     3.808369
      pz      :     1.589816  p :     4.872533
      px      :     1.939285
      py      :     1.343432
      dz2     :     0.005866  d :     0.019463
      dxz     :     0.001949
      dyz     :     0.007782
      dx2y2   :     0.003410
      dxy     :     0.000455
      f0      :     0.000041  f :     0.001286
      f+1     :     0.000037
      f-1     :     0.000294
      f+2     :     0.000345
      f-2     :     0.000022
      f+3     :     0.000120
      f-3     :     0.000426
  9 H s       :     0.593103  s :     0.593103
      pz      :     0.011655  p :     0.045997
      px      :     0.015519
      py      :     0.018824


                     *******************************
                     * LOEWDIN POPULATION ANALYSIS *
                     *******************************

----------------------
LOEWDIN ATOMIC CHARGES
----------------------
   0 C :   -0.242726
   1 H :    0.137928
   2 H :    0.142869
   3 H :    0.130290
   4 N :   -0.067706
   5 O :   -0.057731
   6 O :   -0.061304
   7 H :    0.172954
   8 O :   -0.327901
   9 H :    0.173328

-------------------------------
LOEWDIN REDUCED ORBITAL CHARGES
-------------------------------
  0 C s       :     2.871608  s :     2.871608
      pz      :     1.088192  p :     3.086516
      px      :     0.886851
      py      :     1.111473
      dz2     :     0.058394  d :     0.251169
      dxz     :     0.054389
      dyz     :     0.023124
      dx2y2   :     0.061215
      dxy     :     0.054048
      f0      :     0.004084  f :     0.033432
      f+1     :     0.004461
      f-1     :     0.001489
      f+2     :     0.007673
      f-2     :     0.004019
      f+3     :     0.007325
      f-3     :     0.004382
  1 H s       :     0.797464  s :     0.797464
      pz      :     0.020584  p :     0.064609
      px      :     0.017350
      py      :     0.026675
  2 H s       :     0.792540  s :     0.792540
      pz      :     0.013547  p :     0.064591
      px      :     0.015672
      py      :     0.035372
  3 H s       :     0.805100  s :     0.805100
      pz      :     0.040524  p :     0.064610
      px      :     0.009000
      py      :     0.015086
  4 N s       :     2.952726  s :     2.952726
      pz      :     1.117844  p :     3.292970
      px      :     1.169107
      py      :     1.006019
      dz2     :     0.226439  d :     0.749340
      dxz     :     0.246173
      dyz     :     0.144081
      dx2y2   :     0.069694
      dxy     :     0.062953
      f0      :     0.013495  f :     0.072670
      f+1     :     0.027685
      f-1     :     0.007081
      f+2     :     0.007927
      f-2     :     0.008901
      f+3     :     0.003929
      f-3     :     0.003652
  5 O s       :     3.504455  s :     3.504455
      pz      :     1.566259  p :     4.443398
      px      :     1.504226
      py      :     1.372913
      dz2     :     0.018114  d :     0.098836
      dxz     :     0.039327
      dyz     :     0.010204
      dx2y2   :     0.018815
      dxy     :     0.012376
      f0      :     0.001376  f :     0.011043
      f+1     :     0.003181
      f-1     :     0.000249
      f+2     :     0.002962
      f-2     :     0.001616
      f+3     :     0.000934
      f-3     :     0.000725
  6 O s       :     3.503981  s :     3.503981
      pz      :     1.318661  p :     4.447542
      px      :     1.749724
      py      :     1.379158
      dz2     :     0.050364  d :     0.098745
      dxz     :     0.024417
      dyz     :     0.022654
      dx2y2   :     0.000762
      dxy     :     0.000548
      f0      :     0.005189  f :     0.011035
      f+1     :     0.002992
      f-1     :     0.002571
      f+2     :     0.000136
      f-2     :     0.000135
      f+3     :     0.000008
      f-3     :     0.000005
  7 H s       :     0.667518  s :     0.667518
      pz      :     0.073433  p :     0.159528
      px      :     0.045851
      py      :     0.040244
  8 O s       :     3.459603  s :     3.459603
      pz      :     1.601775  p :     4.837120
      px      :     1.884485
      py      :     1.350860
      dz2     :     0.007540  d :     0.028835
      dxz     :     0.000825
      dyz     :     0.013231
      dx2y2   :     0.006770
      dxy     :     0.000469
      f0      :     0.000267  f :     0.002342
      f+1     :     0.000026
      f-1     :     0.000827
      f+2     :     0.000518
      f-2     :     0.000046
      f+3     :     0.000040
      f-3     :     0.000619
  9 H s       :     0.667229  s :     0.667229
      pz      :     0.038710  p :     0.159443
      px      :     0.045802
      py      :     0.074932


                      *****************************
                      * MAYER POPULATION ANALYSIS *
                      *****************************

  NA   - Mulliken gross atomic population
  ZA   - Total nuclear charge
  QA   - Mulliken gross atomic charge
  VA   - Mayer's total valence
  BVA  - Mayer's bonded valence
  FA   - Mayer's free valence

  ATOM       NA         ZA         QA         VA         BVA        FA
  0 C      6.2727     6.0000    -0.2727     3.8015     3.8015    -0.0000
  1 H      0.8263     1.0000     0.1737     0.9699     0.9699    -0.0000
  2 H      0.8209     1.0000     0.1791     0.9658     0.9658    -0.0000
  3 H      0.8353     1.0000     0.1647     0.9722     0.9722     0.0000
  4 N      6.5698     7.0000     0.4302     4.1099     4.1099     0.0000
  5 O      8.3481     8.0000    -0.3481     1.9008     1.9008     0.0000
  6 O      8.3469     8.0000    -0.3469     1.8806     1.8806     0.0000
  7 H      0.6391     1.0000     0.3609     0.8861     0.8861     0.0000
  8 O      8.7017     8.0000    -0.7017     1.8015     1.8015    -0.0000
  9 H      0.6391     1.0000     0.3609     0.8857     0.8857    -0.0000

  Mayer bond orders larger than 0.100000
B(  0-C ,  1-H ) :   0.9436 B(  0-C ,  2-H ) :   0.9376 B(  0-C ,  3-H ) :   0.9537 
B(  0-C ,  4-N ) :   0.8745 B(  4-N ,  5-O ) :   1.6230 B(  4-N ,  6-O ) :   1.6084 
B(  5-O ,  6-O ) :   0.2101 B(  7-H ,  8-O ) :   0.8807 B(  8-O ,  9-H ) :   0.8806 


-------
TIMINGS
-------

Total SCF time: 0 days 0 hours 0 min 4 sec 

Total time                  ....       4.565 sec
Sum of individual times     ....       4.098 sec  ( 89.8%)

Fock matrix formation       ....       3.085 sec  ( 67.6%)
  Split-RI-J                ....       0.635 sec  ( 20.6% of F)
  Chain of spheres X        ....       0.964 sec  ( 31.3% of F)
  XC integration            ....       0.386 sec  ( 12.5% of F)
    Basis function eval.    ....       0.020 sec  (  5.3% of XC)
    Density eval.           ....       0.032 sec  (  8.2% of XC)
    XC-Functional eval.     ....       0.003 sec  (  0.8% of XC)
    XC-Potential eval.      ....       0.017 sec  (  4.4% of XC)
Diagonalization             ....       0.032 sec  (  0.7%)
Density matrix formation    ....       0.038 sec  (  0.8%)
Population analysis         ....       0.071 sec  (  1.6%)
Initial guess               ....       0.030 sec  (  0.7%)
Orbital Transformation      ....       0.000 sec  (  0.0%)
Orbital Orthonormalization  ....       0.017 sec  (  0.4%)
DIIS solution               ....       0.023 sec  (  0.5%)
SOSCF solution              ....       0.161 sec  (  3.5%)
Grid generation             ....       0.657 sec  ( 14.4%)

Maximum memory used throughout the entire SCF-calculation: 65.0 MB


-------------------------------------------------------------------------------
                          DFT DISPERSION CORRECTION                            
                                                                               
                              DFTD3 V3.1  Rev 1                                
                          USING Becke-Johnson damping                          
-------------------------------------------------------------------------------
The B3LYP functional is recognized
Active option DFTDOPT                   ...         4   

molecular C6(AA) [au] = 741.706372 


            DFT-D V3
 parameters
 s6 scaling factor         :     1.0000 
 a1 scaling factor         :     0.3981 
 s8 scaling factor         :     1.9889 
 a2 scaling factor         :     4.4211 
 ad hoc parameters k1-k3   :    16.0000     1.3333    -4.0000 

 Edisp/kcal,au: -4.895874140099  -0.007802071236 
 E6   /kcal   :  -2.483169383 
 E8   /kcal   :  -2.412704757 
 % E8         :  49.280367273 

-------------------------   ----------------
Dispersion correction           -0.007802071
-------------------------   ----------------


-------------------------   --------------------
FINAL SINGLE POINT ENERGY      -321.457544106981
-------------------------   --------------------

                                *** OPTIMIZATION RUN DONE ***

                            ***************************************
                            *     ORCA property calculations      *
                            ***************************************

                                    ---------------------
                                    Active property flags
                                    ---------------------
   (+) Dipole Moment


------------------------------------------------------------------------------
                       ORCA ELECTRIC PROPERTIES CALCULATION
------------------------------------------------------------------------------

Dipole Moment Calculation                       ... on
Quadrupole Moment Calculation                   ... off
Polarizability Calculation                      ... off
GBWName                                         ... /home/rudenko/mop_saddle_orca_4_serv/for_orca/CH3NO2_H2O_near/orca/orca_start/start.gbw
Electron density                                ... /home/rudenko/mop_saddle_orca_4_serv/for_orca/CH3NO2_H2O_near/orca/orca_start/start.scfp
The origin for moment calculation is the CENTER OF MASS  = ( 0.159339, -1.486664  0.965388)

-------------
DIPOLE MOMENT
-------------
                                X             Y             Z
Electronic contribution:     -6.44174       0.50121      -2.32349
Nuclear contribution   :      8.00906      -0.28976       2.08392
                        -----------------------------------------
Total Dipole Moment    :      1.56733       0.21145      -0.23958
                        -----------------------------------------
Magnitude (a.u.)       :      1.59957
Magnitude (Debye)      :      4.06578



--------------------
Rotational spectrum 
--------------------
 
Rotational constants in cm-1:     0.399421     0.046523     0.042252 
Rotational constants in MHz : 11974.350093  1394.732491  1266.687297 

 Dipole components along the rotational axes: 
x,y,z [a.u.] :    -1.362177    -0.787568    -0.287792 
x,y,z [Debye]:    -3.462380    -2.001838    -0.731510 

 

Timings for individual modules:

Sum of individual times         ...     1007.123 sec (=  16.785 min)
GTO integral calculation        ...      287.640 sec (=   4.794 min)  28.6 %
SCF iterations                  ...      457.796 sec (=   7.630 min)  45.5 %
SCF Gradient evaluation         ...      261.093 sec (=   4.352 min)  25.9 %
Geometry relaxation             ...        0.594 sec (=   0.010 min)   0.1 %
                             ****ORCA TERMINATED NORMALLY****
TOTAL RUN TIME: 0 days 0 hours 20 minutes 14 seconds 806 msec
