
                                 *****************
                                 * O   R   C   A *
                                 *****************

                                            #,                                       
                                            ###                                      
                                            ####                                     
                                            #####                                    
                                            ######                                   
                                           ########,                                 
                                     ,,################,,,,,                         
                               ,,#################################,,                 
                          ,,##########################################,,             
                       ,#########################################, ''#####,          
                    ,#############################################,,   '####,        
                  ,##################################################,,,,####,       
                ,###########''''           ''''###############################       
              ,#####''   ,,,,##########,,,,          '''####'''          '####       
            ,##' ,,,,###########################,,,                        '##       
           ' ,,###''''                  '''############,,,                           
         ,,##''                                '''############,,,,        ,,,,,,###''
      ,#''                                            '''#######################'''  
     '                                                          ''''####''''         
             ,#######,   #######,   ,#######,      ##                                
            ,#'     '#,  ##    ##  ,#'     '#,    #''#        ######   ,####,        
            ##       ##  ##   ,#'  ##            #'  '#       #        #'  '#        
            ##       ##  #######   ##           ,######,      #####,   #    #        
            '#,     ,#'  ##    ##  '#,     ,#' ,#      #,         ##   #,  ,#        
             '#######'   ##     ##  '#######'  #'      '#     #####' # '####'        



                  #######################################################
                  #                        -***-                        #
                  #          Department of theory and spectroscopy      #
                  #    Directorship and core code : Frank Neese         #
                  #        Max Planck Institute fuer Kohlenforschung    #
                  #                Kaiser Wilhelm Platz 1               #
                  #                 D-45470 Muelheim/Ruhr               #
                  #                      Germany                        #
                  #                                                     #
                  #                  All rights reserved                #
                  #                        -***-                        #
                  #######################################################


                         Program Version 5.0.4 -  RELEASE  -


 With contributions from (in alphabetic order):
   Daniel Aravena         : Magnetic Suceptibility
   Michael Atanasov       : Ab Initio Ligand Field Theory (pilot matlab implementation)
   Alexander A. Auer      : GIAO ZORA, VPT2 properties, NMR spectrum
   Ute Becker             : Parallelization
   Giovanni Bistoni       : ED, misc. LED, open-shell LED, HFLD
   Martin Brehm           : Molecular dynamics
   Dmytro Bykov           : SCF Hessian
   Vijay G. Chilkuri      : MRCI spin determinant printing, contributions to CSF-ICE
   Dipayan Datta          : RHF DLPNO-CCSD density
   Achintya Kumar Dutta   : EOM-CC, STEOM-CC
   Dmitry Ganyushin       : Spin-Orbit,Spin-Spin,Magnetic field MRCI
   Miquel Garcia          : C-PCM and meta-GGA Hessian, CC/C-PCM, Gaussian charge scheme
   Yang Guo               : DLPNO-NEVPT2, F12-NEVPT2, CIM, IAO-localization
   Andreas Hansen         : Spin unrestricted coupled pair/coupled cluster methods
   Benjamin Helmich-Paris : MC-RPA, TRAH-SCF, COSX integrals
   Lee Huntington         : MR-EOM, pCC
   Robert Izsak           : Overlap fitted RIJCOSX, COSX-SCS-MP3, EOM
   Marcus Kettner         : VPT2
   Christian Kollmar      : KDIIS, OOCD, Brueckner-CCSD(T), CCSD density, CASPT2, CASPT2-K
   Simone Kossmann        : Meta GGA functionals, TD-DFT gradient, OOMP2, MP2 Hessian
   Martin Krupicka        : Initial AUTO-CI
   Lucas Lang             : DCDCAS
   Marvin Lechner         : AUTO-CI (C++ implementation), FIC-MRCC
   Dagmar Lenk            : GEPOL surface, SMD
   Dimitrios Liakos       : Extrapolation schemes; Compound Job, initial MDCI parallelization
   Dimitrios Manganas     : Further ROCIS development; embedding schemes
   Dimitrios Pantazis     : SARC Basis sets
   Anastasios Papadopoulos: AUTO-CI, single reference methods and gradients
   Taras Petrenko         : DFT Hessian,TD-DFT gradient, ASA, ECA, R-Raman, ABS, FL, XAS/XES, NRVS
   Peter Pinski           : DLPNO-MP2, DLPNO-MP2 Gradient
   Christoph Reimann      : Effective Core Potentials
   Marius Retegan         : Local ZFS, SOC
   Christoph Riplinger    : Optimizer, TS searches, QM/MM, DLPNO-CCSD(T), (RO)-DLPNO pert. Triples
   Tobias Risthaus        : Range-separated hybrids, TD-DFT gradient, RPA, STAB
   Michael Roemelt        : Original ROCIS implementation
   Masaaki Saitow         : Open-shell DLPNO-CCSD energy and density
   Barbara Sandhoefer     : DKH picture change effects
   Avijit Sen             : IP-ROCIS
   Kantharuban Sivalingam : CASSCF convergence, NEVPT2, FIC-MRCI
   Bernardo de Souza      : ESD, SOC TD-DFT
   Georgi Stoychev        : AutoAux, RI-MP2 NMR, DLPNO-MP2 response
   Willem Van den Heuvel  : Paramagnetic NMR
   Boris Wezisla          : Elementary symmetry handling
   Frank Wennmohs         : Technical directorship


 We gratefully acknowledge several colleagues who have allowed us to
 interface, adapt or use parts of their codes:
   Stefan Grimme, W. Hujo, H. Kruse, P. Pracht,  : VdW corrections, initial TS optimization,
                  C. Bannwarth, S. Ehlert          DFT functionals, gCP, sTDA/sTD-DF
   Ed Valeev, F. Pavosevic, A. Kumar             : LibInt (2-el integral package), F12 methods
   Garnet Chan, S. Sharma, J. Yang, R. Olivares  : DMRG
   Ulf Ekstrom                                   : XCFun DFT Library
   Mihaly Kallay                                 : mrcc  (arbitrary order and MRCC methods)
   Jiri Pittner, Ondrej Demel                    : Mk-CCSD
   Frank Weinhold                                : gennbo (NPA and NBO analysis)
   Christopher J. Cramer and Donald G. Truhlar   : smd solvation model
   Lars Goerigk                                  : TD-DFT with DH, B97 family of functionals
   V. Asgeirsson, H. Jonsson                     : NEB implementation
   FAccTs GmbH                                   : IRC, NEB, NEB-TS, DLPNO-Multilevel, CI-OPT
                                                   MM, QMMM, 2- and 3-layer-ONIOM, Crystal-QMMM,
                                                   LR-CPCM, SF, NACMEs, symmetry and pop. for TD-DFT,
                                                   nearIR, NL-DFT gradient (VV10), updates on ESD,
                                                   ML-optimized integration grids
   S Lehtola, MJT Oliveira, MAL Marques          : LibXC Library
   Liviu Ungur et al                             : ANISO software


 Your calculation uses the libint2 library for the computation of 2-el integrals
 For citations please refer to: http://libint.valeyev.net

 Your ORCA version has been built with support for libXC version: 5.1.0
 For citations please refer to: https://tddft.org/programs/libxc/

 This ORCA versions uses:
   CBLAS   interface :  Fast vector & matrix operations
   LAPACKE interface :  Fast linear algebra routines
   SCALAPACK package :  Parallel linear algebra routines
   Shared memory     :  Shared parallel matrices
   BLAS/LAPACK       :  OpenBLAS 0.3.15  USE64BITINT DYNAMIC_ARCH NO_AFFINITY Prescott SINGLE_THREADED
        Core in use  :  Prescott
   Copyright (c) 2011-2014, The OpenBLAS Project


Your calculation utilizes the atom-pairwise dispersion correction
with the Becke-Johnson damping scheme (D3BJ)
Cite in your paper:
S.Grimme, S.Ehrlich, L.Goerigk, J Comput Chem, (2011), 32, 1456–1465 
S.Grimme, J.Antony, S.Ehrlich and H.Krieg, J.Chem.Phys., 132, (2010), 154104 
   

================================================================================

----- Orbital basis set information -----
Your calculation utilizes the basis: def2-TZVP
   F. Weigend and R. Ahlrichs, Phys. Chem. Chem. Phys. 7, 3297 (2005).

----- AuxJ basis set information -----
Your calculation utilizes the auxiliary basis: def2/J
   F. Weigend, Phys. Chem. Chem. Phys. 8, 1057 (2006).

================================================================================
                                        WARNINGS
                       Please study these warnings very carefully!
================================================================================

WARNING: Gradients needed for Numerical Frequencies
  ===> : Setting RunTyp to EnGrad

INFO   : the flag for use of the SHARK integral package has been found!

================================================================================
                                       INPUT FILE
================================================================================
NAME = /home/rudenko/mop_saddle_orca_4_serv/for_orca/ch3no2_ch3coo_new/orca/freq_H/f_H.inp
|  1> !  NUMFREQ B3LYP def2-TZVP CPCM D3 
|  2> %pal nprocs 102 end
|  3> %cpcm epsilon 78.4 end 
|  4> *xyz -1 1 
|  5> C   0.26930555286841 -1.76970258376672 2.0232664307381
|  6> H   1.17020061650014 -1.18457403254333 1.17621707697615
|  7> H   0.4581886458006 -1.37675228906351 3.01608160306961
|  8> H   0.37314413747293 -2.8437102876966 1.91738907470502
|  9> N   -0.98343173232112 -1.33931444511321 1.54505665698355
| 10> O   -1.45576648202069 -0.25919545101039 1.94928006068534
| 11> O   -1.555571036032 -1.99558630605567 0.65398983119331
| 12> C   -0.06136234558819 1.06175968358906 -1.53144638969986
| 13> O   0.72012665987857 1.31675564413544 -0.50595725908536
| 14> O   -0.12068007889057 -0.02676729180442 -2.08904729644178
| 15> C   -0.89756308368208 2.24370356899196 -1.95486384917674
| 16> H   -1.43951574187146 2.01941639262058 -2.87034493848149
| 17> H   -0.26474258134015 3.12034676903707 -2.09950433192662
| 18> H   -1.60898102960602 2.48093326372868 -1.16070300157051
| 19> H   1.25869421906755 0.44599069584925 -0.17580996621826
| 20> O   1.98367408801762 -0.62227166304553 0.40077161692524
| 21> H   2.15428019174646 -1.27103166785267 -0.2943753186757
| 22> *
| 23> 
| 24>                          ****END OF INPUT****
================================================================================

                     *******************************
                     * Energy+Gradient Calculation *
                     *******************************

---------------------------------
CARTESIAN COORDINATES (ANGSTROEM)
---------------------------------
  C      0.269306   -1.769703    2.023266
  H      1.170201   -1.184574    1.176217
  H      0.458189   -1.376752    3.016082
  H      0.373144   -2.843710    1.917389
  N     -0.983432   -1.339314    1.545057
  O     -1.455766   -0.259195    1.949280
  O     -1.555571   -1.995586    0.653990
  C     -0.061362    1.061760   -1.531446
  O      0.720127    1.316756   -0.505957
  O     -0.120680   -0.026767   -2.089047
  C     -0.897563    2.243704   -1.954864
  H     -1.439516    2.019416   -2.870345
  H     -0.264743    3.120347   -2.099504
  H     -1.608981    2.480933   -1.160703
  H      1.258694    0.445991   -0.175810
  O      1.983674   -0.622272    0.400772
  H      2.154280   -1.271032   -0.294375

----------------------------
CARTESIAN COORDINATES (A.U.)
----------------------------
  NO LB      ZA    FRAG     MASS         X           Y           Z
   0 C     6.0000    0    12.011    0.508914   -3.344253    3.823419
   1 H     1.0000    0     1.008    2.211359   -2.238521    2.222728
   2 H     1.0000    0     1.008    0.865851   -2.601685    5.699568
   3 H     1.0000    0     1.008    0.705140   -5.373834    3.623340
   4 N     7.0000    0    14.007   -1.858417   -2.530938    2.919734
   5 O     8.0000    0    15.999   -2.751000   -0.489808    3.683605
   6 O     8.0000    0    15.999   -2.939603   -3.771112    1.235862
   7 C     6.0000    0    12.011   -0.115958    2.006435   -2.894014
   8 O     8.0000    0    15.999    1.360842    2.488308   -0.956121
   9 O     8.0000    0    15.999   -0.228052   -0.050583   -3.947727
  10 C     6.0000    0    12.011   -1.696148    4.239985   -3.694157
  11 H     1.0000    0     1.008   -2.720291    3.816144   -5.424166
  12 H     1.0000    0     1.008   -0.500291    5.896601   -3.967488
  13 H     1.0000    0     1.008   -3.040534    4.688284   -2.193411
  14 H     1.0000    0     1.008    2.378587    0.842800   -0.332233
  15 O     8.0000    0    15.999    3.748601   -1.175923    0.757349
  16 H     1.0000    0     1.008    4.071000   -2.401902   -0.556289

--------------------------------
INTERNAL COORDINATES (ANGSTROEM)
--------------------------------
 C      0   0   0     0.000000000000     0.00000000     0.00000000
 H      1   0   0     1.368020447523     0.00000000     0.00000000
 H      1   2   0     1.084328697082   107.28997094     0.00000000
 H      1   2   3     1.084197866754   107.46732631   235.11357568
 N      1   2   3     1.408285923849   104.17192610   117.52887602
 O      5   1   2     1.246255879543   119.46374192   272.76399577
 O      5   1   2     1.245807459578   119.36768798    87.61334236
 C      2   1   3     3.727492983574   119.33747714   244.47684460
 O      8   2   1     1.314296755900    49.73552803   117.59179749
 O      8   2   1     1.224470636987    79.10926541   272.51755250
 C      8   2   1     1.508477831332   149.23089374    51.58491317
 H     11   8   2     1.087254821133   110.55005892   222.98895783
 H     11   8   2     1.090818938972   110.20153754   101.07721114
 H     11   8   2     1.092284245844   109.09507972   343.34534668
 H      9   8   2     1.075771279577   112.33938312    26.71213369
 O      2   1   3     1.256677645667   178.69378954   288.92568533
 H     16   2   1     0.966035842266   104.94272274   220.19128876

---------------------------
INTERNAL COORDINATES (A.U.)
---------------------------
 C      0   0   0     0.000000000000     0.00000000     0.00000000
 H      1   0   0     2.585183991423     0.00000000     0.00000000
 H      1   2   0     2.049084276636   107.28997094     0.00000000
 H      1   2   3     2.048837043147   107.46732631   235.11357568
 N      1   2   3     2.661274714331   104.17192610   117.52887602
 O      5   1   2     2.355082305126   119.46374192   272.76399577
 O      5   1   2     2.354234914198   119.36768798    87.61334236
 C      2   1   3     7.043940905068   119.33747714   244.47684460
 O      8   2   1     2.483660927352    49.73552803   117.59179749
 O      8   2   1     2.313914162933    79.10926541   272.51755250
 C      8   2   1     2.850609980309   149.23089374    51.58491317
 H     11   8   2     2.054613849728   110.55005892   222.98895783
 H     11   8   2     2.061349056351   110.20153754   101.07721114
 H     11   8   2     2.064118085041   109.09507972   343.34534668
 H      9   8   2     2.032913101138   112.33938312    26.71213369
 O      2   1   3     2.374776588932   178.69378954   288.92568533
 H     16   2   1     1.825543177434   104.94272274   220.19128876

---------------------
BASIS SET INFORMATION
---------------------
There are 4 groups of distinct atoms

 Group   1 Type C   : 11s6p2d1f contracted to 5s3p2d1f pattern {62111/411/11/1}
 Group   2 Type H   : 5s1p contracted to 3s1p pattern {311/1}
 Group   3 Type N   : 11s6p2d1f contracted to 5s3p2d1f pattern {62111/411/11/1}
 Group   4 Type O   : 11s6p2d1f contracted to 5s3p2d1f pattern {62111/411/11/1}

Atom   0C    basis set group =>   1
Atom   1H    basis set group =>   2
Atom   2H    basis set group =>   2
Atom   3H    basis set group =>   2
Atom   4N    basis set group =>   3
Atom   5O    basis set group =>   4
Atom   6O    basis set group =>   4
Atom   7C    basis set group =>   1
Atom   8O    basis set group =>   4
Atom   9O    basis set group =>   4
Atom  10C    basis set group =>   1
Atom  11H    basis set group =>   2
Atom  12H    basis set group =>   2
Atom  13H    basis set group =>   2
Atom  14H    basis set group =>   2
Atom  15O    basis set group =>   4
Atom  16H    basis set group =>   2
---------------------------------
AUXILIARY/J BASIS SET INFORMATION
---------------------------------
There are 4 groups of distinct atoms

 Group   1 Type C   : 12s5p4d2f1g contracted to 6s4p3d1f1g pattern {711111/2111/211/2/1}
 Group   2 Type H   : 5s2p1d contracted to 3s1p1d pattern {311/2/1}
 Group   3 Type N   : 12s5p4d2f1g contracted to 6s4p3d1f1g pattern {711111/2111/211/2/1}
 Group   4 Type O   : 12s5p4d2f1g contracted to 6s4p3d1f1g pattern {711111/2111/211/2/1}

Atom   0C    basis set group =>   1
Atom   1H    basis set group =>   2
Atom   2H    basis set group =>   2
Atom   3H    basis set group =>   2
Atom   4N    basis set group =>   3
Atom   5O    basis set group =>   4
Atom   6O    basis set group =>   4
Atom   7C    basis set group =>   1
Atom   8O    basis set group =>   4
Atom   9O    basis set group =>   4
Atom  10C    basis set group =>   1
Atom  11H    basis set group =>   2
Atom  12H    basis set group =>   2
Atom  13H    basis set group =>   2
Atom  14H    basis set group =>   2
Atom  15O    basis set group =>   4
Atom  16H    basis set group =>   2


           ************************************************************
           *        Program running with 102 parallel MPI-processes   *
           *              working on a common directory               *
           ************************************************************
------------------------------------------------------------------------------
                           ORCA GTO INTEGRAL CALCULATION
                           -- RI-GTO INTEGRALS CHOSEN --
------------------------------------------------------------------------------
------------------------------------------------------------------------------
                   ___                                                        
                  /   \      - P O W E R E D   B Y -                         
                 /     \                                                     
                 |  |  |   _    _      __       _____    __    __             
                 |  |  |  | |  | |    /  \     |  _  \  |  |  /  |          
                  \  \/   | |  | |   /    \    | | | |  |  | /  /          
                 / \  \   | |__| |  /  /\  \   | |_| |  |  |/  /          
                |  |  |   |  __  | /  /__\  \  |    /   |      \           
                |  |  |   | |  | | |   __   |  |    \   |  |\   \          
                \     /   | |  | | |  |  |  |  | |\  \  |  | \   \       
                 \___/    |_|  |_| |__|  |__|  |_| \__\ |__|  \__/        
                                                                              
                      - O R C A' S   B I G   F R I E N D -                    
                                      &                                       
                       - I N T E G R A L  F E E D E R -                       
                                                                              
 v1 FN, 2020, v2 2021                                                         
------------------------------------------------------------------------------


Reading SHARK input file /home/rudenko/mop_saddle_orca_4_serv/for_orca/ch3no2_ch3coo_new/orca/freq_H/f_H.SHARKINP.tmp ... ok
----------------------
SHARK INTEGRAL PACKAGE
----------------------

Number of atoms                             ...     17
Number of basis functions                   ...    327
Number of shells                            ...    131
Maximum angular momentum                    ...      3
Integral batch strategy                     ... SHARK/LIBINT Hybrid
RI-J (if used) integral strategy            ... SPLIT-RIJ (Revised 2003 algorithm where possible)
Printlevel                                  ...      1
Contraction scheme used                     ... SEGMENTED contraction
Coulomb Range Separation                    ... NOT USED
Exchange Range Separation                   ... NOT USED
Finite Nucleus Model                        ... NOT USED
Auxiliary Coulomb fitting basis             ... AVAILABLE
   # of basis functions in Aux-J            ...    529
   # of shells in Aux-J                     ...    175
   Maximum angular momentum in Aux-J        ...      4
Auxiliary J/K fitting basis                 ... NOT available
Auxiliary Correlation fitting basis         ... NOT available
Auxiliary 'external' fitting basis          ... NOT available
Integral threshold                          ...     2.500000e-11
Primitive cut-off                           ...     2.500000e-12
Primitive pair pre-selection threshold      ...     2.500000e-12

Calculating pre-screening integrals         ... done (  0.1 sec) Dimension = 131
Organizing shell pair data                  ... done (  0.2 sec)
Shell pair information
Total number of shell pairs                 ...      8646
Shell pairs after pre-screening             ...      7163
Total number of primitive shell pairs       ...     26328
Primitive shell pairs kept                  ...     15482
          la=0 lb=0:   1924 shell pairs
          la=1 lb=0:   2070 shell pairs
          la=1 lb=1:    561 shell pairs
          la=2 lb=0:   1003 shell pairs
          la=2 lb=1:    547 shell pairs
          la=2 lb=2:    149 shell pairs
          la=3 lb=0:    479 shell pairs
          la=3 lb=1:    263 shell pairs
          la=3 lb=2:    131 shell pairs
          la=3 lb=3:     36 shell pairs

Calculating one electron integrals          ... done (  0.0 sec)
Calculating RI/J V-Matrix + Cholesky decomp.... done (  0.0 sec)
Calculating Nuclear repulsion               ... done (  0.0 sec) ENN=    470.931497884754 Eh

SHARK setup successfully completed in   0.5 seconds

Maximum memory used throughout the entire GTOINT-calculation: 20.4 MB


           ************************************************************
           *        Program running with 102 parallel MPI-processes   *
           *              working on a common directory               *
           ************************************************************
-------------------------------------------------------------------------------
                                 ORCA SCF
-------------------------------------------------------------------------------

------------
SCF SETTINGS
------------
Hamiltonian:
 Density Functional     Method          .... DFT(GTOs)
 Exchange Functional    Exchange        .... B88
   X-Alpha parameter    XAlpha          ....  0.666667
   Becke's b parameter  XBeta           ....  0.004200
 Correlation Functional Correlation     .... LYP
 LDA part of GGA corr.  LDAOpt          .... VWN-5
 Gradients option       PostSCFGGA      .... off
 Hybrid DFT is turned on
   Fraction HF Exchange ScalHFX         ....  0.200000
   Scaling of DF-GGA-X  ScalDFX         ....  0.720000
   Scaling of DF-GGA-C  ScalDFC         ....  0.810000
   Scaling of DF-LDA-C  ScalLDAC        ....  1.000000
   Perturbative correction              ....  0.000000
   Density functional embedding theory  .... OFF
   NL short-range parameter             ....  4.800000
 RI-approximation to the Coulomb term is turned on
   Number of AuxJ basis functions       .... 529
   RIJ-COSX (HFX calculated with COS-X)).... on


General Settings:
 Integral files         IntName         .... /home/rudenko/mop_saddle_orca_4_serv/for_orca/ch3no2_ch3coo_new/orca/freq_H/f_H
 Hartree-Fock type      HFTyp           .... RHF
 Total Charge           Charge          ....   -1
 Multiplicity           Mult            ....    1
 Number of Electrons    NEL             ....   74
 Basis Dimension        Dim             ....  327
 Nuclear Repulsion      ENuc            ....    470.9314978848 Eh

Convergence Acceleration:
 DIIS                   CNVDIIS         .... on
   Start iteration      DIISMaxIt       ....    12
   Startup error        DIISStart       ....  0.200000
   # of expansion vecs  DIISMaxEq       ....     5
   Bias factor          DIISBfac        ....   1.050
   Max. coefficient     DIISMaxC        ....  10.000
 Trust-Rad. Augm. Hess. CNVTRAH         .... auto
   Auto Start mean grad. ratio tolernc. ....  1.125000
   Auto Start start iteration           ....    20
   Auto Start num. interpolation iter.  ....    10
   Max. Number of Micro iterations      ....    16
   Max. Number of Macro iterations      .... Maxiter - #DIIS iter
   Number of Davidson start vectors     ....     2
   Converg. threshold I  (grad. norm)   ....   1.000e-05
   Converg. threshold II (energy diff.) ....   1.000e-08
   Grad. Scal. Fac. for Micro threshold ....   0.100
   Minimum threshold for Micro iter.    ....   0.010
   NR start threshold (gradient norm)   ....   0.001
   Initial trust radius                 ....   0.400
   Minimum AH scaling param. (alpha)    ....   1.000
   Maximum AH scaling param. (alpha)    .... 1000.000
   Orbital update algorithm             .... Taylor
   White noise on init. David. guess    .... on
   Maximum white noise                  ....   0.010
   Quad. conv. algorithm                .... NR
 SOSCF                  CNVSOSCF        .... on
   Start iteration      SOSCFMaxIt      ....   150
   Startup grad/error   SOSCFStart      ....  0.003300
 Level Shifting         CNVShift        .... on
   Level shift para.    LevelShift      ....    0.2500
   Turn off err/grad.   ShiftErr        ....    0.0010
 Zerner damping         CNVZerner       .... off
 Static damping         CNVDamp         .... on
   Fraction old density DampFac         ....    0.7000
   Max. Damping (<1)    DampMax         ....    0.9800
   Min. Damping (>=0)   DampMin         ....    0.0000
   Turn off err/grad.   DampErr         ....    0.1000
 Fernandez-Rico         CNVRico         .... off

SCF Procedure:
 Maximum # iterations   MaxIter         ....   125
 SCF integral mode      SCFMode         .... Direct
   Integral package                     .... SHARK and LIBINT hybrid scheme
 Reset frequency        DirectResetFreq ....    20
 Integral Threshold     Thresh          ....  2.500e-11 Eh
 Primitive CutOff       TCut            ....  2.500e-12 Eh

Convergence Tolerance:
 Convergence Check Mode ConvCheckMode   .... Total+1el-Energy
 Convergence forced     ConvForced      .... 0
 Energy Change          TolE            ....  1.000e-08 Eh
 1-El. energy change                    ....  1.000e-05 Eh
 Orbital Gradient       TolG            ....  1.000e-05
 Orbital Rotation angle TolX            ....  1.000e-05
 DIIS Error             TolErr          ....  5.000e-07


Diagonalization of the overlap matrix:
Smallest eigenvalue                        ... 4.127e-04
Time for diagonalization                   ...    0.042 sec
Threshold for overlap eigenvalues          ... 1.000e-08
Number of eigenvalues below threshold      ... 0
Time for construction of square roots      ...    0.050 sec
Total time needed                          ...    0.093 sec

Time for model grid setup =    0.122 sec

------------------------------
INITIAL GUESS: MODEL POTENTIAL
------------------------------
Loading Hartree-Fock densities                     ... done
Calculating cut-offs                               ... done
Initializing the effective Hamiltonian             ... done
Setting up the integral package (SHARK)            ... done
Starting the Coulomb interaction                   ... done (   0.0 sec)
Reading the grid                                   ... done
Mapping shells                                     ... done
Starting the XC term evaluation                    ... done (   0.0 sec)
  promolecular density results
     # of electrons  =     72.997582622
     EX              =    -65.291919963
     EC              =     -2.542888352
     EX+EC           =    -67.834808315
Transforming the Hamiltonian                       ... done (   0.0 sec)
Diagonalizing the Hamiltonian                      ... done (   0.0 sec)
Back transforming the eigenvectors                 ... done (   0.0 sec)
Now organizing SCF variables                       ... done
                      ------------------
                      INITIAL GUESS DONE (   0.3 sec)
                      ------------------
-------------------
DFT GRID GENERATION
-------------------

General Integration Accuracy     IntAcc      ... 4.388
Radial Grid Type                 RadialGrid  ... OptM3 with GC (2021)
Angular Grid (max. ang.)         AngularGrid ... 4 (Lebedev-302)
Angular grid pruning method      GridPruning ... 4 (adaptive)
Weight generation scheme         WeightScheme... Becke
Basis function cutoff            BFCut       ... 1.0000e-11
Integration weight cutoff        WCut        ... 1.0000e-14
Angular grids for H and He will be reduced by one unit
Partially contracted basis set               ... off
Rotationally invariant grid construction     ... off

Total number of grid points                  ...    80624
Total number of batches                      ...     1269
Average number of points per batch           ...       63
Average number of grid points per atom       ...     4743
Time for grid setup =    0.626 sec

--------------------
COSX GRID GENERATION
--------------------

GRIDX 1
-------
General Integration Accuracy     IntAcc      ... 3.816
Radial Grid Type                 RadialGrid  ... OptM3 with GC (2021)
Angular Grid (max. ang.)         AngularGrid ... 1 (Lebedev-50)
Angular grid pruning method      GridPruning ... 4 (adaptive)
Weight generation scheme         WeightScheme... Becke
Basis function cutoff            BFCut       ... 1.0000e-11
Integration weight cutoff        WCut        ... 1.0000e-14
Angular grids for H and He will be reduced by one unit
Partially contracted basis set               ... on
Rotationally invariant grid construction     ... off

Total number of grid points                  ...    10284
Total number of batches                      ...      172
Average number of points per batch           ...       59
Average number of grid points per atom       ...      605
UseSFitting                                  ... on

GRIDX 2
-------
General Integration Accuracy     IntAcc      ... 4.020
Radial Grid Type                 RadialGrid  ... OptM3 with GC (2021)
Angular Grid (max. ang.)         AngularGrid ... 2 (Lebedev-110)
Angular grid pruning method      GridPruning ... 4 (adaptive)
Weight generation scheme         WeightScheme... Becke
Basis function cutoff            BFCut       ... 1.0000e-11
Integration weight cutoff        WCut        ... 1.0000e-14
Angular grids for H and He will be reduced by one unit
Partially contracted basis set               ... on
Rotationally invariant grid construction     ... off

Total number of grid points                  ...    22588
Total number of batches                      ...      363
Average number of points per batch           ...       62
Average number of grid points per atom       ...     1329
UseSFitting                                  ... on

GRIDX 3
-------
General Integration Accuracy     IntAcc      ... 4.338
Radial Grid Type                 RadialGrid  ... OptM3 with GC (2021)
Angular Grid (max. ang.)         AngularGrid ... 3 (Lebedev-194)
Angular grid pruning method      GridPruning ... 4 (adaptive)
Weight generation scheme         WeightScheme... Becke
Basis function cutoff            BFCut       ... 1.0000e-11
Integration weight cutoff        WCut        ... 1.0000e-14
Angular grids for H and He will be reduced by one unit
Partially contracted basis set               ... on
Rotationally invariant grid construction     ... off

Total number of grid points                  ...    49668
Total number of batches                      ...      785
Average number of points per batch           ...       63
Average number of grid points per atom       ...     2922
UseSFitting                                  ... on

Time for X-Grid setup             =    0.699 sec


--------------------
CPCM SOLVATION MODEL
--------------------
CPCM parameters:
  Epsilon                                         ...      78.4000
  Refrac                                          ...       1.3300
  Rsolv                                           ...       1.3000
  Surface type                                    ... GAUSSIAN VDW
  Epsilon function type                           ...         CPCM
Radii:
 Radius for C  used is    3.8550 Bohr (=   2.0400 Ang.)
 Radius for H  used is    2.4944 Bohr (=   1.3200 Ang.)
 Radius for N  used is    3.5149 Bohr (=   1.8600 Ang.)
 Radius for O  used is    3.4469 Bohr (=   1.8240 Ang.)
Calculating surface                               ...        done! (  0.0s)
GEPOL surface points                              ...         1049
GEPOL Volume                                      ...    1132.4238
GEPOL Surface-area                                ...     716.6322
Calculating surface distance matrix               ...        done! (  0.1s)
Performing Cholesky decomposition & store         ...        done! (  0.2s)
Overall time for CPCM initialization              ...                 0.3s
--------------
SCF ITERATIONS
--------------
ITER       Energy         Delta-E        Max-DP      RMS-DP      [F,P]     Damp
               ***  Starting incremental Fock matrix formation  ***
  0   -549.5683599706   0.000000000000 0.07703585  0.00140060  0.3376348 0.7000
  1   -549.8027019297  -0.234341959061 0.07376920  0.00101032  0.1268146 0.7000
                               ***Turning on DIIS***
  2   -549.8802213927  -0.077519462991 0.09208904  0.00143508  0.0422695 0.0000
  3   -550.0191838364  -0.138962443752 0.06572356  0.00074081  0.0704896 0.0000
  4   -550.0429810596  -0.023797223145 0.02442247  0.00025916  0.0185871 0.0000
                      *** Initiating the SOSCF procedure ***
                           *** Shutting down DIIS ***
                      *** Re-Reading the Fockian *** 
                      *** Removing any level shift *** 
ITER      Energy       Delta-E        Grad      Rot      Max-DP    RMS-DP
  5   -550.04505890  -0.0020778360  0.000748  0.000748  0.007596  0.000090
               *** Restarting incremental Fock matrix formation ***
  6   -550.04511772  -0.0000588274  0.000612  0.003366  0.003108  0.000055
  7   -550.04509640   0.0000213223  0.001033  0.001422  0.001188  0.000020
  8   -550.04513384  -0.0000374390  0.000113  0.000263  0.000465  0.000006
  9   -550.04513325   0.0000005911  0.000227  0.000181  0.000234  0.000004
 10   -550.04513417  -0.0000009220  0.000017  0.000034  0.000055  0.000001
 11   -550.04513416   0.0000000123  0.000023  0.000025  0.000029  0.000000
 12   -550.04513418  -0.0000000238  0.000006  0.000010  0.000011  0.000000
 13   -550.04513418  -0.0000000024  0.000008  0.000006  0.000007  0.000000
                  ***Gradient check signals convergence***
              ***Rediagonalizing the Fockian in SOSCF/NRSCF***

               *****************************************************
               *                     SUCCESS                       *
               *           SCF CONVERGED AFTER  14 CYCLES          *
               *****************************************************

Old exchange energy                            =    -13.239342662 Eh
New exchange energy                            =    -13.239332201 Eh
Exchange energy change after final integration =      0.000010461 Eh
Total energy after final integration           =   -550.045123717 Eh
Final COS-X integration done in                =     0.548 sec

----------------
TOTAL SCF ENERGY
----------------

Total Energy       :         -550.04512372 Eh          -14967.48875 eV

Components:
Nuclear Repulsion  :          470.93149788 Eh           12814.69754 eV
Electronic Energy  :        -1020.97662160 Eh          -27782.18629 eV
One Electron Energy:        -1701.79563869 Eh          -46308.21359 eV
Two Electron Energy:          680.81901709 Eh           18526.02730 eV
Max COSX asymmetry :            0.00000154 Eh               0.00004 eV
CPCM Dielectric    :           -0.10023671 Eh              -2.72758 eV

Virial components:
Potential Energy   :        -1097.94580788 Eh          -29876.62433 eV
Kinetic Energy     :          547.90068417 Eh           14909.13558 eV
Virial Ratio       :            2.00391392


DFT components:
N(Alpha)           :       37.000003527715 electrons
N(Beta)            :       37.000003527715 electrons
N(Total)           :       74.000007055429 electrons
E(X)               :      -52.807619868462 Eh       
E(C)               :       -3.036664549179 Eh       
E(XC)              :      -55.844284417641 Eh       
DFET-embed. en.    :        0.000000000000 Eh       
CPCM Solvation Model Properties:
Surface-charge          :            0.97591188
Charge-correction       :           -0.00339872 Eh              -0.09248 eV
Free-energy (cav+disp)  :  This term is not implemented in the current solvation scheme

---------------
SCF CONVERGENCE
---------------

  Last Energy change         ...    7.0538e-09  Tolerance :   1.0000e-08
  Last MAX-Density change    ...    1.3323e-15  Tolerance :   1.0000e-07
  Last RMS-Density change    ...    1.9705e-17  Tolerance :   5.0000e-09
  Last Orbital Gradient      ...    6.6606e-08  Tolerance :   1.0000e-05
  Last Orbital Rotation      ...    1.9896e-07  Tolerance :   1.0000e-05

             **** THE GBW FILE WAS UPDATED (/home/rudenko/mop_saddle_orca_4_serv/for_orca/ch3no2_ch3coo_new/orca/freq_H/f_H.gbw) ****
             **** DENSITY /home/rudenko/mop_saddle_orca_4_serv/for_orca/ch3no2_ch3coo_new/orca/freq_H/f_H.scfp WAS UPDATED ****
             **** ENERGY FILE WAS UPDATED (/home/rudenko/mop_saddle_orca_4_serv/for_orca/ch3no2_ch3coo_new/orca/freq_H/f_H.en.tmp) ****
             **** THE GBW FILE WAS UPDATED (/home/rudenko/mop_saddle_orca_4_serv/for_orca/ch3no2_ch3coo_new/orca/freq_H/f_H.gbw) ****
             **** DENSITY /home/rudenko/mop_saddle_orca_4_serv/for_orca/ch3no2_ch3coo_new/orca/freq_H/f_H.scfp WAS UPDATED ****
----------------
ORBITAL ENERGIES
----------------

  NO   OCC          E(Eh)            E(eV) 
   0   2.0000     -19.125020      -520.4183 
   1   2.0000     -19.124894      -520.4148 
   2   2.0000     -19.124599      -520.4068 
   3   2.0000     -19.093986      -519.5738 
   4   2.0000     -19.082912      -519.2724 
   5   2.0000     -14.517682      -395.0462 
   6   2.0000     -10.285837      -279.8919 
   7   2.0000     -10.166630      -276.6481 
   8   2.0000     -10.161670      -276.5131 
   9   2.0000      -1.189589       -32.3704 
  10   2.0000      -1.073899       -29.2223 
  11   2.0000      -1.012135       -27.5416 
  12   2.0000      -0.986676       -26.8488 
  13   2.0000      -0.944266       -25.6948 
  14   2.0000      -0.788025       -21.4432 
  15   2.0000      -0.734213       -19.9790 
  16   2.0000      -0.582763       -15.8578 
  17   2.0000      -0.579476       -15.7683 
  18   2.0000      -0.515294       -14.0219 
  19   2.0000      -0.503547       -13.7022 
  20   2.0000      -0.499141       -13.5823 
  21   2.0000      -0.480056       -13.0630 
  22   2.0000      -0.457885       -12.4597 
  23   2.0000      -0.451951       -12.2982 
  24   2.0000      -0.446470       -12.1491 
  25   2.0000      -0.404850       -11.0165 
  26   2.0000      -0.400555       -10.8997 
  27   2.0000      -0.386933       -10.5290 
  28   2.0000      -0.373944       -10.1755 
  29   2.0000      -0.351704        -9.5703 
  30   2.0000      -0.302448        -8.2300 
  31   2.0000      -0.297723        -8.1015 
  32   2.0000      -0.292545        -7.9606 
  33   2.0000      -0.280505        -7.6329 
  34   2.0000      -0.268358        -7.3024 
  35   2.0000      -0.262903        -7.1539 
  36   2.0000      -0.227947        -6.2028 
  37   0.0000      -0.045774        -1.2456 
  38   0.0000       0.021582         0.5873 
  39   0.0000       0.050177         1.3654 
  40   0.0000       0.069670         1.8958 
  41   0.0000       0.098725         2.6865 
  42   0.0000       0.120609         3.2819 
  43   0.0000       0.125832         3.4241 
  44   0.0000       0.127122         3.4592 
  45   0.0000       0.134682         3.6649 
  46   0.0000       0.147574         4.0157 
  47   0.0000       0.162524         4.4225 
  48   0.0000       0.171769         4.6741 
  49   0.0000       0.183069         4.9816 
  50   0.0000       0.204725         5.5709 
  51   0.0000       0.224132         6.0989 
  52   0.0000       0.231674         6.3042 
  53   0.0000       0.234193         6.3727 
  54   0.0000       0.245314         6.6753 
  55   0.0000       0.260361         7.0848 
  56   0.0000       0.279164         7.5965 
  57   0.0000       0.300657         8.1813 
  58   0.0000       0.314758         8.5650 
  59   0.0000       0.336836         9.1658 
  60   0.0000       0.355100         9.6628 
  61   0.0000       0.371442        10.1074 
  62   0.0000       0.381826        10.3900 
  63   0.0000       0.395689        10.7673 
  64   0.0000       0.405433        11.0324 
  65   0.0000       0.405922        11.0457 
  66   0.0000       0.411854        11.2071 
  67   0.0000       0.418783        11.3957 
  68   0.0000       0.430232        11.7072 
  69   0.0000       0.439328        11.9547 
  70   0.0000       0.443692        12.0735 
  71   0.0000       0.451254        12.2792 
  72   0.0000       0.462330        12.5806 
  73   0.0000       0.470373        12.7995 
  74   0.0000       0.472907        12.8685 
  75   0.0000       0.486884        13.2488 
  76   0.0000       0.498280        13.5589 
  77   0.0000       0.508778        13.8446 
  78   0.0000       0.528945        14.3933 
  79   0.0000       0.535226        14.5642 
  80   0.0000       0.543258        14.7828 
  81   0.0000       0.560788        15.2598 
  82   0.0000       0.569702        15.5024 
  83   0.0000       0.588241        16.0069 
  84   0.0000       0.591187        16.0870 
  85   0.0000       0.606112        16.4931 
  86   0.0000       0.628990        17.1157 
  87   0.0000       0.636223        17.3125 
  88   0.0000       0.660127        17.9630 
  89   0.0000       0.665559        18.1108 
  90   0.0000       0.688981        18.7481 
  91   0.0000       0.729023        19.8377 
  92   0.0000       0.769767        20.9464 
  93   0.0000       0.795697        21.6520 
  94   0.0000       0.805767        21.9260 
  95   0.0000       0.834338        22.7035 
  96   0.0000       0.845167        22.9982 
  97   0.0000       0.866544        23.5799 
  98   0.0000       0.881594        23.9894 
  99   0.0000       0.888682        24.1823 
 100   0.0000       0.915311        24.9069 
 101   0.0000       0.944370        25.6976 
 102   0.0000       0.953513        25.9464 
 103   0.0000       0.988985        26.9117 
 104   0.0000       0.995170        27.0799 
 105   0.0000       1.003161        27.2974 
 106   0.0000       1.020693        27.7745 
 107   0.0000       1.046601        28.4794 
 108   0.0000       1.081491        29.4289 
 109   0.0000       1.093924        29.7672 
 110   0.0000       1.183264        32.1982 
 111   0.0000       1.189046        32.3556 
 112   0.0000       1.223242        33.2861 
 113   0.0000       1.242535        33.8111 
 114   0.0000       1.293958        35.2104 
 115   0.0000       1.343889        36.5691 
 116   0.0000       1.371556        37.3219 
 117   0.0000       1.384744        37.6808 
 118   0.0000       1.404187        38.2099 
 119   0.0000       1.410514        38.3820 
 120   0.0000       1.438208        39.1356 
 121   0.0000       1.463519        39.8244 
 122   0.0000       1.480920        40.2979 
 123   0.0000       1.508716        41.0542 
 124   0.0000       1.512681        41.1621 
 125   0.0000       1.519548        41.3490 
 126   0.0000       1.522002        41.4158 
 127   0.0000       1.538989        41.8780 
 128   0.0000       1.540287        41.9133 
 129   0.0000       1.585640        43.1475 
 130   0.0000       1.588869        43.2353 
 131   0.0000       1.593302        43.3559 
 132   0.0000       1.613384        43.9024 
 133   0.0000       1.619583        44.0711 
 134   0.0000       1.636657        44.5357 
 135   0.0000       1.660743        45.1911 
 136   0.0000       1.674453        45.5642 
 137   0.0000       1.683524        45.8110 
 138   0.0000       1.704511        46.3821 
 139   0.0000       1.771166        48.1959 
 140   0.0000       1.780871        48.4600 
 141   0.0000       1.800671        48.9988 
 142   0.0000       1.827137        49.7189 
 143   0.0000       1.845957        50.2310 
 144   0.0000       1.900940        51.7272 
 145   0.0000       1.920092        52.2484 
 146   0.0000       1.930946        52.5437 
 147   0.0000       1.953236        53.1503 
 148   0.0000       1.972984        53.6876 
 149   0.0000       1.976539        53.7844 
 150   0.0000       1.981111        53.9088 
 151   0.0000       1.996618        54.3307 
 152   0.0000       2.044462        55.6326 
 153   0.0000       2.049430        55.7678 
 154   0.0000       2.073392        56.4199 
 155   0.0000       2.100769        57.1648 
 156   0.0000       2.119928        57.6862 
 157   0.0000       2.137393        58.1614 
 158   0.0000       2.147437        58.4347 
 159   0.0000       2.160693        58.7954 
 160   0.0000       2.169135        59.0252 
 161   0.0000       2.203393        59.9574 
 162   0.0000       2.225021        60.5459 
 163   0.0000       2.243947        61.0609 
 164   0.0000       2.245897        61.1140 
 165   0.0000       2.295251        62.4570 
 166   0.0000       2.320325        63.1392 
 167   0.0000       2.337428        63.6046 
 168   0.0000       2.354165        64.0601 
 169   0.0000       2.362868        64.2969 
 170   0.0000       2.394702        65.1631 
 171   0.0000       2.398771        65.2739 
 172   0.0000       2.423209        65.9389 
 173   0.0000       2.444896        66.5290 
 174   0.0000       2.454301        66.7849 
 175   0.0000       2.481506        67.5252 
 176   0.0000       2.501827        68.0782 
 177   0.0000       2.529060        68.8192 
 178   0.0000       2.550898        69.4135 
 179   0.0000       2.574673        70.0604 
 180   0.0000       2.601302        70.7850 
 181   0.0000       2.603489        70.8445 
 182   0.0000       2.624065        71.4044 
 183   0.0000       2.639788        71.8323 
 184   0.0000       2.696418        73.3733 
 185   0.0000       2.707103        73.6640 
 186   0.0000       2.729539        74.2745 
 187   0.0000       2.745638        74.7126 
 188   0.0000       2.761820        75.1529 
 189   0.0000       2.766017        75.2671 
 190   0.0000       2.775881        75.5356 
 191   0.0000       2.804965        76.3270 
 192   0.0000       2.815289        76.6079 
 193   0.0000       2.906296        79.0843 
 194   0.0000       2.916025        79.3491 
 195   0.0000       2.920713        79.4766 
 196   0.0000       2.945459        80.1500 
 197   0.0000       2.946919        80.1897 
 198   0.0000       2.962428        80.6118 
 199   0.0000       2.985823        81.2484 
 200   0.0000       3.016650        82.0872 
 201   0.0000       3.035848        82.6096 
 202   0.0000       3.064987        83.4025 
 203   0.0000       3.086004        83.9744 
 204   0.0000       3.115221        84.7695 
 205   0.0000       3.121414        84.9380 
 206   0.0000       3.160829        86.0105 
 207   0.0000       3.178044        86.4790 
 208   0.0000       3.204295        87.1933 
 209   0.0000       3.206931        87.2650 
 210   0.0000       3.249003        88.4099 
 211   0.0000       3.256721        88.6199 
 212   0.0000       3.278123        89.2023 
 213   0.0000       3.281517        89.2946 
 214   0.0000       3.301830        89.8474 
 215   0.0000       3.329688        90.6054 
 216   0.0000       3.358845        91.3988 
 217   0.0000       3.386772        92.1588 
 218   0.0000       3.425511        93.2129 
 219   0.0000       3.444243        93.7226 
 220   0.0000       3.479023        94.6690 
 221   0.0000       3.502024        95.2949 
 222   0.0000       3.516259        95.6823 
 223   0.0000       3.559688        96.8640 
 224   0.0000       3.627078        98.6978 
 225   0.0000       3.640590        99.0655 
 226   0.0000       3.693011       100.4919 
 227   0.0000       3.762955       102.3952 
 228   0.0000       3.772530       102.6558 
 229   0.0000       3.797210       103.3273 
 230   0.0000       3.836364       104.3928 
 231   0.0000       3.846243       104.6616 
 232   0.0000       3.893289       105.9418 
 233   0.0000       3.944126       107.3251 
 234   0.0000       3.981480       108.3416 
 235   0.0000       4.031821       109.7114 
 236   0.0000       4.041176       109.9660 
 237   0.0000       4.110323       111.8476 
 238   0.0000       4.115808       111.9968 
 239   0.0000       4.183324       113.8340 
 240   0.0000       4.308604       117.2431 
 241   0.0000       4.334539       117.9488 
 242   0.0000       4.382058       119.2418 
 243   0.0000       4.398046       119.6769 
 244   0.0000       4.422555       120.3438 
 245   0.0000       4.483578       122.0044 
 246   0.0000       4.535373       123.4138 
 247   0.0000       4.603596       125.2702 
 248   0.0000       4.619871       125.7131 
 249   0.0000       4.704604       128.0188 
 250   0.0000       4.719208       128.4162 
 251   0.0000       4.732992       128.7913 
 252   0.0000       4.745684       129.1366 
 253   0.0000       4.901927       133.3882 
 254   0.0000       4.942335       134.4878 
 255   0.0000       5.129344       139.5765 
 256   0.0000       5.133163       139.6805 
 257   0.0000       5.148201       140.0897 
 258   0.0000       5.153597       140.2365 
 259   0.0000       5.164169       140.5242 
 260   0.0000       5.166547       140.5889 
 261   0.0000       5.184679       141.0823 
 262   0.0000       5.189347       141.2093 
 263   0.0000       5.220816       142.0656 
 264   0.0000       5.256374       143.0332 
 265   0.0000       5.287406       143.8776 
 266   0.0000       5.301983       144.2743 
 267   0.0000       5.345916       145.4698 
 268   0.0000       5.374095       146.2366 
 269   0.0000       5.392157       146.7280 
 270   0.0000       5.435672       147.9122 
 271   0.0000       5.463468       148.6685 
 272   0.0000       5.506462       149.8385 
 273   0.0000       5.526800       150.3919 
 274   0.0000       5.587023       152.0306 
 275   0.0000       5.621780       152.9764 
 276   0.0000       5.635445       153.3482 
 277   0.0000       5.699756       155.0983 
 278   0.0000       5.788662       157.5175 
 279   0.0000       5.881554       160.0452 
 280   0.0000       5.930236       161.3699 
 281   0.0000       5.951481       161.9480 
 282   0.0000       5.957734       162.1182 
 283   0.0000       6.156722       167.5329 
 284   0.0000       6.171245       167.9281 
 285   0.0000       6.255487       170.2204 
 286   0.0000       6.275664       170.7695 
 287   0.0000       6.308229       171.6556 
 288   0.0000       6.313597       171.8017 
 289   0.0000       6.323134       172.0612 
 290   0.0000       6.353762       172.8947 
 291   0.0000       6.368523       173.2963 
 292   0.0000       6.372550       173.4059 
 293   0.0000       6.377385       173.5375 
 294   0.0000       6.420818       174.7193 
 295   0.0000       6.448429       175.4707 
 296   0.0000       6.480138       176.3335 
 297   0.0000       6.505863       177.0335 
 298   0.0000       6.605540       179.7459 
 299   0.0000       6.661743       181.2752 
 300   0.0000       6.722272       182.9223 
 301   0.0000       6.750813       183.6990 
 302   0.0000       6.837924       186.0694 
 303   0.0000       6.851333       186.4342 
 304   0.0000       6.865615       186.8229 
 305   0.0000       6.868065       186.8895 
 306   0.0000       6.896926       187.6749 
 307   0.0000       6.951606       189.1628 
 308   0.0000       7.047102       191.7614 
 309   0.0000       7.092128       192.9866 
 310   0.0000       7.099387       193.1841 
 311   0.0000       7.119158       193.7221 
 312   0.0000       7.160607       194.8500 
 313   0.0000       7.203846       196.0266 
 314   0.0000       7.233226       196.8261 
 315   0.0000       7.369629       200.5378 
 316   0.0000       7.425696       202.0634 
 317   0.0000       7.464455       203.1182 
 318   0.0000      22.310468       607.0987 
 319   0.0000      22.424024       610.1887 
 320   0.0000      23.303226       634.1130 
 321   0.0000      32.239118       877.2710 
 322   0.0000      43.632800      1187.3089 
 323   0.0000      43.794977      1191.7219 
 324   0.0000      43.867500      1193.6953 
 325   0.0000      43.901578      1194.6227 
 326   0.0000      43.973407      1196.5773 

                    ********************************
                    * MULLIKEN POPULATION ANALYSIS *
                    ********************************

-----------------------
MULLIKEN ATOMIC CHARGES
-----------------------
   0 C :   -0.450098
   1 H :    0.334928
   2 H :    0.134242
   3 H :    0.137833
   4 N :    0.427004
   5 O :   -0.463219
   6 O :   -0.463091
   7 C :    0.337130
   8 O :   -0.456722
   9 O :   -0.469528
  10 C :   -0.354601
  11 H :    0.122438
  12 H :    0.135696
  13 H :    0.138700
  14 H :    0.360903
  15 O :   -0.795449
  16 H :    0.323833
Sum of atomic charges:   -1.0000000

--------------------------------
MULLIKEN REDUCED ORBITAL CHARGES
--------------------------------
  0 C s       :     3.332980  s :     3.332980
      pz      :     1.108611  p :     3.051544
      px      :     0.873527
      py      :     1.069405
      dz2     :     0.010665  d :     0.059072
      dxz     :     0.014034
      dyz     :     0.007493
      dx2y2   :     0.015539
      dxy     :     0.011340
      f0      :     0.000694  f :     0.006503
      f+1     :     0.001036
      f-1     :     0.000643
      f+2     :     0.000772
      f-2     :     0.000938
      f+3     :     0.001004
      f-3     :     0.001417
  1 H s       :     0.605054  s :     0.605054
      pz      :     0.021938  p :     0.060018
      px      :     0.025265
      py      :     0.012815
  2 H s       :     0.843428  s :     0.843428
      pz      :     0.012087  p :     0.022330
      px      :     0.004893
      py      :     0.005350
  3 H s       :     0.839894  s :     0.839894
      pz      :     0.004644  p :     0.022272
      px      :     0.004508
      py      :     0.013120
  4 N s       :     3.313781  s :     3.313781
      pz      :     1.020659  p :     3.011000
      px      :     1.044252
      py      :     0.946089
      dz2     :     0.048620  d :     0.234132
      dxz     :     0.033921
      dyz     :     0.045372
      dx2y2   :     0.058988
      dxy     :     0.047232
      f0      :     0.001603  f :     0.014083
      f+1     :     0.001737
      f-1     :     0.002019
      f+2     :     0.002584
      f-2     :     0.001670
      f+3     :     0.002001
      f-3     :     0.002468
  5 O s       :     3.881785  s :     3.881785
      pz      :     1.632611  p :     4.540570
      px      :     1.682214
      py      :     1.225745
      dz2     :     0.004865  d :     0.037800
      dxz     :     0.003261
      dyz     :     0.009285
      dx2y2   :     0.010626
      dxy     :     0.009763
      f0      :     0.000310  f :     0.003064
      f+1     :     0.000098
      f-1     :     0.000473
      f+2     :     0.000381
      f-2     :     0.000502
      f+3     :     0.000700
      f-3     :     0.000600
  6 O s       :     3.880694  s :     3.880694
      pz      :     1.317311  p :     4.541449
      px      :     1.632167
      py      :     1.591971
      dz2     :     0.009599  d :     0.037879
      dxz     :     0.008253
      dyz     :     0.009777
      dx2y2   :     0.003738
      dxy     :     0.006513
      f0      :     0.000412  f :     0.003069
      f+1     :     0.000442
      f-1     :     0.000585
      f+2     :     0.000408
      f-2     :     0.000781
      f+3     :     0.000233
      f-3     :     0.000210
  7 C s       :     3.079558  s :     3.079558
      pz      :     0.723426  p :     2.314596
      px      :     0.765227
      py      :     0.825943
      dz2     :     0.060445  d :     0.243422
      dxz     :     0.028096
      dyz     :     0.055574
      dx2y2   :     0.039317
      dxy     :     0.059991
      f0      :     0.003007  f :     0.025294
      f+1     :     0.001988
      f-1     :     0.005276
      f+2     :     0.003632
      f-2     :     0.004584
      f+3     :     0.003644
      f-3     :     0.003163
  8 O s       :     3.767335  s :     3.767335
      pz      :     1.485519  p :     4.659925
      px      :     1.517361
      py      :     1.657045
      dz2     :     0.006766  d :     0.027868
      dxz     :     0.005578
      dyz     :     0.005604
      dx2y2   :     0.003567
      dxy     :     0.006353
      f0      :     0.000265  f :     0.001594
      f+1     :     0.000413
      f-1     :     0.000110
      f+2     :     0.000282
      f-2     :     0.000321
      f+3     :     0.000184
      f-3     :     0.000019
  9 O s       :     3.794056  s :     3.794056
      pz      :     1.593470  p :     4.646431
      px      :     1.634961
      py      :     1.417999
      dz2     :     0.004490  d :     0.027300
      dxz     :     0.001975
      dyz     :     0.008073
      dx2y2   :     0.006016
      dxy     :     0.006746
      f0      :     0.000124  f :     0.001740
      f+1     :     0.000009
      f-1     :     0.000466
      f+2     :     0.000323
      f-2     :     0.000244
      f+3     :     0.000337
      f-3     :     0.000238
 10 C s       :     3.272094  s :     3.272094
      pz      :     1.041736  p :     3.041544
      px      :     1.015461
      py      :     0.984347
      dz2     :     0.005999  d :     0.037326
      dxz     :     0.008813
      dyz     :     0.005493
      dx2y2   :     0.007967
      dxy     :     0.009055
      f0      :     0.000213  f :     0.003636
      f+1     :     0.000996
      f-1     :     0.000256
      f+2     :     0.000127
      f-2     :     0.000738
      f+3     :     0.000784
      f-3     :     0.000523
 11 H s       :     0.856036  s :     0.856036
      pz      :     0.010549  p :     0.021526
      px      :     0.006670
      py      :     0.004308
 12 H s       :     0.842779  s :     0.842779
      pz      :     0.004466  p :     0.021525
      px      :     0.006837
      py      :     0.010223
 13 H s       :     0.839631  s :     0.839631
      pz      :     0.008459  p :     0.021669
      px      :     0.008179
      py      :     0.005030
 14 H s       :     0.567668  s :     0.567668
      pz      :     0.013867  p :     0.071429
      px      :     0.021053
      py      :     0.036509
 15 O s       :     3.814091  s :     3.814091
      pz      :     1.551486  p :     4.963022
      px      :     1.827602
      py      :     1.583934
      dz2     :     0.001227  d :     0.017421
      dxz     :     0.003052
      dyz     :     0.007759
      dx2y2   :     0.001950
      dxy     :     0.003433
      f0      :     0.000053  f :     0.000914
      f+1     :     0.000089
      f-1     :     0.000223
      f+2     :     0.000227
      f-2     :     0.000190
      f+3     :     0.000079
      f-3     :     0.000052
 16 H s       :     0.630495  s :     0.630495
      pz      :     0.016389  p :     0.045672
      px      :     0.013953
      py      :     0.015330


                     *******************************
                     * LOEWDIN POPULATION ANALYSIS *
                     *******************************

----------------------
LOEWDIN ATOMIC CHARGES
----------------------
   0 C :   -0.390291
   1 H :    0.151868
   2 H :    0.113961
   3 H :    0.113894
   4 N :   -0.086517
   5 O :   -0.171780
   6 O :   -0.171197
   7 C :   -0.576635
   8 O :    0.050374
   9 O :   -0.018012
  10 C :   -0.270260
  11 H :    0.127180
  12 H :    0.135528
  13 H :    0.139113
  14 H :    0.149369
  15 O :   -0.429955
  16 H :    0.133360

-------------------------------
LOEWDIN REDUCED ORBITAL CHARGES
-------------------------------
  0 C s       :     2.903446  s :     2.903446
      pz      :     1.100987  p :     3.168814
      px      :     0.979166
      py      :     1.088661
      dz2     :     0.055112  d :     0.277936
      dxz     :     0.064356
      dyz     :     0.027677
      dx2y2   :     0.078180
      dxy     :     0.052611
      f0      :     0.003802  f :     0.040095
      f+1     :     0.005871
      f-1     :     0.003307
      f+2     :     0.005605
      f-2     :     0.006116
      f+3     :     0.006558
      f-3     :     0.008837
  1 H s       :     0.644616  s :     0.644616
      pz      :     0.076177  p :     0.203516
      px      :     0.084802
      py      :     0.042537
  2 H s       :     0.818843  s :     0.818843
      pz      :     0.036623  p :     0.067196
      px      :     0.013735
      py      :     0.016838
  3 H s       :     0.818964  s :     0.818964
      pz      :     0.015088  p :     0.067142
      px      :     0.013078
      py      :     0.038976
  4 N s       :     2.946279  s :     2.946279
      pz      :     1.077412  p :     3.316119
      px      :     1.148523
      py      :     1.090185
      dz2     :     0.138193  d :     0.753016
      dxz     :     0.114033
      dyz     :     0.162196
      dx2y2   :     0.181821
      dxy     :     0.156773
      f0      :     0.008169  f :     0.071102
      f+1     :     0.009040
      f-1     :     0.009242
      f+2     :     0.013830
      f-2     :     0.006731
      f+3     :     0.011033
      f-3     :     0.013058
  5 O s       :     3.518755  s :     3.518755
      pz      :     1.583999  p :     4.549891
      px      :     1.622764
      py      :     1.343129
      dz2     :     0.012196  d :     0.093039
      dxz     :     0.006620
      dyz     :     0.023159
      dx2y2   :     0.025110
      dxy     :     0.025954
      f0      :     0.001029  f :     0.010095
      f+1     :     0.000307
      f-1     :     0.001571
      f+2     :     0.001358
      f-2     :     0.001520
      f+3     :     0.002441
      f-3     :     0.001868
  6 O s       :     3.518457  s :     3.518457
      pz      :     1.384907  p :     4.549516
      px      :     1.589156
      py      :     1.575454
      dz2     :     0.019913  d :     0.093111
      dxz     :     0.022475
      dyz     :     0.025768
      dx2y2   :     0.010435
      dxy     :     0.014519
      f0      :     0.001143  f :     0.010114
      f+1     :     0.001550
      f-1     :     0.001947
      f+2     :     0.001615
      f-2     :     0.002589
      f+3     :     0.000665
      f-3     :     0.000604
  7 C s       :     2.771114  s :     2.771114
      pz      :     0.848022  p :     2.681645
      px      :     0.827819
      py      :     1.005803
      dz2     :     0.215182  d :     0.966549
      dxz     :     0.136634
      dyz     :     0.230186
      dx2y2   :     0.171745
      dxy     :     0.212801
      f0      :     0.018544  f :     0.157328
      f+1     :     0.014361
      f-1     :     0.033002
      f+2     :     0.021298
      f-2     :     0.026761
      f+3     :     0.023643
      f-3     :     0.019718
  8 O s       :     3.347996  s :     3.347996
      pz      :     1.490109  p :     4.529262
      px      :     1.482428
      py      :     1.556726
      dz2     :     0.013581  d :     0.067402
      dxz     :     0.018409
      dyz     :     0.014305
      dx2y2   :     0.007016
      dxy     :     0.014090
      f0      :     0.000615  f :     0.004966
      f+1     :     0.001181
      f-1     :     0.000596
      f+2     :     0.000920
      f-2     :     0.000885
      f+3     :     0.000607
      f-3     :     0.000161
  9 O s       :     3.412423  s :     3.412423
      pz      :     1.517430  p :     4.536535
      px      :     1.510831
      py      :     1.508273
      dz2     :     0.009333  d :     0.063257
      dxz     :     0.003786
      dyz     :     0.020490
      dx2y2   :     0.017592
      dxy     :     0.012055
      f0      :     0.000565  f :     0.005797
      f+1     :     0.000018
      f-1     :     0.001258
      f+2     :     0.001422
      f-2     :     0.000683
      f+3     :     0.000838
      f-3     :     0.001012
 10 C s       :     2.837728  s :     2.837728
      pz      :     1.071598  p :     3.188142
      px      :     1.062698
      py      :     1.053846
      dz2     :     0.036350  d :     0.220393
      dxz     :     0.058951
      dyz     :     0.027707
      dx2y2   :     0.036686
      dxy     :     0.060699
      f0      :     0.002022  f :     0.023998
      f+1     :     0.003332
      f-1     :     0.003794
      f+2     :     0.003063
      f-2     :     0.002867
      f+3     :     0.005116
      f-3     :     0.003803
 11 H s       :     0.811492  s :     0.811492
      pz      :     0.029580  p :     0.061328
      px      :     0.018573
      py      :     0.013175
 12 H s       :     0.802544  s :     0.802544
      pz      :     0.013546  p :     0.061927
      px      :     0.020926
      py      :     0.027456
 13 H s       :     0.798939  s :     0.798939
      pz      :     0.025345  p :     0.061948
      px      :     0.022368
      py      :     0.014235
 14 H s       :     0.614677  s :     0.614677
      pz      :     0.039998  p :     0.235954
      px      :     0.065512
      py      :     0.130444
 15 O s       :     3.545095  s :     3.545095
      pz      :     1.539067  p :     4.849845
      px      :     1.747215
      py      :     1.563563
      dz2     :     0.001644  d :     0.032671
      dxz     :     0.007312
      dyz     :     0.013755
      dx2y2   :     0.003109
      dxy     :     0.006851
      f0      :     0.000161  f :     0.002344
      f+1     :     0.000135
      f-1     :     0.000544
      f+2     :     0.000514
      f-2     :     0.000668
      f+3     :     0.000186
      f-3     :     0.000136
 16 H s       :     0.696593  s :     0.696593
      pz      :     0.064331  p :     0.170047
      px      :     0.044717
      py      :     0.060999


                      *****************************
                      * MAYER POPULATION ANALYSIS *
                      *****************************

  NA   - Mulliken gross atomic population
  ZA   - Total nuclear charge
  QA   - Mulliken gross atomic charge
  VA   - Mayer's total valence
  BVA  - Mayer's bonded valence
  FA   - Mayer's free valence

  ATOM       NA         ZA         QA         VA         BVA        FA
  0 C      6.4501     6.0000    -0.4501     3.5697     3.5697     0.0000
  1 H      0.6651     1.0000     0.3349     0.9501     0.9501    -0.0000
  2 H      0.8658     1.0000     0.1342     0.9769     0.9769     0.0000
  3 H      0.8622     1.0000     0.1378     0.9712     0.9712     0.0000
  4 N      6.5730     7.0000     0.4270     4.0604     4.0604    -0.0000
  5 O      8.4632     8.0000    -0.4632     1.7519     1.7519     0.0000
  6 O      8.4631     8.0000    -0.4631     1.7582     1.7582     0.0000
  7 C      5.6629     6.0000     0.3371     4.2666     4.2666    -0.0000
  8 O      8.4567     8.0000    -0.4567     1.9297     1.9297     0.0000
  9 O      8.4695     8.0000    -0.4695     1.9932     1.9932    -0.0000
 10 C      6.3546     6.0000    -0.3546     3.8039     3.8039    -0.0000
 11 H      0.8776     1.0000     0.1224     0.9871     0.9871    -0.0000
 12 H      0.8643     1.0000     0.1357     0.9731     0.9731     0.0000
 13 H      0.8613     1.0000     0.1387     0.9736     0.9736    -0.0000
 14 H      0.6391     1.0000     0.3609     0.9672     0.9672     0.0000
 15 O      8.7954     8.0000    -0.7954     1.6569     1.6569     0.0000
 16 H      0.6762     1.0000     0.3238     0.9236     0.9236    -0.0000

  Mayer bond orders larger than 0.100000
B(  0-C ,  1-H ) :   0.4647 B(  0-C ,  2-H ) :   0.9455 B(  0-C ,  3-H ) :   0.9475 
B(  0-C ,  4-N ) :   1.0682 B(  1-H , 15-O ) :   0.4386 B(  4-N ,  5-O ) :   1.4682 
B(  4-N ,  6-O ) :   1.4746 B(  5-O ,  6-O ) :   0.1309 B(  7-C ,  8-O ) :   1.3108 
B(  7-C ,  9-O ) :   1.9306 B(  7-C , 10-C ) :   0.9752 B(  8-O , 14-H ) :   0.6240 
B( 10-C , 11-H ) :   0.9784 B( 10-C , 12-H ) :   0.9504 B( 10-C , 13-H ) :   0.9469 
B( 14-H , 15-O ) :   0.3055 B( 15-O , 16-H ) :   0.8915 

-------
TIMINGS
-------

Total SCF time: 0 days 0 hours 0 min 17 sec 

Total time                  ....      17.141 sec
Sum of individual times     ....      15.919 sec  ( 92.9%)

Fock matrix formation       ....      12.238 sec  ( 71.4%)
  Split-RI-J                ....       1.948 sec  ( 15.9% of F)
  Chain of spheres X        ....       4.553 sec  ( 37.2% of F)
  XC integration            ....       1.553 sec  ( 12.7% of F)
    Basis function eval.    ....       0.124 sec  (  8.0% of XC)
    Density eval.           ....       0.247 sec  ( 15.9% of XC)
    XC-Functional eval.     ....       0.016 sec  (  1.1% of XC)
    XC-Potential eval.      ....       0.141 sec  (  9.1% of XC)
Diagonalization             ....       0.593 sec  (  3.5%)
Density matrix formation    ....       0.114 sec  (  0.7%)
Population analysis         ....       0.108 sec  (  0.6%)
Initial guess               ....       0.170 sec  (  1.0%)
Orbital Transformation      ....       0.000 sec  (  0.0%)
Orbital Orthonormalization  ....       0.000 sec  (  0.0%)
DIIS solution               ....       0.344 sec  (  2.0%)
SOSCF solution              ....       0.905 sec  (  5.3%)
Grid generation             ....       1.447 sec  (  8.4%)

Maximum memory used throughout the entire SCF-calculation: 78.2 MB


-------------------------------------------------------------------------------
                          DFT DISPERSION CORRECTION                            
                                                                               
                              DFTD3 V3.1  Rev 1                                
                          USING Becke-Johnson damping                          
-------------------------------------------------------------------------------
The B3LYP functional is recognized
Active option DFTDOPT                   ...         4   

molecular C6(AA) [au] = 2364.737803 


            DFT-D V3
 parameters
 s6 scaling factor         :     1.0000 
 a1 scaling factor         :     0.3981 
 s8 scaling factor         :     1.9889 
 a2 scaling factor         :     4.4211 
 ad hoc parameters k1-k3   :    16.0000     1.3333    -4.0000 

 Edisp/kcal,au: -11.947747326820  -0.019039945286 
 E6   /kcal   :  -6.043572027 
 E8   /kcal   :  -5.904175300 
 % E8         :  49.416640130 

-------------------------   ----------------
Dispersion correction           -0.019039945
-------------------------   ----------------


-------------------------   --------------------
FINAL SINGLE POINT ENERGY      -550.064163661808
-------------------------   --------------------



           ************************************************************
           *        Program running with 102 parallel MPI-processes   *
           *              working on a common directory               *
           ************************************************************
------------------------------------------------------------------------------
                         ORCA SCF GRADIENT CALCULATION
------------------------------------------------------------------------------

 ... reading COSX grid (gridx3)
Gradient of the Kohn-Sham DFT energy:
Kohn-Sham wavefunction type      ... RKS
Hartree-Fock exchange scaling    ...    0.200
Number of operators              ...    1
Number of atoms                  ...   17
Basis set dimensions             ...  327
Integral neglect threshold       ... 2.5e-11
Integral primitive cutoff        ... 2.5e-12
SHARK Integral package           ... ON

Nuc. rep. gradient       (SHARK) ... done (  0.0 sec)
HCore & Overlap gradient (SHARK) ... done (  0.0 sec)
RI-J gradient            (SHARK) ... done (  0.2 sec)
COSX-gradient                    ... done (  0.7 sec)
Exchange-correlation gradient    ... done
Dispersion correction            ... done

------------------
CARTESIAN GRADIENT
------------------

   1   C   :   -0.000049809   -0.000299733   -0.000146916
   2   H   :    0.000112104    0.000485254    0.000271030
   3   H   :    0.000041580    0.000008272    0.000014998
   4   H   :    0.000013411   -0.000021043   -0.000000343
   5   N   :   -0.000051953    0.000016172   -0.000059473
   6   O   :    0.000068508   -0.000090193   -0.000059015
   7   O   :    0.000035597    0.000042907    0.000124508
   8   C   :    0.000116292   -0.000082550   -0.000062367
   9   O   :    0.000058102    0.000055718   -0.000050955
  10   O   :   -0.000030435    0.000153714    0.000136999
  11   C   :   -0.000005071    0.000023385   -0.000023765
  12   H   :   -0.000012382    0.000011831   -0.000006396
  13   H   :   -0.000013661   -0.000007893   -0.000015116
  14   H   :    0.000011621   -0.000012504   -0.000011798
  15   H   :   -0.000301742   -0.000173212   -0.000052263
  16   O   :    0.000155277   -0.000095591   -0.000147180
  17   H   :   -0.000024090   -0.000106345   -0.000010789

Difference to translation invariance:
           :    0.0001233494   -0.0000918117   -0.0000988417

Difference to rotation invariance:
           :   -0.0000189817    0.0008308468    0.0002173349

Norm of the cartesian gradient     ...    0.0008655467
RMS gradient                       ...    0.0001212008
MAX gradient                       ...    0.0004852535

-------
TIMINGS
-------

Total SCF gradient time            ...        2.697 sec

One electron gradient       ....       0.046 sec  (  1.7%)
RI-J Coulomb gradient       ....       0.235 sec  (  8.7%)
COSX gradient               ....       0.688 sec  ( 25.5%)
XC gradient                 ....       0.346 sec  ( 12.8%)
CPCM gradient               ....       0.178 sec  (  6.6%)
   A-Matrix (El+Nuc)        ....       0.091 sec  (  3.4%)
   Potential                ....       0.086 sec  (  3.2%)

Maximum memory used throughout the entire SCFGRAD-calculation: 51.5 MB

                            ***************************************
                            *     ORCA property calculations      *
                            ***************************************

                                    ---------------------
                                    Active property flags
                                    ---------------------
   (+) Dipole Moment


------------------------------------------------------------------------------
                       ORCA ELECTRIC PROPERTIES CALCULATION
------------------------------------------------------------------------------

Dipole Moment Calculation                       ... on
Quadrupole Moment Calculation                   ... off
Polarizability Calculation                      ... off
GBWName                                         ... /home/rudenko/mop_saddle_orca_4_serv/for_orca/ch3no2_ch3coo_new/orca/freq_H/f_H.gbw
Electron density                                ... /home/rudenko/mop_saddle_orca_4_serv/for_orca/ch3no2_ch3coo_new/orca/freq_H/f_H.scfp
The origin for moment calculation is the CENTER OF MASS  = (-0.366603, -0.332565  0.138456)

-------------
DIPOLE MOMENT
-------------
                                X             Y             Z
Electronic contribution:     -3.00208      -2.02829       0.74421
Nuclear contribution   :      3.43106       2.60863      -1.00186
                        -----------------------------------------
Total Dipole Moment    :      0.42898       0.58034      -0.25765
                        -----------------------------------------
Magnitude (a.u.)       :      0.76629
Magnitude (Debye)      :      1.94776



--------------------
Rotational spectrum 
--------------------
 
Rotational constants in cm-1:     0.066251     0.028227     0.024561 
Rotational constants in MHz :  1986.141992   846.235406   736.311137 

 Dipole components along the rotational axes: 
x,y,z [a.u.] :    -0.617783    -0.346700    -0.292138 
x,y,z [Debye]:    -1.570280    -0.881241    -0.742557 

 

----------------------------------------------------------------------------
                           ORCA NUMERICAL FREQUENCIES
                              (102-process run)
----------------------------------------------------------------------------

Number of atoms                ... 17
Central differences            ... used
Number of displacements        ... 102
Numerical increment            ... 5.000e-03 bohr
IR-spectrum generation         ... on
Raman-spectrum generation      ... off
Surface Crossing Hessian       ... off

The output will be reduced. Please look at the following files:
SCF program output             ... >/home/rudenko/mop_saddle_orca_4_serv/for_orca/ch3no2_ch3coo_new/orca/freq_H/f_H.lastscf
Integral program output        ... >/home/rudenko/mop_saddle_orca_4_serv/for_orca/ch3no2_ch3coo_new/orca/freq_H/f_H.lastint
Gradient program output        ... >/home/rudenko/mop_saddle_orca_4_serv/for_orca/ch3no2_ch3coo_new/orca/freq_H/f_H.lastgrad
Dipole moment program output   ... >/home/rudenko/mop_saddle_orca_4_serv/for_orca/ch3no2_ch3coo_new/orca/freq_H/f_H.lastmom
AutoCI program output          ... >/home/rudenko/mop_saddle_orca_4_serv/for_orca/ch3no2_ch3coo_new/orca/freq_H/f_H.lastautoci

	<< Calculating on displaced geometry   1 (of 102) >>
	<< Calculating on displaced geometry   2 (of 102) >>
	<< Calculating on displaced geometry  16 (of 102) >>
	<< Calculating on displaced geometry   8 (of 102) >>
	<< Calculating on displaced geometry   4 (of 102) >>
	<< Calculating on displaced geometry  10 (of 102) >>
	<< Calculating on displaced geometry  14 (of 102) >>
	<< Calculating on displaced geometry  19 (of 102) >>
	<< Calculating on displaced geometry   6 (of 102) >>
	<< Calculating on displaced geometry  24 (of 102) >>
	<< Calculating on displaced geometry  13 (of 102) >>
	<< Calculating on displaced geometry   7 (of 102) >>
	<< Calculating on displaced geometry   5 (of 102) >>
	<< Calculating on displaced geometry  15 (of 102) >>
	<< Calculating on displaced geometry  31 (of 102) >>
	<< Calculating on displaced geometry  17 (of 102) >>
	<< Calculating on displaced geometry   3 (of 102) >>
	<< Calculating on displaced geometry  18 (of 102) >>
	<< Calculating on displaced geometry  50 (of 102) >>
	<< Calculating on displaced geometry  62 (of 102) >>
	<< Calculating on displaced geometry  46 (of 102) >>
	<< Calculating on displaced geometry  57 (of 102) >>
	<< Calculating on displaced geometry  49 (of 102) >>
	<< Calculating on displaced geometry  20 (of 102) >>
	<< Calculating on displaced geometry  22 (of 102) >>
	<< Calculating on displaced geometry  69 (of 102) >>
	<< Calculating on displaced geometry  27 (of 102) >>
	<< Calculating on displaced geometry  55 (of 102) >>
	<< Calculating on displaced geometry 101 (of 102) >>
	<< Calculating on displaced geometry  65 (of 102) >>
	<< Calculating on displaced geometry  98 (of 102) >>
[...]
     26      -0.004892  -0.003474   0.002289   0.000613   0.002327  -0.009089
     27      -0.000331   0.000131  -0.000055  -0.000809   0.002295   0.011432
     28      -0.003779   0.000999  -0.029801  -0.002303   0.003749   0.029628
     29      -0.003658   0.000664  -0.012891  -0.000016   0.000672   0.026256
     30      -0.005471  -0.000425  -0.039058   0.011412  -0.026797   0.010218
     31       0.004228   0.000215  -0.006988   0.008655  -0.023013  -0.011878
     32      -0.000768   0.001362  -0.042703  -0.015420   0.036303   0.007329
     33       0.019424   0.006958   0.280789  -0.191036   0.473323   0.028379
     34      -0.013634   0.005706  -0.393503  -0.142082   0.328519  -0.047168
     35      -0.010726  -0.004672  -0.116796   0.142764  -0.348504   0.004195
     36       0.014206  -0.000286  -0.180865   0.091295  -0.233161  -0.049066
     37      -0.009769  -0.001956   0.196279  -0.018310   0.055231   0.033031
     38      -0.002840  -0.012203   0.486143   0.204587  -0.475614   0.033152
     39       0.014309   0.000515   0.435671  -0.095083   0.246815   0.019932
     40      -0.013477  -0.006402   0.419827   0.044799  -0.089659   0.062637
     41       0.021423   0.003881   0.262919  -0.113823   0.282849  -0.007868
     42      -0.165290  -0.054020  -0.010339   0.033487   0.030726   0.296939
     43      -0.091367  -0.025047  -0.019858   0.007558   0.015386   0.334787
     44       0.087180   0.064768  -0.059338  -0.010124  -0.029252   0.745410
     45       0.023887   0.003176  -0.000170  -0.001253  -0.001638  -0.006477
     46       0.007758  -0.009542   0.000363   0.001191   0.000780  -0.020259
     47      -0.002743  -0.002111   0.001596  -0.003489  -0.001224  -0.022365
     48      -0.014973   0.047917  -0.005032   0.007944   0.002629   0.133724
     49      -0.042862   0.033854   0.008524   0.009656   0.008783  -0.019147
     50       0.030324  -0.029108  -0.007576  -0.008709  -0.007267   0.023165
                 42         43         44         45         46         47    
      0       0.003098  -0.002533  -0.003627  -0.000003  -0.000018  -0.019995
      1      -0.026038   0.004405   0.000085   0.000007   0.000017   0.036037
      2      -0.012540   0.004277   0.001984  -0.000015  -0.000032  -0.047337
      3      -0.094467   0.124312   0.098981  -0.000090   0.000045  -0.000499
      4       0.715747  -0.082823   0.033472  -0.000020  -0.000021  -0.000660
      5       0.406610  -0.198018  -0.111613   0.000072   0.000011   0.000232
      6       0.130620  -0.027942  -0.004014   0.000036   0.000079   0.130347
      7       0.061169  -0.017891  -0.004083   0.000092   0.000182   0.269854
      8      -0.066412   0.017186   0.003537   0.000196   0.000403   0.642718
      9      -0.166690   0.027338   0.001901   0.000016   0.000031   0.072422
     10      -0.049276   0.007454   0.000132  -0.000155  -0.000359  -0.693547
     11       0.095516  -0.013011  -0.000925  -0.000013  -0.000041  -0.083071
     12       0.007058  -0.002696   0.001225  -0.000000  -0.000000   0.002708
     13      -0.012104   0.001679  -0.001629   0.000014   0.000014  -0.000078
     14      -0.009121   0.002891   0.001706   0.000001   0.000001  -0.000099
     15      -0.003124   0.000786  -0.000317  -0.000002   0.000001  -0.000017
     16       0.005334  -0.000419   0.001520  -0.000004   0.000004  -0.000259
     17       0.003497  -0.000537   0.000111  -0.000004  -0.000008   0.000060
     18      -0.000442   0.000509  -0.000320   0.000001  -0.000002   0.000013
     19       0.001713  -0.000636  -0.000433  -0.000004   0.000002  -0.000004
     20       0.000367  -0.000969  -0.000944  -0.000003  -0.000006   0.000254
     21       0.021113  -0.037244  -0.024419   0.000883  -0.001063   0.000008
     22       0.024750   0.366896  -0.091464  -0.000832   0.000158   0.000000
     23       0.036958   0.121665  -0.068681   0.000979   0.000377   0.000001
     24      -0.004072  -0.033428  -0.028315   0.000019   0.000114   0.000004
     25       0.021095   0.028340   0.076915   0.000081   0.000024  -0.000007
     26       0.001744  -0.030436  -0.003183  -0.000014   0.000005   0.000005
     27      -0.004625  -0.003021   0.004023  -0.000099  -0.000109   0.000003
     28      -0.026995  -0.215121   0.053540  -0.000127  -0.000126   0.000006
     29      -0.017812  -0.099345   0.028637  -0.000173   0.000081  -0.000002
     30      -0.001298   0.026272   0.006409  -0.027665  -0.063585   0.000030
     31       0.001046  -0.045962   0.006243   0.043113  -0.033577   0.000007
     32      -0.000913   0.011512   0.009638   0.005204   0.056098  -0.000039
     33      -0.014769  -0.047116   0.032457   0.207031  -0.078800   0.000006
     34       0.024498   0.146712  -0.065429   0.094990  -0.033888  -0.000000
     35       0.002294   0.019670   0.000344   0.360345  -0.102819   0.000000
     36       0.022116   0.063834  -0.018850  -0.340663   0.418376  -0.000141
     37      -0.017260  -0.085791   0.021475  -0.453460   0.588564  -0.000182
     38      -0.016515  -0.079078   0.013286   0.079599  -0.085488   0.000017
     39      -0.012128  -0.033293   0.008921   0.454462   0.430236  -0.000380
     40      -0.028047  -0.112556   0.022381  -0.143753  -0.155713   0.000109
     41      -0.000977  -0.018854   0.004095  -0.510290  -0.485434   0.000417
     42      -0.172494   0.527020   0.425392  -0.000045   0.000616  -0.000282
     43      -0.239420  -0.419842  -0.864395  -0.001743   0.000731   0.000386
     44      -0.259362   0.447641   0.127889  -0.000085  -0.000486  -0.000159
     45      -0.000097   0.008493   0.006824  -0.000020  -0.000005  -0.000055
     46      -0.032227  -0.016588  -0.011497   0.000049  -0.000009  -0.000044
     47       0.003136   0.010460   0.014790  -0.000016   0.000010  -0.000019
     48       0.132901  -0.012597  -0.016601   0.000015  -0.000013  -0.000474
     49       0.196961  -0.090624  -0.011810   0.000052  -0.000005   0.000496
     50      -0.170571   0.064201  -0.005945  -0.000000  -0.000005   0.000980
                 48         49         50    
      0      -0.000004  -0.004519  -0.000377
      1       0.000000  -0.079343  -0.000059
      2      -0.000002  -0.059026   0.000263
      3       0.000133  -0.000199   0.003614
      4       0.000067  -0.004680  -0.003460
      5      -0.000075  -0.003773  -0.008929
      6       0.000012   0.119468  -0.000331
      7       0.000037   0.252545  -0.000191
      8       0.000072   0.641788  -0.000255
      9       0.000007  -0.064889   0.000079
     10      -0.000000   0.700996   0.001225
     11       0.000009   0.067882  -0.000334
     12       0.000002  -0.000126   0.000306
     13       0.000002  -0.001834  -0.000144
     14       0.000006  -0.001394   0.000170
     15      -0.000004  -0.000218  -0.000063
     16      -0.000004   0.000730   0.000139
     17      -0.000002   0.000469   0.000030
     18       0.000003   0.000300  -0.000070
     19      -0.000008   0.000655  -0.000068
     20      -0.000001   0.000573  -0.000113
     21       0.000177  -0.000005   0.000099
     22       0.002583  -0.000006  -0.000074
     23       0.001413  -0.000009   0.000076
     24      -0.000078  -0.000009  -0.000296
     25      -0.000400   0.000015   0.000476
     26      -0.000186  -0.000002  -0.000174
     27      -0.000144   0.000004  -0.000052
     28      -0.000787   0.000002   0.000042
     29      -0.000583   0.000004  -0.000080
     30       0.042358   0.000002   0.000004
     31       0.042588  -0.000005   0.000006
     32       0.071210  -0.000011   0.000009
     33      -0.444470   0.000019  -0.000156
     34      -0.186840  -0.000000   0.000009
     35      -0.755482   0.000025  -0.000177
     36      -0.214799  -0.000001  -0.000029
     37      -0.294453  -0.000002  -0.000061
     38       0.061029  -0.000009   0.000006
     39       0.158379  -0.000054   0.000034
     40      -0.041156   0.000011  -0.000030
     41      -0.157231   0.000057  -0.000021
     42      -0.003129   0.000251   0.002821
     43       0.004099  -0.000221  -0.008930
     44      -0.002095   0.000150  -0.001902
     45       0.000033  -0.000009   0.011657
     46      -0.000052   0.000050  -0.041819
     47       0.000046   0.000019  -0.044507
     48       0.000074  -0.000038  -0.184405
     49      -0.000174  -0.000661   0.669364
     50      -0.000116  -0.000053   0.716856


-----------
IR SPECTRUM
-----------

 Mode   freq       eps      Int      T**2         TX        TY        TZ
       cm**-1   L/(mol*cm) km/mol    a.u.
----------------------------------------------------------------------------
  7:     25.69   0.001045    5.28  0.012696  ( 0.015287  0.092183  0.062964)
  8:     40.23   0.001672    8.45  0.012974  (-0.086202 -0.034018  0.066230)
  9:     59.63   0.001515    7.66  0.007929  ( 0.053949 -0.022056 -0.067322)
 10:     81.31   0.000060    0.30  0.000231  ( 0.008054  0.002631  0.012625)
 11:     90.33   0.000653    3.30  0.002255  ( 0.018184 -0.022447  0.037692)
 12:     95.64   0.000151    0.76  0.000493  (-0.011043 -0.014177  0.013049)
 13:    106.41   0.001199    6.06  0.003515  ( 0.022986 -0.026718  0.047675)
 14:    135.02   0.001982   10.02  0.004582  (-0.056411 -0.026470  0.026442)
 15:    294.16   0.056134  283.68  0.059551  ( 0.207451 -0.094087  0.087538)
 16:    422.73   0.034948  176.61  0.025798  ( 0.151380 -0.046437  0.026947)
 17:    464.37   0.014052   71.01  0.009443  ( 0.065271 -0.063478  0.033964)
 18:    499.05   0.001799    9.09  0.001125  ( 0.020240 -0.020721  0.016900)
 19:    511.44   0.003008   15.20  0.001835  (-0.015637  0.035966 -0.017245)
 20:    546.77   0.006329   31.98  0.003612  (-0.003729  0.041099 -0.043695)
 21:    613.36   0.001056    5.34  0.000537  ( 0.020450  0.000917 -0.010870)
 22:    644.30   0.000431    2.18  0.000209  (-0.002882 -0.006812  0.012405)
 23:    696.59   0.001874    9.47  0.000839  (-0.028928  0.000777 -0.001382)
 24:    732.10   0.006585   33.28  0.002807  ( 0.005358 -0.030980  0.042641)
 25:    749.46   0.004968   25.11  0.002069  ( 0.029650  0.020897 -0.027436)
 26:    903.70   0.011550   58.37  0.003988  ( 0.041063 -0.044224  0.018613)
 27:    974.51   0.012343   62.38  0.003953  (-0.041728  0.028873 -0.037118)
 28:   1013.94   0.010751   54.33  0.003309  ( 0.051571 -0.016293  0.019591)
 29:   1028.51   0.004088   20.66  0.001240  (-0.018255 -0.016463 -0.025219)
 30:   1064.65   0.002649   13.39  0.000776  ( 0.021608  0.005783 -0.016614)
 31:   1137.64   0.024611  124.37  0.006751  (-0.000382 -0.066115 -0.048782)
 32:   1215.07   0.020474  103.47  0.005258  (-0.032973 -0.040413  0.050376)
 33:   1311.78   0.168370  850.87  0.040054  (-0.139731  0.037169 -0.138376)
 34:   1387.98   0.069165  349.53  0.015550  ( 0.101407 -0.041715  0.059387)
 35:   1393.37   0.005079   25.67  0.001137  (-0.024826 -0.019818  0.011332)
 36:   1404.55   0.053560  270.67  0.011900  ( 0.059081 -0.070358  0.058816)
 37:   1437.41   0.120698  609.96  0.026204  ( 0.009195  0.125609  0.101693)
 38:   1450.17   0.008977   45.37  0.001932  ( 0.006877  0.038753  0.019561)
 39:   1461.90   0.014532   73.44  0.003102  ( 0.026467 -0.026173  0.041432)
 40:   1462.79   0.002801   14.15  0.000598  ( 0.022198 -0.004446 -0.009220)
 41:   1532.20   0.011575   58.49  0.002357  ( 0.020697 -0.021643  0.038218)
 42:   1558.77   0.006291   31.79  0.001260  ( 0.001871  0.030988  0.017197)
 43:   1637.11   0.170477  861.52  0.032496  ( 0.118450  0.010304  0.135498)
 44:   1903.04   0.617290  3119.53  0.101224  ( 0.167609 -0.255442  0.088774)
 45:   3046.02   0.000552    2.79  0.000057  (-0.004046  0.006308 -0.000657)
 46:   3103.63   0.001483    7.49  0.000149  (-0.007275 -0.005794  0.007912)
 47:   3110.29   0.000961    4.86  0.000096  (-0.008148  0.003586 -0.004145)
 48:   3142.95   0.003238   16.36  0.000321  ( 0.009427  0.005885  0.014070)
 49:   3203.19   0.001632    8.25  0.000159  (-0.000391 -0.010108 -0.007526)
 50:   3783.15   0.008296   41.93  0.000684  (-0.012360  0.014062  0.018271)

* The epsilon (eps) is given for a Dirac delta lineshape.
** The dipole moment derivative (T) already includes vibrational overlap.

The first frequency considered to be a vibration is 7
The total number of vibrations considered is 44


--------------------------
THERMOCHEMISTRY AT 298.15K
--------------------------

Temperature         ... 298.15 K
Pressure            ... 1.00 atm
Total Mass          ... 138.10 AMU

Throughout the following assumptions are being made:
  (1) The electronic state is orbitally nondegenerate
  (2) There are no thermally accessible electronically excited states
  (3) Hindered rotations indicated by low frequency modes are not
      treated as such but are treated as vibrations and this may
      cause some error
  (4) All equations used are the standard statistical mechanics
      equations for an ideal gas
  (5) All vibrations are strictly harmonic

freq.      25.69  E(vib)   ...       0.56 
freq.      40.23  E(vib)   ...       0.54 
freq.      59.63  E(vib)   ...       0.51 
freq.      81.31  E(vib)   ...       0.48 
freq.      90.33  E(vib)   ...       0.47 
freq.      95.64  E(vib)   ...       0.47 
freq.     106.41  E(vib)   ...       0.45 
freq.     135.02  E(vib)   ...       0.42 
freq.     294.16  E(vib)   ...       0.27 
freq.     422.73  E(vib)   ...       0.18 
freq.     464.37  E(vib)   ...       0.16 
freq.     499.05  E(vib)   ...       0.14 
freq.     511.44  E(vib)   ...       0.14 
freq.     546.77  E(vib)   ...       0.12 
freq.     613.36  E(vib)   ...       0.10 
freq.     644.30  E(vib)   ...       0.09 
freq.     696.59  E(vib)   ...       0.07 
freq.     732.10  E(vib)   ...       0.06 
freq.     749.46  E(vib)   ...       0.06 
freq.     903.70  E(vib)   ...       0.03 
freq.     974.51  E(vib)   ...       0.03 
freq.    1013.94  E(vib)   ...       0.02 
freq.    1028.51  E(vib)   ...       0.02 
freq.    1064.65  E(vib)   ...       0.02 
freq.    1137.64  E(vib)   ...       0.01 
freq.    1215.07  E(vib)   ...       0.01 
freq.    1311.78  E(vib)   ...       0.01 
freq.    1387.98  E(vib)   ...       0.00 
freq.    1393.37  E(vib)   ...       0.00 
freq.    1404.55  E(vib)   ...       0.00 
freq.    1437.41  E(vib)   ...       0.00 
freq.    1450.17  E(vib)   ...       0.00 
freq.    1461.90  E(vib)   ...       0.00 
freq.    1462.79  E(vib)   ...       0.00 
freq.    1532.20  E(vib)   ...       0.00 
freq.    1558.77  E(vib)   ...       0.00 
freq.    1637.11  E(vib)   ...       0.00 
freq.    1903.04  E(vib)   ...       0.00 
freq.    3046.02  E(vib)   ...       0.00 
freq.    3103.63  E(vib)   ...       0.00 
freq.    3110.29  E(vib)   ...       0.00 
freq.    3142.95  E(vib)   ...       0.00 
freq.    3203.19  E(vib)   ...       0.00 
freq.    3783.15  E(vib)   ...       0.00 

------------
INNER ENERGY
------------

The inner energy is: U= E(el) + E(ZPE) + E(vib) + E(rot) + E(trans)
    E(el)   - is the total energy from the electronic structure calculation
              = E(kin-el) + E(nuc-el) + E(el-el) + E(nuc-nuc)
    E(ZPE)  - the the zero temperature vibrational energy from the frequency calculation
    E(vib)  - the the finite temperature correction to E(ZPE) due to population
              of excited vibrational states
    E(rot)  - is the rotational thermal energy
    E(trans)- is the translational thermal energy

Summary of contributions to the inner energy U:
Electronic energy                ...   -550.06416366 Eh
Zero point energy                ...      0.11727304 Eh      73.59 kcal/mol
Thermal vibrational correction   ...      0.00871213 Eh       5.47 kcal/mol
Thermal rotational correction    ...      0.00141627 Eh       0.89 kcal/mol
Thermal translational correction ...      0.00141627 Eh       0.89 kcal/mol
-----------------------------------------------------------------------
Total thermal energy                   -549.93534594 Eh


Summary of corrections to the electronic energy:
(perhaps to be used in another calculation)
Total thermal correction                  0.01154468 Eh       7.24 kcal/mol
Non-thermal (ZPE) correction              0.11727304 Eh      73.59 kcal/mol
-----------------------------------------------------------------------
Total correction                          0.12881772 Eh      80.83 kcal/mol


--------
ENTHALPY
--------

The enthalpy is H = U + kB*T
                kB is Boltzmann's constant
Total free energy                 ...   -549.93534594 Eh 
Thermal Enthalpy correction       ...      0.00094421 Eh       0.59 kcal/mol
-----------------------------------------------------------------------
Total Enthalpy                    ...   -549.93440173 Eh


Note: Only C1 symmetry has been detected, increase convergence thresholds 
      if your molecule has a higher symmetry. Symmetry factor of 1.0 is   
      used for the rotational entropy correction. 
 

Note: Rotational entropy computed according to Herzberg 
Infrared and Raman Spectra, Chapter V,1, Van Nostrand Reinhold, 1945 
Point Group:  C1, Symmetry Number:   1  
Rotational constants in cm-1:     0.066251     0.028227     0.024561 

Vibrational entropy computed according to the QRRHO of S. Grimme
Chem.Eur.J. 2012 18 9955


-------
ENTROPY
-------

The entropy contributions are T*S = T*(S(el)+S(vib)+S(rot)+S(trans))
     S(el)   - electronic entropy
     S(vib)  - vibrational entropy
     S(rot)  - rotational entropy
     S(trans)- translational entropy
The entropies will be listed as multiplied by the temperature to get
units of energy

Electronic entropy                ...      0.00000000 Eh      0.00 kcal/mol
Vibrational entropy               ...      0.01637053 Eh     10.27 kcal/mol
Rotational entropy                ...      0.01422623 Eh      8.93 kcal/mol
Translational entropy             ...      0.01932842 Eh     12.13 kcal/mol
-----------------------------------------------------------------------
Final entropy term                ...      0.04992517 Eh     31.33 kcal/mol

In case the symmetry of your molecule has not been determined correctly
or in case you have a reason to use a different symmetry number we print 
out the resulting rotational entropy values for sn=1,12 :
 --------------------------------------------------------
|  sn= 1 | S(rot)=       0.01422623 Eh      8.93 kcal/mol|
|  sn= 2 | S(rot)=       0.01357177 Eh      8.52 kcal/mol|
|  sn= 3 | S(rot)=       0.01318894 Eh      8.28 kcal/mol|
|  sn= 4 | S(rot)=       0.01291732 Eh      8.11 kcal/mol|
|  sn= 5 | S(rot)=       0.01270663 Eh      7.97 kcal/mol|
|  sn= 6 | S(rot)=       0.01253449 Eh      7.87 kcal/mol|
|  sn= 7 | S(rot)=       0.01238894 Eh      7.77 kcal/mol|
|  sn= 8 | S(rot)=       0.01226286 Eh      7.70 kcal/mol|
|  sn= 9 | S(rot)=       0.01215165 Eh      7.63 kcal/mol|
|  sn=10 | S(rot)=       0.01205217 Eh      7.56 kcal/mol|
|  sn=11 | S(rot)=       0.01196218 Eh      7.51 kcal/mol|
|  sn=12 | S(rot)=       0.01188003 Eh      7.45 kcal/mol|
 --------------------------------------------------------


-------------------
GIBBS FREE ENERGY
-------------------

The Gibbs free energy is G = H - T*S

Total enthalpy                    ...   -549.93440173 Eh 
Total entropy correction          ...     -0.04992517 Eh    -31.33 kcal/mol
-----------------------------------------------------------------------
Final Gibbs free energy         ...   -549.98432690 Eh

For completeness - the Gibbs free energy minus the electronic energy
G-E(el)                           ...      0.07983676 Eh     50.10 kcal/mol



Timings for individual modules:

Sum of individual times         ...      376.434 sec (=   6.274 min)
GTO integral calculation        ...        8.199 sec (=   0.137 min)   2.2 %
SCF iterations                  ...       41.186 sec (=   0.686 min)  10.9 %
SCF Gradient evaluation         ...       12.693 sec (=   0.212 min)   3.4 %
Numerical frequency calculation ...      314.357 sec (=   5.239 min)  83.5 %
                             ****ORCA TERMINATED NORMALLY****
TOTAL RUN TIME: 0 days 0 hours 5 minutes 49 seconds 632 msec
