 *******************************************************************************
 **                                                                           **
 **                              MOPAC v22.0.6                                **
 **                                                                           **
 *******************************************************************************
 **          Digital Object Identifier (DOI): 10.5281/zenodo.6511958          **
 **    Visit the DOI location for information on how to cite this program.    **
 *******************************************************************************

                              PM7 CALCULATION RESULTS

 *******************************************************************************
 *  CALCULATION DONE:                                Tue Mar 26 11:52:48 2024  *
 *  PM7        - The PM7 Hamiltonian to be used
 *  SINGLET    - SPIN STATE DEFINED AS A SINGLET
 *
 *
 *
 *                 CHARGE ON SYSTEM = 0
 *
 *
 *
 *  EPS=78.4   - USE ANDREAS KLAMT'S COSMO IMPLICIT SOLVATION MODEL
 *  T=         - A TIME OF 14.0 DAYS REQUESTED
 *  DUMP=N     - RESTART FILE WRITTEN EVERY 30.0 MINUTES REQUESTED
 *  RELSCF     - DEFAULT SCF CRITERION MULTIPLIED BY 1.0000
 *              (DEFAULT SCF CRITERION = 0.00010)
 *  ITRY=      - DO A MAXIMUM OF 15000 ITERATIONS FOR SCF
 *  AUX        - OUTPUT AUXILIARY INFORMATION
 *  BONDS      - FINAL BOND-ORDER MATRIX TO BE PRINTED
 *******************************************************************************
PM7 BONDS AUX DUMP=30M ITRY=15000 T=14D CHARGE=0 SINGLET eps=78.4 RELSCF=1
 Title: ASE calculation

   ATOM   CHEMICAL          X               Y               Z
  NUMBER   SYMBOL      (ANGSTROMS)     (ANGSTROMS)     (ANGSTROMS)

     1       C          0.58278000  *  -0.24516000  *  -0.02623000  *
     2       H          0.62694000  *  -0.36391000  *  -1.11861000  *
     3       N          0.34789000  *  -2.65843000  *   0.26864000  *
     4       O          0.52101000  *  -3.07231000  *  -0.86960000  *
     5       O         -0.44516000  *  -3.18836000  *   1.02943000  *
     6       H          1.69366000  *  -0.48363000  *   2.56643000  *
     7       C          1.13503000  *  -1.45939000  *   0.71361000  *
     8       H          2.20712000  *  -1.64611000  *   0.40439000  *
     9       H         -0.45900000  *  -0.02237000  *   0.24295000  *
    10       C          1.04296000  *  -1.30405000  *   2.22409000  *
    11       H          0.02383000  *  -1.07083000  *   2.56317000  *
    12       C          6.69846000  *  -1.25761000  *  -0.83461000  *
    13       C          7.93194000  *  -1.46833000  *  -1.45975000  *
    14       C          8.51864000  *  -2.72945000  *  -1.37087000  *
    15       C          7.85923000  *  -3.73877000  *  -0.67165000  *
    16       C          6.62838000  *  -3.44773000  *  -0.07284000  *
    17       N          6.06017000  *  -2.22758000  *  -0.14910000  *
    18       H          8.41917000  *  -0.65996000  *  -2.00297000  *
    19       H          9.48404000  *  -2.92462000  *  -1.84452000  *
    20       H          8.28947000  *  -4.73621000  *  -0.58920000  *
    21       H          1.17111000  *   0.65340000  *   0.21768000  *
    22       H          1.36213000  *  -2.21070000  *   2.75858000  *
    23       H          6.06879000  *  -4.20788000  *   0.48949000  *
    24       H          6.19296000  *  -0.28332000  *  -0.87574000  *
    25       H          3.71844000  *  -1.84858000  *   2.25942000  *
    26       H          4.69651000  *  -1.48533000  *   1.14327000  *
    27       O          4.12811000  *  -1.09406000  *   1.82657000  *



          CARTESIAN COORDINATES 

    NO.       ATOM           X           Y           Z

     1         C          0.5828     -0.2452     -0.0262
     2         H          0.6269     -0.3639     -1.1186
     3         N          0.3479     -2.6584      0.2686
     4         O          0.5210     -3.0723     -0.8696
     5         O         -0.4452     -3.1884      1.0294
     6         H          1.6937     -0.4836      2.5664
     7         C          1.1350     -1.4594      0.7136
     8         H          2.2071     -1.6461      0.4044
     9         H         -0.4590     -0.0224      0.2430
    10         C          1.0430     -1.3041      2.2241
    11         H          0.0238     -1.0708      2.5632
    12         C          6.6985     -1.2576     -0.8346
    13         C          7.9319     -1.4683     -1.4598
    14         C          8.5186     -2.7294     -1.3709
    15         C          7.8592     -3.7388     -0.6717
    16         C          6.6284     -3.4477     -0.0728
    17         N          6.0602     -2.2276     -0.1491
    18         H          8.4192     -0.6600     -2.0030
    19         H          9.4840     -2.9246     -1.8445
    20         H          8.2895     -4.7362     -0.5892
    21         H          1.1711      0.6534      0.2177
    22         H          1.3621     -2.2107      2.7586
    23         H          6.0688     -4.2079      0.4895
    24         H          6.1930     -0.2833     -0.8757
    25         H          3.7184     -1.8486      2.2594
    26         H          4.6965     -1.4853      1.1433
    27         O          4.1281     -1.0941      1.8266

 General Reference for PM7:
 "Optimization of Parameters for Semiempirical Methods VI: More Modifications to the 
 NDDO Approximations and Re-optimization of Parameters", J. J. P. Stewart, J. Mol. Mod., 1:32, 19 (2013)
 https://link.springer.com/article/10.1007/s00894-012-1667-x

           Empirical Formula: C8 H14 N2 O3  =    27 atoms



      MOLECULAR POINT GROUP   :   C1  


 SINGLET STATE CALCULATION


      RHF CALCULATION, NO. OF DOUBLY OCCUPIED LEVELS = 37


          Geometry optimization using EF
  SCF CRITERION =    0.1000E-03

     GRADIENT =  0.94979 IS LESS THAN CUTOFF =  1.00000



 -------------------------------------------------------------------------------
 PM7 BONDS AUX DUMP=30M ITRY=15000 T=14D CHARGE=0 SINGLET eps=78.4 RELSCF=1
 Title: ASE calculation



     GRADIENTS WERE INITIALLY ACCEPTABLY SMALL                
     SCF FIELD WAS ACHIEVED                                   


                              PM7 CALCULATION
                                                       MOPAC v22.0.6 Linux
                                                       Tue Mar 26 11:52:49 2024




          FINAL HEAT OF FORMATION =        -79.27981 KCAL/MOL =    -331.70673 KJ/MOL
          VAN DER WAALS AREA      =        249.91 SQUARE ANGSTROMS



          DIELECTRIC ENERGY       =         -0.73168 EV
          COSMO AREA              =        249.91 SQUARE ANGSTROMS
          COSMO VOLUME            =        249.08 CUBIC ANGSTROMS

          GRADIENT NORM           =          0.94979          =       0.18279 PER ATOM
          IONIZATION POTENTIAL    =         10.331472 EV
          HOMO LUMO ENERGIES (EV) =        -10.331 -0.427
          NO. OF FILLED LEVELS    =         37
          MOLECULAR WEIGHT        =        186.2102         POINT GROUP:  C1  

          MOLECULAR DIMENSIONS (Angstroms)

            Atom       Atom       Distance
            H    19    H    11    10.59999
            H     2    H    20     4.85811
            O     4    O    27     4.33043


          SCF CALCULATIONS        =          2

          WALL-CLOCK TIME         =      0.719 SECONDS
          COMPUTATION TIME        =      8.017 SECONDS




   ATOM   CHEMICAL          X               Y               Z
  NUMBER   SYMBOL      (ANGSTROMS)     (ANGSTROMS)     (ANGSTROMS)

     1       C          0.58278000  *  -0.24516000  *  -0.02623000  *
     2       H          0.62694000  *  -0.36391000  *  -1.11861000  *
     3       N          0.34789000  *  -2.65843000  *   0.26864000  *
     4       O          0.52101000  *  -3.07231000  *  -0.86960000  *
     5       O         -0.44516000  *  -3.18836000  *   1.02943000  *
     6       H          1.69366000  *  -0.48363000  *   2.56643000  *
     7       C          1.13503000  *  -1.45939000  *   0.71361000  *
     8       H          2.20712000  *  -1.64611000  *   0.40439000  *
     9       H         -0.45900000  *  -0.02237000  *   0.24295000  *
    10       C          1.04296000  *  -1.30405000  *   2.22409000  *
    11       H          0.02383000  *  -1.07083000  *   2.56317000  *
    12       C          6.69846000  *  -1.25761000  *  -0.83461000  *
    13       C          7.93194000  *  -1.46833000  *  -1.45975000  *
    14       C          8.51864000  *  -2.72945000  *  -1.37087000  *
    15       C          7.85923000  *  -3.73877000  *  -0.67165000  *
    16       C          6.62838000  *  -3.44773000  *  -0.07284000  *
    17       N          6.06017000  *  -2.22758000  *  -0.14910000  *
    18       H          8.41917000  *  -0.65996000  *  -2.00297000  *
    19       H          9.48404000  *  -2.92462000  *  -1.84452000  *
    20       H          8.28947000  *  -4.73621000  *  -0.58920000  *
    21       H          1.17111000  *   0.65340000  *   0.21768000  *
    22       H          1.36213000  *  -2.21070000  *   2.75858000  *
    23       H          6.06879000  *  -4.20788000  *   0.48949000  *
    24       H          6.19296000  *  -0.28332000  *  -0.87574000  *
    25       H          3.71844000  *  -1.84858000  *   2.25942000  *
    26       H          4.69651000  *  -1.48533000  *   1.14327000  *
    27       O          4.12811000  *  -1.09406000  *   1.82657000  *

                             CARTESIAN COORDINATES

   1    C        0.582780000    -0.245160000    -0.026230000
   2    H        0.626940000    -0.363910000    -1.118610000
   3    N        0.347890000    -2.658430000     0.268640000
   4    O        0.521010000    -3.072310000    -0.869600000
   5    O       -0.445160000    -3.188360000     1.029430000
   6    H        1.693660000    -0.483630000     2.566430000
   7    C        1.135030000    -1.459390000     0.713610000
   8    H        2.207120000    -1.646110000     0.404390000
   9    H       -0.459000000    -0.022370000     0.242950000
  10    C        1.042960000    -1.304050000     2.224090000
  11    H        0.023830000    -1.070830000     2.563170000
  12    C        6.698460000    -1.257610000    -0.834610000
  13    C        7.931940000    -1.468330000    -1.459750000
  14    C        8.518640000    -2.729450000    -1.370870000
  15    C        7.859230000    -3.738770000    -0.671650000
  16    C        6.628380000    -3.447730000    -0.072840000
  17    N        6.060170000    -2.227580000    -0.149100000
  18    H        8.419170000    -0.659960000    -2.002970000
  19    H        9.484040000    -2.924620000    -1.844520000
  20    H        8.289470000    -4.736210000    -0.589200000
  21    H        1.171110000     0.653400000     0.217680000
  22    H        1.362130000    -2.210700000     2.758580000
  23    H        6.068790000    -4.207880000     0.489490000
  24    H        6.192960000    -0.283320000    -0.875740000
  25    H        3.718440000    -1.848580000     2.259420000
  26    H        4.696510000    -1.485330000     1.143270000
  27    O        4.128110000    -1.094060000     1.826570000


           Empirical Formula: C8 H14 N2 O3  =    27 atoms



      MOLECULAR POINT GROUP   :   C1  


                  EIGENVALUES  
 -37.30766 -36.19707 -30.77188 -29.51860 -29.00062 -28.56337 -26.51540 -25.13923
 -24.47454 -22.33924 -22.11198 -20.90485 -18.62029 -18.32107 -18.03988 -17.49054
 -17.43006 -16.60389 -16.07486 -15.66523 -14.72050 -14.68841 -14.51621 -14.35989
 -13.99633 -13.84456 -13.66293 -12.83938 -12.68972 -12.60657 -12.20961 -11.94324
 -11.83840 -11.42341 -11.07965 -10.79411 -10.33147  -0.42689  -0.32927  -0.32443
   0.47572   2.11597   3.11622   3.23957   3.39202   3.86935   4.05126   4.10400
   4.39801   4.43247   4.55610   4.93244   5.00496   5.11671   5.34275   5.40987
   5.45085   5.49542   5.50042   5.71536   5.74560   5.90749   6.07846   6.51094
   6.63402   6.78329


              NET ATOMIC CHARGES AND DIPOLE CONTRIBUTIONS

  ATOM NO.   TYPE          CHARGE      No. of ELECS.   s-Pop       p-Pop       
    1          C          -0.476943        4.4769     1.05917     3.41777
    2          H           0.175263        0.8247     0.82474
    3          N           0.621230        4.3788     1.48452     2.89425
    4          O          -0.472949        6.4729     1.93989     4.53306
    5          O          -0.455657        6.4557     1.93905     4.51660
    6          H           0.180511        0.8195     0.81949
    7          C           0.002973        3.9970     1.09454     2.90248
    8          H           0.198804        0.8012     0.80120
    9          H           0.173007        0.8270     0.82699
   10          C          -0.474568        4.4746     1.05768     3.41689
   11          H           0.173121        0.8269     0.82688
   12          C           0.047916        3.9521     1.10056     2.85152
   13          C          -0.240973        4.2410     1.09151     3.14947
   14          C          -0.067820        4.0678     1.09467     2.97315
   15          C          -0.241155        4.2412     1.09198     3.14917
   16          C           0.053628        3.9464     1.10098     2.84540
   17          N          -0.447572        5.4476     1.73590     3.71167
   18          H           0.182424        0.8176     0.81758
   19          H           0.174753        0.8252     0.82525
   20          H           0.182766        0.8172     0.81723
   21          H           0.183124        0.8169     0.81688
   22          H           0.172976        0.8270     0.82702
   23          H           0.187234        0.8128     0.81277
   24          H           0.183756        0.8162     0.81624
   25          H           0.368416        0.6316     0.63158
   26          H           0.378904        0.6211     0.62110
   27          O          -0.763171        6.7632     1.81544     4.94773
 DIPOLE           X         Y         Z       TOTAL
 POINT-CHG.     5.732     2.411     0.265     6.224
 HYBRID         0.275    -0.831    -0.495     1.005
 SUM            6.007     1.580    -0.230     6.216


          ATOMIC ORBITAL ELECTRON POPULATIONS

     Atom    s        px        py        pz   
    1  C   1.05917   1.18591   1.07466   1.15720
    2  H   0.82474
    3  N   1.48452   0.95065   0.99131   0.95228
    4  O   1.93989   1.72186   1.70949   1.10170
    5  O   1.93905   1.36110   1.64011   1.51540
    6  H   0.81949
    7  C   1.09454   1.04445   0.85673   1.00130
    8  H   0.80120
    9  H   0.82699
   10  C   1.05768   1.20937   1.20499   1.00253
   11  H   0.82688
   12  C   1.10056   0.95178   1.00148   0.89826
   13  C   1.09151   1.02923   1.06120   1.05904
   14  C   1.09467   1.05109   0.97432   0.94773
   15  C   1.09198   1.02467   1.09307   1.03144
   16  C   1.10098   0.96006   0.93555   0.94978
   17  N   1.73590   1.38361   1.09733   1.23074
   18  H   0.81758
   19  H   0.82525
   20  H   0.81723
   21  H   0.81688
   22  H   0.82702
   23  H   0.81277
   24  H   0.81624
   25  H   0.63158
   26  H   0.62110
   27  O   1.81544   1.75175   1.52721   1.66878

          BONDING CONTRIBUTION OF EACH M.O.

  1.3102  1.3589  0.9759  1.6215  1.3346  1.7232  1.8919  0.9145  2.0170  1.8191
  1.9580  1.4380  1.3682  1.7928  1.3968  1.6831  1.6515  2.0448  1.9003  1.7964
  1.8555  2.0054  1.6847  1.1667  1.6540  1.5401  1.8444  1.9528  2.0263  1.6710
  0.2429  0.8824  0.3101  0.7812  1.9391  1.2486  2.0453 -2.3721 -1.9672 -1.9726
 -2.0488 -1.9876 -1.9702 -1.9411 -1.9618 -1.9796 -1.9433 -1.9847 -1.9302 -2.0150
 -1.8795 -1.8861 -1.9844 -1.9024 -1.9489 -1.9537 -1.9585 -1.9646 -1.9652 -1.9600
 -1.9546 -1.9455 -1.9594 -1.8934 -1.8754 -1.7419





            (VALENCIES)   BOND ORDERS

     1  C     (3.900)     7  C 0.992     9  H 0.961     2  H 0.960    21  H 0.951     5  O 0.010

     2  H     (0.969)     1  C 0.960

     3  N     (3.731)     5  O 1.449     4  O 1.432     7  C 0.819

     4  O     (1.816)     3  N 1.432     5  O 0.297     7  C 0.064

     5  O     (1.836)     3  N 1.449     4  O 0.297     7  C 0.067     1  C 0.010

     6  H     (0.967)    10  C 0.952

     7  C     (3.896)    10  C 1.007     1  C 0.992     8  H 0.936     3  N 0.819     5  O 0.067     4  O 0.064

     8  H     (0.960)     7  C 0.936

     9  H     (0.970)     1  C 0.961

    10  C     (3.904)     7  C 1.007    11  H 0.961    22  H 0.959     6  H 0.952

    11  H     (0.970)    10  C 0.961

    12  C     (3.933)    13  C 1.425    17  N 1.405    24  H 0.946    15  C 0.121    16  C 0.012    23  H 0.012

    13  C     (3.965)    14  C 1.442    12  C 1.425    18  H 0.954    16  C 0.120    17  N 0.014

    14  C     (3.959)    15  C 1.444    13  C 1.442    19  H 0.957    17  N 0.096

    15  C     (3.965)    14  C 1.444    16  C 1.423    20  H 0.954    12  C 0.121    17  N 0.014

    16  C     (3.930)    15  C 1.423    17  N 1.405    23  H 0.945    13  C 0.120    12  C 0.012    24  H 0.012

    17  N     (2.976)    16  C 1.405    12  C 1.405    14  C 0.096    26  H 0.021    13  C 0.014    15  C 0.014

    18  H     (0.967)    13  C 0.954

    19  H     (0.969)    14  C 0.957

    20  H     (0.967)    15  C 0.954

    21  H     (0.966)     1  C 0.951

    22  H     (0.970)    10  C 0.959

    23  H     (0.965)    16  C 0.945    12  C 0.012

    24  H     (0.966)    12  C 0.946    16  C 0.012

    25  H     (0.864)    27  O 0.860

    26  H     (0.856)    27  O 0.833    17  N 0.021

    27  O     (1.708)    25  H 0.860    26  H 0.833


 **********************
 *                    *
 * JOB ENDED NORMALLY *
 *                    *
 **********************



 TOTAL JOB TIME:             0.73 SECONDS

 == MOPAC DONE ==
