 *******************************************************************************
 **                                                                           **
 **                              MOPAC v22.0.6                                **
 **                                                                           **
 *******************************************************************************
 **          Digital Object Identifier (DOI): 10.5281/zenodo.6511958          **
 **    Visit the DOI location for information on how to cite this program.    **
 *******************************************************************************

                              PM7 CALCULATION RESULTS

 *******************************************************************************
 *  CALCULATION DONE:                                Sun Mar 24 02:25:04 2024  *
 *  PM7        - The PM7 Hamiltonian to be used
 *  SINGLET    - SPIN STATE DEFINED AS A SINGLET
 *
 *
 *
 *                 CHARGE ON SYSTEM = 0
 *
 *
 *
 *  EPS=78.4   - USE ANDREAS KLAMT'S COSMO IMPLICIT SOLVATION MODEL
 *  THREADS    - USE A MAXIMUM OF 30 THREADS
 *  T=         - A TIME OF 14.0 DAYS REQUESTED
 *  DUMP=N     - RESTART FILE WRITTEN EVERY 30.0 MINUTES REQUESTED
 *  RELSCF     - DEFAULT SCF CRITERION MULTIPLIED BY 1.0000
 *              (DEFAULT SCF CRITERION = 0.00010)
 *  ITRY=      - DO A MAXIMUM OF 15000 ITERATIONS FOR SCF
 *  AUX        - OUTPUT AUXILIARY INFORMATION
 *  BONDS      - FINAL BOND-ORDER MATRIX TO BE PRINTED
 *******************************************************************************
PM7 BONDS AUX DUMP=30M ITRY=15000 T=14D THREADS=30 CHARGE=0 SINGLET eps=78.4 RELSCF=1
 Title: ASE calculation

   ATOM   CHEMICAL          X               Y               Z
  NUMBER   SYMBOL      (ANGSTROMS)     (ANGSTROMS)     (ANGSTROMS)

     1       C          0.21283952  *  -0.73584885  *  -0.63482996  *
     2       H         -0.24225154  *  -1.23450725  *  -1.50144650  *
     3       N          0.27804702  *  -2.89513900  *   0.46583064  *
     4       O          0.01033185  *  -3.49914648  *  -0.60383617  *
     5       O          0.35879759  *  -3.59120858  *   1.51644571  *
     6       H          0.90785828  *   1.12145951  *   0.15829689  *
     7       C          0.47304250     -1.57513559      0.51006649   
     8       H          3.34197021     -1.40071007  *  -0.25104253  *
     9       H          0.74560980  *  -1.11515340  *   1.45731203  *
    10       C          0.45531690  *   0.57802692  *  -0.65189289  *
    11       H          0.21297812  *   1.21170967  *  -1.49034178  *
    12       C          6.89903226  *   0.91779599  *   0.21575309  *
    13       C          7.94891342  *   1.70255660  *  -0.25837238  *
    14       C          7.64030623  *   2.91229071  *  -0.90217420  *
    15       C          6.29663719  *   3.28975412  *  -0.97964319  *
    16       C          5.30772621  *   2.43726199  *  -0.50055497  *
    17       N          5.59535051  *   1.23867243  *   0.06047973  *
    18       H          7.09573353  *  -0.02531583  *   0.75774076  *
    19       H          6.02253051  *   4.24539134  *  -1.44321044  *
    20       H          4.24338331  *   2.71373692  *  -0.54814819  *
    21       C          9.35047511  *   1.23025176  *  -0.12287957  *
    22       H          9.99227399  *   1.96160988  *   0.39476425  *
    23       H          9.80806801  *   1.06067289  *  -1.11489839  *
    24       H          9.43222794  *   0.28230019  *   0.42766241  *
    25       C          8.70636976  *   3.75522102  *  -1.50336186  *
    26       H          8.32815160  *   4.67540400  *  -1.97063212  *
    27       H          9.25546804  *   3.20383428  *  -2.28905499  *
    28       H          9.46338445  *   4.05828110  *  -0.75962555  *
    29       H          4.68362563  *  -0.38886023  *  -0.08888413  *
    30       O          4.49053977     -1.41119872     -0.29211854   
    31       H          4.58534459  *  -1.42176908  *  -1.30895556  *



          CARTESIAN COORDINATES 

    NO.       ATOM           X           Y           Z

     1         C          0.2128     -0.7358     -0.6348
     2         H         -0.2423     -1.2345     -1.5014
     3         N          0.2780     -2.8951      0.4658
     4         O          0.0103     -3.4991     -0.6038
     5         O          0.3588     -3.5912      1.5164
     6         H          0.9079      1.1215      0.1583
     7         C          0.4730     -1.5751      0.5101
     8         H          3.3420     -1.4007     -0.2510
     9         H          0.7456     -1.1152      1.4573
    10         C          0.4553      0.5780     -0.6519
    11         H          0.2130      1.2117     -1.4903
    12         C          6.8990      0.9178      0.2158
    13         C          7.9489      1.7026     -0.2584
    14         C          7.6403      2.9123     -0.9022
    15         C          6.2966      3.2898     -0.9796
    16         C          5.3077      2.4373     -0.5006
    17         N          5.5954      1.2387      0.0605
    18         H          7.0957     -0.0253      0.7577
    19         H          6.0225      4.2454     -1.4432
    20         H          4.2434      2.7137     -0.5481
    21         C          9.3505      1.2303     -0.1229
    22         H          9.9923      1.9616      0.3948
    23         H          9.8081      1.0607     -1.1149
    24         H          9.4322      0.2823      0.4277
    25         C          8.7064      3.7552     -1.5034
    26         H          8.3282      4.6754     -1.9706
    27         H          9.2555      3.2038     -2.2891
    28         H          9.4634      4.0583     -0.7596
    29         H          4.6836     -0.3889     -0.0889
    30         O          4.4905     -1.4112     -0.2921
    31         H          4.5853     -1.4218     -1.3090

 General Reference for PM7:
 "Optimization of Parameters for Semiempirical Methods VI: More Modifications to the 
 NDDO Approximations and Re-optimization of Parameters", J. J. P. Stewart, J. Mol. Mod., 1:32, 19 (2013)
 https://link.springer.com/article/10.1007/s00894-012-1667-x

           Empirical Formula: C10 H16 N2 O3  =    31 atoms



      MOLECULAR POINT GROUP   :   C1  


 SINGLET STATE CALCULATION


      RHF CALCULATION, NO. OF DOUBLY OCCUPIED LEVELS = 42


          Geometry optimization using EF
  SCF CRITERION =    0.1000E-03

          DIAGONAL MATRIX USED AS START HESSIAN

 CYCLE:     1 TIME:   0.132 TIME LEFT:  2.00W  GRAD.:    23.414 HEAT: -44.71489
 CYCLE:     2 TIME:   0.135 TIME LEFT:  2.00W  GRAD.:    20.427 HEAT: -44.83273
 CYCLE:     3 TIME:   0.045 TIME LEFT:  2.00W  GRAD.:    19.359 HEAT: -44.90137
 CYCLE:     4 TIME:   0.044 TIME LEFT:  2.00W  GRAD.:    23.622 HEAT: -44.97692
 CYCLE:     5 TIME:   0.043 TIME LEFT:  2.00W  GRAD.:    30.428 HEAT: -45.42521
 CYCLE:     6 TIME:   0.088 TIME LEFT:  2.00W  GRAD.:    18.261 HEAT: -45.55228
 CYCLE:     7 TIME:   0.085 TIME LEFT:  2.00W  GRAD.:     9.472 HEAT: -45.58597
 CYCLE:     8 TIME:   0.043 TIME LEFT:  2.00W  GRAD.:     8.501 HEAT: -45.60752
 CYCLE:     9 TIME:   0.044 TIME LEFT:  2.00W  GRAD.:     6.363 HEAT: -45.67626
 CYCLE:    10 TIME:   0.043 TIME LEFT:  2.00W  GRAD.:     6.553 HEAT: -45.75952
 CYCLE:    11 TIME:   0.044 TIME LEFT:  2.00W  GRAD.:     7.125 HEAT: -45.81112
 CYCLE:    12 TIME:   0.044 TIME LEFT:  2.00W  GRAD.:     6.712 HEAT: -45.90479
 CYCLE:    13 TIME:   0.043 TIME LEFT:  2.00W  GRAD.:     7.889 HEAT: -46.06958
 CYCLE:    14 TIME:   0.046 TIME LEFT:  2.00W  GRAD.:     6.523 HEAT: -46.39389
 CYCLE:    15 TIME:   0.046 TIME LEFT:  2.00W  GRAD.:    10.511 HEAT: -46.47221
 CYCLE:    16 TIME:   0.046 TIME LEFT:  2.00W  GRAD.:    14.076 HEAT: -47.04236
 CYCLE:    17 TIME:   0.050 TIME LEFT:  2.00W  GRAD.:    15.964 HEAT: -49.14114
 CYCLE:    18 TIME:   0.049 TIME LEFT:  2.00W  GRAD.:    37.536 HEAT: -49.44132
 CYCLE:    19 TIME:   0.048 TIME LEFT:  2.00W  GRAD.:    45.997 HEAT: -50.41757
 CYCLE:    20 TIME:   0.049 TIME LEFT:  2.00W  GRAD.:    49.748 HEAT: -51.53994
 CYCLE:    21 TIME:   0.095 TIME LEFT:  2.00W  GRAD.:    92.186 HEAT: -52.59632
 CYCLE:    22 TIME:   0.049 TIME LEFT:  2.00W  GRAD.:    64.467 HEAT: -55.63283
 CYCLE:    23 TIME:   0.047 TIME LEFT:  2.00W  GRAD.:    63.769 HEAT: -57.02604
 CYCLE:    24 TIME:   0.137 TIME LEFT:  2.00W  GRAD.:    33.006 HEAT: -58.31462
 CYCLE:    25 TIME:   0.045 TIME LEFT:  2.00W  GRAD.:    41.438 HEAT: -58.50947
 CYCLE:    26 TIME:   0.047 TIME LEFT:  2.00W  GRAD.:    35.352 HEAT: -59.08087
 CYCLE:    27 TIME:   0.046 TIME LEFT:  2.00W  GRAD.:    28.608 HEAT: -59.41054
 CYCLE:    28 TIME:   0.046 TIME LEFT:  2.00W  GRAD.:    20.793 HEAT: -59.70226
 CYCLE:    29 TIME:   0.091 TIME LEFT:  2.00W  GRAD.:    26.760 HEAT: -59.84371
 CYCLE:    30 TIME:   0.047 TIME LEFT:  2.00W  GRAD.:    21.242 HEAT: -60.14655
 CYCLE:    31 TIME:   0.091 TIME LEFT:  2.00W  GRAD.:    15.346 HEAT: -60.29851
 CYCLE:    32 TIME:   0.046 TIME LEFT:  2.00W  GRAD.:    12.470 HEAT: -60.42451
 CYCLE:    33 TIME:   0.129 TIME LEFT:  2.00W  GRAD.:     7.292 HEAT: -60.48254
 CYCLE:    34 TIME:   0.086 TIME LEFT:  2.00W  GRAD.:     4.573 HEAT: -61.05668
 CYCLE:    35 TIME:   0.043 TIME LEFT:  2.00W  GRAD.:     3.636 HEAT: -61.09942
 CYCLE:    36 TIME:   0.044 TIME LEFT:  2.00W  GRAD.:     3.467 HEAT: -61.13721
 CYCLE:    37 TIME:   0.047 TIME LEFT:  2.00W  GRAD.:     3.201 HEAT: -61.22708
 CYCLE:    38 TIME:   0.046 TIME LEFT:  2.00W  GRAD.:     2.935 HEAT: -61.29321
 CYCLE:    39 TIME:   0.047 TIME LEFT:  2.00W  GRAD.:     2.739 HEAT: -61.38041
 CYCLE:    40 TIME:   0.090 TIME LEFT:  2.00W  GRAD.:     2.451 HEAT: -61.55892
 CYCLE:    41 TIME:   0.046 TIME LEFT:  2.00W  GRAD.:     2.196 HEAT: -61.56908
 CYCLE:    42 TIME:   0.046 TIME LEFT:  2.00W  GRAD.:     1.938 HEAT: -61.60187
 CYCLE:    43 TIME:   0.046 TIME LEFT:  2.00W  GRAD.:     2.057 HEAT: -61.63680
 CYCLE:    44 TIME:   0.336 TIME LEFT:  2.00W  GRAD.:     1.932 HEAT: -61.63740

     TRUST RADIUS NOW LESS THAN  0.00010 OPTIMIZATION TERMINATING
      THE GEOMETRY MAY NOT BE COMPLETELY OPTIMIZED
      (TO CONTINUE, ADD 'LET DDMIN=0.0' TO THE KEYWORD LINE)

 -------------------------------------------------------------------------------
 PM7 BONDS AUX DUMP=30M ITRY=15000 T=14D THREADS=30 CHARGE=0 SINGLET eps=78.4 RELSCF=1
 Title: ASE calculation



     GEOMETRY OPTIMISED USING EIGENVECTOR FOLLOWING (EF).     
     SCF FIELD WAS ACHIEVED                                   


                              PM7 CALCULATION
                                                       MOPAC v22.0.6 Linux
                                                       Sun Mar 24 02:25:07 2024




          FINAL HEAT OF FORMATION =        -61.63740 KCAL/MOL =    -257.89088 KJ/MOL
          VAN DER WAALS AREA      =        286.74 SQUARE ANGSTROMS



          DIELECTRIC ENERGY       =         -3.04332 EV
          COSMO AREA              =        286.74 SQUARE ANGSTROMS
          COSMO VOLUME            =        289.11 CUBIC ANGSTROMS

          GRADIENT NORM           =          1.93230          =       0.34705 PER ATOM
          IONIZATION POTENTIAL    =          8.531663 EV
          HOMO LUMO ENERGIES (EV) =         -8.532 -1.177
          NO. OF FILLED LEVELS    =         42
          MOLECULAR WEIGHT        =        212.2480         POINT GROUP:  C1  

          MOLECULAR DIMENSIONS (Angstroms)

            Atom       Atom       Distance
            H    28    O     4    12.00810
            H    11    H    24     6.73035
            H    27    H     9     3.99359


          SCF CALCULATIONS        =         76

          WALL-CLOCK TIME         =      3.434 SECONDS
          COMPUTATION TIME        =          4 MINUTES AND 48.653 SECONDS




   ATOM   CHEMICAL          X               Y               Z
  NUMBER   SYMBOL      (ANGSTROMS)     (ANGSTROMS)     (ANGSTROMS)

     1       C          0.26669179  *  -0.73938421  *  -0.64664643  *
     2       H         -0.11031230  *  -1.23871925  *  -1.54638365  *
     3       N          0.32763406  *  -2.89731962  *   0.46486879  *
     4       O         -0.04223510  *  -3.50280047  *  -0.57550231  *
     5       O          0.55092286  *  -3.60425906  *   1.48886124  *
     6       H          0.90219289  *   1.11188545  *   0.20854133  *
     7       C          0.47304250     -1.57513559      0.51006649   
     8       H          3.34197021     -1.43028709  *  -0.28539806  *
     9       H          0.81681618  *  -1.12149882  *   1.43521485  *
    10       C          0.52105210  *   0.57505978  *  -0.64270446  *
    11       H          0.37703925  *   1.21042251  *  -1.49874495  *
    12       C          6.94758793  *   0.62209669  *  -0.09872840  *
    13       C          7.94840120  *   1.54968584  *  -0.37839355  *
    14       C          7.58465760  *   2.79832978  *  -0.92306833  *
    15       C          6.22669616  *   3.08823966  *  -1.08715601  *
    16       C          5.26302060  *   2.13090490  *  -0.78631825  *
    17       N          5.63651906  *   0.91143206  *  -0.32176420  *
    18       H          7.17427842  *  -0.38188937  *   0.30327101  *
    19       H          5.90915060  *   4.06610788  *  -1.46558767  *
    20       H          4.18432627  *   2.32139214  *  -0.92338939  *
    21       C          9.36200033  *   1.19161480  *  -0.11351456  *
    22       H          9.89026617  *   1.98106620  *   0.44981054  *
    23       H          9.92755203  *   1.04692578  *  -1.05085717  *
    24       H          9.47381570  *   0.26320352  *   0.46863084  *
    25       C          8.61788381  *   3.76951840  *  -1.34355295  *
    26       H          8.20465573  *   4.71475149  *  -1.72739441  *
    27       H          9.25185292  *   3.35094705  *  -2.14908077  *
    28       H          9.30807414  *   4.03133604  *  -0.52204946  *
    29       H          4.91702526  *   0.13114679  *  -0.17485525  *
    30       O          4.49053977     -1.41119872     -0.29211854   
    31       H          4.63831804  *  -1.74208778  *  -1.19402946  *

                             CARTESIAN COORDINATES

   1    C        0.266691795    -0.739384215    -0.646646429
   2    H       -0.110312299    -1.238719248    -1.546383645
   3    N        0.327634061    -2.897319617     0.464868787
   4    O       -0.042235105    -3.502800467    -0.575502311
   5    O        0.550922857    -3.604259064     1.488861244
   6    H        0.902192892     1.111885449     0.208541328
   7    C        0.473042500    -1.575135590     0.510066490
   8    H        3.341970210    -1.430287085    -0.285398059
   9    H        0.816816180    -1.121498822     1.435214854
  10    C        0.521052102     0.575059777    -0.642704459
  11    H        0.377039250     1.210422509    -1.498744953
  12    C        6.947587933     0.622096691    -0.098728397
  13    C        7.948401203     1.549685845    -0.378393550
  14    C        7.584657602     2.798329775    -0.923068328
  15    C        6.226696157     3.088239663    -1.087156014
  16    C        5.263020599     2.130904897    -0.786318252
  17    N        5.636519060     0.911432060    -0.321764199
  18    H        7.174278421    -0.381889370     0.303271011
  19    H        5.909150600     4.066107884    -1.465587667
  20    H        4.184326271     2.321392137    -0.923389392
  21    C        9.362000331     1.191614802    -0.113514565
  22    H        9.890266172     1.981066202     0.449810540
  23    H        9.927552030     1.046925780    -1.050857169
  24    H        9.473815697     0.263203524     0.468630837
  25    C        8.617883812     3.769518399    -1.343552954
  26    H        8.204655730     4.714751486    -1.727394406
  27    H        9.251852916     3.350947052    -2.149080773
  28    H        9.308074137     4.031336041    -0.522049462
  29    H        4.917025265     0.131146789    -0.174855247
  30    O        4.490539770    -1.411198720    -0.292118540
  31    H        4.638318041    -1.742087777    -1.194029461


           Empirical Formula: C10 H16 N2 O3  =    31 atoms



      MOLECULAR POINT GROUP   :   C1  


                  EIGENVALUES  
 -38.48748 -35.91127 -30.50502 -28.42942 -28.23990 -28.00950 -27.64272 -26.11823
 -25.57374 -25.15384 -22.25899 -21.47068 -21.21834 -19.50765 -19.33076 -18.05965
 -17.65087 -17.03489 -16.76380 -16.45998 -16.15403 -16.14211 -15.82286 -15.17425
 -14.78686 -14.53751 -14.23466 -14.10139 -14.09299 -14.02679 -13.80196 -13.05464
 -12.82098 -12.26450 -12.01404 -11.42799 -11.12751 -11.11788 -10.92996 -10.80473
 -10.59669  -8.53166  -1.17680  -0.86300   0.43313   1.32623   1.39792   1.89571
   2.04427   2.87545   3.14266   3.23312   3.66057   3.92906   4.05800   4.20083
   4.26502   4.32181   4.69133   4.89101   5.24599   5.36679   5.38544   5.45050
   5.47840   5.52852   5.55809   5.58658   5.98607   6.15263   6.17085   6.40967
   6.47505   6.63595   6.67037   6.90274


              NET ATOMIC CHARGES AND DIPOLE CONTRIBUTIONS

  ATOM NO.   TYPE          CHARGE      No. of ELECS.   s-Pop       p-Pop       
    1          C          -0.047313        4.0473     1.07829     2.96903
    2          H           0.153185        0.8468     0.84681
    3          N           0.713311        4.2867     1.41520     2.87149
    4          O          -0.701377        6.7014     1.94468     4.75669
    5          O          -0.720112        6.7201     1.94588     4.77423
    6          H           0.147192        0.8528     0.85281
    7          C          -0.458174        4.4582     1.05735     3.40082
    8          H           0.421712        0.5783     0.57829
    9          H           0.188913        0.8111     0.81109
   10          C          -0.418833        4.4188     1.08751     3.33132
   11          H           0.144298        0.8557     0.85570
   12          C           0.014932        3.9851     1.10695     2.87812
   13          C          -0.039100        4.0391     1.07287     2.96623
   14          C           0.129727        3.8703     1.08338     2.78689
   15          C          -0.231610        4.2316     1.09206     3.13955
   16          C           0.052509        3.9475     1.10363     2.84387
   17          N          -0.190049        5.1900     1.52363     3.66642
   18          H           0.224077        0.7759     0.77592
   19          H           0.206464        0.7935     0.79354
   20          H           0.221212        0.7788     0.77879
   21          C          -0.456863        4.4569     1.04796     3.40890
   22          H           0.181766        0.8182     0.81823
   23          H           0.183498        0.8165     0.81650
   24          H           0.178200        0.8218     0.82180
   25          C          -0.481730        4.4817     1.05123     3.43050
   26          H           0.179563        0.8204     0.82044
   27          H           0.191895        0.8081     0.80811
   28          H           0.190424        0.8096     0.80958
   29          H           0.390343        0.6097     0.60966
   30          O          -0.746180        6.7462     1.86274     4.88344
   31          H           0.378119        0.6219     0.62188
 DIPOLE           X         Y         Z       TOTAL
 POINT-CHG.    27.228    21.994    -6.092    35.527
 HYBRID        -0.215    -0.733    -0.201     0.790
 SUM           27.013    21.261    -6.293    34.947


          ATOMIC ORBITAL ELECTRON POPULATIONS

     Atom    s        px        py        pz   
    1  C   1.07829   0.95521   0.98938   1.02444
    2  H   0.84681
    3  N   1.41520   0.95693   0.99510   0.91945
    4  O   1.94468   1.70313   1.75498   1.29858
    5  O   1.94588   1.76103   1.68916   1.32404
    6  H   0.85281
    7  C   1.05735   1.40284   0.87003   1.12795
    8  H   0.57829
    9  H   0.81109
   10  C   1.08751   1.12587   1.04839   1.15706
   11  H   0.85570
   12  C   1.10695   0.84323   1.07752   0.95736
   13  C   1.07287   0.99877   0.97395   0.99350
   14  C   1.08338   0.97479   0.95304   0.85906
   15  C   1.09206   0.98977   1.09891   1.05086
   16  C   1.10363   1.08792   0.85240   0.90355
   17  N   1.52363   1.16725   1.18487   1.31430
   18  H   0.77592
   19  H   0.79354
   20  H   0.77879
   21  C   1.04796   1.01546   1.19694   1.19650
   22  H   0.81823
   23  H   0.81650
   24  H   0.82180
   25  C   1.05123   1.11619   1.12387   1.19044
   26  H   0.82044
   27  H   0.80811
   28  H   0.80958
   29  H   0.60966
   30  O   1.86274   1.46711   1.88974   1.52660
   31  H   0.62188

          BONDING CONTRIBUTION OF EACH M.O.

  1.4399  1.4178  1.8893  0.9857  1.1127  1.9030  1.6052  1.9647  1.3278  1.9814
  1.9639  1.9436  1.2922  1.9170  1.5834  2.0399  1.5675  1.3925  1.5405  1.9007
  1.8497  1.3060  1.8834  2.0144  1.0320  1.7819  1.9167  1.8932  1.9057  1.9299
  1.9003  1.6080  1.9710  0.6440  1.9697  1.6263  1.9426  0.4663  0.4625  0.2480
  2.0475  1.2500 -2.0038 -1.9487 -2.2964 -1.8957 -1.9512 -2.2883 -2.1656 -1.8068
 -1.8424 -1.8981 -2.0039 -2.0114 -1.9713 -1.8915 -1.9520 -1.9560 -1.9084 -1.9378
 -1.9415 -1.9248 -1.9540 -1.9286 -1.9118 -1.9157 -1.8430 -1.9369 -1.7329 -1.9728
 -1.9618 -1.9607 -1.8867 -1.9797 -1.8811 -1.9561





            (VALENCIES)   BOND ORDERS

     1  C     (3.969)    10  C 1.908     7  C 1.081     2  H 0.961     5  O 0.013

     2  H     (0.977)     1  C 0.961

     3  N     (3.815)     7  C 1.385     4  O 1.202     5  O 1.185    10  C 0.038

     4  O     (1.531)     3  N 1.202     5  O 0.151     7  C 0.149    10  C 0.014     9  H 0.010

     5  O     (1.506)     3  N 1.185     4  O 0.151     7  C 0.141    10  C 0.014     1  C 0.013

     6  H     (0.978)    10  C 0.969

     7  C     (3.741)     3  N 1.385     1  C 1.081     9  H 0.946     4  O 0.149     5  O 0.141    10  C 0.028

     8  H     (0.822)    30  O 0.816

     9  H     (0.964)     7  C 0.946     4  O 0.010

    10  C     (3.942)     1  C 1.908    11  H 0.970     6  H 0.969     3  N 0.038     7  C 0.028     5  O 0.014
                          4  O 0.014

    11  H     (0.979)    10  C 0.970

    12  C     (3.905)    13  C 1.462    17  N 1.305    18  H 0.932    15  C 0.093    16  C 0.040    14  C 0.020
                         20  H 0.010

    13  C     (3.992)    12  C 1.462    14  C 1.358    21  C 1.020    16  C 0.098

    14  C     (3.965)    15  C 1.413    13  C 1.358    25  C 1.032    17  N 0.094    12  C 0.020    16  C 0.010

    15  C     (3.958)    16  C 1.454    14  C 1.413    19  H 0.943    12  C 0.093    17  N 0.011

    16  C     (3.900)    15  C 1.454    17  N 1.325    20  H 0.933    13  C 0.098    12  C 0.040    29  H 0.011
                         14  C 0.010

    17  N     (3.529)    16  C 1.325    12  C 1.305    29  H 0.733    14  C 0.094    30  O 0.028    15  C 0.011

    18  H     (0.950)    12  C 0.932

    19  H     (0.957)    15  C 0.943

    20  H     (0.951)    16  C 0.933    12  C 0.010

    21  C     (3.902)    13  C 1.020    24  H 0.957    22  H 0.948    23  H 0.945

    22  H     (0.967)    21  C 0.948

    23  H     (0.966)    21  C 0.945

    24  H     (0.968)    21  C 0.957

    25  C     (3.900)    14  C 1.032    26  H 0.957    28  H 0.940    27  H 0.938

    26  H     (0.968)    25  C 0.957

    27  H     (0.963)    25  C 0.938

    28  H     (0.964)    25  C 0.940

    29  H     (0.848)    17  N 0.733    30  O 0.079    16  C 0.011

    30  O     (1.784)    31  H 0.852     8  H 0.816    29  H 0.079    17  N 0.028

    31  H     (0.857)    30  O 0.852


 **********************
 *                    *
 * JOB ENDED NORMALLY *
 *                    *
 **********************



 TOTAL JOB TIME:             3.45 SECONDS

 == MOPAC DONE ==
