 *******************************************************************************
 **                                                                           **
 **                              MOPAC v22.0.6                                **
 **                                                                           **
 *******************************************************************************
 **          Digital Object Identifier (DOI): 10.5281/zenodo.6511958          **
 **    Visit the DOI location for information on how to cite this program.    **
 *******************************************************************************

                              PM7 CALCULATION RESULTS

 *******************************************************************************
 *  CALCULATION DONE:                                Sun Mar 24 02:25:07 2024  *
 *  PM7        - The PM7 Hamiltonian to be used
 *  SINGLET    - SPIN STATE DEFINED AS A SINGLET
 *
 *
 *
 *                 CHARGE ON SYSTEM = 0
 *
 *
 *
 *  EPS=78.4   - USE ANDREAS KLAMT'S COSMO IMPLICIT SOLVATION MODEL
 *  LET        - OVERRIDE SOME SAFETY CHECKS
 *  THREADS    - USE A MAXIMUM OF 30 THREADS
 *  T=         - A TIME OF 14.0 DAYS REQUESTED
 *  DUMP=N     - RESTART FILE WRITTEN EVERY 30.0 MINUTES REQUESTED
 *  RELSCF     - DEFAULT SCF CRITERION MULTIPLIED BY 1.0000
 *              (DEFAULT SCF CRITERION = 0.00010)
 *  ITRY=      - DO A MAXIMUM OF 15000 ITERATIONS FOR SCF
 *  AUX        - OUTPUT AUXILIARY INFORMATION
 *  ISOTOPE    - SAVE THE FORCE MATRIX FOR USE LATER
 *  BONDS      - FINAL BOND-ORDER MATRIX TO BE PRINTED
 *  LARGE      - EXPANDED OUTPUT TO BE PRINTED
 *  THERMO     - THERMODYNAMIC QUANTITIES TO BE CALCULATED
 *******************************************************************************
PM7 AUX LARGE THERMO(298,298) LET ISOTOPE BONDS DUMP=30M ITRY=15000 T=14D THREADS=30 CHARGE=0 SINGLET eps=78.4 RELSCF=1
 Title: ASE calculation

   ATOM   CHEMICAL          X               Y               Z
  NUMBER   SYMBOL      (ANGSTROMS)     (ANGSTROMS)     (ANGSTROMS)

     1       C          0.26669180  *  -0.73938421  *  -0.64664643  *
     2       H         -0.11031230  *  -1.23871925  *  -1.54638364  *
     3       N          0.32763406  *  -2.89731962  *   0.46486879  *
     4       O         -0.04223511  *  -3.50280047  *  -0.57550231  *
     5       O          0.55092286  *  -3.60425906  *   1.48886124  *
     6       H          0.90219289  *   1.11188545  *   0.20854133  *
     7       C          0.47304250  *  -1.57513559  *   0.51006649  *
     8       H          3.34197021  *  -1.43028709  *  -0.28539806  *
     9       H          0.81681618  *  -1.12149882  *   1.43521485  *
    10       C          0.52105210  *   0.57505978  *  -0.64270446  *
    11       H          0.37703925  *   1.21042251  *  -1.49874495  *
    12       C          6.94758793  *   0.62209669  *  -0.09872840  *
    13       C          7.94840120  *   1.54968584  *  -0.37839355  *
    14       C          7.58465760  *   2.79832978  *  -0.92306833  *
    15       C          6.22669616  *   3.08823966  *  -1.08715601  *
    16       C          5.26302060  *   2.13090490  *  -0.78631825  *
    17       N          5.63651906  *   0.91143206  *  -0.32176420  *
    18       H          7.17427842  *  -0.38188937  *   0.30327101  *
    19       H          5.90915060  *   4.06610788  *  -1.46558767  *
    20       H          4.18432627  *   2.32139214  *  -0.92338939  *
    21       C          9.36200033  *   1.19161480  *  -0.11351456  *
    22       H          9.89026617  *   1.98106620  *   0.44981054  *
    23       H          9.92755203  *   1.04692578  *  -1.05085717  *
    24       H          9.47381570  *   0.26320352  *   0.46863084  *
    25       C          8.61788381  *   3.76951840  *  -1.34355295  *
    26       H          8.20465573  *   4.71475149  *  -1.72739441  *
    27       H          9.25185292  *   3.35094705  *  -2.14908077  *
    28       H          9.30807414  *   4.03133604  *  -0.52204946  *
    29       H          4.91702527  *   0.13114679  *  -0.17485525  *
    30       O          4.49053977  *  -1.41119872  *  -0.29211854  *
    31       H          4.63831804  *  -1.74208778  *  -1.19402946  *



          CARTESIAN COORDINATES 

    NO.       ATOM           X           Y           Z

     1         C          0.2667     -0.7394     -0.6466
     2         H         -0.1103     -1.2387     -1.5464
     3         N          0.3276     -2.8973      0.4649
     4         O         -0.0422     -3.5028     -0.5755
     5         O          0.5509     -3.6043      1.4889
     6         H          0.9022      1.1119      0.2085
     7         C          0.4730     -1.5751      0.5101
     8         H          3.3420     -1.4303     -0.2854
     9         H          0.8168     -1.1215      1.4352
    10         C          0.5211      0.5751     -0.6427
    11         H          0.3770      1.2104     -1.4987
    12         C          6.9476      0.6221     -0.0987
    13         C          7.9484      1.5497     -0.3784
    14         C          7.5847      2.7983     -0.9231
    15         C          6.2267      3.0882     -1.0872
    16         C          5.2630      2.1309     -0.7863
    17         N          5.6365      0.9114     -0.3218
    18         H          7.1743     -0.3819      0.3033
    19         H          5.9092      4.0661     -1.4656
    20         H          4.1843      2.3214     -0.9234
    21         C          9.3620      1.1916     -0.1135
    22         H          9.8903      1.9811      0.4498
    23         H          9.9276      1.0469     -1.0509
    24         H          9.4738      0.2632      0.4686
    25         C          8.6179      3.7695     -1.3436
    26         H          8.2047      4.7148     -1.7274
    27         H          9.2519      3.3509     -2.1491
    28         H          9.3081      4.0313     -0.5220
    29         H          4.9170      0.1311     -0.1749
    30         O          4.4905     -1.4112     -0.2921
    31         H          4.6383     -1.7421     -1.1940

 General Reference for PM7:
 "Optimization of Parameters for Semiempirical Methods VI: More Modifications to the 
 NDDO Approximations and Re-optimization of Parameters", J. J. P. Stewart, J. Mol. Mod., 1:32, 19 (2013)
 https://link.springer.com/article/10.1007/s00894-012-1667-x

           Empirical Formula: C10 H16 N2 O3  =    31 atoms



      MOLECULAR POINT GROUP   :   C1  


 SINGLET STATE CALCULATION


      RHF CALCULATION, NO. OF DOUBLY OCCUPIED LEVELS = 42

  SCF CRITERION =    0.1000E-03


          HEAT OF FORMATION =     -61.637456 KCALS/MOLE


          CARTESIAN COORDINATE DERIVATIVES

   NUMBER  ATOM         X            Y            Z

     1       C     -0.107535    -0.036306     0.086578
     2       H      0.124171     0.068419     0.050089
     3       N      0.182074     0.299268    -0.139553
     4       O      0.272646    -0.450791     0.259941
     5       O     -0.223135     0.418369    -0.332663
     6       H      0.207887     0.044315     0.117775
     7       C      1.108248     0.320751     3.446369
     8       H     30.748162    -2.657444    83.873772
     9       H     -0.102566    -0.018366    -0.582231
    10       C     -0.228014    -0.172655     0.038623
    11       H      0.010570     0.130386     0.025956
    12       C     -0.175055     0.179413     0.072290
    13       C     -0.002254     0.110901     0.112175
    14       C      0.134388     0.154163     0.535210
    15       C     -0.165742     0.106690     0.096805
    16       C     -0.168972    -0.027061     0.213461
    17       N     -0.003504     0.038982     0.159016
    18       H      0.231399    -0.073215     0.440799
    19       H     -0.199975     0.187908     0.403449
    20       H     -0.138431     0.039422     0.042449
    21       C      0.162334     0.533840    -0.052699
    22       H     -0.170627    -0.152411     0.145499
    23       H     -0.031382     0.317365     0.162535
    24       H     -0.049599    -0.177591     0.303885
    25       C      0.056986    -0.186582    -0.096647
    26       H      0.303667     0.211062    -0.109337
    27       H      0.465946     0.356601     0.038916
    28       H      0.427692     0.138567    -0.260333
    29       H     -0.133928    -0.014183     0.090269
    30       O    -32.580446     0.122444   -89.331964
    31       H      0.045408     0.187936     0.191162

 DIPOLE           X         Y         Z       TOTAL
 POINT-CHG.   -14.386   -21.362   -24.473    35.527
 HYBRID         0.573     0.543     0.037     0.790
 SUM          -13.813   -20.819   -24.435    34.947


          GRADIENT NORM = 130.56127



 ** GRADIENT IS VERY LARGE, BUT SINCE "LET" IS USED, CALCULATION WILL CONTINUE


                              **** WARNING ****

           GRADIENT IS VERY LARGE FOR A THERMO CALCULATION
           RESULTS ARE LIKELY TO BE INACCURATE IF THERE ARE
           ANY LOW-LYING VIBRATIONS (LESS THAN ABOUT 400CM-1)
           GRADIENT NORM SHOULD BE LESS THAN ABOUT 1.1 FOR THERMO
           TO GIVE ACCURATE RESULTS


          TIME FOR SCF CALCULATION =    0.12

          TIME FOR DERIVATIVES     =    0.03

          MOLECULAR WEIGHT =  212.25



          ROTATIONAL CONSTANTS IN CM(-1)

          A =    0.04125276   B =    0.00490565   C =    0.00449914



           PRINCIPAL MOMENTS OF INERTIA IN UNITS OF 10**(-40)*GRAM-CM**2

          A =      678.5667   B =     5706.2230   C =     6221.7959


          ORIENTATION OF MOLECULE IN FORCE CALCULATION

    NO.       ATOM         X         Y         Z

     1          C       2.0067    0.4240    3.4708
     2          H       3.1026    0.4240    3.4708
     3          N       2.0564    2.8516    3.4708
     4          O       3.3137    2.8785    3.4050
     5          O       1.4610    3.9667    3.4894
     6          H       0.2425   -0.7780    3.3992
     7          C       1.3668    1.7148    3.5297
     8          H       0.9670    1.3020    0.6050
     9          H       0.2823    1.7660    3.5627
    10          C       1.3170   -0.7221    3.4133
    11          H       1.7799   -1.6919    3.3639
    12          C      -1.3618   -0.2987   -2.4384
    13          C      -1.8991   -1.2151   -3.3393
    14          C      -1.8958   -2.5836   -2.9998
    15          C      -1.4260   -2.9602   -1.7378
    16          C      -0.9053   -2.0063   -0.8691
    17          N      -0.8595   -0.7012   -1.2392
    18          H      -1.3124    0.7825   -2.6610
    19          H      -1.4516   -4.0101   -1.4260
    20          H      -0.5084   -2.2736    0.1257
    21          C      -2.4398   -0.7290   -4.6308
    22          H      -3.4437   -1.1390   -4.8398
    23          H      -1.7988   -1.0285   -5.4787
    24          H      -2.5331    0.3675   -4.6782
    25          C      -2.3485   -3.6042   -3.9698
    26          H      -2.3219   -4.6311   -3.5744
    27          H      -1.7145   -3.5981   -4.8776
    28          H      -3.3797   -3.4224   -4.3211
    29          H      -0.3771    0.0317   -0.6242
    30          O       0.5687    1.3190   -0.4724
    31          H       1.4091    1.1867   -0.9425


    FIRST DERIVATIVES WILL BE USED IN THE CALCULATION OF SECOND DERIVATIVES

          ESTIMATED TIME TO COMPLETE CALCULATION =       28.34 SECONDS

    FOR POINT-GROUP C1   THERE ARE   1 UNIQUE SYMMETRY FUNCTIONS.

 STEP:   1 TIME =     0.08 SECS, INTEGRAL =      0.08 TIME LEFT:1209599.76
 STEP:   2 TIME =     0.08 SECS, INTEGRAL =      0.17 TIME LEFT:1209599.68
 STEP:   3 TIME =     0.08 SECS, INTEGRAL =      0.25 TIME LEFT:1209599.60
 STEP:   4 TIME =     0.09 SECS, INTEGRAL =      0.34 TIME LEFT:1209599.51
 STEP:   5 TIME =     0.09 SECS, INTEGRAL =      0.42 TIME LEFT:1209599.42
 STEP:   6 TIME =     0.09 SECS, INTEGRAL =      0.51 TIME LEFT:1209599.34
 STEP:   7 TIME =     0.08 SECS, INTEGRAL =      0.59 TIME LEFT:1209599.25
 STEP:   8 TIME =     0.08 SECS, INTEGRAL =      0.68 TIME LEFT:1209599.17
 STEP:   9 TIME =     0.08 SECS, INTEGRAL =      0.76 TIME LEFT:1209599.08
 STEP:  10 TIME =     0.08 SECS, INTEGRAL =      0.85 TIME LEFT:1209599.00
 STEP:  11 TIME =     0.08 SECS, INTEGRAL =      0.93 TIME LEFT:1209598.91
 STEP:  12 TIME =     0.09 SECS, INTEGRAL =      1.02 TIME LEFT:1209598.83
 STEP:  13 TIME =     0.08 SECS, INTEGRAL =      1.11 TIME LEFT:1209598.74
 STEP:  14 TIME =     0.08 SECS, INTEGRAL =      1.19 TIME LEFT:1209598.66
 STEP:  15 TIME =     0.09 SECS, INTEGRAL =      1.28 TIME LEFT:1209598.57
 STEP:  16 TIME =     0.08 SECS, INTEGRAL =      1.36 TIME LEFT:1209598.49
 STEP:  17 TIME =     0.08 SECS, INTEGRAL =      1.45 TIME LEFT:1209598.40
 STEP:  18 TIME =     0.08 SECS, INTEGRAL =      1.53 TIME LEFT:1209598.32
 STEP:  19 TIME =     0.08 SECS, INTEGRAL =      1.62 TIME LEFT:1209598.23
 STEP:  20 TIME =     0.08 SECS, INTEGRAL =      1.70 TIME LEFT:1209598.15
 STEP:  21 TIME =     0.08 SECS, INTEGRAL =      1.79 TIME LEFT:1209598.06
 STEP:  22 TIME =     0.09 SECS, INTEGRAL =      1.87 TIME LEFT:1209597.98
 STEP:  23 TIME =     0.08 SECS, INTEGRAL =      1.96 TIME LEFT:1209597.89
 STEP:  24 TIME =     0.09 SECS, INTEGRAL =      2.04 TIME LEFT:1209597.80
 STEP:  25 TIME =     0.09 SECS, INTEGRAL =      2.13 TIME LEFT:1209597.72
 STEP:  26 TIME =     0.09 SECS, INTEGRAL =      2.22 TIME LEFT:1209597.63
 STEP:  27 TIME =     0.09 SECS, INTEGRAL =      2.30 TIME LEFT:1209597.55
 STEP:  28 TIME =     0.09 SECS, INTEGRAL =      2.39 TIME LEFT:1209597.46
 STEP:  29 TIME =     0.09 SECS, INTEGRAL =      2.47 TIME LEFT:1209597.37
 STEP:  30 TIME =     0.09 SECS, INTEGRAL =      2.56 TIME LEFT:1209597.29
 STEP:  31 TIME =     0.08 SECS, INTEGRAL =      2.64 TIME LEFT:1209597.20
 STEP:  32 TIME =     0.09 SECS, INTEGRAL =      2.73 TIME LEFT:1209597.12
 STEP:  33 TIME =     0.09 SECS, INTEGRAL =      2.82 TIME LEFT:1209597.03
 STEP:  34 TIME =     0.09 SECS, INTEGRAL =      2.90 TIME LEFT:1209596.94
 STEP:  35 TIME =     0.09 SECS, INTEGRAL =      2.99 TIME LEFT:1209596.86
 STEP:  36 TIME =     0.09 SECS, INTEGRAL =      3.08 TIME LEFT:1209596.77
 STEP:  37 TIME =     0.09 SECS, INTEGRAL =      3.16 TIME LEFT:1209596.68
 STEP:  38 TIME =     0.09 SECS, INTEGRAL =      3.25 TIME LEFT:1209596.60
 STEP:  39 TIME =     0.09 SECS, INTEGRAL =      3.33 TIME LEFT:1209596.51
 STEP:  40 TIME =     0.09 SECS, INTEGRAL =      3.42 TIME LEFT:1209596.43
 STEP:  41 TIME =     0.08 SECS, INTEGRAL =      3.51 TIME LEFT:1209596.34
 STEP:  42 TIME =     0.08 SECS, INTEGRAL =      3.59 TIME LEFT:1209596.26
 STEP:  43 TIME =     0.09 SECS, INTEGRAL =      3.68 TIME LEFT:1209596.17
 STEP:  44 TIME =     0.09 SECS, INTEGRAL =      3.76 TIME LEFT:1209596.08
 STEP:  45 TIME =     0.09 SECS, INTEGRAL =      3.85 TIME LEFT:1209596.00
 STEP:  46 TIME =     0.08 SECS, INTEGRAL =      3.93 TIME LEFT:1209595.91
 STEP:  47 TIME =     0.09 SECS, INTEGRAL =      4.02 TIME LEFT:1209595.83
 STEP:  48 TIME =     0.08 SECS, INTEGRAL =      4.10 TIME LEFT:1209595.74
 STEP:  49 TIME =     0.08 SECS, INTEGRAL =      4.19 TIME LEFT:1209595.66
 STEP:  50 TIME =     0.08 SECS, INTEGRAL =      4.27 TIME LEFT:1209595.57
 STEP:  51 TIME =     0.08 SECS, INTEGRAL =      4.36 TIME LEFT:1209595.49
 STEP:  52 TIME =     0.08 SECS, INTEGRAL =      4.44 TIME LEFT:1209595.40
 STEP:  53 TIME =     0.08 SECS, INTEGRAL =      4.53 TIME LEFT:1209595.32
 STEP:  54 TIME =     0.09 SECS, INTEGRAL =      4.61 TIME LEFT:1209595.23
 STEP:  55 TIME =     0.08 SECS, INTEGRAL =      4.70 TIME LEFT:1209595.15
 STEP:  56 TIME =     0.08 SECS, INTEGRAL =      4.78 TIME LEFT:1209595.06
 STEP:  57 TIME =     0.08 SECS, INTEGRAL =      4.87 TIME LEFT:1209594.98
 STEP:  58 TIME =     0.08 SECS, INTEGRAL =      4.95 TIME LEFT:1209594.89
 STEP:  59 TIME =     0.08 SECS, INTEGRAL =      5.04 TIME LEFT:1209594.81
 STEP:  60 TIME =     0.09 SECS, INTEGRAL =      5.12 TIME LEFT:1209594.72
 STEP:  61 TIME =     0.08 SECS, INTEGRAL =      5.21 TIME LEFT:1209594.64
 STEP:  62 TIME =     0.08 SECS, INTEGRAL =      5.29 TIME LEFT:1209594.55
 STEP:  63 TIME =     0.08 SECS, INTEGRAL =      5.38 TIME LEFT:1209594.47
 STEP:  64 TIME =     0.08 SECS, INTEGRAL =      5.46 TIME LEFT:1209594.38
 STEP:  65 TIME =     0.09 SECS, INTEGRAL =      5.55 TIME LEFT:1209594.30
 STEP:  66 TIME =     0.08 SECS, INTEGRAL =      5.63 TIME LEFT:1209594.21
 STEP:  67 TIME =     0.08 SECS, INTEGRAL =      5.72 TIME LEFT:1209594.13
 STEP:  68 TIME =     0.08 SECS, INTEGRAL =      5.80 TIME LEFT:1209594.04
 STEP:  69 TIME =     0.09 SECS, INTEGRAL =      5.89 TIME LEFT:1209593.96
 STEP:  70 TIME =     0.09 SECS, INTEGRAL =      5.98 TIME LEFT:1209593.87
 STEP:  71 TIME =     0.08 SECS, INTEGRAL =      6.06 TIME LEFT:1209593.79
 STEP:  72 TIME =     0.08 SECS, INTEGRAL =      6.15 TIME LEFT:1209593.70
 STEP:  73 TIME =     0.08 SECS, INTEGRAL =      6.23 TIME LEFT:1209593.62
 STEP:  74 TIME =     0.09 SECS, INTEGRAL =      6.32 TIME LEFT:1209593.53
 STEP:  75 TIME =     0.08 SECS, INTEGRAL =      6.40 TIME LEFT:1209593.45
 STEP:  76 TIME =     0.08 SECS, INTEGRAL =      6.49 TIME LEFT:1209593.36
 STEP:  77 TIME =     0.08 SECS, INTEGRAL =      6.57 TIME LEFT:1209593.28
 STEP:  78 TIME =     0.08 SECS, INTEGRAL =      6.66 TIME LEFT:1209593.19
 STEP:  79 TIME =     0.08 SECS, INTEGRAL =      6.74 TIME LEFT:1209593.11
 STEP:  80 TIME =     0.08 SECS, INTEGRAL =      6.83 TIME LEFT:1209593.02
 STEP:  81 TIME =     0.08 SECS, INTEGRAL =      6.91 TIME LEFT:1209592.94
 STEP:  82 TIME =     0.09 SECS, INTEGRAL =      7.00 TIME LEFT:1209592.85
 STEP:  83 TIME =     0.08 SECS, INTEGRAL =      7.08 TIME LEFT:1209592.76
