 *******************************************************************************
 **                                                                           **
 **                              MOPAC v22.0.6                                **
 **                                                                           **
 *******************************************************************************
 **          Digital Object Identifier (DOI): 10.5281/zenodo.6511958          **
 **    Visit the DOI location for information on how to cite this program.    **
 *******************************************************************************

                              PM7 CALCULATION RESULTS

 *******************************************************************************
 *  CALCULATION DONE:                                Mon Mar 25 21:52:10 2024  *
 *  PM7        - The PM7 Hamiltonian to be used
 *  SINGLET    - SPIN STATE DEFINED AS A SINGLET
 *
 *
 *
 *                 CHARGE ON SYSTEM = 0
 *
 *
 *
 *  EPS=78.0   - USE ANDREAS KLAMT'S COSMO IMPLICIT SOLVATION MODEL
 *  SADDLE     - TRANSITION STATE TO BE OPTIMIZED
 *  T=         - A TIME OF 14.0 DAYS REQUESTED
 *  DUMP=N     - RESTART FILE WRITTEN EVERY 30.0 MINUTES REQUESTED
 *  RELSCF     - DEFAULT SCF CRITERION MULTIPLIED BY 1.0000
 *              (DEFAULT SCF CRITERION = 0.00010)
 *  ITRY=      - DO A MAXIMUM OF 15000 ITERATIONS FOR SCF
 *  AUX        - OUTPUT AUXILIARY INFORMATION
 *  BONDS      - FINAL BOND-ORDER MATRIX TO BE PRINTED
 *******************************************************************************
SADDLE PM7 BONDS AUX DUMP=30M ITRY=15000 T=14D CHARGE=0 SINGLET eps=78.0 RELSCF=1


   ATOM   CHEMICAL          X               Y               Z
  NUMBER   SYMBOL      (ANGSTROMS)     (ANGSTROMS)     (ANGSTROMS)

     1       C          0.43894599  *  -0.77639832  *   0.55622185  *
     2       H          1.00103145  *  -1.42925313  *  -0.14513711  *
     3       H          0.92667888  *   0.22334185  *   0.53474678  *
     4       H          0.56277581  *  -1.18154808  *   1.57869132  *
     5       N         -0.96542738  *  -0.66256387  *   0.18566748  *
     6       O         -1.79788890  *  -0.48800953  *   1.06559165  *
     7       O         -1.28184476  *  -0.73681258  *  -0.99344884  *
     8       H          3.76887115  *  -1.65235434  *   1.37166354  *
     9       O          2.95725465  *  -1.18060492  *   1.58833817  *
    10       H          3.17575147  *  -0.25345875  *   1.42924301  *



          CARTESIAN COORDINATES 

    NO.       ATOM           X           Y           Z

     1         C          0.4389     -0.7764      0.5562
     2         H          1.0010     -1.4293     -0.1451
     3         H          0.9267      0.2233      0.5347
     4         H          0.5628     -1.1815      1.5787
     5         N         -0.9654     -0.6626      0.1857
     6         O         -1.7979     -0.4880      1.0656
     7         O         -1.2818     -0.7368     -0.9934
     8         H          3.7689     -1.6524      1.3717
     9         O          2.9573     -1.1806      1.5883
    10         H          3.1758     -0.2535      1.4292

 General Reference for PM7:
 "Optimization of Parameters for Semiempirical Methods VI: More Modifications to the 
 NDDO Approximations and Re-optimization of Parameters", J. J. P. Stewart, J. Mol. Mod., 1:32, 19 (2013)
 https://link.springer.com/article/10.1007/s00894-012-1667-x

           Empirical Formula: C H5 N O3  =    10 atoms



      MOLECULAR POINT GROUP   :   C1  


 SINGLET STATE CALCULATION


      RHF CALCULATION, NO. OF DOUBLY OCCUPIED LEVELS = 16



  CARTESIAN GEOMETRY OF FIRST SYSTEM


   1    C          0.52490      -0.80576       0.50159
   2    H          0.35166      -0.15546      -0.38021
   3    H          0.13560      -0.28774       1.40183
   4    H          1.62933      -0.90386       0.62442
   5    N         -0.08766      -2.11605       0.32629
   6    O         -0.53508      -2.70072       1.30247
   7    O         -0.13355      -2.60562      -0.79311
   8    H          3.90958      -1.55403       1.13314
   9    O          3.45573      -1.12601       1.87051
  10    H          3.60472      -0.18505       1.72318


  CARTESIAN GEOMETRY OF SECOND SYSTEM


   1    C          0.86125      -1.38395       0.62604
   2    H          1.47015      -1.16166      -0.27612
   3    H          0.76227      -0.43376       1.19626
   4    H          1.42965      -2.09101       1.26000
   5    N         -0.45411      -1.90545       0.27904
   6    O         -1.00281      -2.68605       1.04541
   7    O         -0.98402      -1.54863      -0.76395
   8    H          4.26524      -0.52144       1.06139
   9    O          3.41450      -0.76416       1.44290
  10    H          3.09311       0.05581       1.83914


   "DISTANCE":     3.033232


  REACTION COORDINATE VECTOR


   1    C         -0.33635       0.57819      -0.12444
   2    H         -1.11849       1.00619      -0.10408
   3    H         -0.62666       0.14602       0.20557
   4    H          0.19968       1.18715      -0.63558
   5    N          0.36645      -0.21059       0.04724
   6    O          0.46774      -0.01467       0.25706
   7    O          0.85046      -1.05699      -0.02916
   8    H         -0.35566      -1.03259       0.07174
   9    O          0.04123      -0.36185       0.42761
  10    H          0.51161      -0.24086      -0.11597
 *+*+*+*+*+*+*+*+*+*+*+*+*+*+*+*+*+*+*+*+*+*+*+*+*+*+*+*+*+*+*+*+*+*+*+*+*+*+*+*+
            BAR SHORTENED BY       0.000 PERCENT
 GRADIENT CRITERION IN FLEPO =     1.000
  SCF CRITERION =    0.1000E-03
 

                    SINCE COS WAS JUST RESET,THE SEARCH IS BEING ENDED


          FOR POINT    1 SECOND STRUCTURE
 DISTANCE A - B      3.033232
 HEAT              -91.967767
 GRADIENT NORM       1.776106
 DIRECTION COSINE   -0.000000
* ===============================
* Input file for Mopac
* ===============================
 PM7 BONDS AUX DUMP=30M ITRY=15000 T=14D CHARGE=0 SINGLET eps=78.0 RELSCF=1


  C     0.00000000 +0    0.0000000 +0    0.0000000 +0     0     0     0
  H     1.10926645 +1    0.0000000 +0    0.0000000 +0     1     0     0
  H     1.10920472 +1  108.4559714 +1    0.0000000 +0     1     2     0
  H     1.11556292 +1  107.0793508 +1 -115.6253512 +1     1     2     3
  N     1.45698444 +1  111.4636150 +1  123.3983842 +1     1     2     3
  O     1.22268454 +1  119.1977725 +1 -146.7448707 +1     5     1     2
  O     1.22263491 +1  119.0811151 +1   33.6837653 +1     5     1     2
  H     2.42508809 +1  167.8410769 +1 -155.8164639 +1     4     1     2
  O     0.96587063 +1   66.3915413 +1  -81.4746395 +1     8     4     1
  H     0.96401000 +1  104.0780185 +1  -86.7092805 +1     9     8     4

 TIME=     0.13
  REACTANTS AND PRODUCTS SWAPPED AROUND
 *+*+*+*+*+*+*+*+*+*+*+*+*+*+*+*+*+*+*+*+*+*+*+*+*+*+*+*+*+*+*+*+*+*+*+*+*+*+*+*+
            BAR SHORTENED BY       1.000 PERCENT
 GRADIENT CRITERION IN FLEPO =     1.000


          FOR POINT    2 FIRST  STRUCTURE
 DISTANCE A - B      3.002900
 HEAT              -91.903079
 GRADIENT NORM       1.595859
 DIRECTION COSINE   -0.274652
* ===============================
* Input file for Mopac
* ===============================
 PM7 BONDS AUX DUMP=30M ITRY=15000 T=14D CHARGE=0 SINGLET eps=78.0 RELSCF=1


  C     0.00000000 +0    0.0000000 +0    0.0000000 +0     0     0     0
  H     1.10845610 +1    0.0000000 +0    0.0000000 +0     1     0     0
  H     1.11337729 +1  107.2868679 +1    0.0000000 +0     1     2     0
  H     1.11038112 +1  108.4135910 +1 -115.4539808 +1     1     2     3
  N     1.45615091 +1  111.7335962 +1  121.0241291 +1     1     2     3
  O     1.22327948 +1  119.2351984 +1  150.4442390 +1     5     1     2
  O     1.22292828 +1  119.0829253 +1  -29.9596661 +1     5     1     2
  H     3.16596272 +1  100.0194434 +1   68.0954588 +1     2     1     3
  O     0.96481483 +1   48.9334831 +1   -1.2516074 +1     8     2     1
  H     0.96519931 +1  103.9216224 +1 -106.4057582 +1     9     8     2

 TIME=     0.07
  REACTANTS AND PRODUCTS SWAPPED AROUND
 *+*+*+*+*+*+*+*+*+*+*+*+*+*+*+*+*+*+*+*+*+*+*+*+*+*+*+*+*+*+*+*+*+*+*+*+*+*+*+*+
            BAR SHORTENED BY       1.000 PERCENT
 GRADIENT CRITERION IN FLEPO =     1.000
           THERE HAVE BEEN 3 ATTEMPTS TO REDUCE THE GRADIENT.
           DURING THESE ATTEMPTS THE ENERGY DROPPED BY LESS THAN 0.3 KCAL/MOLE
           FURTHER CALCULATION IS NOT JUSTIFIED AT THIS TIME.
           TO CONTINUE, START AGAIN WITH THE WORD "PRECISE"


          FOR POINT    3 SECOND STRUCTURE
 DISTANCE A - B      2.972871
 HEAT              -91.976323
 GRADIENT NORM       4.763228
 DIRECTION COSINE    0.129873
* ===============================
* Input file for Mopac
* ===============================
 PM7 BONDS AUX DUMP=30M ITRY=15000 T=14D CHARGE=0 SINGLET eps=78.0 RELSCF=1


  C     0.00000000 +0    0.0000000 +0    0.0000000 +0     0     0     0
  H     1.11137024 +1    0.0000000 +0    0.0000000 +0     1     0     0
  H     1.10850082 +1  108.5426934 +1    0.0000000 +0     1     2     0
  H     1.11525441 +1  107.1765983 +1 -116.0005878 +1     1     2     3
  N     1.45741021 +1  111.3791084 +1  123.5912308 +1     1     2     3
  O     1.22165008 +1  119.2246451 +1 -147.6129599 +1     5     1     2
  O     1.22183080 +1  119.0139701 +1   33.0584140 +1     5     1     2
  H     2.42348077 +1  169.4812213 +1 -157.6080445 +1     4     1     2
  O     0.96944110 +1   65.6814717 +1  -78.9842966 +1     8     4     1
  H     0.96411965 +1  103.9923034 +1  -88.3017614 +1     9     8     4

 *+*+*+*+*+*+*+*+*+*+*+*+*+*+*+*+*+*+*+*+*+*+*+*+*+*+*+*+*+*+*+*+*+*+*+*+*+*+*+*+
            BAR SHORTENED BY       1.000 PERCENT
 GRADIENT CRITERION IN FLEPO =     1.763
           THERE HAVE BEEN 3 ATTEMPTS TO REDUCE THE GRADIENT.
           DURING THESE ATTEMPTS THE ENERGY DROPPED BY LESS THAN 0.3 KCAL/MOLE
           FURTHER CALCULATION IS NOT JUSTIFIED AT THIS TIME.
           TO CONTINUE, START AGAIN WITH THE WORD "PRECISE"


          FOR POINT    4 SECOND STRUCTURE
 DISTANCE A - B      2.943142
 HEAT              -91.928577
 GRADIENT NORM      10.287116
 DIRECTION COSINE    0.484389
* ===============================
* Input file for Mopac
* ===============================
 PM7 BONDS AUX DUMP=30M ITRY=15000 T=14D CHARGE=0 SINGLET eps=78.0 RELSCF=1


  C     0.00000000 +0    0.0000000 +0    0.0000000 +0     0     0     0
  H     1.10809557 +1    0.0000000 +0    0.0000000 +0     1     0     0
  H     1.10681884 +1  108.6554506 +1    0.0000000 +0     1     2     0
  H     1.11174110 +1  107.2219728 +1 -115.8525068 +1     1     2     3
  N     1.45378235 +1  111.2055738 +1  123.7416492 +1     1     2     3
  O     1.22138159 +1  119.3490077 +1 -148.1496187 +1     5     1     2
  O     1.21869801 +1  118.8480535 +1   32.4974409 +1     5     1     2
  H     2.42152552 +1  170.4864382 +1 -157.6853412 +1     4     1     2
  O     0.96588135 +1   65.3872333 +1  -78.5407402 +1     8     4     1
  H     0.96221253 +1  103.9463041 +1  -88.9001442 +1     9     8     4

 *+*+*+*+*+*+*+*+*+*+*+*+*+*+*+*+*+*+*+*+*+*+*+*+*+*+*+*+*+*+*+*+*+*+*+*+*+*+*+*+
            BAR SHORTENED BY       1.000 PERCENT
 GRADIENT CRITERION IN FLEPO =     7.287


          FOR POINT    5 SECOND STRUCTURE
 DISTANCE A - B      2.913711
 HEAT              -91.832671
 GRADIENT NORM       7.417752
 DIRECTION COSINE   -0.419686
* ===============================
* Input file for Mopac
* ===============================
 PM7 BONDS AUX DUMP=30M ITRY=15000 T=14D CHARGE=0 SINGLET eps=78.0 RELSCF=1


  C     0.00000000 +0    0.0000000 +0    0.0000000 +0     0     0     0
  H     1.11055093 +1    0.0000000 +0    0.0000000 +0     1     0     0
  H     1.11197553 +1  108.7317898 +1    0.0000000 +0     1     2     0
  H     1.12346133 +1  107.0768256 +1 -115.4924474 +1     1     2     3
  N     1.45416720 +1  111.4090332 +1  124.3408762 +1     1     2     3
  O     1.22299209 +1  119.5508604 +1 -148.8307569 +1     5     1     2
  O     1.22398629 +1  118.8634270 +1   31.5962131 +1     5     1     2
  H     2.40638168 +1  171.8255172 +1 -158.9614641 +1     4     1     2
  O     0.96299830 +1   65.0214867 +1  -76.1098870 +1     8     4     1
  H     0.96526144 +1  103.5472626 +1  -89.2003496 +1     9     8     4

 TIME=     0.41
  REACTANTS AND PRODUCTS SWAPPED AROUND
 *+*+*+*+*+*+*+*+*+*+*+*+*+*+*+*+*+*+*+*+*+*+*+*+*+*+*+*+*+*+*+*+*+*+*+*+*+*+*+*+
            BAR SHORTENED BY       0.000 PERCENT
 GRADIENT CRITERION IN FLEPO =     4.418


          FOR POINT    6 FIRST  STRUCTURE
 DISTANCE A - B      2.913711
 HEAT              -91.903079
 GRADIENT NORM       1.595767
 DIRECTION COSINE   -0.063883
* ===============================
* Input file for Mopac
* ===============================
 PM7 BONDS AUX DUMP=30M ITRY=15000 T=14D CHARGE=0 SINGLET eps=78.0 RELSCF=1


  C     0.00000000 +0    0.0000000 +0    0.0000000 +0     0     0     0
  H     1.10845610 +1    0.0000000 +0    0.0000000 +0     1     0     0
  H     1.11337729 +1  107.2868679 +1    0.0000000 +0     1     2     0
  H     1.11038112 +1  108.4135910 +1 -115.4539808 +1     1     2     3
  N     1.45615091 +1  111.7335962 +1  121.0241291 +1     1     2     3
  O     1.22327948 +1  119.2351984 +1  150.4442390 +1     5     1     2
  O     1.22292828 +1  119.0829253 +1  -29.9596661 +1     5     1     2
  H     3.16596272 +1  100.0194434 +1   68.0954588 +1     2     1     3
  O     0.96481483 +1   48.9334831 +1   -1.2516074 +1     8     2     1
  H     0.96519931 +1  103.9216224 +1 -106.4057582 +1     9     8     2

 TIME=     0.01
  REACTANTS AND PRODUCTS SWAPPED AROUND
 *+*+*+*+*+*+*+*+*+*+*+*+*+*+*+*+*+*+*+*+*+*+*+*+*+*+*+*+*+*+*+*+*+*+*+*+*+*+*+*+
            BAR SHORTENED BY       1.000 PERCENT
 GRADIENT CRITERION IN FLEPO =     4.418


          FOR POINT    7 SECOND STRUCTURE
 DISTANCE A - B      2.884574
 HEAT              -91.861188
 GRADIENT NORM       2.883329
 DIRECTION COSINE   -0.069971
* ===============================
* Input file for Mopac
* ===============================
 PM7 BONDS AUX DUMP=30M ITRY=15000 T=14D CHARGE=0 SINGLET eps=78.0 RELSCF=1


  C     0.00000000 +0    0.0000000 +0    0.0000000 +0     0     0     0
  H     1.11043868 +1    0.0000000 +0    0.0000000 +0     1     0     0
  H     1.10924147 +1  108.4271826 +1    0.0000000 +0     1     2     0
  H     1.11577099 +1  107.1315354 +1 -115.2832805 +1     1     2     3
  N     1.45527847 +1  111.5711663 +1  124.1042855 +1     1     2     3
  O     1.22213142 +1  119.4260538 +1 -149.3375060 +1     5     1     2
  O     1.22275938 +1  118.7284782 +1   31.2863304 +1     5     1     2
  H     2.40845280 +1  172.8413857 +1 -158.2423817 +1     4     1     2
  O     0.96566542 +1   64.4910441 +1  -77.0294248 +1     8     4     1
  H     0.96686273 +1  103.8768301 +1  -89.8669079 +1     9     8     4

 TIME=     0.05
  REACTANTS AND PRODUCTS SWAPPED AROUND
 *+*+*+*+*+*+*+*+*+*+*+*+*+*+*+*+*+*+*+*+*+*+*+*+*+*+*+*+*+*+*+*+*+*+*+*+*+*+*+*+
            BAR SHORTENED BY       1.000 PERCENT
 GRADIENT CRITERION IN FLEPO =     4.418


          FOR POINT    8 FIRST  STRUCTURE
 DISTANCE A - B      2.855728
 HEAT              -91.880916
 GRADIENT NORM       7.079381
 DIRECTION COSINE    0.104726
* ===============================
* Input file for Mopac
* ===============================
 PM7 BONDS AUX DUMP=30M ITRY=15000 T=14D CHARGE=0 SINGLET eps=78.0 RELSCF=1


  C     0.00000000 +0    0.0000000 +0    0.0000000 +0     0     0     0
  H     1.11157408 +1    0.0000000 +0    0.0000000 +0     1     0     0
  H     1.11297089 +1  107.4295313 +1    0.0000000 +0     1     2     0
  H     1.10662705 +1  108.2520630 +1 -115.3676780 +1     1     2     3
  N     1.45568614 +1  111.8387011 +1  121.1544396 +1     1     2     3
  O     1.22281767 +1  119.3352671 +1  150.8767722 +1     5     1     2
  O     1.22009730 +1  118.9077743 +1  -29.5068163 +1     5     1     2
  H     3.15844573 +1   99.9036476 +1   68.7775707 +1     2     1     3
  O     0.96207269 +1   49.4453961 +1   -1.8078866 +1     8     2     1
  H     0.96323620 +1  103.9800971 +1 -105.9690620 +1     9     8     2

 *+*+*+*+*+*+*+*+*+*+*+*+*+*+*+*+*+*+*+*+*+*+*+*+*+*+*+*+*+*+*+*+*+*+*+*+*+*+*+*+
            BAR SHORTENED BY       1.000 PERCENT
 GRADIENT CRITERION IN FLEPO =     4.079


          FOR POINT    9 FIRST  STRUCTURE
 DISTANCE A - B      2.827171
 HEAT              -91.890932
 GRADIENT NORM       4.816303
 DIRECTION COSINE    0.297992
* ===============================
* Input file for Mopac
* ===============================
 PM7 BONDS AUX DUMP=30M ITRY=15000 T=14D CHARGE=0 SINGLET eps=78.0 RELSCF=1


  C     0.00000000 +0    0.0000000 +0    0.0000000 +0     0     0     0
  H     1.10918094 +1    0.0000000 +0    0.0000000 +0     1     0     0
  H     1.11347191 +1  107.5388654 +1    0.0000000 +0     1     2     0
  H     1.11300456 +1  108.4704015 +1 -115.5277609 +1     1     2     3
  N     1.45427486 +1  111.6341462 +1  121.2300823 +1     1     2     3
  O     1.22258255 +1  119.4500649 +1  151.4913467 +1     5     1     2
  O     1.22221913 +1  118.7212291 +1  -29.1019434 +1     5     1     2
  H     3.15874364 +1   99.6096911 +1   69.6851430 +1     2     1     3
  O     0.96373197 +1   49.8773785 +1   -2.4628649 +1     8     2     1
  H     0.96430092 +1  104.0101464 +1 -105.3765445 +1     9     8     2

 *+*+*+*+*+*+*+*+*+*+*+*+*+*+*+*+*+*+*+*+*+*+*+*+*+*+*+*+*+*+*+*+*+*+*+*+*+*+*+*+
            BAR SHORTENED BY       1.000 PERCENT
 GRADIENT CRITERION IN FLEPO =     1.816
           THERE HAVE BEEN 3 ATTEMPTS TO REDUCE THE GRADIENT.
           DURING THESE ATTEMPTS THE ENERGY DROPPED BY LESS THAN 0.3 KCAL/MOLE
           FURTHER CALCULATION IS NOT JUSTIFIED AT THIS TIME.
           TO CONTINUE, START AGAIN WITH THE WORD "PRECISE"


          FOR POINT   10 FIRST  STRUCTURE
 DISTANCE A - B      2.798899
 HEAT              -91.897769
 GRADIENT NORM       4.143003
 DIRECTION COSINE    0.301563
* ===============================
* Input file for Mopac
* ===============================
 PM7 BONDS AUX DUMP=30M ITRY=15000 T=14D CHARGE=0 SINGLET eps=78.0 RELSCF=1


  C     0.00000000 +0    0.0000000 +0    0.0000000 +0     0     0     0
  H     1.11113735 +1    0.0000000 +0    0.0000000 +0     1     0     0
  H     1.11287345 +1  107.5994956 +1    0.0000000 +0     1     2     0
  H     1.11088635 +1  108.2080518 +1 -115.6037133 +1     1     2     3
  N     1.45777405 +1  111.5096066 +1  120.9859256 +1     1     2     3
  O     1.22191583 +1  119.4702479 +1  152.0577368 +1     5     1     2
  O     1.22334769 +1  118.7204715 +1  -28.4955436 +1     5     1     2
  H     3.15267370 +1   99.2964494 +1   70.6768571 +1     2     1     3
  O     0.96408217 +1   50.3893545 +1   -3.1542082 +1     8     2     1
  H     0.96470494 +1  104.0900538 +1 -104.8830636 +1     9     8     2

 TIME=     0.13
  REACTANTS AND PRODUCTS SWAPPED AROUND
 *+*+*+*+*+*+*+*+*+*+*+*+*+*+*+*+*+*+*+*+*+*+*+*+*+*+*+*+*+*+*+*+*+*+*+*+*+*+*+*+
            BAR SHORTENED BY       0.000 PERCENT
 GRADIENT CRITERION IN FLEPO =     1.143
           THERE HAVE BEEN 3 ATTEMPTS TO REDUCE THE GRADIENT.
           DURING THESE ATTEMPTS THE ENERGY DROPPED BY LESS THAN 0.3 KCAL/MOLE
           FURTHER CALCULATION IS NOT JUSTIFIED AT THIS TIME.
           TO CONTINUE, START AGAIN WITH THE WORD "PRECISE"


          FOR POINT   11 SECOND STRUCTURE
 DISTANCE A - B      2.798899
 HEAT              -91.886151
 GRADIENT NORM       6.489447
 DIRECTION COSINE   -0.101970
* ===============================
* Input file for Mopac
* ===============================
 PM7 BONDS AUX DUMP=30M ITRY=15000 T=14D CHARGE=0 SINGLET eps=78.0 RELSCF=1


  C     0.00000000 +0    0.0000000 +0    0.0000000 +0     0     0     0
  H     1.10910996 +1    0.0000000 +0    0.0000000 +0     1     0     0
  H     1.11160913 +1  108.6106376 +1    0.0000000 +0     1     2     0
  H     1.11638150 +1  106.7175067 +1 -115.2604328 +1     1     2     3
  N     1.45252541 +1  112.0282933 +1  124.2963995 +1     1     2     3
  O     1.22107319 +1  119.1875017 +1 -150.0135828 +1     5     1     2
  O     1.22209264 +1  119.0379988 +1   30.5645067 +1     5     1     2
  H     2.41720427 +1  173.1572678 +1 -155.7624690 +1     4     1     2
  O     0.96931572 +1   63.8216311 +1  -79.4555853 +1     8     4     1
  H     0.96739064 +1  103.8506604 +1  -91.3033939 +1     9     8     4

 TIME=     0.06
  REACTANTS AND PRODUCTS SWAPPED AROUND
 *+*+*+*+*+*+*+*+*+*+*+*+*+*+*+*+*+*+*+*+*+*+*+*+*+*+*+*+*+*+*+*+*+*+*+*+*+*+*+*+
            BAR SHORTENED BY       1.000 PERCENT
 GRADIENT CRITERION IN FLEPO =     3.489


          FOR POINT   12 FIRST  STRUCTURE
 DISTANCE A - B      2.770910
 HEAT              -91.876218
 GRADIENT NORM       6.417476
 DIRECTION COSINE   -0.506402
* ===============================
* Input file for Mopac
* ===============================
 PM7 BONDS AUX DUMP=30M ITRY=15000 T=14D CHARGE=0 SINGLET eps=78.0 RELSCF=1


  C     0.00000000 +0    0.0000000 +0    0.0000000 +0     0     0     0
  H     1.11160464 +1    0.0000000 +0    0.0000000 +0     1     0     0
  H     1.11919960 +1  107.4952424 +1    0.0000000 +0     1     2     0
  H     1.11415693 +1  108.2877475 +1 -115.7718166 +1     1     2     3
  N     1.45526310 +1  111.4183640 +1  121.0598828 +1     1     2     3
  O     1.22193800 +1  119.5693579 +1  152.7225438 +1     5     1     2
  O     1.22287070 +1  118.7659185 +1  -27.6336888 +1     5     1     2
  H     3.15107286 +1   99.0855675 +1   71.3993867 +1     2     1     3
  O     0.96362200 +1   50.8106634 +1   -3.8438653 +1     8     2     1
  H     0.96566109 +1  104.0356389 +1 -104.3345620 +1     9     8     2

 TIME=     0.03
  REACTANTS AND PRODUCTS SWAPPED AROUND
 *+*+*+*+*+*+*+*+*+*+*+*+*+*+*+*+*+*+*+*+*+*+*+*+*+*+*+*+*+*+*+*+*+*+*+*+*+*+*+*+
            BAR SHORTENED BY       1.000 PERCENT
 GRADIENT CRITERION IN FLEPO =     3.417


          FOR POINT   13 SECOND STRUCTURE
 DISTANCE A - B      2.743201
 HEAT              -91.910741
 GRADIENT NORM       5.211199
 DIRECTION COSINE    0.057333
* ===============================
* Input file for Mopac
* ===============================
 PM7 BONDS AUX DUMP=30M ITRY=15000 T=14D CHARGE=0 SINGLET eps=78.0 RELSCF=1


  C     0.00000000 +0    0.0000000 +0    0.0000000 +0     0     0     0
  H     1.10961849 +1    0.0000000 +0    0.0000000 +0     1     0     0
  H     1.10785317 +1  108.6763422 +1    0.0000000 +0     1     2     0
  H     1.11459677 +1  106.8807050 +1 -115.4395693 +1     1     2     3
  N     1.45293700 +1  111.7075036 +1  124.1551827 +1     1     2     3
  O     1.22208385 +1  119.3954097 +1 -150.7218637 +1     5     1     2
  O     1.22394521 +1  118.9111040 +1   30.3849710 +1     5     1     2
  H     2.41561175 +1  174.2144285 +1 -156.9597721 +1     4     1     2
  O     0.96506674 +1   63.4405522 +1  -77.9111265 +1     8     4     1
  H     0.96780729 +1  104.2292393 +1  -91.7949878 +1     9     8     4

 *+*+*+*+*+*+*+*+*+*+*+*+*+*+*+*+*+*+*+*+*+*+*+*+*+*+*+*+*+*+*+*+*+*+*+*+*+*+*+*+
            BAR SHORTENED BY       1.000 PERCENT
 GRADIENT CRITERION IN FLEPO =     2.211
           THERE HAVE BEEN 3 ATTEMPTS TO REDUCE THE GRADIENT.
           DURING THESE ATTEMPTS THE ENERGY DROPPED BY LESS THAN 0.3 KCAL/MOLE
           FURTHER CALCULATION IS NOT JUSTIFIED AT THIS TIME.
           TO CONTINUE, START AGAIN WITH THE WORD "PRECISE"


          FOR POINT   14 SECOND STRUCTURE
 DISTANCE A - B      2.715769
 HEAT              -91.848150
 GRADIENT NORM       6.346927
 DIRECTION COSINE    0.613523
* ===============================
* Input file for Mopac
* ===============================
 PM7 BONDS AUX DUMP=30M ITRY=15000 T=14D CHARGE=0 SINGLET eps=78.0 RELSCF=1


  C     0.00000000 +0    0.0000000 +0    0.0000000 +0     0     0     0
  H     1.10953404 +1    0.0000000 +0    0.0000000 +0     1     0     0
  H     1.10955161 +1  108.5446050 +1    0.0000000 +0     1     2     0
  H     1.11543654 +1  107.0380890 +1 -115.4973549 +1     1     2     3
  N     1.45445211 +1  111.5764292 +1  123.8966913 +1     1     2     3
  O     1.22019434 +1  119.2535197 +1 -151.1007715 +1     5     1     2
  O     1.22394373 +1  119.0600771 +1   29.7490494 +1     5     1     2
  H     2.41119193 +1  175.3004436 +1 -154.7281074 +1     4     1     2
  O     0.96584623 +1   62.8255889 +1  -79.7747652 +1     8     4     1
  H     0.96646141 +1  103.9254248 +1  -92.6742146 +1     9     8     4

 TIME=     0.07
  REACTANTS AND PRODUCTS SWAPPED AROUND
 *+*+*+*+*+*+*+*+*+*+*+*+*+*+*+*+*+*+*+*+*+*+*+*+*+*+*+*+*+*+*+*+*+*+*+*+*+*+*+*+
            BAR SHORTENED BY       1.000 PERCENT
 GRADIENT CRITERION IN FLEPO =     3.347


          FOR POINT   15 FIRST  STRUCTURE
 DISTANCE A - B      2.688611
 HEAT              -91.863730
 GRADIENT NORM       5.672309
 DIRECTION COSINE   -0.114206
* ===============================
* Input file for Mopac
* ===============================
 PM7 BONDS AUX DUMP=30M ITRY=15000 T=14D CHARGE=0 SINGLET eps=78.0 RELSCF=1


  C     0.00000000 +0    0.0000000 +0    0.0000000 +0     0     0     0
  H     1.10850362 +1    0.0000000 +0    0.0000000 +0     1     0     0
  H     1.11545197 +1  107.4559816 +1    0.0000000 +0     1     2     0
  H     1.11229903 +1  108.1638797 +1 -115.6824382 +1     1     2     3
  N     1.45494096 +1  111.2848881 +1  120.9648611 +1     1     2     3
  O     1.22182868 +1  119.6520669 +1  153.3208658 +1     5     1     2
  O     1.22163467 +1  118.6779404 +1  -26.9859082 +1     5     1     2
  H     3.13113070 +1   99.8653828 +1   44.0794280 +1     4     1     2
  O     0.96291027 +1   26.3152396 +1   95.0375623 +1     8     4     1
  H     0.96420354 +1  104.0092377 +1 -141.4256433 +1     9     8     4

 TIME=     0.05
  REACTANTS AND PRODUCTS SWAPPED AROUND
 *+*+*+*+*+*+*+*+*+*+*+*+*+*+*+*+*+*+*+*+*+*+*+*+*+*+*+*+*+*+*+*+*+*+*+*+*+*+*+*+
            BAR SHORTENED BY       1.000 PERCENT
 GRADIENT CRITERION IN FLEPO =     2.672


          FOR POINT   16 SECOND STRUCTURE
 DISTANCE A - B      2.661725
 HEAT              -91.881209
 GRADIENT NORM       4.774820
 DIRECTION COSINE   -0.297090
* ===============================
* Input file for Mopac
* ===============================
 PM7 BONDS AUX DUMP=30M ITRY=15000 T=14D CHARGE=0 SINGLET eps=78.0 RELSCF=1


  C     0.00000000 +0    0.0000000 +0    0.0000000 +0     0     0     0
  H     1.10851995 +1    0.0000000 +0    0.0000000 +0     1     0     0
  H     1.10832607 +1  108.8395409 +1    0.0000000 +0     1     2     0
  H     1.12158243 +1  107.1056979 +1 -115.5829571 +1     1     2     3
  N     1.45452513 +1  111.4710815 +1  124.1418727 +1     1     2     3
  O     1.22199000 +1  119.3326880 +1 -151.6858758 +1     5     1     2
  O     1.22309656 +1  119.0346409 +1   28.9761946 +1     5     1     2
  H     2.40250098 +1  176.4538900 +1 -155.8811654 +1     4     1     2
  O     0.96575434 +1   62.4870086 +1  -78.2427937 +1     8     4     1
  H     0.96709944 +1  103.9757610 +1  -93.1960497 +1     9     8     4

 TIME=     0.02
  REACTANTS AND PRODUCTS SWAPPED AROUND
 *+*+*+*+*+*+*+*+*+*+*+*+*+*+*+*+*+*+*+*+*+*+*+*+*+*+*+*+*+*+*+*+*+*+*+*+*+*+*+*+
            BAR SHORTENED BY       1.000 PERCENT
 GRADIENT CRITERION IN FLEPO =     1.775


          FOR POINT   17 FIRST  STRUCTURE
 DISTANCE A - B      2.635108
 HEAT              -91.866115
 GRADIENT NORM       3.864683
 DIRECTION COSINE    0.095801
* ===============================
* Input file for Mopac
* ===============================
 PM7 BONDS AUX DUMP=30M ITRY=15000 T=14D CHARGE=0 SINGLET eps=78.0 RELSCF=1


  C     0.00000000 +0    0.0000000 +0    0.0000000 +0     0     0     0
  H     1.11173660 +1    0.0000000 +0    0.0000000 +0     1     0     0
  H     1.11317890 +1  107.5545092 +1    0.0000000 +0     1     2     0
  H     1.10867366 +1  108.0691972 +1 -115.6089032 +1     1     2     3
  N     1.45668282 +1  111.4681176 +1  120.9382560 +1     1     2     3
  O     1.22257150 +1  119.7733067 +1  153.8489300 +1     5     1     2
  O     1.22230922 +1  118.5756665 +1  -26.4454900 +1     5     1     2
  H     3.11141458 +1  100.5734754 +1   43.5305748 +1     4     1     2
  O     0.96380073 +1   26.8271919 +1   95.4566012 +1     8     4     1
  H     0.96412647 +1  104.0407183 +1 -140.5687466 +1     9     8     4

 TIME=     0.05
  REACTANTS AND PRODUCTS SWAPPED AROUND
 *+*+*+*+*+*+*+*+*+*+*+*+*+*+*+*+*+*+*+*+*+*+*+*+*+*+*+*+*+*+*+*+*+*+*+*+*+*+*+*+
            BAR SHORTENED BY       1.000 PERCENT
 GRADIENT CRITERION IN FLEPO =     1.775
           THERE HAVE BEEN 3 ATTEMPTS TO REDUCE THE GRADIENT.
           DURING THESE ATTEMPTS THE ENERGY DROPPED BY LESS THAN 0.3 KCAL/MOLE
           FURTHER CALCULATION IS NOT JUSTIFIED AT THIS TIME.
           TO CONTINUE, START AGAIN WITH THE WORD "PRECISE"


          FOR POINT   18 SECOND STRUCTURE
 DISTANCE A - B      2.608757
 HEAT              -91.945125
 GRADIENT NORM       4.773180
 DIRECTION COSINE   -0.520960
* ===============================
* Input file for Mopac
* ===============================
 PM7 BONDS AUX DUMP=30M ITRY=15000 T=14D CHARGE=0 SINGLET eps=78.0 RELSCF=1


  C     0.00000000 +0    0.0000000 +0    0.0000000 +0     0     0     0
  H     1.10969447 +1    0.0000000 +0    0.0000000 +0     1     0     0
  H     1.10963371 +1  108.7932348 +1    0.0000000 +0     1     2     0
  H     1.11709190 +1  107.1434767 +1 -115.6791361 +1     1     2     3
  N     1.45544769 +1  111.3084492 +1  123.8552017 +1     1     2     3
  O     1.22100243 +1  119.3891215 +1 -152.4362053 +1     5     1     2
  O     1.22229016 +1  118.8207991 +1   28.8255403 +1     5     1     2
  H     2.40315345 +1  177.4226981 +1 -156.0537743 +1     4     1     2
  O     0.96606281 +1   62.1533775 +1  -77.8415659 +1     8     4     1
  H     0.96557003 +1  103.9758343 +1  -93.6930221 +1     9     8     4

 TIME=     0.09
  REACTANTS AND PRODUCTS SWAPPED AROUND
 *+*+*+*+*+*+*+*+*+*+*+*+*+*+*+*+*+*+*+*+*+*+*+*+*+*+*+*+*+*+*+*+*+*+*+*+*+*+*+*+
            BAR SHORTENED BY       1.000 PERCENT
 GRADIENT CRITERION IN FLEPO =     1.773


          FOR POINT   19 FIRST  STRUCTURE
 DISTANCE A - B      2.582669
 HEAT              -91.852562
 GRADIENT NORM       2.741709
 DIRECTION COSINE   -0.349736
* ===============================
* Input file for Mopac
* ===============================
 PM7 BONDS AUX DUMP=30M ITRY=15000 T=14D CHARGE=0 SINGLET eps=78.0 RELSCF=1


  C     0.00000000 +0    0.0000000 +0    0.0000000 +0     0     0     0
  H     1.10866698 +1    0.0000000 +0    0.0000000 +0     1     0     0
  H     1.11279694 +1  107.2400895 +1    0.0000000 +0     1     2     0
  H     1.11034615 +1  108.1322888 +1 -115.7560437 +1     1     2     3
  N     1.45618374 +1  111.3327857 +1  120.9557987 +1     1     2     3
  O     1.22246610 +1  119.4641787 +1  154.5391250 +1     5     1     2
  O     1.22336751 +1  118.7643516 +1  -25.8091312 +1     5     1     2
  H     3.09811722 +1  100.9508579 +1   43.0642881 +1     4     1     2
  O     0.96404400 +1   27.2921126 +1   95.3111922 +1     8     4     1
  H     0.96467256 +1  104.1187815 +1 -140.1185870 +1     9     8     4

 TIME=     0.05
  REACTANTS AND PRODUCTS SWAPPED AROUND
 *+*+*+*+*+*+*+*+*+*+*+*+*+*+*+*+*+*+*+*+*+*+*+*+*+*+*+*+*+*+*+*+*+*+*+*+*+*+*+*+
            BAR SHORTENED BY       1.000 PERCENT
 GRADIENT CRITERION IN FLEPO =     1.773
 

                    SINCE COS WAS JUST RESET,THE SEARCH IS BEING ENDED


          FOR POINT   20 SECOND STRUCTURE
 DISTANCE A - B      2.556842
 HEAT              -91.910688
 GRADIENT NORM      10.252568
 DIRECTION COSINE   -0.058750
* ===============================
* Input file for Mopac
* ===============================
 PM7 BONDS AUX DUMP=30M ITRY=15000 T=14D CHARGE=0 SINGLET eps=78.0 RELSCF=1


  C     0.00000000 +0    0.0000000 +0    0.0000000 +0     0     0     0
  H     1.10711924 +1    0.0000000 +0    0.0000000 +0     1     0     0
  H     1.10841575 +1  108.8565376 +1    0.0000000 +0     1     2     0
  H     1.11405903 +1  107.1824988 +1 -115.5731146 +1     1     2     3
  N     1.45260567 +1  111.1610861 +1  123.9454398 +1     1     2     3
  O     1.22072083 +1  119.4712296 +1 -152.8995470 +1     5     1     2
  O     1.21935997 +1  118.6880390 +1   28.3478308 +1     5     1     2
  H     2.40282229 +1  178.2745979 +1 -156.9141561 +1     4     1     2
  O     0.96357168 +1   61.9039793 +1  -76.7230305 +1     8     4     1
  H     0.96372658 +1  103.9997624 +1  -94.0925130 +1     9     8     4

 TIME=     0.05
  REACTANTS AND PRODUCTS SWAPPED AROUND
 *+*+*+*+*+*+*+*+*+*+*+*+*+*+*+*+*+*+*+*+*+*+*+*+*+*+*+*+*+*+*+*+*+*+*+*+*+*+*+*+
            BAR SHORTENED BY       1.000 PERCENT
 GRADIENT CRITERION IN FLEPO =     7.253


          FOR POINT   21 FIRST  STRUCTURE
 DISTANCE A - B      2.531274
 HEAT              -91.838609
 GRADIENT NORM       4.559858
 DIRECTION COSINE    0.136892
* ===============================
* Input file for Mopac
* ===============================
 PM7 BONDS AUX DUMP=30M ITRY=15000 T=14D CHARGE=0 SINGLET eps=78.0 RELSCF=1


  C     0.00000000 +0    0.0000000 +0    0.0000000 +0     0     0     0
  H     1.11310550 +1    0.0000000 +0    0.0000000 +0     1     0     0
  H     1.11305015 +1  107.3657781 +1    0.0000000 +0     1     2     0
  H     1.10950255 +1  108.3561168 +1 -115.7427755 +1     1     2     3
  N     1.45506569 +1  111.2165803 +1  120.9634506 +1     1     2     3
  O     1.22382578 +1  119.5517152 +1  155.0530952 +1     5     1     2
  O     1.22299972 +1  118.7059811 +1  -25.2336030 +1     5     1     2
  H     3.08354562 +1  101.5127527 +1   42.7783520 +1     4     1     2
  O     0.96302070 +1   27.7985171 +1   95.2905327 +1     8     4     1
  H     0.96529681 +1  104.4087666 +1 -139.8378931 +1     9     8     4

 TIME=     0.02
  REACTANTS AND PRODUCTS SWAPPED AROUND
 *+*+*+*+*+*+*+*+*+*+*+*+*+*+*+*+*+*+*+*+*+*+*+*+*+*+*+*+*+*+*+*+*+*+*+*+*+*+*+*+
            BAR SHORTENED BY       1.000 PERCENT
 GRADIENT CRITERION IN FLEPO =     1.560


          FOR POINT   22 SECOND STRUCTURE
 DISTANCE A - B      2.505961
 HEAT              -91.927968
 GRADIENT NORM       3.119243
 DIRECTION COSINE   -0.015669
* ===============================
* Input file for Mopac
* ===============================
 PM7 BONDS AUX DUMP=30M ITRY=15000 T=14D CHARGE=0 SINGLET eps=78.0 RELSCF=1


  C     0.00000000 +0    0.0000000 +0    0.0000000 +0     0     0     0
  H     1.10983494 +1    0.0000000 +0    0.0000000 +0     1     0     0
  H     1.10942383 +1  108.8817180 +1    0.0000000 +0     1     2     0
  H     1.11718498 +1  107.2596188 +1 -115.7527402 +1     1     2     3
  N     1.45538313 +1  111.1798137 +1  124.0198775 +1     1     2     3
  O     1.22174307 +1  119.6148007 +1 -153.3295300 +1     5     1     2
  O     1.22290285 +1  118.7156904 +1   27.6139523 +1     5     1     2
  H     2.39627785 +1  179.4434110 +1 -174.3485761 +1     4     1     2
  O     0.96580200 +1   61.5094316 +1  -83.3686046 +1     8     4     6
  H     0.96553026 +1  103.9200625 +1  -94.6199154 +1     9     8     4

 TIME=     0.04
  REACTANTS AND PRODUCTS SWAPPED AROUND
 *+*+*+*+*+*+*+*+*+*+*+*+*+*+*+*+*+*+*+*+*+*+*+*+*+*+*+*+*+*+*+*+*+*+*+*+*+*+*+*+
            BAR SHORTENED BY       1.000 PERCENT
 GRADIENT CRITERION IN FLEPO =     1.560
           THERE HAVE BEEN 3 ATTEMPTS TO REDUCE THE GRADIENT.
           DURING THESE ATTEMPTS THE ENERGY DROPPED BY LESS THAN 0.3 KCAL/MOLE
           FURTHER CALCULATION IS NOT JUSTIFIED AT THIS TIME.
           TO CONTINUE, START AGAIN WITH THE WORD "PRECISE"


          FOR POINT   23 FIRST  STRUCTURE
 DISTANCE A - B      2.480902
 HEAT              -91.925446
 GRADIENT NORM       4.386350
 DIRECTION COSINE   -0.169957
* ===============================
* Input file for Mopac
* ===============================
 PM7 BONDS AUX DUMP=30M ITRY=15000 T=14D CHARGE=0 SINGLET eps=78.0 RELSCF=1


  C     0.00000000 +0    0.0000000 +0    0.0000000 +0     0     0     0
  H     1.10884988 +1    0.0000000 +0    0.0000000 +0     1     0     0
  H     1.11225246 +1  107.3945947 +1    0.0000000 +0     1     2     0
  H     1.11288987 +1  108.4879239 +1 -115.3538537 +1     1     2     3
  N     1.45658799 +1  111.6114277 +1  121.2048143 +1     1     2     3
  O     1.22358265 +1  119.3715257 +1  155.7369593 +1     5     1     2
  O     1.22166536 +1  118.9719977 +1  -24.4145678 +1     5     1     2
  H     3.07038576 +1  101.8105242 +1   42.0894364 +1     4     1     2
  O     0.96310083 +1   28.3789300 +1   96.2054765 +1     8     4     1
  H     0.96238687 +1  104.1144093 +1 -138.3899452 +1     9     8     4

 TIME=     0.09
  REACTANTS AND PRODUCTS SWAPPED AROUND
 *+*+*+*+*+*+*+*+*+*+*+*+*+*+*+*+*+*+*+*+*+*+*+*+*+*+*+*+*+*+*+*+*+*+*+*+*+*+*+*+
            BAR SHORTENED BY       1.000 PERCENT
 GRADIENT CRITERION IN FLEPO =     1.386
           THERE HAVE BEEN 3 ATTEMPTS TO REDUCE THE GRADIENT.
           DURING THESE ATTEMPTS THE ENERGY DROPPED BY LESS THAN 0.3 KCAL/MOLE
           FURTHER CALCULATION IS NOT JUSTIFIED AT THIS TIME.
           TO CONTINUE, START AGAIN WITH THE WORD "PRECISE"


          FOR POINT   24 SECOND STRUCTURE
 DISTANCE A - B      2.456093
 HEAT              -91.862173
 GRADIENT NORM       4.293468
 DIRECTION COSINE   -0.286331
* ===============================
* Input file for Mopac
* ===============================
 PM7 BONDS AUX DUMP=30M ITRY=15000 T=14D CHARGE=0 SINGLET eps=78.0 RELSCF=1


  C     0.00000000 +0    0.0000000 +0    0.0000000 +0     0     0     0
  H     1.11183830 +1    0.0000000 +0    0.0000000 +0     1     0     0
  H     1.10632146 +1  108.4677279 +1    0.0000000 +0     1     2     0
  H     1.11581569 +1  107.1496399 +1 -115.4861012 +1     1     2     3
  N     1.45578036 +1  111.6794623 +1  124.0977846 +1     1     2     3
  O     1.22216328 +1  119.5036372 +1 -153.6135700 +1     5     1     2
  O     1.22180649 +1  118.8411384 +1   27.2560774 +1     5     1     2
  H     2.39608269 +1  179.3856421 +1   50.5745793 +1     4     1     2
  O     0.96618368 +1   61.1397897 +1   75.9163744 +1     8     4     1
  H     0.96443209 +1  103.9067153 +1  -95.3625744 +1     9     8     4

 TIME=     0.05
  REACTANTS AND PRODUCTS SWAPPED AROUND
 *+*+*+*+*+*+*+*+*+*+*+*+*+*+*+*+*+*+*+*+*+*+*+*+*+*+*+*+*+*+*+*+*+*+*+*+*+*+*+*+
            BAR SHORTENED BY       1.000 PERCENT
 GRADIENT CRITERION IN FLEPO =     1.293
           THERE HAVE BEEN 3 ATTEMPTS TO REDUCE THE GRADIENT.
           DURING THESE ATTEMPTS THE ENERGY DROPPED BY LESS THAN 0.3 KCAL/MOLE
           FURTHER CALCULATION IS NOT JUSTIFIED AT THIS TIME.
           TO CONTINUE, START AGAIN WITH THE WORD "PRECISE"


          FOR POINT   25 FIRST  STRUCTURE
 DISTANCE A - B      2.431532
 HEAT              -91.909550
 GRADIENT NORM       3.550111
 DIRECTION COSINE   -0.296134
* ===============================
* Input file for Mopac
* ===============================
 PM7 BONDS AUX DUMP=30M ITRY=15000 T=14D CHARGE=0 SINGLET eps=78.0 RELSCF=1


  C     0.00000000 +0    0.0000000 +0    0.0000000 +0     0     0     0
  H     1.11035450 +1    0.0000000 +0    0.0000000 +0     1     0     0
  H     1.11239042 +1  107.5428826 +1    0.0000000 +0     1     2     0
  H     1.11121388 +1  108.4213168 +1 -115.3800863 +1     1     2     3
  N     1.45562768 +1  111.5574903 +1  121.3224760 +1     1     2     3
  O     1.22225182 +1  119.4342491 +1  156.2947023 +1     5     1     2
  O     1.22375247 +1  118.8510545 +1  -24.1800233 +1     5     1     2
  H     3.05634917 +1  102.4406950 +1   41.8374322 +1     4     1     2
  O     0.96487819 +1   28.7387833 +1   96.5726489 +1     8     4     1
  H     0.96450957 +1  104.0938370 +1 -137.6280957 +1     9     8     4

 TIME=     0.05
  REACTANTS AND PRODUCTS SWAPPED AROUND
 *+*+*+*+*+*+*+*+*+*+*+*+*+*+*+*+*+*+*+*+*+*+*+*+*+*+*+*+*+*+*+*+*+*+*+*+*+*+*+*+
            BAR SHORTENED BY       1.000 PERCENT
 GRADIENT CRITERION IN FLEPO =     1.293


          FOR POINT   26 SECOND STRUCTURE
 DISTANCE A - B      2.407216
 HEAT              -91.867379
 GRADIENT NORM       2.597912
 DIRECTION COSINE   -0.009239
* ===============================
* Input file for Mopac
* ===============================
 PM7 BONDS AUX DUMP=30M ITRY=15000 T=14D CHARGE=0 SINGLET eps=78.0 RELSCF=1


  C     0.00000000 +0    0.0000000 +0    0.0000000 +0     0     0     0
  H     1.11006228 +1    0.0000000 +0    0.0000000 +0     1     0     0
  H     1.10841214 +1  108.5100282 +1    0.0000000 +0     1     2     0
  H     1.11726448 +1  107.1592973 +1 -115.6689172 +1     1     2     3
  N     1.45504602 +1  111.6284189 +1  123.8957842 +1     1     2     3
  O     1.22318374 +1  119.3834002 +1 -154.0028356 +1     5     1     2
  O     1.22194007 +1  118.8843903 +1   26.7272634 +1     5     1     2
  H     2.39312655 +1  178.4726614 +1   34.0952360 +1     4     1     2
  O     0.96591314 +1   60.8126539 +1   92.7830640 +1     8     4     1
  H     0.96487634 +1  103.8615219 +1  -95.7790594 +1     9     8     4

 TIME=     0.03
  REACTANTS AND PRODUCTS SWAPPED AROUND
 *+*+*+*+*+*+*+*+*+*+*+*+*+*+*+*+*+*+*+*+*+*+*+*+*+*+*+*+*+*+*+*+*+*+*+*+*+*+*+*+
            BAR SHORTENED BY       1.000 PERCENT
 GRADIENT CRITERION IN FLEPO =     1.293
 

                    SINCE COS WAS JUST RESET,THE SEARCH IS BEING ENDED


          FOR POINT   27 FIRST  STRUCTURE
 DISTANCE A - B      2.383144
 HEAT              -91.839678
 GRADIENT NORM       6.280177
 DIRECTION COSINE   -0.353461
* ===============================
* Input file for Mopac
* ===============================
 PM7 BONDS AUX DUMP=30M ITRY=15000 T=14D CHARGE=0 SINGLET eps=78.0 RELSCF=1


  C     0.00000000 +0    0.0000000 +0    0.0000000 +0     0     0     0
  H     1.10836136 +1    0.0000000 +0    0.0000000 +0     1     0     0
  H     1.11158559 +1  107.6018732 +1    0.0000000 +0     1     2     0
  H     1.10899976 +1  108.4284685 +1 -115.3059863 +1     1     2     3
  N     1.45336310 +1  111.4498529 +1  121.4343300 +1     1     2     3
  O     1.22206589 +1  119.5015731 +1  156.7242027 +1     5     1     2
  O     1.22132190 +1  118.7574929 +1  -23.7221212 +1     5     1     2
  H     3.04511974 +1  103.0339379 +1   41.6900225 +1     4     1     2
  O     0.96540473 +1   29.2859117 +1   97.0813952 +1     8     4     1
  H     0.96143898 +1  104.0615746 +1 -136.5088908 +1     9     8     4

 TIME=     0.12
  REACTANTS AND PRODUCTS SWAPPED AROUND
 *+*+*+*+*+*+*+*+*+*+*+*+*+*+*+*+*+*+*+*+*+*+*+*+*+*+*+*+*+*+*+*+*+*+*+*+*+*+*+*+
            BAR SHORTENED BY       1.000 PERCENT
 GRADIENT CRITERION IN FLEPO =     3.280
 

                    SINCE COS WAS JUST RESET,THE SEARCH IS BEING ENDED


          FOR POINT   28 SECOND STRUCTURE
 DISTANCE A - B      2.359313
 HEAT              -91.839617
 GRADIENT NORM       6.207029
 DIRECTION COSINE    0.140684
* ===============================
* Input file for Mopac
* ===============================
 PM7 BONDS AUX DUMP=30M ITRY=15000 T=14D CHARGE=0 SINGLET eps=78.0 RELSCF=1


  C     0.00000000 +0    0.0000000 +0    0.0000000 +0     0     0     0
  H     1.10788706 +1    0.0000000 +0    0.0000000 +0     1     0     0
  H     1.10741315 +1  108.5653079 +1    0.0000000 +0     1     2     0
  H     1.11544653 +1  107.3079917 +1 -115.7487973 +1     1     2     3
  N     1.45463557 +1  111.4653648 +1  123.8294791 +1     1     2     3
  O     1.22149848 +1  119.4071936 +1 -154.6350813 +1     5     1     2
  O     1.22456021 +1  118.8304301 +1   26.5048991 +1     5     1     2
  H     2.39288557 +1  177.4920137 +1   31.3172009 +1     4     1     2
  O     0.96918583 +1   60.4447817 +1   95.9427422 +1     8     4     1
  H     0.96733504 +1  103.7848402 +1  -96.0879118 +1     9     8     4

 TIME=     0.04
  REACTANTS AND PRODUCTS SWAPPED AROUND
 *+*+*+*+*+*+*+*+*+*+*+*+*+*+*+*+*+*+*+*+*+*+*+*+*+*+*+*+*+*+*+*+*+*+*+*+*+*+*+*+
            BAR SHORTENED BY       1.000 PERCENT
 GRADIENT CRITERION IN FLEPO =     3.207
           THERE HAVE BEEN 3 ATTEMPTS TO REDUCE THE GRADIENT.
           DURING THESE ATTEMPTS THE ENERGY DROPPED BY LESS THAN 0.3 KCAL/MOLE
           FURTHER CALCULATION IS NOT JUSTIFIED AT THIS TIME.
           TO CONTINUE, START AGAIN WITH THE WORD "PRECISE"


          FOR POINT   29 FIRST  STRUCTURE
 DISTANCE A - B      2.335720
 HEAT              -91.870156
 GRADIENT NORM       8.022237
 DIRECTION COSINE    0.171420
* ===============================
* Input file for Mopac
* ===============================
 PM7 BONDS AUX DUMP=30M ITRY=15000 T=14D CHARGE=0 SINGLET eps=78.0 RELSCF=1


  C     0.00000000 +0    0.0000000 +0    0.0000000 +0     0     0     0
  H     1.10941681 +1    0.0000000 +0    0.0000000 +0     1     0     0
  H     1.11171048 +1  107.8210714 +1    0.0000000 +0     1     2     0
  H     1.11031006 +1  108.5419297 +1 -115.7256164 +1     1     2     3
  N     1.45173922 +1  111.2424982 +1  121.3243452 +1     1     2     3
  O     1.22528043 +1  119.7272573 +1  157.1115980 +1     5     1     2
  O     1.22302909 +1  118.8546455 +1  -23.0846215 +1     5     1     2
  H     3.03443381 +1  103.3890067 +1   41.7075649 +1     4     1     2
  O     0.96156960 +1   29.8429851 +1   97.5258258 +1     8     4     1
  H     0.96563674 +1  104.4083004 +1 -135.2579146 +1     9     8     4

 *+*+*+*+*+*+*+*+*+*+*+*+*+*+*+*+*+*+*+*+*+*+*+*+*+*+*+*+*+*+*+*+*+*+*+*+*+*+*+*+
            BAR SHORTENED BY       1.000 PERCENT
 GRADIENT CRITERION IN FLEPO =     5.022


          FOR POINT   30 FIRST  STRUCTURE
 DISTANCE A - B      2.312362
 HEAT              -91.761918
 GRADIENT NORM       6.114608
 DIRECTION COSINE    0.156036
* ===============================
* Input file for Mopac
* ===============================
 PM7 BONDS AUX DUMP=30M ITRY=15000 T=14D CHARGE=0 SINGLET eps=78.0 RELSCF=1


  C     0.00000000 +0    0.0000000 +0    0.0000000 +0     0     0     0
  H     1.11043453 +1    0.0000000 +0    0.0000000 +0     1     0     0
  H     1.11396198 +1  107.7738152 +1    0.0000000 +0     1     2     0
  H     1.11066046 +1  108.5752420 +1 -115.6914422 +1     1     2     3
  N     1.45399908 +1  111.2609897 +1  121.2947847 +1     1     2     3
  O     1.22239410 +1  119.6974688 +1  157.5021772 +1     5     1     2
  O     1.22167607 +1  119.1024782 +1  -22.1123768 +1     5     1     2
  H     3.02370028 +1  103.8276804 +1   41.3979423 +1     4     1     2
  O     0.96417417 +1   30.1867194 +1   97.6637998 +1     8     4     1
  H     0.96267054 +1  103.9945965 +1 -134.8315811 +1     9     8     4

 TIME=     0.10
  REACTANTS AND PRODUCTS SWAPPED AROUND
 *+*+*+*+*+*+*+*+*+*+*+*+*+*+*+*+*+*+*+*+*+*+*+*+*+*+*+*+*+*+*+*+*+*+*+*+*+*+*+*+
            BAR SHORTENED BY       1.000 PERCENT
 GRADIENT CRITERION IN FLEPO =     3.115


          FOR POINT   31 SECOND STRUCTURE
 DISTANCE A - B      2.289239
 HEAT              -91.866181
 GRADIENT NORM       3.463712
 DIRECTION COSINE   -0.087738
* ===============================
* Input file for Mopac
* ===============================
 PM7 BONDS AUX DUMP=30M ITRY=15000 T=14D CHARGE=0 SINGLET eps=78.0 RELSCF=1


  C     0.00000000 +0    0.0000000 +0    0.0000000 +0     0     0     0
  H     1.10900775 +1    0.0000000 +0    0.0000000 +0     1     0     0
  H     1.10688916 +1  108.6622112 +1    0.0000000 +0     1     2     0
  H     1.11747163 +1  107.0799244 +1 -115.5183256 +1     1     2     3
  N     1.45392203 +1  111.6289927 +1  124.1153608 +1     1     2     3
  O     1.22381793 +1  119.2774229 +1 -155.1838636 +1     5     1     2
  O     1.22201212 +1  119.1012217 +1   25.6801505 +1     5     1     2
  H     2.39549649 +1  176.6019064 +1   28.2729960 +1     4     1     2
  O     0.96545990 +1   60.0497253 +1   99.1459592 +1     8     4     1
  H     0.96608937 +1  103.9698319 +1  -96.6477590 +1     9     8     4

 TIME=     0.05
  REACTANTS AND PRODUCTS SWAPPED AROUND
 *+*+*+*+*+*+*+*+*+*+*+*+*+*+*+*+*+*+*+*+*+*+*+*+*+*+*+*+*+*+*+*+*+*+*+*+*+*+*+*+
            BAR SHORTENED BY       1.000 PERCENT
 GRADIENT CRITERION IN FLEPO =     3.115


          FOR POINT   32 FIRST  STRUCTURE
 DISTANCE A - B      2.266346
 HEAT              -91.821057
 GRADIENT NORM       4.600834
 DIRECTION COSINE   -0.166820
* ===============================
* Input file for Mopac
* ===============================
 PM7 BONDS AUX DUMP=30M ITRY=15000 T=14D CHARGE=0 SINGLET eps=78.0 RELSCF=1


  C     0.00000000 +0    0.0000000 +0    0.0000000 +0     0     0     0
  H     1.10677890 +1    0.0000000 +0    0.0000000 +0     1     0     0
  H     1.11236106 +1  107.7300011 +1    0.0000000 +0     1     2     0
  H     1.11080458 +1  108.4896609 +1 -115.6923293 +1     1     2     3
  N     1.45602268 +1  111.3117119 +1  121.5273298 +1     1     2     3
  O     1.22365575 +1  119.6279480 +1  157.8584901 +1     5     1     2
  O     1.22334245 +1  118.8228019 +1  -21.7936810 +1     5     1     2
  H     3.01208648 +1  104.3393461 +1   41.1428588 +1     4     1     2
  O     0.96397468 +1   30.6791914 +1   97.9578195 +1     8     4     1
  H     0.96544185 +1  104.1603206 +1 -133.8736492 +1     9     8     4

 TIME=     0.03
  REACTANTS AND PRODUCTS SWAPPED AROUND
 *+*+*+*+*+*+*+*+*+*+*+*+*+*+*+*+*+*+*+*+*+*+*+*+*+*+*+*+*+*+*+*+*+*+*+*+*+*+*+*+
            BAR SHORTENED BY       1.000 PERCENT
 GRADIENT CRITERION IN FLEPO =     1.601


          FOR POINT   33 SECOND STRUCTURE
 DISTANCE A - B      2.243683
 HEAT              -91.871533
 GRADIENT NORM       2.384100
 DIRECTION COSINE   -0.271708
* ===============================
* Input file for Mopac
* ===============================
 PM7 BONDS AUX DUMP=30M ITRY=15000 T=14D CHARGE=0 SINGLET eps=78.0 RELSCF=1


  C     0.00000000 +0    0.0000000 +0    0.0000000 +0     0     0     0
  H     1.10853900 +1    0.0000000 +0    0.0000000 +0     1     0     0
  H     1.10838578 +1  108.5873575 +1    0.0000000 +0     1     2     0
  H     1.11748675 +1  107.1143113 +1 -115.4479683 +1     1     2     3
  N     1.45415396 +1  111.7559890 +1  124.0701810 +1     1     2     3
  O     1.22267956 +1  119.2245277 +1 -155.6062622 +1     5     1     2
  O     1.22320162 +1  119.0504134 +1   25.1816003 +1     5     1     2
  H     2.39434023 +1  175.6616622 +1   27.5213378 +1     4     1     2
  O     0.96525359 +1   59.8132331 +1  100.1608535 +1     8     4     1
  H     0.96581072 +1  103.8605798 +1  -97.1322045 +1     9     8     4

 TIME=     0.06
  REACTANTS AND PRODUCTS SWAPPED AROUND
 *+*+*+*+*+*+*+*+*+*+*+*+*+*+*+*+*+*+*+*+*+*+*+*+*+*+*+*+*+*+*+*+*+*+*+*+*+*+*+*+
            BAR SHORTENED BY       1.000 PERCENT
 GRADIENT CRITERION IN FLEPO =     1.601


          FOR POINT   34 FIRST  STRUCTURE
 DISTANCE A - B      2.221246
 HEAT              -91.819675
 GRADIENT NORM       3.481471
 DIRECTION COSINE    0.101472
* ===============================
* Input file for Mopac
* ===============================
 PM7 BONDS AUX DUMP=30M ITRY=15000 T=14D CHARGE=0 SINGLET eps=78.0 RELSCF=1


  C     0.00000000 +0    0.0000000 +0    0.0000000 +0     0     0     0
  H     1.10950051 +1    0.0000000 +0    0.0000000 +0     1     0     0
  H     1.11196751 +1  107.5861441 +1    0.0000000 +0     1     2     0
  H     1.11143211 +1  108.4333266 +1 -115.5032162 +1     1     2     3
  N     1.45640392 +1  111.3673966 +1  121.5682030 +1     1     2     3
  O     1.22349650 +1  119.3485082 +1  158.4599946 +1     5     1     2
  O     1.22204117 +1  118.9110344 +1  -21.1858010 +1     5     1     2
  H     3.00096898 +1  104.8778124 +1   40.6944093 +1     4     1     2
  O     0.96324726 +1   31.4566579 +1   98.7386919 +1     8     4     1
  H     0.96347793 +1  104.1235910 +1 -132.1912093 +1     9     8     4

 TIME=     0.04
  REACTANTS AND PRODUCTS SWAPPED AROUND
 *+*+*+*+*+*+*+*+*+*+*+*+*+*+*+*+*+*+*+*+*+*+*+*+*+*+*+*+*+*+*+*+*+*+*+*+*+*+*+*+
            BAR SHORTENED BY       1.000 PERCENT
 GRADIENT CRITERION IN FLEPO =     1.601


          FOR POINT   35 SECOND STRUCTURE
 DISTANCE A - B      2.199034
 HEAT              -91.836597
 GRADIENT NORM       2.976867
 DIRECTION COSINE   -0.096580
* ===============================
* Input file for Mopac
* ===============================
 PM7 BONDS AUX DUMP=30M ITRY=15000 T=14D CHARGE=0 SINGLET eps=78.0 RELSCF=1


  C     0.00000000 +0    0.0000000 +0    0.0000000 +0     0     0     0
  H     1.10878551 +1    0.0000000 +0    0.0000000 +0     1     0     0
  H     1.10858067 +1  108.6560017 +1    0.0000000 +0     1     2     0
  H     1.11761215 +1  107.1430682 +1 -115.4055725 +1     1     2     3
  N     1.45419771 +1  111.6703301 +1  124.1163640 +1     1     2     3
  O     1.22357606 +1  119.2981753 +1 -156.0762173 +1     5     1     2
  O     1.22286646 +1  118.9839085 +1   24.7432654 +1     5     1     2
  H     2.39351116 +1  174.8435231 +1   27.0799892 +1     4     1     2
  O     0.96609298 +1   59.5540335 +1  100.8035472 +1     8     4     1
  H     0.96780797 +1  103.9083712 +1  -97.4797627 +1     9     8     4

 TIME=     0.03
  REACTANTS AND PRODUCTS SWAPPED AROUND
 *+*+*+*+*+*+*+*+*+*+*+*+*+*+*+*+*+*+*+*+*+*+*+*+*+*+*+*+*+*+*+*+*+*+*+*+*+*+*+*+
            BAR SHORTENED BY       1.000 PERCENT
 GRADIENT CRITERION IN FLEPO =     1.601


          FOR POINT   36 FIRST  STRUCTURE
 DISTANCE A - B      2.177043
 HEAT              -91.836295
 GRADIENT NORM       3.602553
 DIRECTION COSINE   -0.520706
* ===============================
* Input file for Mopac
* ===============================
 PM7 BONDS AUX DUMP=30M ITRY=15000 T=14D CHARGE=0 SINGLET eps=78.0 RELSCF=1


  C     0.00000000 +0    0.0000000 +0    0.0000000 +0     0     0     0
  H     1.10830590 +1    0.0000000 +0    0.0000000 +0     1     0     0
  H     1.11268436 +1  107.5999407 +1    0.0000000 +0     1     2     0
  H     1.11173011 +1  107.9570605 +1 -115.3257932 +1     1     2     3
  N     1.45503937 +1  111.9448873 +1  121.8926262 +1     1     2     3
  O     1.22370116 +1  119.3684116 +1  158.8947632 +1     5     1     2
  O     1.22344515 +1  118.9154019 +1  -20.9545722 +1     5     1     2
  H     2.98981567 +1  105.3889087 +1   40.0522285 +1     4     1     2
  O     0.96428687 +1   31.9932448 +1   99.1880502 +1     8     4     1
  H     0.96512031 +1  104.2021761 +1 -131.1323704 +1     9     8     4

 TIME=     0.04
  REACTANTS AND PRODUCTS SWAPPED AROUND
 *+*+*+*+*+*+*+*+*+*+*+*+*+*+*+*+*+*+*+*+*+*+*+*+*+*+*+*+*+*+*+*+*+*+*+*+*+*+*+*+
            BAR SHORTENED BY       1.000 PERCENT
 GRADIENT CRITERION IN FLEPO =     1.601
 

                    SINCE COS WAS JUST RESET,THE SEARCH IS BEING ENDED


          FOR POINT   37 SECOND STRUCTURE
 DISTANCE A - B      2.155273
 HEAT              -91.934501
 GRADIENT NORM       5.509860
 DIRECTION COSINE   -0.230415
* ===============================
* Input file for Mopac
* ===============================
 PM7 BONDS AUX DUMP=30M ITRY=15000 T=14D CHARGE=0 SINGLET eps=78.0 RELSCF=1


  C     0.00000000 +0    0.0000000 +0    0.0000000 +0     0     0     0
  H     1.10967325 +1    0.0000000 +0    0.0000000 +0     1     0     0
  H     1.10924912 +1  108.7548095 +1    0.0000000 +0     1     2     0
  H     1.11678710 +1  107.2289512 +1 -115.6697887 +1     1     2     3
  N     1.45649130 +1  111.5392624 +1  123.9653377 +1     1     2     3
  O     1.22181410 +1  119.1804939 +1 -156.6067322 +1     5     1     2
  O     1.22411940 +1  118.8469003 +1   24.2714595 +1     5     1     2
  H     2.39331743 +1  173.8731260 +1   27.5149088 +1     4     1     2
  O     0.96619786 +1   59.4933848 +1  100.7141278 +1     8     4     1
  H     0.96319448 +1  104.1717438 +1  -97.7430573 +1     9     8     4

 TIME=     0.10
  REACTANTS AND PRODUCTS SWAPPED AROUND
 *+*+*+*+*+*+*+*+*+*+*+*+*+*+*+*+*+*+*+*+*+*+*+*+*+*+*+*+*+*+*+*+*+*+*+*+*+*+*+*+
            BAR SHORTENED BY       1.000 PERCENT
 GRADIENT CRITERION IN FLEPO =     2.510


          FOR POINT   38 FIRST  STRUCTURE
 DISTANCE A - B      2.133720
 HEAT              -91.827045
 GRADIENT NORM       3.612964
 DIRECTION COSINE    0.133674
* ===============================
* Input file for Mopac
* ===============================
 PM7 BONDS AUX DUMP=30M ITRY=15000 T=14D CHARGE=0 SINGLET eps=78.0 RELSCF=1


  C     0.00000000 +0    0.0000000 +0    0.0000000 +0     0     0     0
  H     1.10779935 +1    0.0000000 +0    0.0000000 +0     1     0     0
  H     1.11198554 +1  107.6423270 +1    0.0000000 +0     1     2     0
  H     1.11027159 +1  108.0188740 +1 -115.3377461 +1     1     2     3
  N     1.45384932 +1  111.8002772 +1  121.9043118 +1     1     2     3
  O     1.22318219 +1  119.3912285 +1  159.3466499 +1     5     1     2
  O     1.22208581 +1  118.8813452 +1  -20.5068044 +1     5     1     2
  H     2.97975850 +1  105.9190700 +1   39.9068998 +1     4     1     2
  O     0.96451221 +1   32.3814725 +1   99.4481787 +1     8     4     1
  H     0.96377410 +1  104.1566724 +1 -130.4892100 +1     9     8     4

 TIME=     0.03
  REACTANTS AND PRODUCTS SWAPPED AROUND
 *+*+*+*+*+*+*+*+*+*+*+*+*+*+*+*+*+*+*+*+*+*+*+*+*+*+*+*+*+*+*+*+*+*+*+*+*+*+*+*+
            BAR SHORTENED BY       1.000 PERCENT
 GRADIENT CRITERION IN FLEPO =     2.510


          FOR POINT   39 SECOND STRUCTURE
 DISTANCE A - B      2.112383
 HEAT              -91.913004
 GRADIENT NORM       4.722432
 DIRECTION COSINE   -0.306929
* ===============================
* Input file for Mopac
* ===============================
 PM7 BONDS AUX DUMP=30M ITRY=15000 T=14D CHARGE=0 SINGLET eps=78.0 RELSCF=1


  C     0.00000000 +0    0.0000000 +0    0.0000000 +0     0     0     0
  H     1.10791637 +1    0.0000000 +0    0.0000000 +0     1     0     0
  H     1.10845746 +1  108.7945087 +1    0.0000000 +0     1     2     0
  H     1.11490229 +1  107.2471919 +1 -115.5728467 +1     1     2     3
  N     1.45441113 +1  111.4547454 +1  124.0456048 +1     1     2     3
  O     1.22176385 +1  119.2412543 +1 -157.0152752 +1     5     1     2
  O     1.22224413 +1  118.7753781 +1   23.8447470 +1     5     1     2
  H     2.39443952 +1  173.1460805 +1   27.3841591 +1     4     1     2
  O     0.96513878 +1   59.2693892 +1  101.0543791 +1     8     4     1
  H     0.96268684 +1  104.1167693 +1  -98.0554981 +1     9     8     4

 TIME=     0.03
  REACTANTS AND PRODUCTS SWAPPED AROUND
 *+*+*+*+*+*+*+*+*+*+*+*+*+*+*+*+*+*+*+*+*+*+*+*+*+*+*+*+*+*+*+*+*+*+*+*+*+*+*+*+
            BAR SHORTENED BY       1.000 PERCENT
 GRADIENT CRITERION IN FLEPO =     1.722
           THERE HAVE BEEN 3 ATTEMPTS TO REDUCE THE GRADIENT.
           DURING THESE ATTEMPTS THE ENERGY DROPPED BY LESS THAN 0.3 KCAL/MOLE
           FURTHER CALCULATION IS NOT JUSTIFIED AT THIS TIME.
           TO CONTINUE, START AGAIN WITH THE WORD "PRECISE"


          FOR POINT   40 FIRST  STRUCTURE
 DISTANCE A - B      2.091259
 HEAT              -91.837624
 GRADIENT NORM       4.715758
 DIRECTION COSINE   -0.465431
* ===============================
* Input file for Mopac
* ===============================
 PM7 BONDS AUX DUMP=30M ITRY=15000 T=14D CHARGE=0 SINGLET eps=78.0 RELSCF=1


  C     0.00000000 +0    0.0000000 +0    0.0000000 +0     0     0     0
  H     1.10954566 +1    0.0000000 +0    0.0000000 +0     1     0     0
  H     1.11292246 +1  107.5386605 +1    0.0000000 +0     1     2     0
  H     1.11112262 +1  108.3196175 +1 -115.4431654 +1     1     2     3
  N     1.45678744 +1  111.7248606 +1  121.5829967 +1     1     2     3
  O     1.22241961 +1  119.2132642 +1  160.0417899 +1     5     1     2
  O     1.22135693 +1  119.0705826 +1  -19.6303970 +1     5     1     2
  H     2.96750832 +1  106.2122773 +1   39.5107907 +1     4     1     2
  O     0.96399402 +1   33.3763889 +1  100.6124914 +1     8     4     1
  H     0.96311794 +1  104.0624517 +1 -128.3447617 +1     9     8     4

 TIME=     0.05
  REACTANTS AND PRODUCTS SWAPPED AROUND
 *+*+*+*+*+*+*+*+*+*+*+*+*+*+*+*+*+*+*+*+*+*+*+*+*+*+*+*+*+*+*+*+*+*+*+*+*+*+*+*+
            BAR SHORTENED BY       1.000 PERCENT
 GRADIENT CRITERION IN FLEPO =     1.716
           THERE HAVE BEEN 3 ATTEMPTS TO REDUCE THE GRADIENT.
           DURING THESE ATTEMPTS THE ENERGY DROPPED BY LESS THAN 0.3 KCAL/MOLE
           FURTHER CALCULATION IS NOT JUSTIFIED AT THIS TIME.
           TO CONTINUE, START AGAIN WITH THE WORD "PRECISE"


          FOR POINT   41 SECOND STRUCTURE
 DISTANCE A - B      2.070347
 HEAT              -91.901486
 GRADIENT NORM       4.140637
 DIRECTION COSINE    0.222910
* ===============================
* Input file for Mopac
* ===============================
 PM7 BONDS AUX DUMP=30M ITRY=15000 T=14D CHARGE=0 SINGLET eps=78.0 RELSCF=1


  C     0.00000000 +0    0.0000000 +0    0.0000000 +0     0     0     0
  H     1.10789532 +1    0.0000000 +0    0.0000000 +0     1     0     0
  H     1.10546952 +1  108.7848439 +1    0.0000000 +0     1     2     0
  H     1.11809419 +1  107.2303722 +1 -115.5477703 +1     1     2     3
  N     1.45602008 +1  111.7113420 +1  124.0830222 +1     1     2     3
  O     1.22303867 +1  119.3094139 +1 -157.3817564 +1     5     1     2
  O     1.22320495 +1  118.9705949 +1   23.3585096 +1     5     1     2
  H     2.39388817 +1  172.0865102 +1   27.1682544 +1     4     1     2
  O     0.96500008 +1   59.0938568 +1  101.8882115 +1     8     4     1
  H     0.96629331 +1  103.7667368 +1  -98.1391994 +1     9     8     4

 *+*+*+*+*+*+*+*+*+*+*+*+*+*+*+*+*+*+*+*+*+*+*+*+*+*+*+*+*+*+*+*+*+*+*+*+*+*+*+*+
            BAR SHORTENED BY       1.000 PERCENT
 GRADIENT CRITERION IN FLEPO =     1.141
           THERE HAVE BEEN 3 ATTEMPTS TO REDUCE THE GRADIENT.
           DURING THESE ATTEMPTS THE ENERGY DROPPED BY LESS THAN 0.3 KCAL/MOLE
           FURTHER CALCULATION IS NOT JUSTIFIED AT THIS TIME.
           TO CONTINUE, START AGAIN WITH THE WORD "PRECISE"


          FOR POINT   42 SECOND STRUCTURE
 DISTANCE A - B      2.049643
 HEAT              -91.901347
 GRADIENT NORM       2.824948
 DIRECTION COSINE    0.390356
* ===============================
* Input file for Mopac
* ===============================
 PM7 BONDS AUX DUMP=30M ITRY=15000 T=14D CHARGE=0 SINGLET eps=78.0 RELSCF=1


  C     0.00000000 +0    0.0000000 +0    0.0000000 +0     0     0     0
  H     1.10713610 +1    0.0000000 +0    0.0000000 +0     1     0     0
  H     1.10884717 +1  108.5989689 +1    0.0000000 +0     1     2     0
  H     1.11687414 +1  107.1071145 +1 -115.3499134 +1     1     2     3
  N     1.45423590 +1  111.8448808 +1  124.0187040 +1     1     2     3
  O     1.22332961 +1  119.2430120 +1 -157.7166964 +1     5     1     2
  O     1.22277784 +1  119.1383867 +1   22.7681342 +1     5     1     2
  H     2.39673043 +1  171.4861472 +1   26.1521239 +1     4     1     2
  O     0.96637253 +1   59.2219210 +1  102.8485602 +1     8     4     1
  H     0.96475243 +1  103.9564209 +1  -97.9710467 +1     9     8     4

 *+*+*+*+*+*+*+*+*+*+*+*+*+*+*+*+*+*+*+*+*+*+*+*+*+*+*+*+*+*+*+*+*+*+*+*+*+*+*+*+
            BAR SHORTENED BY       1.000 PERCENT
 GRADIENT CRITERION IN FLEPO =     1.141


          FOR POINT   43 SECOND STRUCTURE
 DISTANCE A - B      2.029147
 HEAT              -91.904331
 GRADIENT NORM       2.068782
 DIRECTION COSINE    0.375744
* ===============================
* Input file for Mopac
* ===============================
 PM7 BONDS AUX DUMP=30M ITRY=15000 T=14D CHARGE=0 SINGLET eps=78.0 RELSCF=1


  C     0.00000000 +0    0.0000000 +0    0.0000000 +0     0     0     0
  H     1.10888843 +1    0.0000000 +0    0.0000000 +0     1     0     0
  H     1.10949546 +1  108.5832002 +1    0.0000000 +0     1     2     0
  H     1.11797432 +1  107.1185456 +1 -115.3765619 +1     1     2     3
  N     1.45380126 +1  111.8214467 +1  123.9430402 +1     1     2     3
  O     1.22285867 +1  119.1492850 +1 -158.2379535 +1     5     1     2
  O     1.22226104 +1  119.0758413 +1   22.4166716 +1     5     1     2
  H     2.39804576 +1  170.6178403 +1   26.0582065 +1     4     1     2
  O     0.96611837 +1   59.1996151 +1  103.2494869 +1     8     4     1
  H     0.96552846 +1  103.9431183 +1  -98.0335957 +1     9     8     4

 TIME=     0.16
  REACTANTS AND PRODUCTS SWAPPED AROUND
 *+*+*+*+*+*+*+*+*+*+*+*+*+*+*+*+*+*+*+*+*+*+*+*+*+*+*+*+*+*+*+*+*+*+*+*+*+*+*+*+
            BAR SHORTENED BY       0.000 PERCENT
 GRADIENT CRITERION IN FLEPO =     1.141
           THERE HAVE BEEN 3 ATTEMPTS TO REDUCE THE GRADIENT.
           DURING THESE ATTEMPTS THE ENERGY DROPPED BY LESS THAN 0.3 KCAL/MOLE
           FURTHER CALCULATION IS NOT JUSTIFIED AT THIS TIME.
           TO CONTINUE, START AGAIN WITH THE WORD "PRECISE"


          FOR POINT   44 FIRST  STRUCTURE
 DISTANCE A - B      2.029147
 HEAT              -91.851882
 GRADIENT NORM       4.964877
 DIRECTION COSINE    0.099700
* ===============================
* Input file for Mopac
* ===============================
 PM7 BONDS AUX DUMP=30M ITRY=15000 T=14D CHARGE=0 SINGLET eps=78.0 RELSCF=1


  C     0.00000000 +0    0.0000000 +0    0.0000000 +0     0     0     0
  H     1.10867496 +1    0.0000000 +0    0.0000000 +0     1     0     0
  H     1.11213599 +1  107.3627066 +1    0.0000000 +0     1     2     0
  H     1.11304682 +1  108.3306326 +1 -115.2739583 +1     1     2     3
  N     1.45474206 +1  111.9469534 +1  121.6735547 +1     1     2     3
  O     1.22390694 +1  119.3144883 +1  160.2062788 +1     5     1     2
  O     1.22416796 +1  119.1337867 +1  -19.5998446 +1     5     1     2
  H     2.96642093 +1  106.1447103 +1   39.2525335 +1     4     1     2
  O     0.96208413 +1   33.5832570 +1  100.9860572 +1     8     4     1
  H     0.96642229 +1  104.1063738 +1 -127.7539659 +1     9     8     4

 TIME=     0.07
  REACTANTS AND PRODUCTS SWAPPED AROUND
 *+*+*+*+*+*+*+*+*+*+*+*+*+*+*+*+*+*+*+*+*+*+*+*+*+*+*+*+*+*+*+*+*+*+*+*+*+*+*+*+
            BAR SHORTENED BY       1.000 PERCENT
 GRADIENT CRITERION IN FLEPO =     1.965


          FOR POINT   45 SECOND STRUCTURE
 DISTANCE A - B      2.008855
 HEAT              -91.961560
 GRADIENT NORM       2.157260
 DIRECTION COSINE   -0.020551
* ===============================
* Input file for Mopac
* ===============================
 PM7 BONDS AUX DUMP=30M ITRY=15000 T=14D CHARGE=0 SINGLET eps=78.0 RELSCF=1


  C     0.00000000 +0    0.0000000 +0    0.0000000 +0     0     0     0
  H     1.10830606 +1    0.0000000 +0    0.0000000 +0     1     0     0
  H     1.10919018 +1  108.6911851 +1    0.0000000 +0     1     2     0
  H     1.11833526 +1  107.1948859 +1 -115.4438209 +1     1     2     3
  N     1.45509909 +1  111.7449374 +1  123.9407357 +1     1     2     3
  O     1.22270656 +1  119.2205027 +1 -158.8147809 +1     5     1     2
  O     1.22257888 +1  118.9866132 +1   22.2087075 +1     5     1     2
  H     2.39997916 +1  169.7064085 +1   26.5811917 +1     4     1     2
  O     0.96643271 +1   59.3630674 +1  103.0180450 +1     8     4     1
  H     0.96538797 +1  104.2664697 +1  -97.9473629 +1     9     8     4

 TIME=     0.05
  REACTANTS AND PRODUCTS SWAPPED AROUND
 *+*+*+*+*+*+*+*+*+*+*+*+*+*+*+*+*+*+*+*+*+*+*+*+*+*+*+*+*+*+*+*+*+*+*+*+*+*+*+*+
            BAR SHORTENED BY       1.000 PERCENT
 GRADIENT CRITERION IN FLEPO =     1.965


          FOR POINT   46 FIRST  STRUCTURE
 DISTANCE A - B      1.988767
 HEAT              -91.838207
 GRADIENT NORM       2.768480
 DIRECTION COSINE    0.062385
* ===============================
* Input file for Mopac
* ===============================
 PM7 BONDS AUX DUMP=30M ITRY=15000 T=14D CHARGE=0 SINGLET eps=78.0 RELSCF=1


  C     0.00000000 +0    0.0000000 +0    0.0000000 +0     0     0     0
  H     1.10931445 +1    0.0000000 +0    0.0000000 +0     1     0     0
  H     1.11310728 +1  107.4609098 +1    0.0000000 +0     1     2     0
  H     1.11149038 +1  108.3532810 +1 -115.3877411 +1     1     2     3
  N     1.45519315 +1  111.7936229 +1  121.6027228 +1     1     2     3
  O     1.22407775 +1  119.1737077 +1  160.7133040 +1     5     1     2
  O     1.22215257 +1  119.3166614 +1  -19.2786089 +1     5     1     2
  H     2.95813561 +1  106.6347892 +1   39.0757429 +1     4     1     2
  O     0.96398346 +1   33.9146040 +1  101.1330874 +1     8     4     1
  H     0.96439746 +1  104.0344476 +1 -127.2729006 +1     9     8     4

 TIME=     0.04
  REACTANTS AND PRODUCTS SWAPPED AROUND
 *+*+*+*+*+*+*+*+*+*+*+*+*+*+*+*+*+*+*+*+*+*+*+*+*+*+*+*+*+*+*+*+*+*+*+*+*+*+*+*+
            BAR SHORTENED BY       1.000 PERCENT
 GRADIENT CRITERION IN FLEPO =     1.965


          FOR POINT   47 SECOND STRUCTURE
 DISTANCE A - B      1.968879
 HEAT              -91.966655
 GRADIENT NORM       3.007223
 DIRECTION COSINE   -0.145701
* ===============================
* Input file for Mopac
* ===============================
 PM7 BONDS AUX DUMP=30M ITRY=15000 T=14D CHARGE=0 SINGLET eps=78.0 RELSCF=1


  C     0.00000000 +0    0.0000000 +0    0.0000000 +0     0     0     0
  H     1.10944374 +1    0.0000000 +0    0.0000000 +0     1     0     0
  H     1.10885947 +1  108.7010681 +1    0.0000000 +0     1     2     0
  H     1.11765635 +1  107.2529714 +1 -115.5569940 +1     1     2     3
  N     1.45528629 +1  111.7240725 +1  123.9296877 +1     1     2     3
  O     1.22312104 +1  119.3004292 +1 -159.1535655 +1     5     1     2
  O     1.22352608 +1  119.0333500 +1   21.7219515 +1     5     1     2
  H     2.40167089 +1  168.7642712 +1   27.2042824 +1     4     1     2
  O     0.96485116 +1   59.3340726 +1  102.8076813 +1     8     4     1
  H     0.96654948 +1  103.8331978 +1  -98.3491864 +1     9     8     4

 TIME=     0.04
  REACTANTS AND PRODUCTS SWAPPED AROUND
 *+*+*+*+*+*+*+*+*+*+*+*+*+*+*+*+*+*+*+*+*+*+*+*+*+*+*+*+*+*+*+*+*+*+*+*+*+*+*+*+
            BAR SHORTENED BY       1.000 PERCENT
 GRADIENT CRITERION IN FLEPO =     1.965
           THERE HAVE BEEN 3 ATTEMPTS TO REDUCE THE GRADIENT.
           DURING THESE ATTEMPTS THE ENERGY DROPPED BY LESS THAN 0.3 KCAL/MOLE
           FURTHER CALCULATION IS NOT JUSTIFIED AT THIS TIME.
           TO CONTINUE, START AGAIN WITH THE WORD "PRECISE"


          FOR POINT   48 FIRST  STRUCTURE
 DISTANCE A - B      1.949190
 HEAT              -91.861377
 GRADIENT NORM       3.789755
 DIRECTION COSINE   -0.404632
* ===============================
* Input file for Mopac
* ===============================
 PM7 BONDS AUX DUMP=30M ITRY=15000 T=14D CHARGE=0 SINGLET eps=78.0 RELSCF=1


  C     0.00000000 +0    0.0000000 +0    0.0000000 +0     0     0     0
  H     1.10921450 +1    0.0000000 +0    0.0000000 +0     1     0     0
  H     1.11279463 +1  107.4742432 +1    0.0000000 +0     1     2     0
  H     1.11303228 +1  108.1774510 +1 -115.3214748 +1     1     2     3
  N     1.45710042 +1  112.1596011 +1  121.7177296 +1     1     2     3
  O     1.22267428 +1  119.1376642 +1  161.0866272 +1     5     1     2
  O     1.22356993 +1  119.2101924 +1  -18.9713951 +1     5     1     2
  H     2.94545728 +1  106.9815532 +1   38.6334587 +1     4     1     2
  O     0.96571765 +1   35.6028887 +1  102.6140183 +1     8     4     1
  H     0.96465822 +1  104.0052885 +1 -123.7943226 +1     9     8     4

 TIME=     0.05
  REACTANTS AND PRODUCTS SWAPPED AROUND
 *+*+*+*+*+*+*+*+*+*+*+*+*+*+*+*+*+*+*+*+*+*+*+*+*+*+*+*+*+*+*+*+*+*+*+*+*+*+*+*+
            BAR SHORTENED BY       1.000 PERCENT
 GRADIENT CRITERION IN FLEPO =     1.965


          FOR POINT   49 SECOND STRUCTURE
 DISTANCE A - B      1.929698
 HEAT              -91.966620
 GRADIENT NORM       2.087754
 DIRECTION COSINE   -0.351625
* ===============================
* Input file for Mopac
* ===============================
 PM7 BONDS AUX DUMP=30M ITRY=15000 T=14D CHARGE=0 SINGLET eps=78.0 RELSCF=1


  C     0.00000000 +0    0.0000000 +0    0.0000000 +0     0     0     0
  H     1.10940645 +1    0.0000000 +0    0.0000000 +0     1     0     0
  H     1.10952120 +1  108.6313047 +1    0.0000000 +0     1     2     0
  H     1.11713033 +1  107.2351819 +1 -115.3720591 +1     1     2     3
  N     1.45425261 +1  111.7841319 +1  124.0289325 +1     1     2     3
  O     1.22296666 +1  119.2793109 +1 -159.5320850 +1     5     1     2
  O     1.22284410 +1  118.9979646 +1   21.3678276 +1     5     1     2
  H     2.40377967 +1  168.0624348 +1   26.8600529 +1     4     1     2
  O     0.96724095 +1   59.1397017 +1  103.1398890 +1     8     4     1
  H     0.96673476 +1  103.8766561 +1  -98.5631827 +1     9     8     4

 TIME=     0.02
  REACTANTS AND PRODUCTS SWAPPED AROUND
 *+*+*+*+*+*+*+*+*+*+*+*+*+*+*+*+*+*+*+*+*+*+*+*+*+*+*+*+*+*+*+*+*+*+*+*+*+*+*+*+
            BAR SHORTENED BY       1.000 PERCENT
 GRADIENT CRITERION IN FLEPO =     1.965


          FOR POINT   50 FIRST  STRUCTURE
 DISTANCE A - B      1.910401
 HEAT              -91.886729
 GRADIENT NORM       2.234702
 DIRECTION COSINE   -0.032243
* ===============================
* Input file for Mopac
* ===============================
 PM7 BONDS AUX DUMP=30M ITRY=15000 T=14D CHARGE=0 SINGLET eps=78.0 RELSCF=1


  C     0.00000000 +0    0.0000000 +0    0.0000000 +0     0     0     0
  H     1.10904288 +1    0.0000000 +0    0.0000000 +0     1     0     0
  H     1.11228535 +1  107.4964930 +1    0.0000000 +0     1     2     0
  H     1.11337040 +1  108.2436947 +1 -115.2271433 +1     1     2     3
  N     1.45533351 +1  112.0345928 +1  121.7484303 +1     1     2     3
  O     1.22328067 +1  119.1598265 +1  161.4931861 +1     5     1     2
  O     1.22281450 +1  119.2628112 +1  -18.5254612 +1     5     1     2
  H     2.93411789 +1  107.4587844 +1   38.4156588 +1     4     1     2
  O     0.96282025 +1   36.0030729 +1  102.9139680 +1     8     4     1
  H     0.96485845 +1  104.0706990 +1 -123.2123172 +1     9     8     4

 TIME=     0.03
  REACTANTS AND PRODUCTS SWAPPED AROUND
 *+*+*+*+*+*+*+*+*+*+*+*+*+*+*+*+*+*+*+*+*+*+*+*+*+*+*+*+*+*+*+*+*+*+*+*+*+*+*+*+
            BAR SHORTENED BY       1.000 PERCENT
 GRADIENT CRITERION IN FLEPO =     1.965


          FOR POINT   51 SECOND STRUCTURE
 DISTANCE A - B      1.891297
 HEAT              -91.967363
 GRADIENT NORM       4.038135
 DIRECTION COSINE   -0.260106
* ===============================
* Input file for Mopac
* ===============================
 PM7 BONDS AUX DUMP=30M ITRY=15000 T=14D CHARGE=0 SINGLET eps=78.0 RELSCF=1


  C     0.00000000 +0    0.0000000 +0    0.0000000 +0     0     0     0
  H     1.10997901 +1    0.0000000 +0    0.0000000 +0     1     0     0
  H     1.10785568 +1  108.5977239 +1    0.0000000 +0     1     2     0
  H     1.11765280 +1  107.2021119 +1 -115.3954928 +1     1     2     3
  N     1.45385058 +1  111.7434076 +1  124.0880639 +1     1     2     3
  O     1.22428186 +1  119.2196692 +1 -159.8848936 +1     5     1     2
  O     1.22309404 +1  119.0632911 +1   20.9477744 +1     5     1     2
  H     2.40362174 +1  167.3405358 +1   27.2441652 +1     4     1     2
  O     0.96559210 +1   59.0506195 +1  102.8640704 +1     8     4     1
  H     0.96654456 +1  104.0390858 +1  -98.7342773 +1     9     8     4

 TIME=     0.02
  REACTANTS AND PRODUCTS SWAPPED AROUND
 *+*+*+*+*+*+*+*+*+*+*+*+*+*+*+*+*+*+*+*+*+*+*+*+*+*+*+*+*+*+*+*+*+*+*+*+*+*+*+*+
            BAR SHORTENED BY       1.000 PERCENT
 GRADIENT CRITERION IN FLEPO =     1.038


          FOR POINT   52 FIRST  STRUCTURE
 DISTANCE A - B      1.872384
 HEAT              -91.885608
 GRADIENT NORM       1.982921
 DIRECTION COSINE   -0.562797
* ===============================
* Input file for Mopac
* ===============================
 PM7 BONDS AUX DUMP=30M ITRY=15000 T=14D CHARGE=0 SINGLET eps=78.0 RELSCF=1


  C     0.00000000 +0    0.0000000 +0    0.0000000 +0     0     0     0
  H     1.10910012 +1    0.0000000 +0    0.0000000 +0     1     0     0
  H     1.11268877 +1  107.5623567 +1    0.0000000 +0     1     2     0
  H     1.11175049 +1  108.2796471 +1 -115.3494519 +1     1     2     3
  N     1.45504790 +1  111.9151863 +1  121.7168405 +1     1     2     3
  O     1.22354101 +1  119.2002078 +1  161.9343729 +1     5     1     2
  O     1.22290333 +1  119.2065472 +1  -18.1619639 +1     5     1     2
  H     2.92603453 +1  107.9324536 +1   38.3196440 +1     4     1     2
  O     0.96453121 +1   36.3412904 +1  102.9477945 +1     8     4     1
  H     0.96444418 +1  104.0525024 +1 -122.8155153 +1     9     8     4

 TIME=     0.03
  REACTANTS AND PRODUCTS SWAPPED AROUND
 *+*+*+*+*+*+*+*+*+*+*+*+*+*+*+*+*+*+*+*+*+*+*+*+*+*+*+*+*+*+*+*+*+*+*+*+*+*+*+*+
            BAR SHORTENED BY       1.000 PERCENT
 GRADIENT CRITERION IN FLEPO =     1.038
           THERE HAVE BEEN 3 ATTEMPTS TO REDUCE THE GRADIENT.
           DURING THESE ATTEMPTS THE ENERGY DROPPED BY LESS THAN 0.3 KCAL/MOLE
           FURTHER CALCULATION IS NOT JUSTIFIED AT THIS TIME.
           TO CONTINUE, START AGAIN WITH THE WORD "PRECISE"


          FOR POINT   53 SECOND STRUCTURE
 DISTANCE A - B      1.853660
 HEAT              -91.958239
 GRADIENT NORM       3.859787
 DIRECTION COSINE   -0.202272
* ===============================
* Input file for Mopac
* ===============================
 PM7 BONDS AUX DUMP=30M ITRY=15000 T=14D CHARGE=0 SINGLET eps=78.0 RELSCF=1


  C     0.00000000 +0    0.0000000 +0    0.0000000 +0     0     0     0
  H     1.10904271 +1    0.0000000 +0    0.0000000 +0     1     0     0
  H     1.10983915 +1  108.4839985 +1    0.0000000 +0     1     2     0
  H     1.11749815 +1  107.2317786 +1 -115.5349898 +1     1     2     3
  N     1.45493209 +1  111.9380597 +1  123.7794296 +1     1     2     3
  O     1.22281003 +1  119.2289571 +1 -160.1857830 +1     5     1     2
  O     1.22257452 +1  119.1249538 +1   20.5452735 +1     5     1     2
  H     2.40614124 +1  166.5064617 +1   26.9992225 +1     4     1     2
  O     0.96323501 +1   59.2959816 +1  103.3613644 +1     8     4     1
  H     0.96851555 +1  104.0068845 +1  -98.4656532 +1     9     8     4

 TIME=     0.05
  REACTANTS AND PRODUCTS SWAPPED AROUND
 *+*+*+*+*+*+*+*+*+*+*+*+*+*+*+*+*+*+*+*+*+*+*+*+*+*+*+*+*+*+*+*+*+*+*+*+*+*+*+*+
            BAR SHORTENED BY       1.000 PERCENT
 GRADIENT CRITERION IN FLEPO =     1.038
           THERE HAVE BEEN 3 ATTEMPTS TO REDUCE THE GRADIENT.
           DURING THESE ATTEMPTS THE ENERGY DROPPED BY LESS THAN 0.3 KCAL/MOLE
           FURTHER CALCULATION IS NOT JUSTIFIED AT THIS TIME.
           TO CONTINUE, START AGAIN WITH THE WORD "PRECISE"


          FOR POINT   54 FIRST  STRUCTURE
 DISTANCE A - B      1.835124
 HEAT              -91.891817
 GRADIENT NORM       4.317150
 DIRECTION COSINE    0.186679
* ===============================
* Input file for Mopac
* ===============================
 PM7 BONDS AUX DUMP=30M ITRY=15000 T=14D CHARGE=0 SINGLET eps=78.0 RELSCF=1


  C     0.00000000 +0    0.0000000 +0    0.0000000 +0     0     0     0
  H     1.10985530 +1    0.0000000 +0    0.0000000 +0     1     0     0
  H     1.11284672 +1  107.5612243 +1    0.0000000 +0     1     2     0
  H     1.11318046 +1  108.3278033 +1 -115.4384265 +1     1     2     3
  N     1.45718906 +1  111.9214644 +1  121.6334118 +1     1     2     3
  O     1.22290242 +1  119.0930732 +1  162.3744189 +1     5     1     2
  O     1.22340843 +1  119.2765962 +1  -17.6374458 +1     5     1     2
  H     2.91446676 +1  108.2157352 +1   38.0906422 +1     4     1     2
  O     0.96806192 +1   37.9834455 +1  104.1778200 +1     8     4     1
  H     0.96432634 +1  103.8458154 +1 -119.6767376 +1     9     8     4

 TIME=     0.05
  REACTANTS AND PRODUCTS SWAPPED AROUND
 *+*+*+*+*+*+*+*+*+*+*+*+*+*+*+*+*+*+*+*+*+*+*+*+*+*+*+*+*+*+*+*+*+*+*+*+*+*+*+*+
            BAR SHORTENED BY       1.000 PERCENT
 GRADIENT CRITERION IN FLEPO =     1.317


          FOR POINT   55 SECOND STRUCTURE
 DISTANCE A - B      1.816773
 HEAT              -92.006151
 GRADIENT NORM       1.853550
 DIRECTION COSINE   -0.052449
* ===============================
* Input file for Mopac
* ===============================
 PM7 BONDS AUX DUMP=30M ITRY=15000 T=14D CHARGE=0 SINGLET eps=78.0 RELSCF=1


  C     0.00000000 +0    0.0000000 +0    0.0000000 +0     0     0     0
  H     1.10852519 +1    0.0000000 +0    0.0000000 +0     1     0     0
  H     1.11045487 +1  108.6076838 +1    0.0000000 +0     1     2     0
  H     1.11711283 +1  107.2352126 +1 -115.4708480 +1     1     2     3
  N     1.45431080 +1  111.8680817 +1  123.9092582 +1     1     2     3
[...]
  N     1.45421070 +1  111.9433487 +1  122.7149421 +1     1     2     3
  O     1.22326970 +1  119.0822483 +1 -176.2674250 +1     5     1     2
  O     1.22114075 +1  119.2716685 +1    3.8637850 +1     5     1     2
  H     2.55157941 +1  134.5256660 +1   29.6738527 +1     4     1     2
  O     0.96587674 +1   59.0641588 +1  109.3530574 +1     8     4     1
  H     0.96490426 +1  104.0279590 +1  -99.3771013 +1     9     8     4

 TIME=     0.02
  REACTANTS AND PRODUCTS SWAPPED AROUND
 *+*+*+*+*+*+*+*+*+*+*+*+*+*+*+*+*+*+*+*+*+*+*+*+*+*+*+*+*+*+*+*+*+*+*+*+*+*+*+*+
            BAR SHORTENED BY       1.000 PERCENT
 GRADIENT CRITERION IN FLEPO =     3.297


          FOR POINT  361 FIRST  STRUCTURE
 DISTANCE A - B      0.101532
 HEAT              -92.454908
 GRADIENT NORM       2.387101
 DIRECTION COSINE   -0.966355
* ===============================
* Input file for Mopac
* ===============================
 PM7 BONDS AUX DUMP=30M ITRY=15000 T=14D CHARGE=0 SINGLET eps=78.0 RELSCF=1


  C     0.00000000 +0    0.0000000 +0    0.0000000 +0     0     0     0
  H     1.10741561 +1    0.0000000 +0    0.0000000 +0     1     0     0
  H     1.11128775 +1  108.1177876 +1    0.0000000 +0     1     2     0
  H     1.11453377 +1  108.0692450 +1 -115.3674031 +1     1     2     3
  N     1.45437629 +1  111.9397896 +1  122.6066205 +1     1     2     3
  O     1.22351186 +1  119.0706113 +1 -178.3234459 +1     5     1     2
  O     1.22139177 +1  119.2707531 +1    1.8311351 +1     5     1     2
  H     2.57047140 +1  131.3392522 +1   30.1287091 +1     4     1     2
  O     0.96586989 +1   58.3224723 +1  109.1352556 +1     8     4     1
  H     0.96489848 +1  104.0331938 +1 -100.0505386 +1     9     8     4

 TIME=     0.02
  REACTANTS AND PRODUCTS SWAPPED AROUND
 *+*+*+*+*+*+*+*+*+*+*+*+*+*+*+*+*+*+*+*+*+*+*+*+*+*+*+*+*+*+*+*+*+*+*+*+*+*+*+*+
            BAR SHORTENED BY       1.000 PERCENT
 GRADIENT CRITERION IN FLEPO =     3.297


          FOR POINT  362 SECOND STRUCTURE
 DISTANCE A - B      0.100516
 HEAT              -92.487139
 GRADIENT NORM       2.918109
 DIRECTION COSINE   -0.967331
* ===============================
* Input file for Mopac
* ===============================
 PM7 BONDS AUX DUMP=30M ITRY=15000 T=14D CHARGE=0 SINGLET eps=78.0 RELSCF=1


  C     0.00000000 +0    0.0000000 +0    0.0000000 +0     0     0     0
  H     1.10724382 +1    0.0000000 +0    0.0000000 +0     1     0     0
  H     1.11098599 +1  108.1664191 +1    0.0000000 +0     1     2     0
  H     1.11419234 +1  107.9836764 +1 -115.3953290 +1     1     2     3
  N     1.45420774 +1  111.9430734 +1  122.7140516 +1     1     2     3
  O     1.22327170 +1  119.0822697 +1 -176.2879939 +1     5     1     2
  O     1.22113881 +1  119.2714523 +1    3.8434519 +1     5     1     2
  H     2.55175985 +1  134.4936922 +1   29.6782846 +1     4     1     2
  O     0.96587632 +1   59.0566870 +1  109.3511000 +1     8     4     1
  H     0.96490285 +1  104.0279760 +1  -99.3838562 +1     9     8     4

 TIME=     0.02
  REACTANTS AND PRODUCTS SWAPPED AROUND
 *+*+*+*+*+*+*+*+*+*+*+*+*+*+*+*+*+*+*+*+*+*+*+*+*+*+*+*+*+*+*+*+*+*+*+*+*+*+*+*+
            BAR SHORTENED BY       1.000 PERCENT
 AT END OF STEPWISE ASCENT OF REACTION BARRIER

 -------------------------------------------------------------------------------
 PM7 BONDS AUX DUMP=30M ITRY=15000 T=14D CHARGE=0 SINGLET eps=78.0 RELSCF=1




     TRANSITION STATE LOCATED USING THE "SADDLE" TECHNIQUE    
     SCF FIELD WAS ACHIEVED                                   


                              PM7 CALCULATION
                                                       MOPAC v22.0.6 Linux
                                                       Mon Mar 25 21:52:22 2024




          FINAL HEAT OF FORMATION =        -92.48714 KCAL/MOL =    -386.96619 KJ/MOL
          VAN DER WAALS AREA      =        119.89 SQUARE ANGSTROMS



          DIELECTRIC ENERGY       =         -0.84990 EV
          COSMO AREA              =        119.89 SQUARE ANGSTROMS
          COSMO VOLUME            =         96.29 CUBIC ANGSTROMS

          GRADIENT NORM           =          2.95424          =       0.93421 PER ATOM
          IONIZATION POTENTIAL    =         11.734437 EV
          HOMO LUMO ENERGIES (EV) =        -11.734 -0.373
          NO. OF FILLED LEVELS    =         16
          MOLECULAR WEIGHT        =         79.0554         POINT GROUP:  C1  

          MOLECULAR DIMENSIONS (Angstroms)

            Atom       Atom       Distance
            H    10    O     7     5.38823
            H     8    H     3     2.98944
            O     6    H     2     2.76969


          SCF CALCULATIONS        =       2337

          WALL-CLOCK TIME         =     11.648 SECONDS
          COMPUTATION TIME        =          1 MINUTE AND 18.964 SECONDS



       FINAL  POINT  AND  DERIVATIVES

   PARAMETER     ATOM    TYPE            VALUE        GRADIENT
      1          1  C    CARTESIAN X     0.726392     -0.174853  KCAL/ANGSTROM
      2          1  C    CARTESIAN Y    -1.049450     -0.398572  KCAL/ANGSTROM
      3          1  C    CARTESIAN Z     0.601868     -0.267198  KCAL/ANGSTROM
      4          2  H    CARTESIAN X     1.024340     -0.313671  KCAL/ANGSTROM
      5          2  H    CARTESIAN Y    -0.492233     -0.478165  KCAL/ANGSTROM
      6          2  H    CARTESIAN Z    -0.307373      0.365128  KCAL/ANGSTROM
      7          3  H    CARTESIAN X     0.386111     -0.004743  KCAL/ANGSTROM
      8          3  H    CARTESIAN Y    -0.314632     -0.317363  KCAL/ANGSTROM
      9          3  H    CARTESIAN Z     1.362489     -0.355983  KCAL/ANGSTROM
     10          4  H    CARTESIAN X     1.634592     -0.928039  KCAL/ANGSTROM
     11          4  H    CARTESIAN Y    -1.546192      0.236495  KCAL/ANGSTROM
     12          4  H    CARTESIAN Z     1.013986     -0.336105  KCAL/ANGSTROM
     13          5  N    CARTESIAN X    -0.309493      0.581178  KCAL/ANGSTROM
     14          5  N    CARTESIAN Y    -2.031104      0.243526  KCAL/ANGSTROM
     15          5  N    CARTESIAN Z     0.322570     -1.115289  KCAL/ANGSTROM
     16          6  O    CARTESIAN X    -0.784690      0.032518  KCAL/ANGSTROM
     17          6  O    CARTESIAN Y    -2.673919      0.082829  KCAL/ANGSTROM
     18          6  O    CARTESIAN Z     1.248515     -0.606980  KCAL/ANGSTROM
     19          7  O    CARTESIAN X    -0.681631      0.609099  KCAL/ANGSTROM
     20          7  O    CARTESIAN Y    -2.195298      0.368006  KCAL/ANGSTROM
     21          7  O    CARTESIAN Z    -0.828833      1.981944  KCAL/ANGSTROM
     22          8  H    CARTESIAN X     4.128624     -0.025405  KCAL/ANGSTROM
     23          8  H    CARTESIAN Y    -1.005781     -0.151784  KCAL/ANGSTROM
     24          8  H    CARTESIAN Z     1.001731      0.239995  KCAL/ANGSTROM
     25          9  O    CARTESIAN X     3.609929     -0.220856  KCAL/ANGSTROM
     26          9  O    CARTESIAN Y    -0.939317      0.116130  KCAL/ANGSTROM
     27          9  O    CARTESIAN Z     1.813799     -0.325521  KCAL/ANGSTROM
     28         10  H    CARTESIAN X     3.417102     -0.090816  KCAL/ANGSTROM
     29         10  H    CARTESIAN Y     0.002906     -0.192257  KCAL/ANGSTROM
     30         10  H    CARTESIAN Z     1.891704     -0.047016  KCAL/ANGSTROM




   ATOM   CHEMICAL          X               Y               Z
  NUMBER   SYMBOL      (ANGSTROMS)     (ANGSTROMS)     (ANGSTROMS)

     1       C          0.72639248  *  -1.04944962  *   0.60186839  *
     2       H          1.02434017  *  -0.49223254  *  -0.30737282  *
     3       H          0.38611100  *  -0.31463160  *   1.36248865  *
     4       H          1.63459228  *  -1.54619213  *   1.01398603  *
     5       N         -0.30949291  *  -2.03110413  *   0.32256966  *
     6       O         -0.78469009  *  -2.67391933  *   1.24851500  *
     7       O         -0.68163097  *  -2.19529839  *  -0.82883340  *
     8       H          4.12862444  *  -1.00578091  *   1.00173100  *
     9       O          3.60992920  *  -0.93931695  *   1.81379878  *
    10       H          3.41710169  *   0.00290551  *   1.89170412  *

                             CARTESIAN COORDINATES

   1    C        0.726392483    -1.049449617     0.601868391
   2    H        1.024340170    -0.492232543    -0.307372817
   3    H        0.386111000    -0.314631599     1.362488646
   4    H        1.634592276    -1.546192129     1.013986026
   5    N       -0.309492907    -2.031104133     0.322569657
   6    O       -0.784690090    -2.673919332     1.248514997
   7    O       -0.681630971    -2.195298388    -0.828833404
   8    H        4.128624441    -1.005780913     1.001731003
   9    O        3.609929200    -0.939316952     1.813798776
  10    H        3.417101687     0.002905511     1.891704122


           Empirical Formula: C H5 N O3  =    10 atoms



      MOLECULAR POINT GROUP   :   C1  


                  EIGENVALUES  
 -37.43958 -30.75163 -29.21242 -27.79890 -23.01478 -18.49434 -18.24458 -17.95912
 -17.57693 -14.41853 -14.32620 -14.00392 -12.28804 -12.01560 -11.89725 -11.73444
  -0.37288   0.59911   3.99789   4.06915   4.36835   4.85059   5.10824   5.76986
   6.64714


              NET ATOMIC CHARGES AND DIPOLE CONTRIBUTIONS

  ATOM NO.   TYPE          CHARGE      No. of ELECS.   s-Pop       p-Pop       
    1          C          -0.412164        4.4122     1.08691     3.32525
    2          H           0.210738        0.7893     0.78926
    3          H           0.222373        0.7776     0.77763
    4          H           0.230620        0.7694     0.76938
    5          N           0.707386        4.2926     1.44559     2.84702
    6          O          -0.484414        6.4844     1.93993     4.54449
    7          O          -0.476637        6.4766     1.93945     4.53719
    8          H           0.377431        0.6226     0.62257
    9          O          -0.751087        6.7511     1.81502     4.93606
   10          H           0.375756        0.6242     0.62424
 DIPOLE           X         Y         Z       TOTAL
 POINT-CHG.     4.785     5.447    -0.149     7.252
 HYBRID        -0.247    -0.074    -0.275     0.377
 SUM            4.539     5.374    -0.424     7.047


          ATOMIC ORBITAL ELECTRON POPULATIONS

     Atom    s        px        py        pz   
    1  C   1.08691   1.03981   1.06093   1.22451
    2  H   0.78926
    3  H   0.77763
    4  H   0.76938
    5  N   1.44559   0.95266   0.94985   0.94452
    6  O   1.93993   1.63683   1.52484   1.38281
    7  O   1.93945   1.68391   1.74703   1.10624
    8  H   0.62257
    9  O   1.81502   1.83341   1.48361   1.61904
   10  H   0.62424

          BONDING CONTRIBUTION OF EACH M.O.

  1.3536  0.9664  1.1379  1.3237  0.9782  1.0544  1.5338  1.5954  1.6464  0.9145
  1.5743  1.6392  0.0877  0.8418  0.2795  0.5804 -2.3464 -2.1059 -1.9636 -1.9147
 -1.7589 -1.8822 -1.9508 -1.8733 -1.7112





            (VALENCIES)   BOND ORDERS

     1  C     (3.829)     2  H 0.944     3  H 0.927     4  H 0.916     5  N 0.898     7  O 0.071     6  O 0.070

     2  H     (0.956)     1  C 0.944

     3  H     (0.951)     1  C 0.927

     4  H     (0.947)     1  C 0.916

     5  N     (3.777)     7  O 1.438     6  O 1.428     1  C 0.898

     6  O     (1.801)     5  N 1.428     7  O 0.284     1  C 0.070

     7  O     (1.811)     5  N 1.438     6  O 0.284     1  C 0.071

     8  H     (0.858)     9  O 0.856

     9  O     (1.720)    10  H 0.857     8  H 0.856

    10  H     (0.859)     9  O 0.857

 BEST ESTIMATE GEOMETRY OF THE TRANSITION STATE


           C1=   0.497     C2=   0.503

 -------------------------------------------------------------------------------
 PM7 BONDS AUX DUMP=30M ITRY=15000 T=14D CHARGE=0 SINGLET eps=78.0 RELSCF=1




     TRANSITION STATE LOCATED USING THE "SADDLE" TECHNIQUE    
     SCF FIELD WAS ACHIEVED                                   


                              PM7 CALCULATION
                                                       MOPAC v22.0.6 Linux
                                                       Mon Mar 25 21:52:22 2024




          FINAL HEAT OF FORMATION =        -92.45700 KCAL/MOL =    -386.84010 KJ/MOL
          VAN DER WAALS AREA      =        119.91 SQUARE ANGSTROMS



          DIELECTRIC ENERGY       =         -0.84778 EV
          COSMO AREA              =        119.91 SQUARE ANGSTROMS
          COSMO VOLUME            =         96.36 CUBIC ANGSTROMS

          GRADIENT NORM           =          2.85638          =       0.90327 PER ATOM
          IONIZATION POTENTIAL    =         11.733569 EV
          HOMO LUMO ENERGIES (EV) =        -11.734 -0.373
          NO. OF FILLED LEVELS    =         16
          MOLECULAR WEIGHT        =         79.0554         POINT GROUP:  C1  

          MOLECULAR DIMENSIONS (Angstroms)

            Atom       Atom       Distance
            H    10    O     7     5.38228
            H     8    H     3     2.97030
            O     6    H     2     2.75344


          SCF CALCULATIONS        =          1

          WALL-CLOCK TIME         =     11.648 SECONDS
          COMPUTATION TIME        =          1 MINUTE AND 19.004 SECONDS



       FINAL  POINT  AND  DERIVATIVES

   PARAMETER     ATOM    TYPE            VALUE        GRADIENT
      1          1  C    CARTESIAN X     0.733539     -0.158339  KCAL/ANGSTROM
      2          1  C    CARTESIAN Y    -1.059305     -0.387176  KCAL/ANGSTROM
      3          1  C    CARTESIAN Z     0.604353     -0.254270  KCAL/ANGSTROM
      4          2  H    CARTESIAN X     1.044593     -0.323965  KCAL/ANGSTROM
      5          2  H    CARTESIAN Y    -0.509439     -0.416201  KCAL/ANGSTROM
      6          2  H    CARTESIAN Z    -0.304951      0.474650  KCAL/ANGSTROM
      7          3  H    CARTESIAN X     0.397811      0.104899  KCAL/ANGSTROM
      8          3  H    CARTESIAN Y    -0.316916     -0.211658  KCAL/ANGSTROM
      9          3  H    CARTESIAN Z     1.359772     -0.208182  KCAL/ANGSTROM
     10          4  H    CARTESIAN X     1.632178     -0.763622  KCAL/ANGSTROM
     11          4  H    CARTESIAN Y    -1.566169      0.404404  KCAL/ANGSTROM
     12          4  H    CARTESIAN Z     1.025133     -0.329510  KCAL/ANGSTROM
     13          5  N    CARTESIAN X    -0.313801      0.608304  KCAL/ANGSTROM
     14          5  N    CARTESIAN Y    -2.027773      0.478997  KCAL/ANGSTROM
     15          5  N    CARTESIAN Z     0.321902     -1.088833  KCAL/ANGSTROM
     16          6  O    CARTESIAN X    -0.790664      0.077208  KCAL/ANGSTROM
     17          6  O    CARTESIAN Y    -2.674020      0.084459  KCAL/ANGSTROM
     18          6  O    CARTESIAN Z     1.244738     -0.367533  KCAL/ANGSTROM
     19          7  O    CARTESIAN X    -0.693484      0.803850  KCAL/ANGSTROM
     20          7  O    CARTESIAN Y    -2.177896      0.322368  KCAL/ANGSTROM
     21          7  O    CARTESIAN Z    -0.828977      1.870009  KCAL/ANGSTROM
     22          8  H    CARTESIAN X     4.128563     -0.016859  KCAL/ANGSTROM
     23          8  H    CARTESIAN Y    -0.995799     -0.176495  KCAL/ANGSTROM
     24          8  H    CARTESIAN Z     0.998903      0.223993  KCAL/ANGSTROM
     25          9  O    CARTESIAN X     3.607736     -0.263250  KCAL/ANGSTROM
     26          9  O    CARTESIAN Y    -0.932493      0.072504  KCAL/ANGSTROM
     27          9  O    CARTESIAN Z     1.809845     -0.301151  KCAL/ANGSTROM
     28         10  H    CARTESIAN X     3.407364     -0.068229  KCAL/ANGSTROM
     29         10  H    CARTESIAN Y     0.008237     -0.171204  KCAL/ANGSTROM
     30         10  H    CARTESIAN Z     1.886312     -0.019175  KCAL/ANGSTROM




   ATOM   CHEMICAL          X               Y               Z
  NUMBER   SYMBOL      (ANGSTROMS)     (ANGSTROMS)     (ANGSTROMS)

     1       C          0.73353927  *  -1.05930452  *   0.60435285  *
     2       H          1.04459292  *  -0.50943921  *  -0.30495106  *
     3       H          0.39781146  *  -0.31691568  *   1.35977189  *
     4       H          1.63217838  *  -1.56616873  *   1.02513261  *
     5       N         -0.31380137  *  -2.02777262  *   0.32190159  *
     6       O         -0.79066355  *  -2.67402003  *   1.24473790  *
     7       O         -0.69348361  *  -2.17789596  *  -0.82897735  *
     8       H          4.12856337  *  -0.99579882  *   0.99890330  *
     9       O          3.60773624  *  -0.93249313  *   1.80984457  *
    10       H          3.40736448  *   0.00823674  *   1.88631192  *

                             CARTESIAN COORDINATES

   1    C        0.733539271    -1.059304520     0.604352849
   2    H        1.044592919    -0.509439215    -0.304951064
   3    H        0.397811462    -0.316915679     1.359771894
   4    H        1.632178380    -1.566168730     1.025132611
   5    N       -0.313801366    -2.027772624     0.321901593
   6    O       -0.790663549    -2.674020034     1.244737903
   7    O       -0.693483605    -2.177895959    -0.828977351
   8    H        4.128563369    -0.995798816     0.998903300
   9    O        3.607736239    -0.932493126     1.809844565
  10    H        3.407364477     0.008236740     1.886311921


           Empirical Formula: C H5 N O3  =    10 atoms



      MOLECULAR POINT GROUP   :   C1  


                  EIGENVALUES  
 -37.43738 -30.75013 -29.20933 -27.79701 -23.01374 -18.49421 -18.24369 -17.95727
 -17.57242 -14.41702 -14.32190 -13.99843 -12.28350 -12.01528 -11.89714 -11.73357
  -0.37288   0.59968   3.99839   4.06955   4.37393   4.84928   5.10958   5.77155
   6.64992


              NET ATOMIC CHARGES AND DIPOLE CONTRIBUTIONS

  ATOM NO.   TYPE          CHARGE      No. of ELECS.   s-Pop       p-Pop       
    1          C          -0.412111        4.4121     1.08693     3.32518
    2          H           0.210531        0.7895     0.78947
    3          H           0.222512        0.7775     0.77749
    4          H           0.230864        0.7691     0.76914
    5          N           0.707389        4.2926     1.44563     2.84698
    6          O          -0.484598        6.4846     1.93996     4.54464
    7          O          -0.476620        6.4766     1.93945     4.53717
    8          H           0.377234        0.6228     0.62277
    9          O          -0.750577        6.7506     1.81505     4.93553
   10          H           0.375377        0.6246     0.62462
 DIPOLE           X         Y         Z       TOTAL
 POINT-CHG.     4.819     5.399    -0.134     7.238
 HYBRID        -0.253    -0.068    -0.276     0.380
 SUM            4.566     5.331    -0.410     7.031


          ATOMIC ORBITAL ELECTRON POPULATIONS

     Atom    s        px        py        pz   
    1  C   1.08693   1.03544   1.06574   1.22400
    2  H   0.78947
    3  H   0.77749
    4  H   0.76914
    5  N   1.44563   0.95412   0.94844   0.94442
    6  O   1.93996   1.64001   1.51917   1.38547
    7  O   1.93945   1.68470   1.74623   1.10624
    8  H   0.62277
    9  O   1.81505   1.83097   1.48460   1.61995
   10  H   0.62462

          BONDING CONTRIBUTION OF EACH M.O.

  1.3535  0.9663  1.1381  1.3233  0.9783  1.0545  1.5340  1.5953  1.6467  0.9582
  1.5325  1.6392  0.0863  0.8417  0.2795  0.5799 -2.3463 -2.1059 -1.9635 -1.9147
 -1.7581 -1.8834 -1.9507 -1.8732 -1.7116





            (VALENCIES)   BOND ORDERS

     1  C     (3.829)     2  H 0.944     3  H 0.926     4  H 0.916     5  N 0.898     7  O 0.071     6  O 0.070

     2  H     (0.956)     1  C 0.944

     3  H     (0.950)     1  C 0.926

     4  H     (0.947)     1  C 0.916

     5  N     (3.776)     7  O 1.438     6  O 1.428     1  C 0.898

     6  O     (1.801)     5  N 1.428     7  O 0.284     1  C 0.070

     7  O     (1.811)     5  N 1.438     6  O 0.284     1  C 0.071

     8  H     (0.858)     9  O 0.856

     9  O     (1.720)    10  H 0.857     8  H 0.856

    10  H     (0.859)     9  O 0.857


 **********************
 *                    *
 * JOB ENDED NORMALLY *
 *                    *
 **********************



 TOTAL JOB TIME:            11.66 SECONDS

 == MOPAC DONE ==
