 *******************************************************************************
 **                                                                           **
 **                              MOPAC v22.0.6                                **
 **                                                                           **
 *******************************************************************************
 **          Digital Object Identifier (DOI): 10.5281/zenodo.6511958          **
 **    Visit the DOI location for information on how to cite this program.    **
 *******************************************************************************

                              PM7 CALCULATION RESULTS

 *******************************************************************************
 *  CALCULATION DONE:                                Tue Mar 26 11:59:28 2024  *
 *  PM7        - The PM7 Hamiltonian to be used
 *  SINGLET    - SPIN STATE DEFINED AS A SINGLET
 *
 *
 *
 *                 CHARGE ON SYSTEM = -1
 *
 *
 *
 *  EPS=78.4   - USE ANDREAS KLAMT'S COSMO IMPLICIT SOLVATION MODEL
 *  SADDLE     - TRANSITION STATE TO BE OPTIMIZED
 *  T=         - A TIME OF 14.0 DAYS REQUESTED
 *  DUMP=N     - RESTART FILE WRITTEN EVERY 30.0 MINUTES REQUESTED
 *  RELSCF     - DEFAULT SCF CRITERION MULTIPLIED BY 1.0000
 *              (DEFAULT SCF CRITERION = 0.00010)
 *  ITRY=      - DO A MAXIMUM OF 15000 ITERATIONS FOR SCF
 *  AUX        - OUTPUT AUXILIARY INFORMATION
 *  BONDS      - FINAL BOND-ORDER MATRIX TO BE PRINTED
 *******************************************************************************
SADDLE PM7 BONDS AUX DUMP=30M ITRY=15000 T=14D CHARGE=-1 SINGLET eps=78.4 RELSCF=1


   ATOM   CHEMICAL          X               Y               Z
  NUMBER   SYMBOL      (ANGSTROMS)     (ANGSTROMS)     (ANGSTROMS)

     1       C          0.78615000  *  -0.72800000  *   0.06421000  *
     2       H          1.90845000  *  -0.87424000  *   0.11243000  *
     3       N          0.19976000  *  -1.38625000  *   1.28212000  *
     4       O          0.94573000  *  -2.00572000  *   2.02647000  *
     5       O         -0.99858000  *  -1.29890000  *   1.49836000  *
     6       C          6.41874000  *  -2.51612000  *   0.96451000  *
     7       O          5.73762000  *  -1.99401000  *   1.87324000  *
     8       O          5.89607000  *  -3.02358000  *  -0.05138000  *
     9       C          7.91763000  *  -2.56401000  *   1.11232000  *
    10       H          8.41393000  *  -2.81652000  *   0.16866000  *
    11       H          8.18405000  *  -3.32802000  *   1.85494000  *
    12       H          8.34146000  *  -1.61535000  *   1.46296000  *
    13       C          0.44612000  *   0.75537000  *   0.10484000  *
    14       H          0.85044000  *   1.25959000  *   0.99396000  *
    15       H         -0.63630000  *   0.94147000  *   0.09015000  *
    16       H          0.86071000  *   1.27269000  *  -0.77471000  *
    17       C          0.20419000  *  -1.41783000  *  -1.16280000  *
    18       H         -0.88603000  *  -1.29784000  *  -1.23293000  *
    19       H          0.41569000  *  -2.49639000  *  -1.18698000  *
    20       H          0.62056000  *  -0.98908000  *  -2.08746000  *
    21       H          4.30399000  *  -1.65729000  *   0.45323000  *
    22       O          4.08553000  *  -0.73282000  *   0.22917000  *
    23       H          4.82569000  *  -0.27261000  *   0.64781000  *



          CARTESIAN COORDINATES 

    NO.       ATOM           X           Y           Z

     1         C          0.7862     -0.7280      0.0642
     2         H          1.9084     -0.8742      0.1124
     3         N          0.1998     -1.3862      1.2821
     4         O          0.9457     -2.0057      2.0265
     5         O         -0.9986     -1.2989      1.4984
     6         C          6.4187     -2.5161      0.9645
     7         O          5.7376     -1.9940      1.8732
     8         O          5.8961     -3.0236     -0.0514
     9         C          7.9176     -2.5640      1.1123
    10         H          8.4139     -2.8165      0.1687
    11         H          8.1840     -3.3280      1.8549
    12         H          8.3415     -1.6154      1.4630
    13         C          0.4461      0.7554      0.1048
    14         H          0.8504      1.2596      0.9940
    15         H         -0.6363      0.9415      0.0901
    16         H          0.8607      1.2727     -0.7747
    17         C          0.2042     -1.4178     -1.1628
    18         H         -0.8860     -1.2978     -1.2329
    19         H          0.4157     -2.4964     -1.1870
    20         H          0.6206     -0.9891     -2.0875
    21         H          4.3040     -1.6573      0.4532
    22         O          4.0855     -0.7328      0.2292
    23         H          4.8257     -0.2726      0.6478

 General Reference for PM7:
 "Optimization of Parameters for Semiempirical Methods VI: More Modifications to the 
 NDDO Approximations and Re-optimization of Parameters", J. J. P. Stewart, J. Mol. Mod., 1:32, 19 (2013)
 https://link.springer.com/article/10.1007/s00894-012-1667-x

           Empirical Formula: C5 H12 N O5  =    23 atoms



      MOLECULAR POINT GROUP   :   C1  


 SINGLET STATE CALCULATION


      RHF CALCULATION, NO. OF DOUBLY OCCUPIED LEVELS = 34



  CARTESIAN GEOMETRY OF FIRST SYSTEM


   1    C          0.75044      -0.78570       0.02103
   2    H          3.07039      -1.10893       0.39909
   3    N          0.74296      -1.41860       1.18082
   4    O          0.70052      -2.68836       1.26090
   5    O          0.80702      -0.79198       2.28759
   6    C          6.67908      -3.18590       0.47249
   7    O          5.97797      -2.31028       1.20786
   8    O          6.29221      -3.52405      -0.62807
   9    C          7.90154      -3.64396       1.16959
  10    H          8.66818      -4.00742       0.46378
  11    H          7.68950      -4.47846       1.86227
  12    H          8.36818      -2.84818       1.77573
  13    C          0.75766       0.70255      -0.03112
  14    H          1.19250       1.15773       0.87106
  15    H         -0.26175       1.10495      -0.13209
  16    H          1.33592       1.07345      -0.88977
  17    C          0.67915      -1.53781      -1.26137
  18    H         -0.33761      -1.52058      -1.68046
  19    H          0.96470      -2.59421      -1.14961
  20    H          1.34732      -1.10129      -2.01781
  21    H          5.15676      -1.90205       0.75353
  22    O          3.96148      -1.00878       0.02875
  23    H          4.20303      -0.08806       0.21906


  CARTESIAN GEOMETRY OF SECOND SYSTEM


   1    C          1.19715      -0.82959      -0.05187
   2    H          2.29707      -1.09404       0.00730
   3    N          0.52849      -1.43961       1.14864
   4    O          1.19508      -2.14482       1.89201
   5    O         -0.65678      -1.22946       1.35206
   6    C          6.59766      -3.21437       0.88687
   7    O          5.96320      -2.63634       1.79552
   8    O          6.03811      -3.64937      -0.14289
   9    C          8.08107      -3.42216       1.05159
  10    H          8.56061      -3.71214       0.11003
  11    H          8.25563      -4.22051       1.78531
  12    H          8.59768      -2.52858       1.42193
  13    C          1.01464       0.68063       0.00783
  14    H          1.45787       1.12669       0.90940
  15    H         -0.04188       0.98004      -0.01673
  16    H          1.49311       1.16382      -0.85861
  17    C          0.56226      -1.43667      -1.29625
  18    H         -0.50823      -1.20139      -1.37736
  19    H          0.65935      -2.53106      -1.33472
  20    H          1.03378      -1.04109      -2.20915
  21    H          4.59210      -2.13013       0.36411
  22    O          4.47518      -1.18468       0.15190
  23    H          5.25401      -0.81110       0.58636


   "DISTANCE":     3.233777


  REACTION COORDINATE VECTOR


   1    C         -0.44670       0.04389       0.07291
   2    H          0.77332      -0.01488       0.39179
   3    N          0.21447       0.02100       0.03218
   4    O         -0.49456      -0.54354      -0.63110
   5    O          1.46380       0.43748       0.93553
   6    C          0.08142       0.02847      -0.41437
   7    O          0.01477       0.32606      -0.58766
   8    O          0.25410       0.12532      -0.48518
   9    C         -0.17953      -0.22179       0.11801
  10    H          0.10758      -0.29527       0.35375
  11    H         -0.56613      -0.25796       0.07695
  12    H         -0.22950      -0.31960       0.35381
  13    C         -0.25698       0.02192      -0.03895
  14    H         -0.26538       0.03103      -0.03834
  15    H         -0.21988       0.12492      -0.11536
  16    H         -0.15719      -0.09037      -0.03116
  17    C          0.11689      -0.10115       0.03488
  18    H          0.17063      -0.31919      -0.30309
  19    H          0.30535      -0.06315       0.18511
  20    H          0.31354      -0.06019       0.19134
  21    H          0.56467       0.22808       0.38942
  22    O         -0.51371       0.17589      -0.12316
  23    H         -1.05098       0.72304      -0.36730
 *+*+*+*+*+*+*+*+*+*+*+*+*+*+*+*+*+*+*+*+*+*+*+*+*+*+*+*+*+*+*+*+*+*+*+*+*+*+*+*+
            BAR SHORTENED BY       0.000 PERCENT
 GRADIENT CRITERION IN FLEPO =     1.000
  SCF CRITERION =    0.1000E-03
 

                    SINCE COS WAS JUST RESET,THE SEARCH IS BEING ENDED


          FOR POINT    1 SECOND STRUCTURE
 DISTANCE A - B      3.233777
 HEAT             -314.837348
 GRADIENT NORM       2.747235
 DIRECTION COSINE    0.000199
* ===============================
* Input file for Mopac
* ===============================
 PM7 BONDS AUX DUMP=30M ITRY=15000 T=14D CHARGE=-1 SINGLET eps=78.4 RELSCF=1


  C     0.00000000 +0    0.0000000 +0    0.0000000 +0     0     0     0
  H     2.37267073 +1    0.0000000 +0    0.0000000 +0     1     0     0
  N     1.32125815 +1   78.4875508 +1    0.0000000 +0     1     2     0
  O     1.27299234 +1  122.2221432 +1  -89.5238937 +1     3     1     2
  O     1.27345826 +1  121.7963165 +1   88.9353984 +1     3     1     2
  C     4.16435555 +1  156.6444891 +1   80.1816715 +1     2     1     3
  O     1.34127888 +1   39.7443930 +1 -139.6697997 +1     6     2     1
  O     1.21460364 +1   81.1912164 +1   44.9395866 +1     6     2     1
  C     1.47992028 +1  151.4596233 +1 -128.6869072 +1     6     2     1
  H     1.10363594 +1  111.9926627 +1 -164.0530771 +1     9     6     2
  H     1.10505979 +1  111.7462290 +1   76.4387805 +1     9     6     2
  H     1.10381673 +1  112.6269284 +1  -43.1919203 +1     9     6     2
  C     1.48919040 +1   97.8731831 +1  119.7835509 +1     1     2     3
  H     1.10008292 +1  112.7490596 +1  -55.7776406 +1    13     1     2
  H     1.10060707 +1  111.3528070 +1 -175.8869592 +1    13     1     2
  H     1.09964280 +1  111.5290389 +1   64.6806447 +1    13     1     2
  C     1.48839279 +1   96.6201481 +1 -120.2928634 +1     1     2     3
  H     1.09987361 +1  111.3867150 +1 -178.7056638 +1    17     1     2
  H     1.10000722 +1  112.6628371 +1   60.9378465 +1    17     1     2
  H     1.09964404 +1  111.2841953 +1  -59.3186724 +1    17     1     2
  H     1.02345192 +1  115.8770472 +1  -10.0047658 +1     7     6     2
  O     0.97016067 +1  145.4058442 +1  174.7741398 +1     2     1     3
  H     0.97072481 +1  104.5734768 +1   83.5431330 +1    22     2     1

 TIME=     0.49
  REACTANTS AND PRODUCTS SWAPPED AROUND
 *+*+*+*+*+*+*+*+*+*+*+*+*+*+*+*+*+*+*+*+*+*+*+*+*+*+*+*+*+*+*+*+*+*+*+*+*+*+*+*+
            BAR SHORTENED BY       1.000 PERCENT
 GRADIENT CRITERION IN FLEPO =     1.000
           THERE HAVE BEEN 3 ATTEMPTS TO REDUCE THE GRADIENT.
           DURING THESE ATTEMPTS THE ENERGY DROPPED BY LESS THAN 0.3 KCAL/MOLE
           FURTHER CALCULATION IS NOT JUSTIFIED AT THIS TIME.
           TO CONTINUE, START AGAIN WITH THE WORD "PRECISE"


          FOR POINT    2 FIRST  STRUCTURE
 DISTANCE A - B      3.201440
 HEAT             -309.099904
 GRADIENT NORM      14.417929
 DIRECTION COSINE    0.115326
* ===============================
* Input file for Mopac
* ===============================
 PM7 BONDS AUX DUMP=30M ITRY=15000 T=14D CHARGE=-1 SINGLET eps=78.4 RELSCF=1


  C     0.00000000 +0    0.0000000 +0    0.0000000 +0     0     0     0
  H     1.12871486 +1    0.0000000 +0    0.0000000 +0     1     0     0
  N     1.50571988 +1  107.1827855 +1    0.0000000 +0     1     2     0
  O     1.22406320 +1  118.4842014 +1   -5.4673352 +1     3     1     2
  O     1.22268495 +1  119.5252152 +1  174.8517212 +1     3     1     2
  C     4.88641554 +1  165.0237554 +1   29.4250457 +1     2     1     3
  O     1.24555300 +1   59.1609119 +1  -75.7911480 +1     6     2     1
  O     1.24861321 +1   66.7624123 +1   84.2027107 +1     6     2     1
  C     1.50711712 +1  161.8252008 +1 -163.0910966 +1     6     2     1
  H     1.09542945 +1  112.1592827 +1  -88.7339839 +1     9     6     2
  H     1.10165349 +1  110.0885508 +1  150.6007813 +1     9     6     2
  H     1.09743211 +1  110.7432886 +1   32.3027951 +1     9     6     2
  C     1.52266785 +1  109.9622649 +1  117.7418172 +1     1     2     3
  H     1.10105019 +1  112.8397113 +1  -56.7572928 +1    13     1     2
  H     1.10184249 +1  112.3965624 +1 -178.1431712 +1    13     1     2
  H     1.10520477 +1  110.6268435 +1   62.8891358 +1    13     1     2
  C     1.52005917 +1  110.8233612 +1 -117.4734087 +1     1     2     3
  H     1.10366606 +1  112.4905859 +1  179.7139927 +1    17     1     2
  H     1.09833231 +1  112.8746850 +1   58.1518459 +1    17     1     2
  H     1.09883087 +1  110.7629130 +1  -61.5007073 +1    17     1     2
  H     2.07151064 +1   86.7714920 +1   -3.1662042 +1     7     6     2
  O     0.97296304 +1  118.7474781 +1 -115.6338698 +1    21     7     6
  H     0.96564045 +1  100.8627883 +1   11.1592874 +1    22    21     7

 TIME=     0.91
  REACTANTS AND PRODUCTS SWAPPED AROUND
 *+*+*+*+*+*+*+*+*+*+*+*+*+*+*+*+*+*+*+*+*+*+*+*+*+*+*+*+*+*+*+*+*+*+*+*+*+*+*+*+
            BAR SHORTENED BY       1.000 PERCENT
 GRADIENT CRITERION IN FLEPO =    10.000


          FOR POINT    3 SECOND STRUCTURE
 DISTANCE A - B      3.169425
 HEAT             -314.614323
 GRADIENT NORM      13.590393
 DIRECTION COSINE   -0.084944
* ===============================
* Input file for Mopac
* ===============================
 PM7 BONDS AUX DUMP=30M ITRY=15000 T=14D CHARGE=-1 SINGLET eps=78.4 RELSCF=1


  C     0.00000000 +0    0.0000000 +0    0.0000000 +0     0     0     0
  H     2.36204860 +1    0.0000000 +0    0.0000000 +0     1     0     0
  N     1.32331010 +1   78.9119032 +1    0.0000000 +0     1     2     0
  O     1.26863648 +1  122.6316297 +1  -88.7540355 +1     3     1     2
  O     1.27019830 +1  121.5617515 +1   89.2350355 +1     3     1     2
  C     4.16678212 +1  156.7110668 +1   79.6343866 +1     2     1     3
  O     1.33815247 +1   39.8231089 +1 -139.1886321 +1     6     2     1
  O     1.21534629 +1   81.1081441 +1   45.0769542 +1     6     2     1
  C     1.47925070 +1  151.8250086 +1 -129.2278262 +1     6     2     1
  H     1.10184203 +1  112.0575780 +1 -163.6344300 +1     9     6     2
  H     1.10945854 +1  111.5451981 +1   77.1896525 +1     9     6     2
  H     1.10102816 +1  112.8045834 +1  -42.2473223 +1     9     6     2
  C     1.48541506 +1   97.8925871 +1  119.7497144 +1     1     2     3
  H     1.10000447 +1  112.8851992 +1  -55.7490504 +1    13     1     2
  H     1.10086337 +1  111.3173680 +1 -175.9011634 +1    13     1     2
  H     1.10049358 +1  111.6081282 +1   64.7574512 +1    13     1     2
  C     1.48979184 +1   96.8974690 +1 -119.9865109 +1     1     2     3
  H     1.09822181 +1  111.2376941 +1 -178.5838458 +1    17     1     2
  H     1.09974051 +1  112.7420516 +1   60.8645177 +1    17     1     2
  H     1.10070604 +1  110.9502547 +1  -59.4864783 +1    17     1     2
  H     1.02492654 +1  115.6353053 +1   -9.8090789 +1     7     6     2
  O     0.97258737 +1  146.1230201 +1  174.4347516 +1     2     1     3
  H     0.96913646 +1  104.7990127 +1   83.9160872 +1    22     2     1

 *+*+*+*+*+*+*+*+*+*+*+*+*+*+*+*+*+*+*+*+*+*+*+*+*+*+*+*+*+*+*+*+*+*+*+*+*+*+*+*+
            BAR SHORTENED BY       1.000 PERCENT
 GRADIENT CRITERION IN FLEPO =    10.000


          FOR POINT    4 SECOND STRUCTURE
 DISTANCE A - B      3.137731
 HEAT             -314.573438
 GRADIENT NORM      20.856295
 DIRECTION COSINE   -0.381872
* ===============================
* Input file for Mopac
* ===============================
 PM7 BONDS AUX DUMP=30M ITRY=15000 T=14D CHARGE=-1 SINGLET eps=78.4 RELSCF=1


  C     0.00000000 +0    0.0000000 +0    0.0000000 +0     0     0     0
  H     2.34376739 +1    0.0000000 +0    0.0000000 +0     1     0     0
  N     1.31856865 +1   79.8692565 +1    0.0000000 +0     1     2     0
  O     1.27377347 +1  122.4866637 +1  -88.3073332 +1     3     1     2
  O     1.27932546 +1  121.4528180 +1   89.5852001 +1     3     1     2
  C     4.17409106 +1  156.1309866 +1   78.3270795 +1     2     1     3
  O     1.33528760 +1   40.0166984 +1 -137.4227438 +1     6     2     1
  O     1.21327056 +1   80.9756358 +1   45.9997975 +1     6     2     1
  C     1.47940660 +1  152.0829957 +1 -128.9497440 +1     6     2     1
  H     1.10348149 +1  111.9166715 +1 -162.2435318 +1     9     6     2
  H     1.10710168 +1  111.8701431 +1   78.1258112 +1     9     6     2
  H     1.11119961 +1  112.8882741 +1  -41.8300078 +1     9     6     2
  C     1.48739989 +1   97.6342664 +1  119.6986295 +1     1     2     3
  H     1.09761580 +1  112.6739439 +1  -55.7384388 +1    13     1     2
  H     1.10171843 +1  111.4096831 +1 -175.9504124 +1    13     1     2
  H     1.10560804 +1  111.6044680 +1   64.4456581 +1    13     1     2
  C     1.48941911 +1   97.5440792 +1 -120.0767533 +1     1     2     3
  H     1.11051790 +1  111.9969317 +1 -177.5067470 +1    17     1     2
  H     1.10156499 +1  112.7314562 +1   61.5399786 +1    17     1     2
  H     1.09673587 +1  111.4577366 +1  -59.0545860 +1    17     1     2
  H     1.02060645 +1  116.1408752 +1   -8.5423011 +1     7     6     2
  O     0.96350982 +1  147.5027442 +1  171.2762388 +1     2     1     3
  H     0.97401225 +1  104.0016363 +1   87.5074682 +1    22     2     1

 TIME=     0.21
  REACTANTS AND PRODUCTS SWAPPED AROUND
 *+*+*+*+*+*+*+*+*+*+*+*+*+*+*+*+*+*+*+*+*+*+*+*+*+*+*+*+*+*+*+*+*+*+*+*+*+*+*+*+
            BAR SHORTENED BY       1.000 PERCENT
 GRADIENT CRITERION IN FLEPO =    10.000


          FOR POINT    5 FIRST  STRUCTURE
 DISTANCE A - B      3.106354
 HEAT             -309.180684
 GRADIENT NORM       6.554777
 DIRECTION COSINE   -0.101132
* ===============================
* Input file for Mopac
* ===============================
 PM7 BONDS AUX DUMP=30M ITRY=15000 T=14D CHARGE=-1 SINGLET eps=78.4 RELSCF=1


  C     0.00000000 +0    0.0000000 +0    0.0000000 +0     0     0     0
  H     1.13163693 +1    0.0000000 +0    0.0000000 +0     1     0     0
  N     1.50161564 +1  107.0108353 +1    0.0000000 +0     1     2     0
  O     1.22283100 +1  118.8125859 +1   -6.0583322 +1     3     1     2
  O     1.22141296 +1  119.6444140 +1  174.1087271 +1     3     1     2
  C     4.88613869 +1  164.9662063 +1   30.4616772 +1     2     1     3
  O     1.25017197 +1   58.8873970 +1  -77.0150211 +1     6     2     1
  O     1.24910769 +1   66.8200236 +1   83.2312134 +1     6     2     1
  C     1.50636323 +1  161.8669450 +1 -163.0746052 +1     6     2     1
  H     1.09512812 +1  112.1837389 +1  -89.8818238 +1     9     6     2
  H     1.09962203 +1  110.0218373 +1  149.8290366 +1     9     6     2
  H     1.09720647 +1  110.9491892 +1   31.3419813 +1     9     6     2
  C     1.52199018 +1  109.9882578 +1  117.8522927 +1     1     2     3
  H     1.09870600 +1  112.5584010 +1  -56.6793169 +1    13     1     2
  H     1.09878819 +1  112.5439159 +1 -178.1844478 +1    13     1     2
  H     1.10160190 +1  110.5559998 +1   62.7890888 +1    13     1     2
  C     1.52409352 +1  110.9045495 +1 -117.4020343 +1     1     2     3
  H     1.09926838 +1  112.6741831 +1  179.7723954 +1    17     1     2
  H     1.10021699 +1  112.7504658 +1   58.0019966 +1    17     1     2
  H     1.10153200 +1  110.5219159 +1  -61.4309897 +1    17     1     2
  H     2.05964408 +1   86.9379715 +1   -3.2694465 +1     7     6     2
  O     0.97558272 +1  119.7226624 +1 -116.0428055 +1    21     7     6
  H     0.96227914 +1  100.4563196 +1   10.6614974 +1    22    21     7

 TIME=     0.09
  REACTANTS AND PRODUCTS SWAPPED AROUND
 *+*+*+*+*+*+*+*+*+*+*+*+*+*+*+*+*+*+*+*+*+*+*+*+*+*+*+*+*+*+*+*+*+*+*+*+*+*+*+*+
            BAR SHORTENED BY       1.000 PERCENT
 GRADIENT CRITERION IN FLEPO =     3.555


          FOR POINT    6 SECOND STRUCTURE
 DISTANCE A - B      3.075290
 HEAT             -314.632716
 GRADIENT NORM       3.862872
 DIRECTION COSINE   -0.154899
* ===============================
* Input file for Mopac
* ===============================
 PM7 BONDS AUX DUMP=30M ITRY=15000 T=14D CHARGE=-1 SINGLET eps=78.4 RELSCF=1


  C     0.00000000 +0    0.0000000 +0    0.0000000 +0     0     0     0
  H     2.34453265 +1    0.0000000 +0    0.0000000 +0     1     0     0
  N     1.32101516 +1   79.7669906 +1    0.0000000 +0     1     2     0
  O     1.27232669 +1  122.3092960 +1  -87.9135767 +1     3     1     2
  O     1.27306140 +1  121.6684446 +1   90.4068683 +1     3     1     2
  C     4.18142361 +1  156.2417527 +1   77.9605736 +1     2     1     3
  O     1.34011928 +1   40.2505614 +1 -136.5732329 +1     6     2     1
  O     1.21499512 +1   80.6208447 +1   46.4598984 +1     6     2     1
  C     1.47906106 +1  152.3344273 +1 -129.1361493 +1     6     2     1
  H     1.10592039 +1  111.5188737 +1 -161.7471664 +1     9     6     2
  H     1.10537560 +1  111.7482952 +1   78.8427287 +1     9     6     2
  H     1.10400070 +1  112.8183451 +1  -41.0438879 +1     9     6     2
  C     1.48948244 +1   97.1805739 +1  119.4995437 +1     1     2     3
  H     1.10049348 +1  112.7686435 +1  -55.9403181 +1    13     1     2
  H     1.10022195 +1  111.1485777 +1 -176.0004007 +1    13     1     2
  H     1.09924627 +1  111.6989142 +1   64.5023097 +1    13     1     2
  C     1.48803977 +1   97.2974345 +1 -120.4451244 +1     1     2     3
  H     1.10064657 +1  111.2466553 +1 -177.6939130 +1    17     1     2
  H     1.09973595 +1  112.7479059 +1   61.9448731 +1    17     1     2
  H     1.10004269 +1  111.5144873 +1  -58.7282460 +1    17     1     2
  H     1.02421563 +1  115.4423848 +1   -8.5194134 +1     7     6     2
  O     0.96968165 +1  148.1854184 +1  171.9470801 +1     2     1     3
  H     0.97057494 +1  104.5927136 +1   87.6354370 +1    22     2     1

 TIME=     0.16
  REACTANTS AND PRODUCTS SWAPPED AROUND
 *+*+*+*+*+*+*+*+*+*+*+*+*+*+*+*+*+*+*+*+*+*+*+*+*+*+*+*+*+*+*+*+*+*+*+*+*+*+*+*+
            BAR SHORTENED BY       1.000 PERCENT
 GRADIENT CRITERION IN FLEPO =     3.555
           THERE HAVE BEEN 3 ATTEMPTS TO REDUCE THE GRADIENT.
           DURING THESE ATTEMPTS THE ENERGY DROPPED BY LESS THAN 0.3 KCAL/MOLE
           FURTHER CALCULATION IS NOT JUSTIFIED AT THIS TIME.
           TO CONTINUE, START AGAIN WITH THE WORD "PRECISE"


          FOR POINT    7 FIRST  STRUCTURE
 DISTANCE A - B      3.044537
 HEAT             -309.244174
 GRADIENT NORM       9.620136
 DIRECTION COSINE    0.049253
* ===============================
* Input file for Mopac
* ===============================
 PM7 BONDS AUX DUMP=30M ITRY=15000 T=14D CHARGE=-1 SINGLET eps=78.4 RELSCF=1


  C     0.00000000 +0    0.0000000 +0    0.0000000 +0     0     0     0
  H     1.13365202 +1    0.0000000 +0    0.0000000 +0     1     0     0
  N     1.50306136 +1  107.0595090 +1    0.0000000 +0     1     2     0
  O     1.22340474 +1  118.7277547 +1   -6.7822818 +1     3     1     2
  O     1.22122462 +1  119.5985007 +1  173.3721084 +1     3     1     2
  C     4.88915742 +1  164.6664789 +1   31.3471487 +1     2     1     3
  O     1.25273369 +1   58.2392277 +1  -77.9425921 +1     6     2     1
  O     1.24991912 +1   66.7940601 +1   82.7192080 +1     6     2     1
  C     1.50371994 +1  161.7074229 +1 -163.1016507 +1     6     2     1
  H     1.09427236 +1  112.0215573 +1  -90.5456700 +1     9     6     2
  H     1.09737978 +1  110.0483466 +1  149.4338046 +1     9     6     2
  H     1.09500364 +1  111.1604889 +1   30.1563567 +1     9     6     2
  C     1.52200063 +1  109.9613938 +1  117.7979363 +1     1     2     3
  H     1.09856635 +1  112.6114558 +1  -56.7623880 +1    13     1     2
  H     1.10072943 +1  112.6535478 +1 -178.2856463 +1    13     1     2
  H     1.10418322 +1  110.5018235 +1   62.9192055 +1    13     1     2
  C     1.52257991 +1  110.8192451 +1 -117.4723521 +1     1     2     3
  H     1.10150404 +1  112.7055798 +1  179.8375076 +1    17     1     2
  H     1.09903298 +1  112.7865847 +1   58.2694867 +1    17     1     2
  H     1.10203778 +1  110.5716378 +1  -61.4687978 +1    17     1     2
  H     2.05154930 +1   87.4762440 +1   -3.4730277 +1     7     6     2
  O     0.97402515 +1  120.6910783 +1 -116.8053220 +1    21     7     6
  H     0.96584530 +1  100.5256648 +1    9.4470003 +1    22    21     7

 TIME=     0.45
  REACTANTS AND PRODUCTS SWAPPED AROUND
 *+*+*+*+*+*+*+*+*+*+*+*+*+*+*+*+*+*+*+*+*+*+*+*+*+*+*+*+*+*+*+*+*+*+*+*+*+*+*+*+
            BAR SHORTENED BY       1.000 PERCENT
 GRADIENT CRITERION IN FLEPO =     6.620


          FOR POINT    8 SECOND STRUCTURE
 DISTANCE A - B      3.014092
 HEAT             -314.486197
 GRADIENT NORM      12.377451
 DIRECTION COSINE   -0.042881
* ===============================
* Input file for Mopac
* ===============================
 PM7 BONDS AUX DUMP=30M ITRY=15000 T=14D CHARGE=-1 SINGLET eps=78.4 RELSCF=1


  C     0.00000000 +0    0.0000000 +0    0.0000000 +0     0     0     0
  H     2.33456472 +1    0.0000000 +0    0.0000000 +0     1     0     0
  N     1.32328955 +1   80.1754657 +1    0.0000000 +0     1     2     0
  O     1.26860160 +1  122.8593195 +1  -87.1751229 +1     3     1     2
  O     1.27061771 +1  121.4386389 +1   90.6610157 +1     3     1     2
  C     4.18585884 +1  156.2297423 +1   77.3884542 +1     2     1     3
  O     1.34163120 +1   40.3995661 +1 -136.1124344 +1     6     2     1
  O     1.21331660 +1   80.4632042 +1   46.7274220 +1     6     2     1
  C     1.47865437 +1  152.6408537 +1 -129.7938973 +1     6     2     1
  H     1.10274041 +1  111.5593956 +1 -160.9792813 +1     9     6     2
  H     1.10715496 +1  111.5275661 +1   79.6134944 +1     9     6     2
  H     1.10372628 +1  112.8746096 +1  -39.9907352 +1     9     6     2
  C     1.48572108 +1   97.2265359 +1  119.6194192 +1     1     2     3
  H     1.10050925 +1  112.7642886 +1  -55.9237577 +1    13     1     2
  H     1.09983323 +1  111.1580925 +1 -175.7812925 +1    13     1     2
  H     1.09924424 +1  111.6890626 +1   64.5112279 +1    13     1     2
  C     1.48748818 +1   97.4545831 +1 -120.2904276 +1     1     2     3
  H     1.10229636 +1  111.0367071 +1 -177.8347364 +1    17     1     2
  H     1.09860173 +1  112.7788173 +1   62.1735922 +1    17     1     2
  H     1.09611528 +1  111.7049787 +1  -58.7584309 +1    17     1     2
  H     1.02681584 +1  114.9643860 +1   -8.3821522 +1     7     6     2
  O     0.97221936 +1  148.8566791 +1  171.4400703 +1     2     1     3
  H     0.96960353 +1  104.7743484 +1   88.1293619 +1    22     2     1

 TIME=     0.28
  REACTANTS AND PRODUCTS SWAPPED AROUND
 *+*+*+*+*+*+*+*+*+*+*+*+*+*+*+*+*+*+*+*+*+*+*+*+*+*+*+*+*+*+*+*+*+*+*+*+*+*+*+*+
            BAR SHORTENED BY       1.000 PERCENT
 GRADIENT CRITERION IN FLEPO =     9.377


          FOR POINT    9 FIRST  STRUCTURE
 DISTANCE A - B      2.983951
 HEAT             -309.256888
 GRADIENT NORM      13.165613
 DIRECTION COSINE   -0.133674
* ===============================
* Input file for Mopac
* ===============================
 PM7 BONDS AUX DUMP=30M ITRY=15000 T=14D CHARGE=-1 SINGLET eps=78.4 RELSCF=1


  C     0.00000000 +0    0.0000000 +0    0.0000000 +0     0     0     0
  H     1.12258771 +1    0.0000000 +0    0.0000000 +0     1     0     0
  N     1.49922667 +1  106.7685847 +1    0.0000000 +0     1     2     0
  O     1.22215558 +1  119.0442548 +1   -7.4416776 +1     3     1     2
  O     1.22023444 +1  119.7118690 +1  172.6161259 +1     3     1     2
  C     4.89758206 +1  164.7964561 +1   32.3922621 +1     2     1     3
  O     1.24999722 +1   58.1124127 +1  -79.1233176 +1     6     2     1
  O     1.24695978 +1   67.2966726 +1   81.9436073 +1     6     2     1
  C     1.50503649 +1  162.0067061 +1 -163.6083448 +1     6     2     1
  H     1.10090798 +1  112.0913975 +1  -90.9238163 +1     9     6     2
  H     1.09740441 +1  110.0731958 +1  148.7529155 +1     9     6     2
  H     1.09234444 +1  111.2951456 +1   29.9953886 +1     9     6     2
  C     1.52176517 +1  110.0761555 +1  117.8485421 +1     1     2     3
  H     1.09932701 +1  112.3647175 +1  -56.6293776 +1    13     1     2
  H     1.09850275 +1  112.8146682 +1 -178.1840931 +1    13     1     2
  H     1.10084213 +1  110.4786437 +1   62.8575862 +1    13     1     2
  C     1.52504101 +1  110.9092611 +1 -117.4091087 +1     1     2     3
  H     1.09920713 +1  112.8912130 +1  179.7848898 +1    17     1     2
  H     1.09987311 +1  112.7141374 +1   57.9828361 +1    17     1     2
  H     1.10270381 +1  110.3038350 +1  -61.3164460 +1    17     1     2
  H     2.03958007 +1   87.6123015 +1   -3.6575837 +1     7     6     2
  O     0.97674849 +1  121.7975449 +1 -117.2018869 +1    21     7     6
  H     0.96401658 +1  100.2805027 +1    9.4956003 +1    22    21     7

 TIME=     0.16
  REACTANTS AND PRODUCTS SWAPPED AROUND
 *+*+*+*+*+*+*+*+*+*+*+*+*+*+*+*+*+*+*+*+*+*+*+*+*+*+*+*+*+*+*+*+*+*+*+*+*+*+*+*+
            BAR SHORTENED BY       1.000 PERCENT
 GRADIENT CRITERION IN FLEPO =    10.000


          FOR POINT   10 SECOND STRUCTURE
 DISTANCE A - B      2.954111
 HEAT             -314.479819
 GRADIENT NORM      19.696158
 DIRECTION COSINE    0.032621
* ===============================
* Input file for Mopac
* ===============================
 PM7 BONDS AUX DUMP=30M ITRY=15000 T=14D CHARGE=-1 SINGLET eps=78.4 RELSCF=1


  C     0.00000000 +0    0.0000000 +0    0.0000000 +0     0     0     0
  H     2.32368824 +1    0.0000000 +0    0.0000000 +0     1     0     0
  N     1.32158265 +1   80.6418928 +1    0.0000000 +0     1     2     0
  O     1.26864625 +1  122.9043795 +1  -86.4436593 +1     3     1     2
  O     1.26691660 +1  121.6337782 +1   90.9872715 +1     3     1     2
  C     4.19155923 +1  156.2228621 +1   77.0606248 +1     2     1     3
  O     1.33819769 +1   40.3817803 +1 -135.2711983 +1     6     2     1
  O     1.21864678 +1   80.2616636 +1   46.9568173 +1     6     2     1
  C     1.47922814 +1  152.9711136 +1 -129.5455803 +1     6     2     1
  H     1.10358145 +1  111.4187960 +1 -160.5749613 +1     9     6     2
  H     1.10172978 +1  111.5781303 +1   79.7554757 +1     9     6     2
  H     1.10505189 +1  112.6256918 +1  -40.1468498 +1     9     6     2
  C     1.48962998 +1   97.1480669 +1  119.3230880 +1     1     2     3
  H     1.09964975 +1  112.7141344 +1  -55.8980707 +1    13     1     2
  H     1.09585506 +1  111.2179698 +1 -175.8297794 +1    13     1     2
  H     1.10122596 +1  111.5339343 +1   64.7051543 +1    13     1     2
  C     1.48418743 +1   97.7860103 +1 -120.3358486 +1     1     2     3
  H     1.10150871 +1  111.0160078 +1 -177.5532512 +1    17     1     2
  H     1.10615013 +1  113.0456785 +1   62.2616269 +1    17     1     2
  H     1.10195850 +1  111.4685428 +1  -58.6946208 +1    17     1     2
  H     1.02987796 +1  114.9127371 +1   -8.2655416 +1     7     6     2
  O     0.97499733 +1  149.5885085 +1  171.1077643 +1     2     1     3
  H     0.96927632 +1  104.9968537 +1   88.8121565 +1    22     2     1

 *+*+*+*+*+*+*+*+*+*+*+*+*+*+*+*+*+*+*+*+*+*+*+*+*+*+*+*+*+*+*+*+*+*+*+*+*+*+*+*+
            BAR SHORTENED BY       1.000 PERCENT
 GRADIENT CRITERION IN FLEPO =    10.000


          FOR POINT   11 SECOND STRUCTURE
 DISTANCE A - B      2.924570
 HEAT             -314.498896
 GRADIENT NORM      16.047724
 DIRECTION COSINE    0.602971
* ===============================
* Input file for Mopac
* ===============================
 PM7 BONDS AUX DUMP=30M ITRY=15000 T=14D CHARGE=-1 SINGLET eps=78.4 RELSCF=1


  C     0.00000000 +0    0.0000000 +0    0.0000000 +0     0     0     0
  H     2.30982919 +1    0.0000000 +0    0.0000000 +0     1     0     0
  N     1.32178989 +1   81.2738530 +1    0.0000000 +0     1     2     0
  O     1.26931148 +1  123.1702744 +1  -86.4165716 +1     3     1     2
  O     1.26740411 +1  121.4619524 +1   91.0472345 +1     3     1     2
  C     4.20860438 +1  155.2304321 +1   75.8533269 +1     2     1     3
  O     1.34128509 +1   40.4168273 +1 -133.7348302 +1     6     2     1
  O     1.21394212 +1   80.3061994 +1   47.9355260 +1     6     2     1
  C     1.47983957 +1  152.9789368 +1 -130.0577371 +1     6     2     1
  H     1.10344236 +1  111.3993628 +1 -159.1133119 +1     9     6     2
  H     1.10551078 +1  111.7053868 +1   81.3090195 +1     9     6     2
  H     1.10293184 +1  112.7059353 +1  -38.8254602 +1     9     6     2
  C     1.48723362 +1   96.5684681 +1  119.4987191 +1     1     2     3
  H     1.10284260 +1  112.7532639 +1  -55.9467730 +1    13     1     2
  H     1.10029093 +1  111.3560663 +1 -175.6408467 +1    13     1     2
  H     1.10366376 +1  111.5983302 +1   64.1800605 +1    13     1     2
  C     1.48717348 +1   98.3463709 +1 -120.1150292 +1     1     2     3
  H     1.10135667 +1  110.6021063 +1 -176.9473808 +1    17     1     2
  H     1.10060258 +1  113.0517137 +1   63.0010312 +1    17     1     2
  H     1.09885124 +1  111.4423982 +1  -58.2101930 +1    17     1     2
  H     1.03148082 +1  114.4787431 +1   -7.5410275 +1     7     6     2
  O     0.97414088 +1  150.9420069 +1  166.1046844 +1     2     1     3
  H     0.96909969 +1  103.6871149 +1   93.5239998 +1    22     2     1

 *+*+*+*+*+*+*+*+*+*+*+*+*+*+*+*+*+*+*+*+*+*+*+*+*+*+*+*+*+*+*+*+*+*+*+*+*+*+*+*+
            BAR SHORTENED BY       1.000 PERCENT
 GRADIENT CRITERION IN FLEPO =    10.000


          FOR POINT   12 SECOND STRUCTURE
 DISTANCE A - B      2.895324
 HEAT             -314.486383
 GRADIENT NORM      14.462268
 DIRECTION COSINE    0.104255
* ===============================
* Input file for Mopac
* ===============================
 PM7 BONDS AUX DUMP=30M ITRY=15000 T=14D CHARGE=-1 SINGLET eps=78.4 RELSCF=1


  C     0.00000000 +0    0.0000000 +0    0.0000000 +0     0     0     0
  H     2.30763554 +1    0.0000000 +0    0.0000000 +0     1     0     0
  N     1.32043353 +1   81.3382275 +1    0.0000000 +0     1     2     0
  O     1.27644099 +1  121.8542979 +1  -85.7208556 +1     3     1     2
  O     1.27127257 +1  121.3702753 +1   92.1820243 +1     3     1     2
  C     4.20604649 +1  155.6628665 +1   75.4345420 +1     2     1     3
  O     1.34226881 +1   40.4211509 +1 -133.0032690 +1     6     2     1
  O     1.21279702 +1   79.9733500 +1   47.9384146 +1     6     2     1
  C     1.47767582 +1  153.2443409 +1 -130.6197000 +1     6     2     1
  H     1.10928156 +1  111.0497005 +1 -158.7803776 +1     9     6     2
  H     1.10530511 +1  111.7610210 +1   82.3354235 +1     9     6     2
  H     1.10441806 +1  112.9770867 +1  -38.1660298 +1     9     6     2
  C     1.48885986 +1   96.5822453 +1  119.4045096 +1     1     2     3
  H     1.09930299 +1  112.6766825 +1  -55.5276102 +1    13     1     2
  H     1.10022861 +1  111.0204171 +1 -176.2252783 +1    13     1     2
  H     1.09994193 +1  111.6288301 +1   64.3992474 +1    13     1     2
  C     1.48997860 +1   98.3546815 +1 -120.2357312 +1     1     2     3
  H     1.10259347 +1  110.1407181 +1 -177.1112448 +1    17     1     2
  H     1.09655373 +1  113.1214895 +1   62.9146055 +1    17     1     2
  H     1.10151011 +1  111.6552983 +1  -58.2454479 +1    17     1     2
  H     1.02700588 +1  114.5106617 +1   -7.2784680 +1     7     6     2
  O     0.97216813 +1  151.3507978 +1  167.4096758 +1     2     1     3
  H     0.97221834 +1  104.8334723 +1   93.1314462 +1    22     2     1

 TIME=     0.50
  REACTANTS AND PRODUCTS SWAPPED AROUND
 *+*+*+*+*+*+*+*+*+*+*+*+*+*+*+*+*+*+*+*+*+*+*+*+*+*+*+*+*+*+*+*+*+*+*+*+*+*+*+*+
            BAR SHORTENED BY       0.000 PERCENT
 GRADIENT CRITERION IN FLEPO =    10.000


          FOR POINT   13 FIRST  STRUCTURE
 DISTANCE A - B      2.895324
 HEAT             -309.432461
 GRADIENT NORM      10.520042
 DIRECTION COSINE    0.028191
* ===============================
* Input file for Mopac
* ===============================
 PM7 BONDS AUX DUMP=30M ITRY=15000 T=14D CHARGE=-1 SINGLET eps=78.4 RELSCF=1


  C     0.00000000 +0    0.0000000 +0    0.0000000 +0     0     0     0
  H     1.12875596 +1    0.0000000 +0    0.0000000 +0     1     0     0
  N     1.50492346 +1  106.6388515 +1    0.0000000 +0     1     2     0
  O     1.22295070 +1  118.9124158 +1   -7.6886166 +1     3     1     2
  O     1.22101240 +1  119.3132940 +1  172.9686544 +1     3     1     2
  C     4.89523179 +1  164.8754794 +1   31.9729668 +1     2     1     3
  O     1.24955799 +1   58.0903626 +1  -78.3242659 +1     6     2     1
  O     1.25215664 +1   67.2478985 +1   82.3854954 +1     6     2     1
  C     1.50562081 +1  162.1272251 +1 -163.6939255 +1     6     2     1
  H     1.09495005 +1  112.1479306 +1  -90.1754065 +1     9     6     2
  H     1.10370582 +1  110.0831011 +1  149.6133522 +1     9     6     2
  H     1.09725541 +1  111.0730852 +1   30.7760238 +1     9     6     2
  C     1.52196410 +1  110.1547343 +1  117.6258650 +1     1     2     3
  H     1.09733887 +1  112.5723925 +1  -56.5229464 +1    13     1     2
  H     1.09828750 +1  112.6048443 +1 -178.1814326 +1    13     1     2
  H     1.10438448 +1  110.2859844 +1   62.8227634 +1    13     1     2
  C     1.52454599 +1  110.6320064 +1 -117.4265394 +1     1     2     3
  H     1.09910341 +1  112.4659766 +1  179.7698069 +1    17     1     2
  H     1.09654017 +1  112.9435100 +1   58.0706442 +1    17     1     2
  H     1.09870152 +1  110.3445375 +1  -61.5958879 +1    17     1     2
  H     2.04297047 +1   87.6536226 +1   -3.6475607 +1     7     6     2
  O     0.97363763 +1  121.9703694 +1 -117.0802806 +1    21     7     6
  H     0.96648228 +1  100.4047817 +1    9.3559058 +1    22    21     7

 TIME=     0.62
  REACTANTS AND PRODUCTS SWAPPED AROUND
 *+*+*+*+*+*+*+*+*+*+*+*+*+*+*+*+*+*+*+*+*+*+*+*+*+*+*+*+*+*+*+*+*+*+*+*+*+*+*+*+
            BAR SHORTENED BY       1.000 PERCENT
 GRADIENT CRITERION IN FLEPO =     7.520


          FOR POINT   14 SECOND STRUCTURE
 DISTANCE A - B      2.866371
 HEAT             -314.365167
 GRADIENT NORM      12.626228
 DIRECTION COSINE   -0.345915
* ===============================
* Input file for Mopac
* ===============================
 PM7 BONDS AUX DUMP=30M ITRY=15000 T=14D CHARGE=-1 SINGLET eps=78.4 RELSCF=1


  C     0.00000000 +0    0.0000000 +0    0.0000000 +0     0     0     0
  H     2.30349995 +1    0.0000000 +0    0.0000000 +0     1     0     0
  N     1.32143594 +1   81.6153860 +1    0.0000000 +0     1     2     0
  O     1.27147270 +1  122.4211336 +1  -85.1895678 +1     3     1     2
  O     1.26931096 +1  121.2477235 +1   92.6590266 +1     3     1     2
  C     4.20481724 +1  155.7750975 +1   74.9742850 +1     2     1     3
  O     1.33791332 +1   40.5106889 +1 -132.3070600 +1     6     2     1
  O     1.21707125 +1   79.8805662 +1   48.2130942 +1     6     2     1
  C     1.47918941 +1  153.7131857 +1 -130.6854832 +1     6     2     1
  H     1.10274257 +1  111.2447878 +1 -158.2778020 +1     9     6     2
  H     1.10411492 +1  111.8056095 +1   82.3511034 +1     9     6     2
  H     1.10570982 +1  112.6802613 +1  -37.7803439 +1     9     6     2
  C     1.48912561 +1   96.4125957 +1  119.4276668 +1     1     2     3
  H     1.10212421 +1  112.8970221 +1  -55.8891794 +1    13     1     2
  H     1.10285083 +1  111.0132269 +1 -175.9531076 +1    13     1     2
  H     1.09836175 +1  111.7331573 +1   64.5384322 +1    13     1     2
  C     1.48671673 +1   98.3692513 +1 -120.3209416 +1     1     2     3
  H     1.10110141 +1  109.9337691 +1 -177.1857459 +1    17     1     2
  H     1.09924533 +1  113.1412674 +1   63.2180699 +1    17     1     2
  H     1.09608537 +1  111.8731561 +1  -58.2106168 +1    17     1     2
  H     1.02958041 +1  114.4159652 +1   -7.2025532 +1     7     6     2
  O     0.97454343 +1  151.6989803 +1  167.4942087 +1     2     1     3
  H     0.97172570 +1  105.2280368 +1   93.5811550 +1    22     2     1

 TIME=     0.34
  REACTANTS AND PRODUCTS SWAPPED AROUND
 *+*+*+*+*+*+*+*+*+*+*+*+*+*+*+*+*+*+*+*+*+*+*+*+*+*+*+*+*+*+*+*+*+*+*+*+*+*+*+*+
            BAR SHORTENED BY       1.000 PERCENT
 GRADIENT CRITERION IN FLEPO =     9.626


          FOR POINT   15 FIRST  STRUCTURE
 DISTANCE A - B      2.837708
 HEAT             -309.456371
 GRADIENT NORM      12.351501
 DIRECTION COSINE    0.323392
* ===============================
* Input file for Mopac
* ===============================
 PM7 BONDS AUX DUMP=30M ITRY=15000 T=14D CHARGE=-1 SINGLET eps=78.4 RELSCF=1


  C     0.00000000 +0    0.0000000 +0    0.0000000 +0     0     0     0
  H     1.13652857 +1    0.0000000 +0    0.0000000 +0     1     0     0
  N     1.49811429 +1  106.6640689 +1    0.0000000 +0     1     2     0
  O     1.22442465 +1  119.1546650 +1   -8.4773106 +1     3     1     2
  O     1.21919640 +1  119.5956230 +1  172.1629510 +1     3     1     2
  C     4.88725129 +1  164.6161269 +1   33.2955274 +1     2     1     3
  O     1.25109084 +1   57.8431071 +1  -79.7497962 +1     6     2     1
  O     1.24582064 +1   67.4015588 +1   81.3599783 +1     6     2     1
  C     1.50877234 +1  162.1558407 +1 -163.7213205 +1     6     2     1
  H     1.09491750 +1  112.0268145 +1  -91.3019257 +1     9     6     2
  H     1.09727627 +1  110.0212984 +1  148.5734632 +1     9     6     2
  H     1.09581034 +1  110.9601238 +1   29.6976567 +1     9     6     2
  C     1.52197006 +1  109.9730796 +1  117.6374101 +1     1     2     3
  H     1.10175510 +1  112.4926609 +1  -56.6168985 +1    13     1     2
  H     1.09927715 +1  112.9368708 +1 -178.1507593 +1    13     1     2
  H     1.10107667 +1  110.4047371 +1   62.6273124 +1    13     1     2
  C     1.52372494 +1  110.8895123 +1 -117.7429106 +1     1     2     3
  H     1.09842068 +1  112.9211782 +1  179.9255600 +1    17     1     2
  H     1.10057650 +1  112.6627679 +1   58.1426176 +1    17     1     2
  H     1.10206000 +1  110.4396821 +1  -60.9825471 +1    17     1     2
  H     2.02900448 +1   87.9036621 +1   -3.7563644 +1     7     6     2
  O     0.97401601 +1  122.8899724 +1 -117.4423566 +1    21     7     6
  H     0.96421500 +1  100.1394595 +1    9.5057272 +1    22    21     7

 TIME=     0.44
  REACTANTS AND PRODUCTS SWAPPED AROUND
 *+*+*+*+*+*+*+*+*+*+*+*+*+*+*+*+*+*+*+*+*+*+*+*+*+*+*+*+*+*+*+*+*+*+*+*+*+*+*+*+
            BAR SHORTENED BY       1.000 PERCENT
 GRADIENT CRITERION IN FLEPO =     9.352


          FOR POINT   16 SECOND STRUCTURE
 DISTANCE A - B      2.809330
 HEAT             -314.077932
 GRADIENT NORM      16.644685
 DIRECTION COSINE   -0.036293
* ===============================
* Input file for Mopac
* ===============================
 PM7 BONDS AUX DUMP=30M ITRY=15000 T=14D CHARGE=-1 SINGLET eps=78.4 RELSCF=1


  C     0.00000000 +0    0.0000000 +0    0.0000000 +0     0     0     0
  H     2.29467298 +1    0.0000000 +0    0.0000000 +0     1     0     0
  N     1.32320495 +1   81.9942290 +1    0.0000000 +0     1     2     0
  O     1.26886137 +1  122.9498568 +1  -84.4374679 +1     3     1     2
  O     1.26807508 +1  121.0602676 +1   92.9703736 +1     3     1     2
  C     4.20842895 +1  155.7706803 +1   74.5428650 +1     2     1     3
  O     1.34145361 +1   40.7057654 +1 -131.8788728 +1     6     2     1
  O     1.21371567 +1   79.6134684 +1   48.4406186 +1     6     2     1
  C     1.48153604 +1  153.6949510 +1 -131.1891883 +1     6     2     1
  H     1.10457584 +1  111.0174985 +1 -157.5887145 +1     9     6     2
  H     1.10389123 +1  111.7414030 +1   83.0924048 +1     9     6     2
  H     1.10337298 +1  112.8432976 +1  -37.2514793 +1     9     6     2
  C     1.48928942 +1   96.5900913 +1  119.3875670 +1     1     2     3
  H     1.10038278 +1  112.7824919 +1  -55.4015358 +1    13     1     2
  H     1.09807704 +1  111.0440343 +1 -175.9872633 +1    13     1     2
  H     1.10249711 +1  111.4462781 +1   64.4722284 +1    13     1     2
  C     1.48378068 +1   98.6511211 +1 -120.0817850 +1     1     2     3
  H     1.10197673 +1  110.2694920 +1 -176.9970071 +1    17     1     2
  H     1.09847758 +1  113.3289111 +1   63.0792417 +1    17     1     2
  H     1.09905252 +1  111.7989889 +1  -58.2605659 +1    17     1     2
  H     1.03387462 +1  113.9595512 +1   -6.8691408 +1     7     6     2
  O     0.97687838 +1  152.2880056 +1  167.0194979 +1     2     1     3
  H     0.97020047 +1  105.5034932 +1   94.1130439 +1    22     2     1

 TIME=     1.47
  REACTANTS AND PRODUCTS SWAPPED AROUND
 *+*+*+*+*+*+*+*+*+*+*+*+*+*+*+*+*+*+*+*+*+*+*+*+*+*+*+*+*+*+*+*+*+*+*+*+*+*+*+*+
            BAR SHORTENED BY       1.000 PERCENT
 GRADIENT CRITERION IN FLEPO =    10.000


          FOR POINT   17 FIRST  STRUCTURE
 DISTANCE A - B      2.781237
 HEAT             -309.498135
 GRADIENT NORM      11.418493
 DIRECTION COSINE    0.164735
* ===============================
* Input file for Mopac
* ===============================
 PM7 BONDS AUX DUMP=30M ITRY=15000 T=14D CHARGE=-1 SINGLET eps=78.4 RELSCF=1


  C     0.00000000 +0    0.0000000 +0    0.0000000 +0     0     0     0
  H     1.13048258 +1    0.0000000 +0    0.0000000 +0     1     0     0
  N     1.49825085 +1  106.5248254 +1    0.0000000 +0     1     2     0
  O     1.22181067 +1  119.3130639 +1   -8.7819508 +1     3     1     2
  O     1.21996927 +1  119.5471508 +1  171.1967223 +1     3     1     2
  C     4.89289148 +1  164.5653474 +1   33.9744467 +1     2     1     3
  O     1.25029007 +1   57.6178908 +1  -80.6561053 +1     6     2     1
  O     1.24900401 +1   67.5090729 +1   80.5199599 +1     6     2     1
  C     1.50592357 +1  162.3791600 +1 -164.0358034 +1     6     2     1
  H     1.09588615 +1  112.1847885 +1  -91.8797213 +1     9     6     2
  H     1.09701536 +1  110.0967879 +1  148.0049457 +1     9     6     2
  H     1.09522530 +1  110.9391763 +1   29.3758934 +1     9     6     2
  C     1.52175808 +1  110.0381140 +1  117.7915140 +1     1     2     3
  H     1.09917920 +1  112.3189696 +1  -56.4768454 +1    13     1     2
  H     1.10481120 +1  112.8426078 +1 -178.1995072 +1    13     1     2
  H     1.09791842 +1  110.3094197 +1   63.0358963 +1    13     1     2
  C     1.52643668 +1  110.9274996 +1 -117.4571492 +1     1     2     3
  H     1.09964475 +1  113.0889785 +1  179.9005961 +1    17     1     2
  H     1.09809402 +1  112.7589858 +1   58.0767569 +1    17     1     2
  H     1.09700254 +1  110.1867278 +1  -60.9492023 +1    17     1     2
  H     2.01728913 +1   88.1451844 +1   -3.8184282 +1     7     6     2
  O     0.97725074 +1  123.9060458 +1 -117.6746755 +1    21     7     6
  H     0.96626151 +1   99.8893894 +1    9.2041718 +1    22    21     7

 TIME=     0.26
  REACTANTS AND PRODUCTS SWAPPED AROUND
 *+*+*+*+*+*+*+*+*+*+*+*+*+*+*+*+*+*+*+*+*+*+*+*+*+*+*+*+*+*+*+*+*+*+*+*+*+*+*+*+
            BAR SHORTENED BY       1.000 PERCENT
 GRADIENT CRITERION IN FLEPO =     8.418


          FOR POINT   18 SECOND STRUCTURE
 DISTANCE A - B      2.753425
 HEAT             -313.743929
 GRADIENT NORM      17.770612
 DIRECTION COSINE   -0.059363
* ===============================
* Input file for Mopac
* ===============================
 PM7 BONDS AUX DUMP=30M ITRY=15000 T=14D CHARGE=-1 SINGLET eps=78.4 RELSCF=1


  C     0.00000000 +0    0.0000000 +0    0.0000000 +0     0     0     0
  H     2.28783315 +1    0.0000000 +0    0.0000000 +0     1     0     0
  N     1.31926306 +1   82.3397542 +1    0.0000000 +0     1     2     0
  O     1.26988195 +1  123.2270259 +1  -84.0308475 +1     3     1     2
  O     1.26786471 +1  121.1493773 +1   93.5232695 +1     3     1     2
  C     4.21179338 +1  155.7345490 +1   73.9238496 +1     2     1     3
  O     1.33919973 +1   40.6323028 +1 -130.8179498 +1     6     2     1
  O     1.21350238 +1   79.4172835 +1   48.7620285 +1     6     2     1
  C     1.47637654 +1  153.9609799 +1 -131.0254155 +1     6     2     1
  H     1.09892922 +1  110.9988461 +1 -155.9245217 +1     9     6     2
  H     1.10432098 +1  111.9946769 +1   83.3856361 +1     9     6     2
  H     1.10364431 +1  112.9202973 +1  -36.9635760 +1     9     6     2
  C     1.48948530 +1   96.4995931 +1  119.4512476 +1     1     2     3
  H     1.10199965 +1  112.5863755 +1  -55.6984669 +1    13     1     2
  H     1.09861807 +1  111.2025101 +1 -175.6907757 +1    13     1     2
  H     1.09743682 +1  111.6555273 +1   64.4359176 +1    13     1     2
  C     1.48560131 +1   98.8501520 +1 -120.3017065 +1     1     2     3
  H     1.10247399 +1  110.0151092 +1 -176.7111466 +1    17     1     2
  H     1.09935530 +1  113.5188895 +1   63.4782041 +1    17     1     2
  H     1.09827520 +1  111.8434449 +1  -58.1120229 +1    17     1     2
  H     1.03322222 +1  114.0545344 +1   -6.6689470 +1     7     6     2
  O     0.97713802 +1  152.7709643 +1  166.3171644 +1     2     1     3
  H     0.96978919 +1  105.5822977 +1   95.3533358 +1    22     2     1

 TIME=     0.56
  REACTANTS AND PRODUCTS SWAPPED AROUND
 *+*+*+*+*+*+*+*+*+*+*+*+*+*+*+*+*+*+*+*+*+*+*+*+*+*+*+*+*+*+*+*+*+*+*+*+*+*+*+*+
            BAR SHORTENED BY       1.000 PERCENT
 GRADIENT CRITERION IN FLEPO =    10.000


          FOR POINT   19 FIRST  STRUCTURE
 DISTANCE A - B      2.725891
 HEAT             -309.567533
 GRADIENT NORM      13.858279
 DIRECTION COSINE    0.079060
* ===============================
* Input file for Mopac
* ===============================
 PM7 BONDS AUX DUMP=30M ITRY=15000 T=14D CHARGE=-1 SINGLET eps=78.4 RELSCF=1


  C     0.00000000 +0    0.0000000 +0    0.0000000 +0     0     0     0
  H     1.13790220 +1    0.0000000 +0    0.0000000 +0     1     0     0
  N     1.49659439 +1  106.2910433 +1    0.0000000 +0     1     2     0
  O     1.22340732 +1  119.5761515 +1   -9.4973667 +1     3     1     2
  O     1.21861372 +1  119.7512123 +1  170.4156268 +1     3     1     2
  C     4.88429598 +1  164.4827993 +1   35.4910347 +1     2     1     3
  O     1.24996389 +1   57.3693841 +1  -82.3736242 +1     6     2     1
  O     1.25028780 +1   67.8165650 +1   78.9804044 +1     6     2     1
  C     1.50618931 +1  162.3887119 +1 -164.7602199 +1     6     2     1
  H     1.09454198 +1  112.4265773 +1  -92.6227124 +1     9     6     2
  H     1.09887732 +1  110.0778684 +1  147.1802853 +1     9     6     2
  H     1.09765935 +1  111.1052148 +1   28.8269877 +1     9     6     2
  C     1.51911796 +1  110.0463921 +1  117.5096142 +1     1     2     3
  H     1.09788039 +1  112.5525964 +1  -56.0018622 +1    13     1     2
  H     1.10018302 +1  113.0168459 +1 -178.1704882 +1    13     1     2
  H     1.10357851 +1  110.1425367 +1   63.1622097 +1    13     1     2
  C     1.52442417 +1  111.0688079 +1 -117.3515369 +1     1     2     3
  H     1.09985174 +1  113.2516983 +1  179.9959128 +1    17     1     2
  H     1.09897990 +1  112.8389574 +1   57.9986336 +1    17     1     2
  H     1.10119986 +1  110.0604832 +1  -61.2464434 +1    17     1     2
  H     2.00519896 +1   88.3620342 +1   -3.9484604 +1     7     6     2
  O     0.97612746 +1  124.5753103 +1 -118.5366969 +1    21     7     6
  H     0.96601329 +1   99.8257506 +1    9.7195421 +1    22    21     7

 TIME=     0.84
  REACTANTS AND PRODUCTS SWAPPED AROUND
 *+*+*+*+*+*+*+*+*+*+*+*+*+*+*+*+*+*+*+*+*+*+*+*+*+*+*+*+*+*+*+*+*+*+*+*+*+*+*+*+
            BAR SHORTENED BY       1.000 PERCENT
 GRADIENT CRITERION IN FLEPO =    10.000


          FOR POINT   20 SECOND STRUCTURE
 DISTANCE A - B      2.698632
 HEAT             -313.669898
 GRADIENT NORM      18.754237
 DIRECTION COSINE    0.069410
* ===============================
* Input file for Mopac
* ===============================
 PM7 BONDS AUX DUMP=30M ITRY=15000 T=14D CHARGE=-1 SINGLET eps=78.4 RELSCF=1


  C     0.00000000 +0    0.0000000 +0    0.0000000 +0     0     0     0
  H     2.27900617 +1    0.0000000 +0    0.0000000 +0     1     0     0
  N     1.32143082 +1   82.8409311 +1    0.0000000 +0     1     2     0
  O     1.26839813 +1  123.4860586 +1  -84.0679949 +1     3     1     2
  O     1.26756468 +1  120.9776441 +1   93.6348585 +1     3     1     2
  C     4.22154950 +1  154.7808900 +1   72.8172650 +1     2     1     3
  O     1.33796359 +1   40.7673748 +1 -129.6226045 +1     6     2     1
  O     1.21489599 +1   79.6628159 +1   49.7259869 +1     6     2     1
  C     1.48178573 +1  153.9295361 +1 -132.1082219 +1     6     2     1
  H     1.10389776 +1  111.0466253 +1 -154.5414696 +1     9     6     2
  H     1.10408431 +1  111.7144164 +1   85.6304565 +1     9     6     2
  H     1.10430567 +1  113.1930073 +1  -35.1324333 +1     9     6     2
  C     1.48914468 +1   95.7982951 +1  119.4705202 +1     1     2     3
  H     1.09874635 +1  112.6928815 +1  -55.6121117 +1    13     1     2
  H     1.10023673 +1  111.1313623 +1 -175.6444520 +1    13     1     2
  H     1.09907808 +1  111.5972256 +1   64.7127637 +1    13     1     2
  C     1.48560077 +1   99.4100721 +1 -120.2168044 +1     1     2     3
  H     1.10282289 +1  109.9132289 +1 -176.2530707 +1    17     1     2
  H     1.09412947 +1  113.2288636 +1   64.0608630 +1    17     1     2
  H     1.10332461 +1  112.1026632 +1  -57.7031185 +1    17     1     2
  H     1.03480645 +1  113.6994420 +1   -5.8490581 +1     7     6     2
  O     0.97797645 +1  153.5974099 +1  161.1507869 +1     2     1     3
  H     0.96933443 +1  104.3489225 +1  100.5287665 +1    22     2     1

 *+*+*+*+*+*+*+*+*+*+*+*+*+*+*+*+*+*+*+*+*+*+*+*+*+*+*+*+*+*+*+*+*+*+*+*+*+*+*+*+
            BAR SHORTENED BY       1.000 PERCENT
 GRADIENT CRITERION IN FLEPO =    10.000


          FOR POINT   21 SECOND STRUCTURE
 DISTANCE A - B      2.671645
 HEAT             -313.493317
 GRADIENT NORM      20.306766
 DIRECTION COSINE    0.530963
* ===============================
* Input file for Mopac
* ===============================
 PM7 BONDS AUX DUMP=30M ITRY=15000 T=14D CHARGE=-1 SINGLET eps=78.4 RELSCF=1


  C     0.00000000 +0    0.0000000 +0    0.0000000 +0     0     0     0
  H     2.27480237 +1    0.0000000 +0    0.0000000 +0     1     0     0
  N     1.32159382 +1   83.1176779 +1    0.0000000 +0     1     2     0
  O     1.27262007 +1  123.0064443 +1  -83.2857592 +1     3     1     2
  O     1.26922975 +1  120.9898151 +1   94.2992357 +1     3     1     2
  C     4.22064153 +1  155.0132841 +1   72.4579026 +1     2     1     3
  O     1.33949131 +1   40.7768872 +1 -129.0623341 +1     6     2     1
  O     1.20988322 +1   79.3411636 +1   49.6188481 +1     6     2     1
  C     1.47627874 +1  154.2415336 +1 -132.6170713 +1     6     2     1
  H     1.10623386 +1  111.1854072 +1 -154.2212813 +1     9     6     2
  H     1.10648961 +1  111.9589464 +1   86.3567403 +1     9     6     2
  H     1.10521121 +1  113.1231084 +1  -34.1331068 +1     9     6     2
  C     1.48961225 +1   95.8397738 +1  119.3894234 +1     1     2     3
  H     1.09951401 +1  112.7964615 +1  -55.9043671 +1    13     1     2
  H     1.09798482 +1  110.8228240 +1 -175.5931108 +1    13     1     2
  H     1.09694968 +1  111.7042356 +1   64.8649200 +1    13     1     2
  C     1.48702912 +1   99.4879039 +1 -120.3683518 +1     1     2     3
  H     1.10155856 +1  109.6560182 +1 -176.4579018 +1    17     1     2
  H     1.09846935 +1  113.0816375 +1   64.2823552 +1    17     1     2
  H     1.09634754 +1  112.0772129 +1  -57.6108734 +1    17     1     2
  H     1.02826125 +1  113.5366326 +1   -4.9244090 +1     7     6     2
  O     0.97485557 +1  154.0279240 +1  161.8695203 +1     2     1     3
  H     0.96287162 +1  105.2810920 +1  100.6249465 +1    22     2     1

 *+*+*+*+*+*+*+*+*+*+*+*+*+*+*+*+*+*+*+*+*+*+*+*+*+*+*+*+*+*+*+*+*+*+*+*+*+*+*+*+
            BAR SHORTENED BY       1.000 PERCENT
 GRADIENT CRITERION IN FLEPO =    10.000


          FOR POINT   22 SECOND STRUCTURE
 DISTANCE A - B      2.644929
 HEAT             -313.280143
 GRADIENT NORM      19.211790
 DIRECTION COSINE    0.439853
* ===============================
* Input file for Mopac
* ===============================
 PM7 BONDS AUX DUMP=30M ITRY=15000 T=14D CHARGE=-1 SINGLET eps=78.4 RELSCF=1


  C     0.00000000 +0    0.0000000 +0    0.0000000 +0     0     0     0
  H     2.27064948 +1    0.0000000 +0    0.0000000 +0     1     0     0
  N     1.32217154 +1   83.3242153 +1    0.0000000 +0     1     2     0
  O     1.26936173 +1  123.3701356 +1  -82.5886039 +1     3     1     2
  O     1.26776268 +1  120.9126463 +1   94.7899930 +1     3     1     2
  C     4.22303561 +1  155.1483530 +1   72.1003631 +1     2     1     3
  O     1.33670324 +1   40.8785760 +1 -128.0912834 +1     6     2     1
  O     1.21612358 +1   79.1331054 +1   49.7694444 +1     6     2     1
  C     1.47415288 +1  154.3226414 +1 -133.1089123 +1     6     2     1
  H     1.10755163 +1  110.9138766 +1 -154.0031292 +1     9     6     2
  H     1.10892959 +1  111.7294557 +1   87.5640780 +1     9     6     2
  H     1.09709183 +1  113.3260452 +1  -33.3184558 +1     9     6     2
  C     1.48971348 +1   95.8876211 +1  119.3490907 +1     1     2     3
  H     1.10331814 +1  112.6666630 +1  -55.8353229 +1    13     1     2
  H     1.09956878 +1  110.9994249 +1 -175.6429408 +1    13     1     2
  H     1.10016228 +1  111.8376650 +1   64.6825546 +1    13     1     2
  C     1.48336524 +1   99.5719541 +1 -120.3063963 +1     1     2     3
  H     1.10303545 +1  109.7432027 +1 -176.1452922 +1    17     1     2
  H     1.09852317 +1  113.3544676 +1   64.2202196 +1    17     1     2
  H     1.09977302 +1  112.0237868 +1  -57.8510664 +1    17     1     2
  H     1.03594670 +1  113.4570280 +1   -4.8397752 +1     7     6     2
  O     0.97870989 +1  154.3284136 +1  161.9467123 +1     2     1     3
  H     0.96826390 +1  105.5634405 +1  100.9538861 +1    22     2     1

 TIME=     2.08
  REACTANTS AND PRODUCTS SWAPPED AROUND
 *+*+*+*+*+*+*+*+*+*+*+*+*+*+*+*+*+*+*+*+*+*+*+*+*+*+*+*+*+*+*+*+*+*+*+*+*+*+*+*+
            BAR SHORTENED BY       0.000 PERCENT
 GRADIENT CRITERION IN FLEPO =    10.000
 

                    SINCE COS WAS JUST RESET,THE SEARCH IS BEING ENDED


          FOR POINT   23 FIRST  STRUCTURE
 DISTANCE A - B      2.644929
 HEAT             -309.522270
 GRADIENT NORM      13.857803
 DIRECTION COSINE    0.105585
* ===============================
* Input file for Mopac
* ===============================
 PM7 BONDS AUX DUMP=30M ITRY=15000 T=14D CHARGE=-1 SINGLET eps=78.4 RELSCF=1


  C     0.00000000 +0    0.0000000 +0    0.0000000 +0     0     0     0
  H     1.13790220 +1    0.0000000 +0    0.0000000 +0     1     0     0
  N     1.49659439 +1  106.2910435 +1    0.0000000 +0     1     2     0
  O     1.22340732 +1  119.5761513 +1   -9.4973660 +1     3     1     2
  O     1.21861372 +1  119.7512128 +1  170.4156263 +1     3     1     2
  C     4.88429598 +1  164.4827993 +1   35.4910345 +1     2     1     3
  O     1.24996389 +1   57.3693841 +1  -82.3736241 +1     6     2     1
  O     1.25028780 +1   67.8165649 +1   78.9804045 +1     6     2     1
  C     1.50618931 +1  162.3887119 +1 -164.7602201 +1     6     2     1
  H     1.09454198 +1  112.4265774 +1  -92.6227121 +1     9     6     2
  H     1.09887732 +1  110.0778684 +1  147.1802857 +1     9     6     2
  H     1.09765935 +1  111.1052148 +1   28.8269881 +1     9     6     2
  C     1.51911796 +1  110.0463923 +1  117.5096142 +1     1     2     3
  H     1.09788039 +1  112.5525964 +1  -56.0018621 +1    13     1     2
  H     1.10018302 +1  113.0168460 +1 -178.1704882 +1    13     1     2
  H     1.10357851 +1  110.1425366 +1   63.1622097 +1    13     1     2
  C     1.52442417 +1  111.0688081 +1 -117.3515368 +1     1     2     3
  H     1.09985174 +1  113.2516984 +1  179.9959128 +1    17     1     2
  H     1.09897990 +1  112.8389574 +1   57.9986335 +1    17     1     2
  H     1.10119986 +1  110.0604831 +1  -61.2464434 +1    17     1     2
  H     2.00519896 +1   88.3620341 +1   -3.9484605 +1     7     6     2
  O     0.97612746 +1  124.5753104 +1 -118.5366969 +1    21     7     6
  H     0.96601330 +1   99.8257506 +1    9.7195423 +1    22    21     7

 TIME=     0.65
  REACTANTS AND PRODUCTS SWAPPED AROUND
 *+*+*+*+*+*+*+*+*+*+*+*+*+*+*+*+*+*+*+*+*+*+*+*+*+*+*+*+*+*+*+*+*+*+*+*+*+*+*+*+
            BAR SHORTENED BY       1.000 PERCENT
 GRADIENT CRITERION IN FLEPO =    10.000


          FOR POINT   24 SECOND STRUCTURE
 DISTANCE A - B      2.618480
 HEAT             -313.143380
 GRADIENT NORM      21.700425
 DIRECTION COSINE   -0.107550
* ===============================
* Input file for Mopac
* ===============================
 PM7 BONDS AUX DUMP=30M ITRY=15000 T=14D CHARGE=-1 SINGLET eps=78.4 RELSCF=1


  C     0.00000000 +0    0.0000000 +0    0.0000000 +0     0     0     0
  H     2.27843798 +1    0.0000000 +0    0.0000000 +0     1     0     0
  N     1.32117997 +1   83.5571415 +1    0.0000000 +0     1     2     0
  O     1.27041898 +1  123.7022204 +1  -81.7794501 +1     3     1     2
  O     1.26876367 +1  120.8431868 +1   95.7207509 +1     3     1     2
  C     4.21172473 +1  155.0848422 +1   71.3393822 +1     2     1     3
  O     1.33954219 +1   40.9936186 +1 -127.0730186 +1     6     2     1
  O     1.22104161 +1   78.9397471 +1   49.8899837 +1     6     2     1
  C     1.47393493 +1  154.7281130 +1 -133.4331410 +1     6     2     1
  H     1.10196371 +1  111.1846990 +1 -152.7952995 +1     9     6     2
  H     1.10679997 +1  111.9264755 +1   88.0295123 +1     9     6     2
  H     1.10592365 +1  113.0595123 +1  -32.1441694 +1     9     6     2
  C     1.49016559 +1   95.8392942 +1  119.3374538 +1     1     2     3
  H     1.10192402 +1  112.6682829 +1  -55.8590107 +1    13     1     2
  H     1.10008473 +1  110.8593016 +1 -175.5555498 +1    13     1     2
  H     1.09883087 +1  111.7546049 +1   64.5481666 +1    13     1     2
  C     1.48709678 +1   99.6552943 +1 -120.3866163 +1     1     2     3
  H     1.10491168 +1  109.3972807 +1 -176.1062822 +1    17     1     2
  H     1.09718145 +1  113.1641941 +1   64.5026048 +1    17     1     2
  H     1.09641712 +1  112.1513333 +1  -57.6860904 +1    17     1     2
  H     1.03486336 +1  113.3945774 +1   -4.3356481 +1     7     6     2
  O     0.96491927 +1  154.5552573 +1  161.3243797 +1     2     1     3
  H     0.97098774 +1  105.7290169 +1  102.2485384 +1    22     2     1

 TIME=     0.22
  REACTANTS AND PRODUCTS SWAPPED AROUND
 *+*+*+*+*+*+*+*+*+*+*+*+*+*+*+*+*+*+*+*+*+*+*+*+*+*+*+*+*+*+*+*+*+*+*+*+*+*+*+*+
            BAR SHORTENED BY       1.000 PERCENT
 GRADIENT CRITERION IN FLEPO =    10.000
 

                    SINCE COS WAS JUST RESET,THE SEARCH IS BEING ENDED


          FOR POINT   25 FIRST  STRUCTURE
 DISTANCE A - B      2.592295
 HEAT             -309.271653
 GRADIENT NORM      30.316717
 DIRECTION COSINE    0.035541
* ===============================
* Input file for Mopac
* ===============================
 PM7 BONDS AUX DUMP=30M ITRY=15000 T=14D CHARGE=-1 SINGLET eps=78.4 RELSCF=1


  C     0.00000000 +0    0.0000000 +0    0.0000000 +0     0     0     0
  H     1.14912121 +1    0.0000000 +0    0.0000000 +0     1     0     0
  N     1.49388731 +1  106.0892415 +1    0.0000000 +0     1     2     0
  O     1.22008233 +1  119.8339298 +1  -10.1645736 +1     3     1     2
  O     1.21130786 +1  119.7981366 +1  169.7048011 +1     3     1     2
  C     4.87716483 +1  164.3970956 +1   36.2537295 +1     2     1     3
  O     1.25056272 +1   57.2088471 +1  -83.1787778 +1     6     2     1
  O     1.24992855 +1   67.9150488 +1   78.3238217 +1     6     2     1
  C     1.50509718 +1  162.4562064 +1 -164.7699675 +1     6     2     1
  H     1.09427517 +1  112.4208258 +1  -93.2927256 +1     9     6     2
  H     1.09859116 +1  110.0947475 +1  146.5411477 +1     9     6     2
  H     1.09758870 +1  111.1077683 +1   28.1709253 +1     9     6     2
  C     1.51865355 +1  109.8431854 +1  117.4584505 +1     1     2     3
  H     1.09791749 +1  112.5555367 +1  -55.9629942 +1    13     1     2
  H     1.10011477 +1  112.9963389 +1 -178.1083189 +1    13     1     2
  H     1.10346125 +1  110.1550001 +1   63.2153239 +1    13     1     2
  C     1.52331059 +1  111.0298779 +1 -117.4491307 +1     1     2     3
  H     1.09956161 +1  113.2194204 +1 -179.9310570 +1    17     1     2
  H     1.09885097 +1  112.8394712 +1   58.1032536 +1    17     1     2
  H     1.10099085 +1  110.0718906 +1  -61.1855224 +1    17     1     2
  H     1.99508362 +1   88.5447186 +1   -3.9730963 +1     7     6     2
  O     0.97944206 +1  125.1640960 +1 -118.7807930 +1    21     7     6
  H     0.96457131 +1   99.5492089 +1    9.7157944 +1    22    21     7

 TIME=     0.75
  REACTANTS AND PRODUCTS SWAPPED AROUND
 *+*+*+*+*+*+*+*+*+*+*+*+*+*+*+*+*+*+*+*+*+*+*+*+*+*+*+*+*+*+*+*+*+*+*+*+*+*+*+*+
            BAR SHORTENED BY       1.000 PERCENT
 GRADIENT CRITERION IN FLEPO =    10.000


          FOR POINT   26 SECOND STRUCTURE
 DISTANCE A - B      2.566372
 HEAT             -312.911089
 GRADIENT NORM      16.126756
 DIRECTION COSINE    0.281596
* ===============================
* Input file for Mopac
* ===============================
 PM7 BONDS AUX DUMP=30M ITRY=15000 T=14D CHARGE=-1 SINGLET eps=78.4 RELSCF=1


  C     0.00000000 +0    0.0000000 +0    0.0000000 +0     0     0     0
  H     2.26891880 +1    0.0000000 +0    0.0000000 +0     1     0     0
  N     1.32215190 +1   83.7926568 +1    0.0000000 +0     1     2     0
  O     1.27075460 +1  123.6141507 +1  -81.0901269 +1     3     1     2
  O     1.26989785 +1  120.7506354 +1   96.3594390 +1     3     1     2
  C     4.21704312 +1  155.1838090 +1   70.8676908 +1     2     1     3
  O     1.34136775 +1   41.0827387 +1 -126.3908943 +1     6     2     1
  O     1.21575485 +1   78.8051334 +1   50.4286627 +1     6     2     1
  C     1.47553726 +1  154.4830005 +1 -134.3721696 +1     6     2     1
  H     1.10704452 +1  110.9376760 +1 -152.1280489 +1     9     6     2
  H     1.11039680 +1  111.8932566 +1   89.9257358 +1     9     6     2
  H     1.09684975 +1  113.7555722 +1  -30.9790987 +1     9     6     2
  C     1.49011025 +1   95.8871769 +1  119.2665752 +1     1     2     3
  H     1.10181852 +1  112.6240338 +1  -55.6860797 +1    13     1     2
  H     1.09540173 +1  111.1164013 +1 -175.7170204 +1    13     1     2
  H     1.09821152 +1  111.5236782 +1   64.4853593 +1    13     1     2
  C     1.48477648 +1   99.7033911 +1 -120.3724328 +1     1     2     3
  H     1.10308032 +1  109.4538874 +1 -176.0336395 +1    17     1     2
  H     1.09721488 +1  113.4787755 +1   64.6499354 +1    17     1     2
  H     1.09713461 +1  112.2103180 +1  -57.7581281 +1    17     1     2
  H     1.03034806 +1  113.6016440 +1   -4.1256504 +1     7     6     2
  O     0.97629959 +1  155.0727176 +1  161.2516279 +1     2     1     3
  H     0.97185999 +1  105.7142595 +1  102.9398096 +1    22     2     1

 *+*+*+*+*+*+*+*+*+*+*+*+*+*+*+*+*+*+*+*+*+*+*+*+*+*+*+*+*+*+*+*+*+*+*+*+*+*+*+*+
            BAR SHORTENED BY       1.000 PERCENT
 GRADIENT CRITERION IN FLEPO =    10.000


          FOR POINT   27 SECOND STRUCTURE
 DISTANCE A - B      2.540708
 HEAT             -312.643711
 GRADIENT NORM      17.840646
 DIRECTION COSINE    0.712293
* ===============================
* Input file for Mopac
* ===============================
 PM7 BONDS AUX DUMP=30M ITRY=15000 T=14D CHARGE=-1 SINGLET eps=78.4 RELSCF=1


  C     0.00000000 +0    0.0000000 +0    0.0000000 +0     0     0     0
  H     2.26426649 +1    0.0000000 +0    0.0000000 +0     1     0     0
  N     1.32234879 +1   83.9180551 +1    0.0000000 +0     1     2     0
  O     1.26875262 +1  123.7487404 +1  -80.7876226 +1     3     1     2
  O     1.26956218 +1  120.6926318 +1   96.9221719 +1     3     1     2
  C     4.21822185 +1  155.1236700 +1   70.4700958 +1     2     1     3
  O     1.33967752 +1   41.2433604 +1 -125.5750143 +1     6     2     1
  O     1.21530298 +1   78.7710666 +1   50.5790461 +1     6     2     1
  C     1.47755436 +1  154.9232783 +1 -134.5705235 +1     6     2     1
  H     1.10395228 +1  111.1988596 +1 -151.2955086 +1     9     6     2
  H     1.10709302 +1  111.8886068 +1   90.1296658 +1     9     6     2
  H     1.10133760 +1  113.3998163 +1  -30.3752065 +1     9     6     2
  C     1.49013288 +1   95.6968229 +1  119.1265226 +1     1     2     3
  H     1.09933300 +1  112.8408748 +1  -55.6155439 +1    13     1     2
  H     1.10019351 +1  111.0864488 +1 -175.7331907 +1    13     1     2
  H     1.10172947 +1  111.6060162 +1   64.6555692 +1    13     1     2
  C     1.48442772 +1   99.8694298 +1 -120.5384131 +1     1     2     3
  H     1.10212992 +1  109.2779240 +1 -176.0926032 +1    17     1     2
  H     1.10098736 +1  113.2513520 +1   64.6493720 +1    17     1     2
  H     1.09780311 +1  112.1836296 +1  -57.4501202 +1    17     1     2
  H     1.03586713 +1  113.2819814 +1   -3.9030337 +1     7     6     2
  O     0.97852713 +1  155.6308275 +1  160.6083634 +1     2     1     3
  H     0.96375103 +1  106.1543288 +1  103.9601007 +1    22     2     1

 *+*+*+*+*+*+*+*+*+*+*+*+*+*+*+*+*+*+*+*+*+*+*+*+*+*+*+*+*+*+*+*+*+*+*+*+*+*+*+*+
            BAR SHORTENED BY       1.000 PERCENT
 GRADIENT CRITERION IN FLEPO =    10.000


          FOR POINT   28 SECOND STRUCTURE
 DISTANCE A - B      2.515301
 HEAT             -312.407317
 GRADIENT NORM      20.726456
 DIRECTION COSINE    0.760248
* ===============================
* Input file for Mopac
* ===============================
 PM7 BONDS AUX DUMP=30M ITRY=15000 T=14D CHARGE=-1 SINGLET eps=78.4 RELSCF=1


  C     0.00000000 +0    0.0000000 +0    0.0000000 +0     0     0     0
  H     2.25736437 +1    0.0000000 +0    0.0000000 +0     1     0     0
  N     1.32311940 +1   84.3347656 +1    0.0000000 +0     1     2     0
  O     1.26885687 +1  123.7695880 +1  -80.0703253 +1     3     1     2
  O     1.26802591 +1  120.7751710 +1   97.2476837 +1     3     1     2
  C     4.22413343 +1  155.0569782 +1   70.0277274 +1     2     1     3
  O     1.34038900 +1   41.2704071 +1 -124.7559102 +1     6     2     1
  O     1.21412882 +1   78.5167978 +1   50.8051776 +1     6     2     1
  C     1.48403662 +1  155.1024160 +1 -135.1761060 +1     6     2     1
  H     1.09952464 +1  110.8448023 +1 -150.2440464 +1     9     6     2
  H     1.10300345 +1  111.4035836 +1   91.0327295 +1     9     6     2
  H     1.09961941 +1  112.9573139 +1  -29.4254628 +1     9     6     2
  C     1.49025621 +1   95.7209945 +1  119.0812252 +1     1     2     3
  H     1.10117617 +1  112.5776629 +1  -55.6503111 +1    13     1     2
  H     1.09843076 +1  110.9706669 +1 -175.5655925 +1    13     1     2
  H     1.09651840 +1  111.5239140 +1   64.6669753 +1    13     1     2
  C     1.48547300 +1   99.9869503 +1 -120.4511985 +1     1     2     3
  H     1.10521335 +1  109.2008285 +1 -175.8840013 +1    17     1     2
  H     1.09692420 +1  113.3954313 +1   64.8036017 +1    17     1     2
  H     1.09745517 +1  112.2178840 +1  -57.6042406 +1    17     1     2
  H     1.03469312 +1  112.7775055 +1   -2.9317932 +1     7     6     2
  O     0.98058031 +1  155.9735623 +1  159.6837567 +1     2     1     3
  H     0.96998865 +1  106.1009926 +1  105.1781432 +1    22     2     1

 TIME=     0.75
  REACTANTS AND PRODUCTS SWAPPED AROUND
 *+*+*+*+*+*+*+*+*+*+*+*+*+*+*+*+*+*+*+*+*+*+*+*+*+*+*+*+*+*+*+*+*+*+*+*+*+*+*+*+
            BAR SHORTENED BY       0.000 PERCENT
 GRADIENT CRITERION IN FLEPO =    10.000


          FOR POINT   29 FIRST  STRUCTURE
 DISTANCE A - B      2.515301
 HEAT             -309.479253
 GRADIENT NORM      23.825718
 DIRECTION COSINE    0.158483
* ===============================
* Input file for Mopac
* ===============================
 PM7 BONDS AUX DUMP=30M ITRY=15000 T=14D CHARGE=-1 SINGLET eps=78.4 RELSCF=1


  C     0.00000000 +0    0.0000000 +0    0.0000000 +0     0     0     0
  H     1.14411612 +1    0.0000000 +0    0.0000000 +0     1     0     0
  N     1.49527097 +1  106.2070617 +1    0.0000000 +0     1     2     0
  O     1.22718407 +1  119.6008371 +1  -10.3702747 +1     3     1     2
  O     1.21471301 +1  119.7589208 +1  169.7909897 +1     3     1     2
  C     4.87960806 +1  164.3334685 +1   36.1798341 +1     2     1     3
  O     1.24793305 +1   57.1418307 +1  -83.1292717 +1     6     2     1
  O     1.25351189 +1   67.9780724 +1   78.5770235 +1     6     2     1
  C     1.50626667 +1  162.4330178 +1 -164.6029189 +1     6     2     1
  H     1.09549776 +1  112.3409865 +1  -93.3786342 +1     9     6     2
  H     1.09862447 +1  110.0896543 +1  146.5884277 +1     9     6     2
  H     1.09625688 +1  111.1165303 +1   28.1101149 +1     9     6     2
  C     1.51985255 +1  109.9169451 +1  117.4827188 +1     1     2     3
  H     1.09803573 +1  112.4746634 +1  -56.0792888 +1    13     1     2
  H     1.10002820 +1  113.0491272 +1 -178.1187639 +1    13     1     2
  H     1.10276905 +1  110.1313126 +1   63.0649154 +1    13     1     2
  C     1.52374439 +1  111.0343949 +1 -117.5057470 +1     1     2     3
  H     1.10015630 +1  113.2337155 +1 -179.8994812 +1    17     1     2
  H     1.09988537 +1  112.7967695 +1   58.1565667 +1    17     1     2
  H     1.10129722 +1  110.1667972 +1  -61.0379679 +1    17     1     2
  H     1.99348765 +1   88.6875755 +1   -3.9989304 +1     7     6     2
  O     0.97824523 +1  125.2022402 +1 -118.7680173 +1    21     7     6
  H     0.96334765 +1   99.7383937 +1    9.5412742 +1    22    21     7

 TIME=     0.21
  REACTANTS AND PRODUCTS SWAPPED AROUND
 *+*+*+*+*+*+*+*+*+*+*+*+*+*+*+*+*+*+*+*+*+*+*+*+*+*+*+*+*+*+*+*+*+*+*+*+*+*+*+*+
            BAR SHORTENED BY       1.000 PERCENT
 GRADIENT CRITERION IN FLEPO =    10.000


          FOR POINT   30 SECOND STRUCTURE
 DISTANCE A - B      2.490148
 HEAT             -312.057090
 GRADIENT NORM      24.102636
 DIRECTION COSINE   -0.003046
* ===============================
* Input file for Mopac
* ===============================
 PM7 BONDS AUX DUMP=30M ITRY=15000 T=14D CHARGE=-1 SINGLET eps=78.4 RELSCF=1


  C     0.00000000 +0    0.0000000 +0    0.0000000 +0     0     0     0
  H     2.24867227 +1    0.0000000 +0    0.0000000 +0     1     0     0
  N     1.32354918 +1   84.5869556 +1    0.0000000 +0     1     2     0
  O     1.26638770 +1  123.8998867 +1  -79.6922196 +1     3     1     2
  O     1.26786014 +1  120.7270974 +1   97.7227838 +1     3     1     2
  C     4.23140784 +1  154.9672629 +1   69.6734735 +1     2     1     3
  O     1.34137033 +1   41.3058389 +1 -124.0881094 +1     6     2     1
  O     1.21865076 +1   78.2561339 +1   51.1270782 +1     6     2     1
  C     1.47728313 +1  155.2014287 +1 -135.6889141 +1     6     2     1
  H     1.10215904 +1  111.0411621 +1 -149.4209288 +1     9     6     2
  H     1.10468302 +1  111.5290352 +1   91.6968014 +1     9     6     2
  H     1.10005828 +1  113.1651923 +1  -28.8545126 +1     9     6     2
  C     1.49025919 +1   95.6721025 +1  118.9102222 +1     1     2     3
  H     1.09851717 +1  112.7762031 +1  -55.4921132 +1    13     1     2
  H     1.09936453 +1  111.1680237 +1 -175.5817745 +1    13     1     2
  H     1.10073743 +1  111.5299217 +1   64.8241373 +1    13     1     2
  C     1.48420275 +1  100.3196159 +1 -120.5791465 +1     1     2     3
  H     1.10020971 +1  109.2676553 +1 -175.8675185 +1    17     1     2
  H     1.10040118 +1  113.2454442 +1   64.9019205 +1    17     1     2
  H     1.10450452 +1  112.5358202 +1  -57.5714804 +1    17     1     2
  H     1.04112696 +1  112.7048811 +1   -2.8064349 +1     7     6     2
  O     0.98337641 +1  156.5060576 +1  158.9553786 +1     2     1     3
  H     0.96663018 +1  106.4644941 +1  106.1173814 +1    22     2     1

 TIME=     0.20
  REACTANTS AND PRODUCTS SWAPPED AROUND
 *+*+*+*+*+*+*+*+*+*+*+*+*+*+*+*+*+*+*+*+*+*+*+*+*+*+*+*+*+*+*+*+*+*+*+*+*+*+*+*+
            BAR SHORTENED BY       1.000 PERCENT
 GRADIENT CRITERION IN FLEPO =    10.000


          FOR POINT   31 FIRST  STRUCTURE
 DISTANCE A - B      2.465247
 HEAT             -309.277171
 GRADIENT NORM      22.836737
 DIRECTION COSINE   -0.027301
* ===============================
* Input file for Mopac
* ===============================
 PM7 BONDS AUX DUMP=30M ITRY=15000 T=14D CHARGE=-1 SINGLET eps=78.4 RELSCF=1


  C     0.00000000 +0    0.0000000 +0    0.0000000 +0     0     0     0
  H     1.13366277 +1    0.0000000 +0    0.0000000 +0     1     0     0
  N     1.50110992 +1  106.4094229 +1    0.0000000 +0     1     2     0
  O     1.23067258 +1  119.1565712 +1  -11.2963353 +1     3     1     2
  O     1.22090441 +1  119.3901925 +1  169.3824869 +1     3     1     2
  C     4.88708035 +1  164.0257890 +1   35.8052702 +1     2     1     3
  O     1.24839143 +1   56.7900490 +1  -82.8648839 +1     6     2     1
  O     1.24921732 +1   68.0018269 +1   79.0611974 +1     6     2     1
  C     1.50526500 +1  162.5408897 +1 -163.5344454 +1     6     2     1
  H     1.09498683 +1  112.2848914 +1  -93.9461718 +1     9     6     2
  H     1.10170590 +1  110.1720125 +1  146.3058229 +1     9     6     2
  H     1.09761959 +1  111.0655072 +1   27.6882212 +1     9     6     2
  C     1.52198144 +1  110.0869172 +1  117.6820880 +1     1     2     3
  H     1.09778021 +1  112.3966432 +1  -56.5649132 +1    13     1     2
  H     1.11489688 +1  112.9715740 +1 -178.3828530 +1    13     1     2
  H     1.10162432 +1  110.0137503 +1   62.4310180 +1    13     1     2
  C     1.52514355 +1  110.7272723 +1 -117.5837156 +1     1     2     3
  H     1.10123769 +1  113.1556372 +1 -179.5649065 +1    17     1     2
  H     1.09862471 +1  112.8673030 +1   58.5781606 +1    17     1     2
  H     1.10091228 +1  110.4351791 +1  -60.6514107 +1    17     1     2
  H     1.97961369 +1   89.1632700 +1   -4.1120747 +1     7     6     2
  O     0.97609046 +1  126.1117437 +1 -118.9451836 +1    21     7     6
  H     0.96106428 +1  100.0380177 +1    9.1297124 +1    22    21     7

 TIME=     0.20
  REACTANTS AND PRODUCTS SWAPPED AROUND
 *+*+*+*+*+*+*+*+*+*+*+*+*+*+*+*+*+*+*+*+*+*+*+*+*+*+*+*+*+*+*+*+*+*+*+*+*+*+*+*+
            BAR SHORTENED BY       1.000 PERCENT
 GRADIENT CRITERION IN FLEPO =    10.000


          FOR POINT   32 SECOND STRUCTURE
 DISTANCE A - B      2.440594
 HEAT             -311.793778
 GRADIENT NORM      25.905432
 DIRECTION COSINE   -0.217631
* ===============================
* Input file for Mopac
* ===============================
 PM7 BONDS AUX DUMP=30M ITRY=15000 T=14D CHARGE=-1 SINGLET eps=78.4 RELSCF=1


  C     0.00000000 +0    0.0000000 +0    0.0000000 +0     0     0     0
  H     2.23930605 +1    0.0000000 +0    0.0000000 +0     1     0     0
  N     1.32426522 +1   85.1852854 +1    0.0000000 +0     1     2     0
  O     1.26687789 +1  124.1783559 +1  -78.9998327 +1     3     1     2
  O     1.26483221 +1  120.7892864 +1   97.9722096 +1     3     1     2
  C     4.23894164 +1  154.5401442 +1   69.1308991 +1     2     1     3
  O     1.34041741 +1   41.3438266 +1 -123.0871297 +1     6     2     1
  O     1.21585770 +1   78.4437300 +1   51.4273945 +1     6     2     1
  C     1.47620278 +1  155.1845149 +1 -136.2358744 +1     6     2     1
  H     1.10427165 +1  111.1303491 +1 -148.3204756 +1     9     6     2
  H     1.10463514 +1  111.7526742 +1   92.6032875 +1     9     6     2
  H     1.10227918 +1  113.3322796 +1  -27.9720339 +1     9     6     2
  C     1.49039966 +1   95.1609860 +1  118.9398101 +1     1     2     3
  H     1.09828562 +1  112.9101939 +1  -56.1557927 +1    13     1     2
[...]
  O     1.24135302 +1  120.7921397 +1   93.6197751 +1     3     1     2
  C     4.41225542 +1  162.3072888 +1   63.6893250 +1     2     1     3
  O     1.30815735 +1   40.5575407 +1 -124.0938298 +1     6     2     1
  O     1.22338279 +1   81.1095856 +1   50.3624957 +1     6     2     1
  C     1.49198787 +1  155.7687207 +1 -137.0261046 +1     6     2     1
  H     1.10342854 +1  111.3416182 +1 -144.5013186 +1     9     6     2
  H     1.10329933 +1  111.4633500 +1   96.4993551 +1     9     6     2
  H     1.09948881 +1  112.8189911 +1  -23.6323080 +1     9     6     2
  C     1.50698194 +1  107.1592066 +1  119.9404259 +1     1     2     3
  H     1.09757073 +1  112.8427279 +1  -57.9265124 +1    13     1     2
  H     1.09966430 +1  111.3107536 +1 -177.9402882 +1    13     1     2
  H     1.09721795 +1  111.5428915 +1   63.0855640 +1    13     1     2
  C     1.50742830 +1  103.4063444 +1 -119.0210466 +1     1     2     3
  H     1.09914942 +1  111.6472908 +1  178.4898456 +1    17     1     2
  H     1.09745912 +1  112.5491706 +1   57.7875731 +1    17     1     2
  H     1.09882848 +1  111.1047025 +1  -62.4948520 +1    17     1     2
  H     1.16395057 +1  118.1809905 +1   -6.6864144 +1     7     6     2
  O     1.19174398 +1  170.0993108 +1 -176.8228953 +1     2     1     3
  H     0.95409550 +1  104.2989099 +1   66.9841561 +1    22     2     1

 *+*+*+*+*+*+*+*+*+*+*+*+*+*+*+*+*+*+*+*+*+*+*+*+*+*+*+*+*+*+*+*+*+*+*+*+*+*+*+*+
            BAR SHORTENED BY       1.000 PERCENT
 GRADIENT CRITERION IN FLEPO =    10.000


          FOR POINT  385 SECOND STRUCTURE
 DISTANCE A - B      0.100891
 HEAT             -297.656030
 GRADIENT NORM      33.171736
 DIRECTION COSINE    0.999952
* ===============================
* Input file for Mopac
* ===============================
 PM7 BONDS AUX DUMP=30M ITRY=15000 T=14D CHARGE=-1 SINGLET eps=78.4 RELSCF=1


  C     0.00000000 +0    0.0000000 +0    0.0000000 +0     0     0     0
  H     1.47769955 +1    0.0000000 +0    0.0000000 +0     1     0     0
  N     1.40258780 +1  101.5861352 +1    0.0000000 +0     1     2     0
  O     1.24196053 +1  120.9763014 +1  -81.1913487 +1     3     1     2
  O     1.24128828 +1  120.7880783 +1   93.6187021 +1     3     1     2
  C     4.41295144 +1  162.3134245 +1   63.6974604 +1     2     1     3
  O     1.30805497 +1   40.5641584 +1 -124.1029473 +1     6     2     1
  O     1.22341664 +1   81.1079315 +1   50.3545353 +1     6     2     1
  C     1.49199175 +1  155.7737264 +1 -137.0322758 +1     6     2     1
  H     1.10341275 +1  111.3431266 +1 -144.5040036 +1     9     6     2
  H     1.10328838 +1  111.4627007 +1   96.4940226 +1     9     6     2
  H     1.09950775 +1  112.8180547 +1  -23.6364632 +1     9     6     2
  C     1.50702172 +1  107.1752429 +1  119.9373563 +1     1     2     3
  H     1.09757883 +1  112.8396694 +1  -57.9177131 +1    13     1     2
  H     1.09966526 +1  111.3225250 +1 -177.9371714 +1    13     1     2
  H     1.09723186 +1  111.5360690 +1   63.0857697 +1    13     1     2
  C     1.50747049 +1  103.4209791 +1 -119.0164973 +1     1     2     3
  H     1.09913908 +1  111.6596735 +1  178.4856887 +1    17     1     2
  H     1.09747058 +1  112.5453054 +1   57.7772931 +1    17     1     2
  H     1.09883418 +1  111.0969081 +1  -62.4957374 +1    17     1     2
  H     1.16441833 +1  118.1789933 +1   -6.6959265 +1     7     6     2
  O     1.19290646 +1  170.1052776 +1 -176.8144098 +1     2     1     3
  H     0.95403523 +1  104.2736264 +1   66.9679375 +1    22     2     1

 TIME=     0.09
  REACTANTS AND PRODUCTS SWAPPED AROUND
 *+*+*+*+*+*+*+*+*+*+*+*+*+*+*+*+*+*+*+*+*+*+*+*+*+*+*+*+*+*+*+*+*+*+*+*+*+*+*+*+
            BAR SHORTENED BY       1.000 PERCENT
 AT END OF STEPWISE ASCENT OF REACTION BARRIER

 -------------------------------------------------------------------------------
 PM7 BONDS AUX DUMP=30M ITRY=15000 T=14D CHARGE=-1 SINGLET eps=78.4 RELSCF=1




     TRANSITION STATE LOCATED USING THE "SADDLE" TECHNIQUE    
     SCF FIELD WAS ACHIEVED                                   


                              PM7 CALCULATION
                                                       MOPAC v22.0.6 Linux
                                                       Tue Mar 26 12:01:20 2024




          FINAL HEAT OF FORMATION =       -297.65603 KCAL/MOL =   -1245.39283 KJ/MOL
          VAN DER WAALS AREA      =        219.49 SQUARE ANGSTROMS



          DIELECTRIC ENERGY       =         -3.12195 EV
          COSMO AREA              =        219.49 SQUARE ANGSTROMS
          COSMO VOLUME            =        208.10 CUBIC ANGSTROMS

          GRADIENT NORM           =          9.65784          =       2.01380 PER ATOM
          IONIZATION POTENTIAL    =          9.053460 EV
          HOMO LUMO ENERGIES (EV) =         -9.053  0.325
          NO. OF FILLED LEVELS    =         34
          MOLECULAR WEIGHT        =        166.1535         POINT GROUP:  C1  

          MOLECULAR DIMENSIONS (Angstroms)

            Atom       Atom       Distance
            H    15    H    10     9.82824
            O     5    H    20     4.36136
            O     4    H    12     3.84338


          SCF CALCULATIONS        =       2232

          WALL-CLOCK TIME         =          1 MINUTE AND 51.414 SECONDS
          COMPUTATION TIME        =         17 MINUTES AND 48.909 SECONDS



       FINAL  POINT  AND  DERIVATIVES

   PARAMETER     ATOM    TYPE            VALUE        GRADIENT
      1          1  C    CARTESIAN X     1.212336     -4.579184  KCAL/ANGSTROM
      2          1  C    CARTESIAN Y    -0.856808      1.601193  KCAL/ANGSTROM
      3          1  C    CARTESIAN Z    -0.010937      0.000395  KCAL/ANGSTROM
      4          2  H    CARTESIAN X     2.653632     -1.064656  KCAL/ANGSTROM
      5          2  H    CARTESIAN Y    -1.126614     -0.350911  KCAL/ANGSTROM
      6          2  H    CARTESIAN Z     0.163115      1.153819  KCAL/ANGSTROM
      7          3  N    CARTESIAN X     0.672742     -0.563697  KCAL/ANGSTROM
      8          3  N    CARTESIAN Y    -1.455611      0.944278  KCAL/ANGSTROM
      9          3  N    CARTESIAN Z     1.137225     -1.027504  KCAL/ANGSTROM
     10          4  O    CARTESIAN X     0.470012      0.519129  KCAL/ANGSTROM
     11          4  O    CARTESIAN Y    -2.679932     -0.425150  KCAL/ANGSTROM
     12          4  O    CARTESIAN Z     1.184273     -0.498735  KCAL/ANGSTROM
     13          5  O    CARTESIAN X     0.474466     -0.385805  KCAL/ANGSTROM
     14          5  O    CARTESIAN Y    -0.791203      0.224474  KCAL/ANGSTROM
     15          5  O    CARTESIAN Z     2.166734     -0.464297  KCAL/ANGSTROM
     16          6  C    CARTESIAN X     6.522195      0.169518  KCAL/ANGSTROM
     17          6  C    CARTESIAN Y    -3.211637     -0.752644  KCAL/ANGSTROM
     18          6  C    CARTESIAN Z     0.571923     -0.752582  KCAL/ANGSTROM
     19          7  O    CARTESIAN X     5.782927      0.851382  KCAL/ANGSTROM
     20          7  O    CARTESIAN Y    -2.352233     -1.702994  KCAL/ANGSTROM
     21          7  O    CARTESIAN Z     1.224341     -1.845976  KCAL/ANGSTROM
     22          8  O    CARTESIAN X     6.117134      1.034622  KCAL/ANGSTROM
     23          8  O    CARTESIAN Y    -3.761792      0.592408  KCAL/ANGSTROM
     24          8  O    CARTESIAN Z    -0.443008      2.930719  KCAL/ANGSTROM
     25          9  C    CARTESIAN X     7.869497      2.157047  KCAL/ANGSTROM
     26          9  C    CARTESIAN Y    -3.477789     -0.434009  KCAL/ANGSTROM
     27          9  C    CARTESIAN Z     1.155010     -0.177870  KCAL/ANGSTROM
     28         10  H    CARTESIAN X     8.584694      0.277612  KCAL/ANGSTROM
     29         10  H    CARTESIAN Y    -3.804560     -0.249857  KCAL/ANGSTROM
     30         10  H    CARTESIAN Z     0.380931     -0.754273  KCAL/ANGSTROM
     31         11  H    CARTESIAN X     7.830997     -0.155139  KCAL/ANGSTROM
     32         11  H    CARTESIAN Y    -4.281216     -0.226357  KCAL/ANGSTROM
     33         11  H    CARTESIAN Z     1.910155      0.011201  KCAL/ANGSTROM
     34         12  H    CARTESIAN X     8.301163     -1.513630  KCAL/ANGSTROM
     35         12  H    CARTESIAN Y    -2.596473     -0.388354  KCAL/ANGSTROM
     36         12  H    CARTESIAN Z     1.650899     -0.280233  KCAL/ANGSTROM
     37         13  C    CARTESIAN X     1.042181     -1.439476  KCAL/ANGSTROM
     38         13  C    CARTESIAN Y     0.639783      1.175862  KCAL/ANGSTROM
     39         13  C    CARTESIAN Z    -0.060903     -0.321907  KCAL/ANGSTROM
     40         14  H    CARTESIAN X     1.424820     -1.025662  KCAL/ANGSTROM
     41         14  H    CARTESIAN Y     1.142217     -0.179220  KCAL/ANGSTROM
     42         14  H    CARTESIAN Z     0.836786     -0.270528  KCAL/ANGSTROM
     43         15  H    CARTESIAN X    -0.017400     -0.292071  KCAL/ANGSTROM
     44         15  H    CARTESIAN Y     0.919095      0.512622  KCAL/ANGSTROM
     45         15  H    CARTESIAN Z    -0.153300     -0.115189  KCAL/ANGSTROM
     46         16  H    CARTESIAN X     1.558379     -1.459338  KCAL/ANGSTROM
     47         16  H    CARTESIAN Y     1.075078      0.095836  KCAL/ANGSTROM
     48         16  H    CARTESIAN Z    -0.925776      0.124111  KCAL/ANGSTROM
     49         17  C    CARTESIAN X     0.877375     -1.625845  KCAL/ANGSTROM
     50         17  C    CARTESIAN Y    -1.561327     -0.011999  KCAL/ANGSTROM
     51         17  C    CARTESIAN Z    -1.300917     -0.529393  KCAL/ANGSTROM
     52         18  H    CARTESIAN X    -0.189189     -0.265803  KCAL/ANGSTROM
     53         18  H    CARTESIAN Y    -1.467720     -0.425296  KCAL/ANGSTROM
     54         18  H    CARTESIAN Z    -1.549439     -1.036164  KCAL/ANGSTROM
     55         19  H    CARTESIAN X     1.111351     -0.180207  KCAL/ANGSTROM
     56         19  H    CARTESIAN Y    -2.633073      0.476088  KCAL/ANGSTROM
     57         19  H    CARTESIAN Z    -1.268010     -0.121354  KCAL/ANGSTROM
     58         20  H    CARTESIAN X     1.437210     -0.282423  KCAL/ANGSTROM
     59         20  H    CARTESIAN Y    -1.131491     -0.162897  KCAL/ANGSTROM
     60         20  H    CARTESIAN Z    -2.143101     -0.318089  KCAL/ANGSTROM
     61         21  H    CARTESIAN X     4.825529      2.124978  KCAL/ANGSTROM
     62         21  H    CARTESIAN Y    -1.942433     -1.531312  KCAL/ANGSTROM
     63         21  H    CARTESIAN Z     0.702418      0.682477  KCAL/ANGSTROM
     64         22  O    CARTESIAN X     3.842355      4.042283  KCAL/ANGSTROM
     65         22  O    CARTESIAN Y    -1.234812     -1.070590  KCAL/ANGSTROM
     66         22  O    CARTESIAN Z     0.131435     -0.641876  KCAL/ANGSTROM
     67         23  H    CARTESIAN X     4.162879     -0.009878  KCAL/ANGSTROM
     68         23  H    CARTESIAN Y    -0.349455      0.379213  KCAL/ANGSTROM
     69         23  H    CARTESIAN Z     0.284655      0.249901  KCAL/ANGSTROM




   ATOM   CHEMICAL          X               Y               Z
  NUMBER   SYMBOL      (ANGSTROMS)     (ANGSTROMS)     (ANGSTROMS)

     1       C          1.21233575  *  -0.85680773  *  -0.01093733  *
     2       H          2.65363208  *  -1.12661412  *   0.16311548  *
     3       N          0.67274179  *  -1.45561053  *   1.13722543  *
     4       O          0.47001213  *  -2.67993194  *   1.18427284  *
     5       O          0.47446561  *  -0.79120337  *   2.16673366  *
     6       C          6.52219507  *  -3.21163681  *   0.57192262  *
     7       O          5.78292685  *  -2.35223267  *   1.22434098  *
     8       O          6.11713391  *  -3.76179195  *  -0.44300843  *
     9       C          7.86949714  *  -3.47778905  *   1.15501005  *
    10       H          8.58469425  *  -3.80456043  *   0.38093076  *
    11       H          7.83099671  *  -4.28121570  *   1.91015549  *
    12       H          8.30116319  *  -2.59647343  *   1.65089890  *
    13       C          1.04218139  *   0.63978319  *  -0.06090280  *
    14       H          1.42481959  *   1.14221668  *   0.83678615  *
    15       H         -0.01740039  *   0.91909473  *  -0.15330031  *
    16       H          1.55837877  *   1.07507842  *  -0.92577637  *
    17       C          0.87737474  *  -1.56132732  *  -1.30091669  *
    18       H         -0.18918921  *  -1.46772024  *  -1.54943884  *
    19       H          1.11135124  *  -2.63307297  *  -1.26800987  *
    20       H          1.43721018  *  -1.13149065  *  -2.14310054  *
    21       H          4.82552932  *  -1.94243347  *   0.70241824  *
    22       O          3.84235511  *  -1.23481208  *   0.13143457  *
    23       H          4.16287938  *  -0.34945492  *   0.28465507  *

                             CARTESIAN COORDINATES

   1    C        1.212335747    -0.856807727    -0.010937325
   2    H        2.653632078    -1.126614121     0.163115480
   3    N        0.672741791    -1.455610531     1.137225433
   4    O        0.470012128    -2.679931939     1.184272838
   5    O        0.474465613    -0.791203371     2.166733655
   6    C        6.522195070    -3.211636812     0.571922624
   7    O        5.782926847    -2.352232672     1.224340984
   8    O        6.117133912    -3.761791950    -0.443008433
   9    C        7.869497139    -3.477789047     1.155010054
  10    H        8.584694254    -3.804560435     0.380930762
  11    H        7.830996706    -4.281215704     1.910155488
  12    H        8.301163188    -2.596473432     1.650898896
  13    C        1.042181389     0.639783187    -0.060902805
  14    H        1.424819591     1.142216681     0.836786151
  15    H       -0.017400389     0.919094731    -0.153300305
  16    H        1.558378765     1.075078422    -0.925776373
  17    C        0.877374739    -1.561327319    -1.300916686
  18    H       -0.189189208    -1.467720239    -1.549438836
  19    H        1.111351238    -2.633072970    -1.268009874
  20    H        1.437210181    -1.131490648    -2.143100545
  21    H        4.825529322    -1.942433475     0.702418242
  22    O        3.842355108    -1.234812078     0.131434567
  23    H        4.162879377    -0.349454921     0.284655075


           Empirical Formula: C5 H12 N O5  =    23 atoms



      MOLECULAR POINT GROUP   :   C1  


                  EIGENVALUES  
 -36.31069 -30.82962 -29.22150 -29.04103 -28.46683 -27.27199 -26.08596 -24.56062
 -23.93272 -20.26865 -19.80085 -17.90094 -17.49696 -17.07804 -16.48257 -16.02193
 -15.94463 -15.75684 -14.92642 -14.17427 -13.82511 -13.56483 -13.43340 -13.28869
 -13.15307 -12.68066 -12.20291 -11.93299 -11.81774 -11.37542 -11.24124 -11.10376
 -11.06400  -9.05346   0.32538   1.18807   1.66307   2.39974   3.68286   3.88898
   4.39217   4.63087   4.87813   5.31517   5.34831   5.41464   5.56118   5.87942
   5.92504   5.97106   6.00017   6.49965   6.60190   6.63892   7.02830   7.15411


              NET ATOMIC CHARGES AND DIPOLE CONTRIBUTIONS

  ATOM NO.   TYPE          CHARGE      No. of ELECS.   s-Pop       p-Pop       
    1          C          -0.273978        4.2740     1.10998     3.16400
    2          H           0.427305        0.5727     0.57269
    3          N           0.694839        4.3052     1.45461     2.85055
    4          O          -0.601797        6.6018     1.94204     4.65975
    5          O          -0.600732        6.6007     1.94199     4.65875
    6          C           0.772814        3.2272     1.09136     2.13582
    7          O          -0.716288        6.7163     1.85490     4.86139
    8          O          -0.724977        6.7250     1.87664     4.84834
    9          C          -0.551475        4.5515     1.06400     3.48748
   10          H           0.190531        0.8095     0.80947
   11          H           0.199862        0.8001     0.80014
   12          H           0.191811        0.8082     0.80819
   13          C          -0.431590        4.4316     1.04860     3.38299
   14          H           0.154986        0.8450     0.84501
   15          H           0.144381        0.8556     0.85562
   16          H           0.157579        0.8424     0.84242
   17          C          -0.426146        4.4261     1.04874     3.37741
   18          H           0.144737        0.8553     0.85526
   19          H           0.156909        0.8431     0.84309
   20          H           0.158649        0.8414     0.84135
   21          H           0.460242        0.5398     0.53976
   22          O          -0.896081        6.8961     1.83209     5.06399
   23          H           0.368419        0.6316     0.63158
 DIPOLE           X         Y         Z       TOTAL
 POINT-CHG.     5.417     4.186    -2.451     7.272
 HYBRID        -1.172     0.206     0.283     1.223
 SUM            4.245     4.392    -2.168     6.481


          ATOMIC ORBITAL ELECTRON POPULATIONS

     Atom    s        px        py        pz   
    1  C   1.10998   1.32749   0.96587   0.87064
    2  H   0.57269
    3  N   1.45461   0.90004   0.94715   1.00336
    4  O   1.94204   1.67413   1.06462   1.92101
    5  O   1.94199   1.66987   1.65696   1.33192
    6  C   1.09136   0.78406   0.65256   0.69920
    7  O   1.85490   1.60352   1.61404   1.64383
    8  O   1.87664   1.80329   1.62865   1.41640
    9  C   1.06400   1.07634   1.21401   1.19713
   10  H   0.80947
   11  H   0.80014
   12  H   0.80819
   13  C   1.04860   1.17943   1.02058   1.18298
   14  H   0.84501
   15  H   0.85562
   16  H   0.84242
   17  C   1.04874   1.17171   1.14755   1.05815
   18  H   0.85526
   19  H   0.84309
   20  H   0.84135
   21  H   0.53976
   22  O   1.83209   1.61902   1.50181   1.94316
   23  H   0.63158

          BONDING CONTRIBUTION OF EACH M.O.

  1.3549  1.3634  0.9792  0.9834  1.5677  1.1411  1.7233  1.0856  1.9731  1.3532
  1.2285  1.3453  1.1196  1.2620  1.7163  1.2128  1.4824  1.3182  1.2923  1.6769
  1.9222  1.6198  1.5355  1.7104  1.8910  0.7102  1.9590  0.5487  0.3884  0.6686
  0.6051  0.2849  0.6071  1.1607 -2.3654 -1.8056 -2.1000 -2.0536 -1.9713 -1.9737
 -1.8942 -1.9427 -1.8732 -1.9279 -1.9589 -1.9612 -1.9292 -1.9673 -1.9816 -1.9691
 -1.9631 -1.7778 -1.7352 -1.8208 -1.9098 -1.9085





            (VALENCIES)   BOND ORDERS

     1  C     (3.677)     3  N 1.049    13  C 0.997    17  C 0.992     2  H 0.350     5  O 0.104     4  O 0.103
                         22  O 0.055

     2  H     (0.817)    22  O 0.421     1  C 0.350     3  N 0.016

     3  N     (3.762)     5  O 1.326     4  O 1.322     1  C 1.049     2  H 0.016    22  O 0.014

     4  O     (1.676)     3  N 1.322     5  O 0.215     1  C 0.103    13  C 0.012

     5  O     (1.681)     3  N 1.326     4  O 0.215     1  C 0.104    17  C 0.013

     6  C     (3.700)     8  O 1.562     7  O 1.134     9  C 0.977

     7  O     (1.888)     6  C 1.134    21  H 0.505     8  O 0.144    22  O 0.055     9  C 0.026

     8  O     (1.772)     6  C 1.562     7  O 0.144     9  C 0.046

     9  C     (3.894)     6  C 0.977    12  H 0.948    10  H 0.947    11  H 0.935     8  O 0.046     7  O 0.026
                         21  H 0.011

    10  H     (0.964)     9  C 0.947

    11  H     (0.960)     9  C 0.935

    12  H     (0.963)     9  C 0.948

    13  C     (3.926)     1  C 0.997    15  H 0.968    14  H 0.967    16  H 0.963     4  O 0.012

    14  H     (0.976)    13  C 0.967

    15  H     (0.979)    13  C 0.968

    16  H     (0.975)    13  C 0.963

    17  C     (3.925)     1  C 0.992    18  H 0.968    19  H 0.966    20  H 0.963     5  O 0.013

    18  H     (0.979)    17  C 0.968

    19  H     (0.975)    17  C 0.966

    20  H     (0.975)    17  C 0.963

    21  H     (0.788)     7  O 0.505    22  O 0.253     9  C 0.011

    22  O     (1.672)    23  H 0.854     2  H 0.421    21  H 0.253     1  C 0.055     7  O 0.055     3  N 0.014

    23  H     (0.864)    22  O 0.854


 **********************
 *                    *
 * JOB ENDED NORMALLY *
 *                    *
 **********************



 TOTAL JOB TIME:           111.44 SECONDS

 == MOPAC DONE ==
