 *******************************************************************************
 **                                                                           **
 **                              MOPAC v22.0.6                                **
 **                                                                           **
 *******************************************************************************
 **          Digital Object Identifier (DOI): 10.5281/zenodo.6511958          **
 **    Visit the DOI location for information on how to cite this program.    **
 *******************************************************************************

                              PM7 CALCULATION RESULTS

 *******************************************************************************
 *  CALCULATION DONE:                                Sun Mar 24 12:39:51 2024  *
 *  PM7        - The PM7 Hamiltonian to be used
 *  SINGLET    - SPIN STATE DEFINED AS A SINGLET
 *
 *
 *
 *                 CHARGE ON SYSTEM = -1
 *
 *
 *
 *  EPS=78.4   - USE ANDREAS KLAMT'S COSMO IMPLICIT SOLVATION MODEL
 *  LET        - OVERRIDE SOME SAFETY CHECKS
 *  THREADS    - USE A MAXIMUM OF 30 THREADS
 *  T=         - A TIME OF 14.0 DAYS REQUESTED
 *  DUMP=N     - RESTART FILE WRITTEN EVERY 30.0 MINUTES REQUESTED
 *  RELSCF     - DEFAULT SCF CRITERION MULTIPLIED BY 1.0000
 *              (DEFAULT SCF CRITERION = 0.00010)
 *  ITRY=      - DO A MAXIMUM OF 15000 ITERATIONS FOR SCF
 *  AUX        - OUTPUT AUXILIARY INFORMATION
 *  ISOTOPE    - SAVE THE FORCE MATRIX FOR USE LATER
 *  BONDS      - FINAL BOND-ORDER MATRIX TO BE PRINTED
 *  LARGE      - EXPANDED OUTPUT TO BE PRINTED
 *  THERMO     - THERMODYNAMIC QUANTITIES TO BE CALCULATED
 *******************************************************************************
PM7 AUX LARGE THERMO(298,298) LET ISOTOPE BONDS DUMP=30M ITRY=15000 T=14D THREADS=30 CHARGE=-1 SINGLET eps=78.4 RELSCF=1
 Title: ASE calculation

   ATOM   CHEMICAL          X               Y               Z
  NUMBER   SYMBOL      (ANGSTROMS)     (ANGSTROMS)     (ANGSTROMS)

     1       C          0.57973994  *  -0.76362469  *   0.69813387  *
     2       H          1.13005664  *  -1.62874317  *   0.37332772  *
     3       D          2.11105111  *   0.41964108  *   0.39914651  *
     4       H          0.57113910  *  -0.57598585  *   1.75695529  *
     5       N         -0.18467537  *  -0.07485623  *  -0.13160472  *
     6       O         -0.87313634  *   0.90578614  *   0.26550283  *
     7       O         -0.22829089  *  -0.33939477  *  -1.36455614  *
     8       C          5.99976980  *   0.31984611  *  -0.60146205  *
     9       O          7.08721268  *  -0.02202036  *  -1.01274782  *
    10       O          5.01303714  *  -0.57606624  *  -0.60369695  *
    11       C          5.68175012  *   1.69186199  *  -0.07927836  *
    12      Cl          5.81251541  *   1.59930221  *   1.68267618  *
    13       H          4.65514863  *   2.03608893  *  -0.33320715  *
    14       H          6.39547291  *   2.45784406  *  -0.44311424  *
    15       H          2.95107524  *  -0.27232748  *   1.51606749  *
    16       O          3.03161126  *   0.33785492  *   0.76576871  *
    17       H          4.12873091  *  -0.25159581  *  -0.13169278  *


                                Isotopes Used

              Atom:    3  H  Default mass  1.0079,  mass used:  2.0140 amu


          CARTESIAN COORDINATES 

    NO.       ATOM           X           Y           Z

     1         C          0.5797     -0.7636      0.6981
     2         H          1.1301     -1.6287      0.3733
     3         H          2.1111      0.4196      0.3991
     4         H          0.5711     -0.5760      1.7570
     5         N         -0.1847     -0.0749     -0.1316
     6         O         -0.8731      0.9058      0.2655
     7         O         -0.2283     -0.3394     -1.3646
     8         C          5.9998      0.3198     -0.6015
     9         O          7.0872     -0.0220     -1.0127
    10         O          5.0130     -0.5761     -0.6037
    11         C          5.6818      1.6919     -0.0793
    12        Cl          5.8125      1.5993      1.6827
    13         H          4.6551      2.0361     -0.3332
    14         H          6.3955      2.4578     -0.4431
    15         H          2.9511     -0.2723      1.5161
    16         O          3.0316      0.3379      0.7658
    17         H          4.1287     -0.2516     -0.1317

 General Reference for PM7:
 "Optimization of Parameters for Semiempirical Methods VI: More Modifications to the 
 NDDO Approximations and Re-optimization of Parameters", J. J. P. Stewart, J. Mol. Mod., 1:32, 19 (2013)
 https://link.springer.com/article/10.1007/s00894-012-1667-x

           Empirical Formula: C3 H7 N O5 Cl  =    17 atoms



      MOLECULAR POINT GROUP   :   C1  


 SINGLET STATE CALCULATION


      RHF CALCULATION, NO. OF DOUBLY OCCUPIED LEVELS = 31

  SCF CRITERION =    0.1000E-03


          HEAT OF FORMATION =    -301.065080 KCALS/MOLE


          CARTESIAN COORDINATE DERIVATIVES

   NUMBER  ATOM         X            Y            Z

     1       C      1.081941    12.328296     1.533678
     2       H      0.075306     0.098406     0.063964
     3       H     -5.563754   -10.694618    -4.894983
     4       H     -0.145689    -0.052793    -0.073570
     5       N     -0.477109    -0.033360     0.406551
     6       O     -0.037652    -0.654102    -0.113303
     7       O      0.003865     0.711458     0.349977
     8       C      0.116512     0.193049     0.011385
     9       O      0.355353     0.050313     0.239694
    10       O     -0.012208     0.202099    -0.115133
    11       C      0.164500     0.180780     0.079554
    12      Cl     -0.354857    -0.192253     0.048375
    13       H     -0.047185     0.004748    -0.165980
    14       H      0.125332    -0.019418    -0.023246
    15       H      0.324983     0.531446     0.028586
    16       O      4.308311    -2.760204     2.604204
    17       H      0.082527     0.106462     0.020561

 DIPOLE           X         Y         Z       TOTAL
 POINT-CHG.    -1.119    -4.790     7.329     8.827
 HYBRID        -0.144    -0.592    -0.466     0.767
 SUM           -1.263    -5.382     6.863     8.813


          GRADIENT NORM =  18.98034



 ** GRADIENT IS VERY LARGE, BUT SINCE "LET" IS USED, CALCULATION WILL CONTINUE


                              **** WARNING ****

           GRADIENT IS VERY LARGE FOR A THERMO CALCULATION
           RESULTS ARE LIKELY TO BE INACCURATE IF THERE ARE
           ANY LOW-LYING VIBRATIONS (LESS THAN ABOUT 400CM-1)
           GRADIENT NORM SHOULD BE LESS THAN ABOUT 1.0 FOR THERMO
           TO GIVE ACCURATE RESULTS


          TIME FOR SCF CALCULATION =    0.12

          TIME FOR DERIVATIVES     =    0.03

          MOLECULAR WEIGHT =  173.55



          ROTATIONAL CONSTANTS IN CM(-1)

          A =    0.06028269   B =    0.01122211   C =    0.01009917



           PRINCIPAL MOMENTS OF INERTIA IN UNITS OF 10**(-40)*GRAM-CM**2

          A =      464.3580   B =     2494.4284   C =     2771.7871


          ORIENTATION OF MOLECULE IN FORCE CALCULATION

    NO.       ATOM         X         Y         Z

     1          C      -0.6522   -3.0897   -0.1952
     2          H       0.4233   -3.0897   -0.1952
     3          H      -0.7302   -1.1331   -0.1952
     4          H      -1.1273   -3.1637    0.7667
     5          N      -1.3468   -3.1723   -1.3167
     6          O      -2.6077   -3.2290   -1.3093
     7          O      -0.7839   -3.1556   -2.4459
     8          C       1.6420    2.0974    0.0693
     9          O       2.5976    2.8427    0.0694
    10          O       1.8585    0.7923   -0.0926
    11          C       0.2180    2.5417    0.2454
    12         Cl      -0.1727    2.3033    1.9544
    13          H      -0.5075    1.9563   -0.3611
    14          H       0.0770    3.6135    0.0007
    15          H      -0.0811   -1.0389    1.2197
    16          O      -0.3041   -0.5011    0.4433
    17          H       1.0025    0.1902    0.0291


    FIRST DERIVATIVES WILL BE USED IN THE CALCULATION OF SECOND DERIVATIVES

          ESTIMATED TIME TO COMPLETE CALCULATION =       14.74 SECONDS

    FOR POINT-GROUP C1   THERE ARE   1 UNIQUE SYMMETRY FUNCTIONS.

 STEP:   1 TIME =     0.05 SECS, INTEGRAL =      0.05 TIME LEFT:1209599.80
 STEP:   2 TIME =     0.05 SECS, INTEGRAL =      0.10 TIME LEFT:1209599.76
 STEP:   3 TIME =     0.05 SECS, INTEGRAL =      0.14 TIME LEFT:1209599.71
 STEP:   4 TIME =     0.06 SECS, INTEGRAL =      0.21 TIME LEFT:1209599.65
 STEP:   5 TIME =     0.05 SECS, INTEGRAL =      0.26 TIME LEFT:1209599.60
 STEP:   6 TIME =     0.05 SECS, INTEGRAL =      0.30 TIME LEFT:1209599.55
 STEP:   7 TIME =     0.05 SECS, INTEGRAL =      0.35 TIME LEFT:1209599.50
 STEP:   8 TIME =     0.05 SECS, INTEGRAL =      0.40 TIME LEFT:1209599.46
 STEP:   9 TIME =     0.04 SECS, INTEGRAL =      0.44 TIME LEFT:1209599.42
 STEP:  10 TIME =     0.07 SECS, INTEGRAL =      0.51 TIME LEFT:1209599.34
 STEP:  11 TIME =     0.05 SECS, INTEGRAL =      0.56 TIME LEFT:1209599.30
 STEP:  12 TIME =     0.05 SECS, INTEGRAL =      0.61 TIME LEFT:1209599.25
 STEP:  13 TIME =     0.05 SECS, INTEGRAL =      0.65 TIME LEFT:1209599.20
 STEP:  14 TIME =     0.05 SECS, INTEGRAL =      0.70 TIME LEFT:1209599.16
 STEP:  15 TIME =     0.05 SECS, INTEGRAL =      0.75 TIME LEFT:1209599.11
 STEP:  16 TIME =     0.05 SECS, INTEGRAL =      0.80 TIME LEFT:1209599.06
 STEP:  17 TIME =     0.05 SECS, INTEGRAL =      0.85 TIME LEFT:1209599.01
 STEP:  18 TIME =     0.05 SECS, INTEGRAL =      0.89 TIME LEFT:1209598.96
 STEP:  19 TIME =     0.05 SECS, INTEGRAL =      0.94 TIME LEFT:1209598.91
 STEP:  20 TIME =     0.05 SECS, INTEGRAL =      0.99 TIME LEFT:1209598.87
 STEP:  21 TIME =     0.05 SECS, INTEGRAL =      1.04 TIME LEFT:1209598.81
 STEP:  22 TIME =     0.05 SECS, INTEGRAL =      1.09 TIME LEFT:1209598.77
 STEP:  23 TIME =     0.05 SECS, INTEGRAL =      1.14 TIME LEFT:1209598.71
 STEP:  24 TIME =     0.09 SECS, INTEGRAL =      1.23 TIME LEFT:1209598.62
 STEP:  25 TIME =     0.05 SECS, INTEGRAL =      1.29 TIME LEFT:1209598.57
 STEP:  26 TIME =     0.05 SECS, INTEGRAL =      1.33 TIME LEFT:1209598.52
 STEP:  27 TIME =     0.05 SECS, INTEGRAL =      1.38 TIME LEFT:1209598.48
 STEP:  28 TIME =     0.05 SECS, INTEGRAL =      1.43 TIME LEFT:1209598.43
 STEP:  29 TIME =     0.05 SECS, INTEGRAL =      1.47 TIME LEFT:1209598.38
 STEP:  30 TIME =     0.05 SECS, INTEGRAL =      1.52 TIME LEFT:1209598.34
 STEP:  31 TIME =     0.05 SECS, INTEGRAL =      1.57 TIME LEFT:1209598.29
 STEP:  32 TIME =     0.04 SECS, INTEGRAL =      1.61 TIME LEFT:1209598.25
 STEP:  33 TIME =     0.05 SECS, INTEGRAL =      1.66 TIME LEFT:1209598.20
 STEP:  34 TIME =     0.05 SECS, INTEGRAL =      1.70 TIME LEFT:1209598.15
 STEP:  35 TIME =     0.05 SECS, INTEGRAL =      1.75 TIME LEFT:1209598.11
 STEP:  36 TIME =     0.04 SECS, INTEGRAL =      1.79 TIME LEFT:1209598.06
 STEP:  37 TIME =     0.05 SECS, INTEGRAL =      1.84 TIME LEFT:1209598.01
 STEP:  38 TIME =     0.04 SECS, INTEGRAL =      1.89 TIME LEFT:1209597.97
 STEP:  39 TIME =     0.05 SECS, INTEGRAL =      1.93 TIME LEFT:1209597.92
 STEP:  40 TIME =     0.07 SECS, INTEGRAL =      2.00 TIME LEFT:1209597.85
 STEP:  41 TIME =     0.05 SECS, INTEGRAL =      2.06 TIME LEFT:1209597.80
 STEP:  42 TIME =     0.05 SECS, INTEGRAL =      2.11 TIME LEFT:1209597.75
 STEP:  43 TIME =     0.05 SECS, INTEGRAL =      2.15 TIME LEFT:1209597.70
 STEP:  44 TIME =     0.05 SECS, INTEGRAL =      2.20 TIME LEFT:1209597.66
 STEP:  45 TIME =     0.05 SECS, INTEGRAL =      2.25 TIME LEFT:1209597.61
 STEP:  46 TIME =     0.05 SECS, INTEGRAL =      2.29 TIME LEFT:1209597.56
 STEP:  47 TIME =     0.06 SECS, INTEGRAL =      2.35 TIME LEFT:1209597.50
 STEP:  48 TIME =     0.05 SECS, INTEGRAL =      2.40 TIME LEFT:1209597.46
 STEP:  49 TIME =     0.05 SECS, INTEGRAL =      2.45 TIME LEFT:1209597.41
 STEP:  50 TIME =     0.04 SECS, INTEGRAL =      2.49 TIME LEFT:1209597.37
 STEP:  51 TIME =     0.05 SECS, INTEGRAL =      2.54 TIME LEFT:1209597.32

(To convert to Hartree/Bohr^2, multiply by (10^(-21) x N x a0^2)/(4.184 x 627.51) =  0.0642)


           FORCE MATRIX IN MILLIDYNES/ANGSTROM


                  C  1       H  2       H  3       H  4       N  5       O  6
 ------------------------------------------------------------------------------
     C    1  14.456350
     H    2   3.404218   4.284168
     H    3   0.281721   0.094887   4.696564
     H    4   3.400866   0.427904   0.096326   4.282404
     N    5   7.586973   1.063764   0.586347   1.060473  19.661357
     O    6   1.975952   0.174193   1.807334   0.132794   7.203748  10.676875
     O    7   1.967066   0.109793   1.764371   0.162958   7.314798   2.307511
     C    8   0.059264   0.011486   0.096905   0.007616   0.028025   0.011381
     O    9   0.020449   0.003626   0.037851   0.002236   0.011856   0.003979
     O   10   0.085093   0.016178   0.141351   0.009946   0.052620   0.022556
     C   11   0.012678   0.002188   0.016990   0.002321   0.007871   0.003881
    Cl   12   0.001753   0.000454   0.009911   0.001285   0.002958   0.001546
     H   13   0.007390   0.001335   0.013967   0.000918   0.005844   0.002241
     H   14   0.002426   0.000444   0.003874   0.000413   0.002934   0.001956
     H   15   0.059612   0.030574   0.734827   0.033837   0.091623   0.043045
     O   16   0.517942   0.035313   3.472379   0.029956   0.275411   0.489730
     H   17   0.148124   0.026002   0.284325   0.016604   0.108748   0.046919


                  O  7       C  8       O  9       O 10       C 11      Cl 12
 ------------------------------------------------------------------------------
     O    7  10.424920
     C    8   0.014919  17.376471
     O    9   0.006910  11.127115  13.465484
     O   10   0.023444   5.181026   2.283031   8.912733
     C   11   0.004441   3.164567   1.143880   0.969710  10.168168
    Cl   12   0.001637   0.634922   0.066909   0.058074   2.392625   3.791567
     H   13   0.002917   0.730768   0.067655   0.042652   3.199557   0.593441
     H   14   0.001433   0.735591   0.042552   0.069096   3.243142   0.592349
     H   15   0.038578   0.046301   0.018186   0.076631   0.010617   0.008067
     O   16   0.490744   0.348567   0.132947   0.844042   0.054326   0.032183
     H   17   0.045668   1.445051   0.333054   2.461140   0.074744   0.019981


                  H 13       H 14       H 15       O 16       H 17
 ------------------------------------------------------------------
     H   13   3.975656
     H   14   0.423362   4.040292
     H   15   0.009595   0.002637   4.165413
     O   16   0.016141   0.012886   3.742457   6.131610
     H   17   0.044843   0.018262   0.203926   0.509129   2.796465


          HEAT OF FORMATION =    -301.065080 KCALS/MOLE


          TRIVIAL VIBRATIONS, SHOULD BE ZERO

 -14.2865=TX  -3.0854=TY  36.2755=TZ   5.1890=RX  14.6338=RY -38.7482=RZ


      MOLECULAR POINT GROUP   :   C1  


           EIGENVECTORS  


   Root No.       1         2         3         4         5         6         7         8

                 1 A       2 A       3 A       4 A       5 A       6 A       7 A       8 A   

                  -0.2      -0.0      -0.0      -0.0      -0.0       0.0       0.0       0.0
  
           1    0.0892   -0.1165    0.0257    0.0311    0.0143    0.0031    0.1460   -0.1329
           2   -0.0363   -0.0758    0.0475   -0.0486   -0.0587    0.1786   -0.0544   -0.0835
           3   -0.1096    0.0825    0.0664    0.0372   -0.0470   -0.0557    0.0849   -0.0172
           4    0.0828   -0.1145    0.0256    0.0307    0.0140    0.0035    0.1455   -0.1343
           5   -0.0759   -0.4013    0.1197   -0.0913   -0.1359    0.2276   -0.1714    0.0456
           6   -0.1934    0.1584    0.0227    0.0744   -0.0096   -0.1205    0.0490    0.0903
           7    0.4405    0.3032   -0.1002    0.0304    0.0911    0.0151   -0.0504    0.0409
           8   -0.4023   -0.0597    0.0628   -0.1026   -0.1380    0.1864   -0.0176   -0.2638
           9   -0.0687   -0.1525   -0.2196   -0.1069   -0.1310   -0.0585   -0.0707    0.3407
          10    0.1555   -0.2023    0.0710   -0.0045   -0.0238    0.0591    0.1858   -0.2152
          11   -0.0141    0.1156    0.1291    0.0103    0.0066    0.2576   -0.2067   -0.2575
          12   -0.0618    0.0536    0.0931    0.0246   -0.0599   -0.0214    0.0915   -0.0706
          13   -0.1057   -0.0509   -0.0094    0.0604    0.0402   -0.0580    0.0963   -0.0299
          14   -0.0270    0.0454   -0.1052   -0.0751   -0.0760    0.0422    0.2725   -0.0180
          15    0.0021    0.0322    0.0996    0.0188   -0.0644   -0.0061    0.0909   -0.0889
          16   -0.0929   -0.0708   -0.0068    0.0578    0.0362   -0.0544    0.0868   -0.0242
          17    0.0284    0.4759   -0.1712   -0.0027    0.0330   -0.0104    0.4418   -0.1696
          18    0.2814   -0.0730    0.1473   -0.0107   -0.0915    0.0659    0.1193   -0.1760
          19   -0.3836    0.0534   -0.0475    0.0904    0.0680   -0.1176    0.0629    0.0393
          20   -0.0547   -0.2195   -0.1915   -0.1526   -0.1783   -0.0830    0.4956    0.2154
          21   -0.1305    0.0796    0.0786    0.0337   -0.0505   -0.0399    0.0773   -0.0462
          22    0.0224   -0.0357    0.0397    0.0048   -0.0022    0.0312   -0.0309    0.0349
          23    0.0426    0.1045   -0.0117    0.0171    0.0089   -0.0092   -0.1164    0.0721
          24    0.1107   -0.0004    0.0903   -0.0871   -0.0244    0.0005   -0.0342   -0.0563
          25    0.0384   -0.1034    0.0377    0.0325   -0.0060   -0.0920   -0.0328   -0.0172
          26    0.0201    0.1930   -0.0100   -0.0178    0.0137    0.1487   -0.1144    0.1353
          27    0.2142    0.0440    0.4314   -0.4046   -0.2510   -0.2602   -0.0239   -0.0191
          28   -0.0004    0.0872    0.0622   -0.0695   -0.0164    0.2358   -0.0268    0.1322
          29    0.0302    0.1346    0.0296   -0.0148   -0.0105   -0.0192   -0.1178    0.0860
          30    0.1579   -0.0645   -0.2511    0.0938    0.1256    0.3259   -0.0305   -0.1221
          31    0.0101   -0.0742    0.0191    0.0537    0.0184   -0.0319   -0.0361    0.0040
          32    0.0695   -0.0277   -0.0698    0.1044    0.0203   -0.2032   -0.1247   -0.0490
          33   -0.0631    0.0249    0.0769    0.0761    0.1189   -0.0201   -0.0508   -0.0197
          34   -0.1951   -0.0377    0.0358   -0.0055    0.3495   -0.0606   -0.0454    0.0562
          35    0.0891   -0.1263   -0.1424   -0.4107    0.4322   -0.2800   -0.1008   -0.1561
          36   -0.1064    0.0199    0.0720   -0.0118    0.2498   -0.0367   -0.0486   -0.0228
          37    0.0763   -0.0306    0.0365    0.0135   -0.0839    0.0725   -0.0283    0.0426
          38    0.0721   -0.0651   -0.0745    0.3713   -0.1495   -0.3039   -0.1440   -0.0825
          39   -0.1435    0.0100    0.0610   -0.1357    0.4014   -0.0523   -0.0430   -0.0347
          40    0.0538   -0.1664   -0.0152    0.1526   -0.0530   -0.1767   -0.0447   -0.0876
          41    0.0689   -0.0297   -0.0667    0.1971   -0.0457   -0.2209   -0.1307   -0.0494
          42   -0.0896    0.0682    0.1127    0.4279   -0.1305   -0.0085   -0.0698    0.0298
          43   -0.0568    0.2019   -0.2071   -0.2400   -0.2952   -0.1623   -0.2606    0.0077
          44    0.1676   -0.0561    0.3047    0.1599    0.2290    0.0597    0.1428    0.4864
          45    0.1051   -0.1015   -0.1876    0.0023    0.0244    0.0320    0.0055    0.3183
          46   -0.1078    0.2202   -0.0338   -0.1332   -0.1153    0.0713   -0.1266    0.0905
          47   -0.0351   -0.0557    0.1375    0.0241    0.0372    0.0975    0.0479    0.0456
          48   -0.0112   -0.1056   -0.3450   -0.1164   -0.1498   -0.0054   -0.0963    0.0157
          49   -0.0267    0.1372    0.0665   -0.1053   -0.0357    0.2619   -0.0406    0.1930
          50    0.0568    0.0479    0.0120    0.0318    0.0117   -0.0686   -0.1019    0.0430
          51    0.1063   -0.0758   -0.3487    0.0844    0.0896    0.2610   -0.0507   -0.1213


   Root No.       9        10        11        12        13        14        15        16

                 9 A      10 A      11 A      12 A      13 A      14 A      15 A      16 A   

                   0.1       0.2       0.2       0.3       0.3       0.4       0.5       0.6
  
           1    0.0462   -0.0394   -0.0314    0.0096    0.0470   -0.0072    0.1186   -0.0201
           2    0.2288    0.0587    0.1030    0.0410    0.1011   -0.0055   -0.0168    0.0074
           3   -0.0545    0.0547    0.0589    0.0168    0.0064   -0.0019   -0.0742   -0.0011
           4    0.0486   -0.0425   -0.0346    0.0057    0.0418   -0.0065    0.0866   -0.0231
           5    0.1065    0.2093    0.6580    0.1128   -0.1831   -0.0432   -0.1235   -0.0876
           6   -0.0318    0.1315    0.2022    0.1282    0.1772   -0.0379    0.4433   -0.0175
           7    0.2798   -0.0068    0.2339    0.0106   -0.0901   -0.0226    0.1846    0.0283
           8   -0.0265   -0.1761   -0.2378   -0.1514   -0.3488    0.0441    0.3276    0.1694
           9    0.1353   -0.0778   -0.1668   -0.0292    0.0140   -0.0073   -0.1175   -0.0690
          10    0.0050   -0.0933   -0.1289   -0.0920   -0.1456    0.0267   -0.3339    0.0056
          11    0.4028   -0.0781   -0.2083    0.0199    0.6071   -0.0151   -0.1562   -0.0244
          12   -0.0584    0.0225   -0.0008   -0.0260   -0.0350    0.0114   -0.2797    0.0074
          13    0.0648    0.0013    0.0314    0.0413    0.0721   -0.0141    0.1333   -0.0187
          14    0.0730    0.0323    0.0715    0.0245    0.0693   -0.0047   -0.0068   -0.0000
          15   -0.0620    0.0222    0.0170   -0.0068   -0.0142    0.0023   -0.0781    0.0005
          16    0.0675    0.0088    0.0319    0.0449    0.0901   -0.0135    0.1245   -0.0160
          17    0.1400   -0.0431    0.1647    0.0310   -0.2607   -0.0267   -0.1534   -0.1265
          18   -0.0907    0.0328    0.0398    0.0164    0.0943   -0.0054    0.2959    0.0387
          19    0.1054   -0.0072    0.0130    0.0147   -0.0338   -0.0042   -0.2415   -0.0451
          20   -0.1786    0.1218   -0.0307    0.0082    0.3905    0.0212    0.0560    0.1015
          21   -0.0422    0.0262    0.0122   -0.0149   -0.0532    0.0064   -0.2457   -0.0128
          22   -0.0869   -0.0273   -0.0397    0.1011   -0.0185   -0.1280   -0.0141    0.0151
          23   -0.1948   -0.1057   -0.0219    0.1494    0.0052   -0.0783   -0.0362    0.0229
          24   -0.0606    0.0844   -0.0498   -0.0364   -0.0141   -0.0743   -0.0358    0.0257
          25   -0.0373   -0.0342   -0.0491    0.1860   -0.0364   -0.1622   -0.0353    0.1378
          26   -0.2509   -0.0884   -0.0049    0.0195    0.0285   -0.0175   -0.0064   -0.1191
          27    0.0237   -0.1646   -0.0105    0.1148   -0.0338    0.3102   -0.0092   -0.0015
          28   -0.1983   -0.0317    0.0005   -0.1437    0.0387    0.0544    0.0053   -0.2205
          29   -0.1728   -0.1153   -0.0014    0.0766    0.0078   -0.0720   -0.0159    0.0314
          30   -0.2418    0.3242   -0.1244    0.0642   -0.0066    0.2471   -0.1348    0.0464
          31   -0.0548   -0.0168   -0.0239    0.0597   -0.0120   -0.1108   -0.0118    0.0215
          32   -0.0983   -0.0443    0.0073    0.0093    0.0039    0.0243   -0.0347    0.0892
          33    0.0065    0.0669    0.0005   -0.0915    0.0113   -0.2271    0.0126   -0.0036
          34   -0.0040   -0.1614    0.0574    0.4126    0.0288    0.5386   -0.0101    0.0193
          35   -0.0904    0.0633    0.0239   -0.2768    0.0188   -0.1431   -0.0116    0.0153
          36    0.0209    0.0454    0.0214   -0.0376    0.0208   -0.0690    0.0156   -0.0082
          37   -0.1232   -0.0180   -0.0888    0.2114   -0.0403   -0.4030   -0.0571    0.1918
          38   -0.0414   -0.0381    0.0605   -0.2098    0.0268    0.2952   -0.0007   -0.0616
          39    0.0342    0.0606    0.0346   -0.0828    0.0281   -0.1138    0.0349   -0.0696
          40    0.0126    0.0573    0.0228   -0.3176    0.0070   -0.0132    0.0462   -0.2358
          41   -0.0873   -0.0471    0.0221   -0.0559    0.0123    0.0692   -0.0250    0.0474
          42    0.0265    0.0173    0.0159   -0.0688    0.0152   -0.1176    0.0203    0.0166
          43    0.1337    0.5634   -0.2333    0.1014   -0.0788    0.0653    0.0002   -0.1473
          44    0.2174    0.2582   -0.2558   -0.1063   -0.1612    0.1000   -0.0059    0.0791
          45    0.2447   -0.3326    0.0358   -0.1045   -0.0231   -0.0258   -0.0609    0.1413
          46    0.0023    0.0177    0.1582   -0.3298    0.0250    0.1156   -0.0247    0.6816
          47    0.1294    0.0703   -0.2555   -0.0056   -0.2691    0.0298    0.2408   -0.1137
          48    0.2140   -0.3115   -0.0684    0.0756   -0.1113   -0.0847    0.0983   -0.2135
          49   -0.2615   -0.1699    0.0807   -0.3159    0.1051    0.0849    0.0290   -0.3743
          50   -0.1571   -0.0778   -0.0946    0.3135   -0.0484   -0.1778   -0.0312   -0.0308
          51   -0.0635   -0.0022   -0.0176    0.0825   -0.0762    0.1873    0.1150    0.1199


   Root No.      17        18        19        20        21        22        23        24

                17 A      18 A      19 A      20 A      21 A      22 A      23 A      24 A   

                   0.7       0.9       1.0       1.3       1.3       1.4       1.5       1.9
  
           1   -0.0348   -0.0192    0.0078   -0.0963   -0.0097   -0.0420   -0.0452   -0.1391
           2    0.0078    0.0119   -0.0495    0.1231    0.0287    0.6086    0.3658   -0.2100
           3    0.0243    0.0109   -0.0050   -0.1343    0.0084    0.0502    0.0403    0.1024
           4   -0.0314   -0.0189    0.0076   -0.1373   -0.0105   -0.0394   -0.0479   -0.1950
           5    0.0011   -0.0181    0.0226   -0.0533   -0.0133   -0.2353   -0.1448    0.0549
           6   -0.0564   -0.0252    0.0034    0.5899   -0.0146   -0.1011   -0.0710   -0.1205
           7   -0.0822   -0.0084    0.0094   -0.0064    0.0072    0.0477    0.0699    0.4081
           8   -0.1209   -0.0119    0.0242   -0.0148   -0.0160   -0.1168   -0.0804   -0.0358
           9   -0.0435   -0.0159    0.0034   -0.0021    0.0023    0.0498    0.0448    0.2659
          10    0.0392    0.0161   -0.0092    0.6085    0.0000   -0.0416   -0.0117    0.0252
          11    0.0231   -0.0005    0.0237   -0.0091   -0.0113   -0.2602   -0.1499    0.0863
          12    0.0598    0.0271   -0.0085    0.1592    0.0121   -0.0021    0.0295    0.2794
          13   -0.0205   -0.0097    0.0035   -0.0938   -0.0017   -0.0042   -0.0032    0.0440
          14   -0.0031    0.0026   -0.0173    0.0392    0.0133    0.2925    0.1822   -0.1427
          15    0.0115    0.0039   -0.0001   -0.1410    0.0024    0.0245    0.0130   -0.0262
          16   -0.0140   -0.0053   -0.0016   -0.0979    0.0029    0.0427    0.0295    0.0807
          17   -0.0189   -0.0361    0.0156   -0.0372   -0.0193   -0.1832   -0.1393   -0.1045
          18   -0.0550   -0.0154    0.0085   -0.2774   -0.0029    0.0318    0.0048   -0.0812
          19    0.0434    0.0114   -0.0066   -0.1811    0.0073    0.0654    0.0464    0.0137
          20    0.0381    0.0325    0.0031   -0.0365    0.0065   -0.1214   -0.0471    0.2219
          21    0.0419    0.0135   -0.0062   -0.1967    0.0068    0.0649    0.0379   -0.0596
          22   -0.0026    0.0463    0.0970    0.0021    0.0717   -0.0611    0.1517   -0.0061
          23    0.0136    0.0455    0.0796    0.0011   -0.0790    0.0242   -0.0320   -0.0346
          24   -0.0869   -0.0156    0.0129    0.0014    0.1962    0.0737   -0.1615   -0.0116
          25    0.0520   -0.1257    0.3973    0.0032   -0.1012   -0.0813    0.1859   -0.0264
          26   -0.0625    0.2690   -0.2998    0.0007    0.1407    0.0607   -0.0705   -0.0013
          27    0.0710    0.0381   -0.0552   -0.0034   -0.0806   -0.0240    0.0366   -0.0158
          28   -0.0876   -0.0407    0.0399    0.0036    0.0412   -0.0743    0.1949   -0.0014
          29    0.0438    0.0772    0.0393    0.0019   -0.0335    0.0441   -0.0510   -0.0207
          30   -0.4995   -0.0633    0.0382   -0.0002   -0.1349   -0.0068    0.0222   -0.0022
          31    0.0057    0.0136    0.0826    0.0032    0.0727    0.0091    0.0297    0.0072
          32    0.0170   -0.0885    0.1267    0.0051   -0.1958    0.1699   -0.2322    0.0221
          33    0.0161   -0.0117    0.0533    0.0033    0.3141    0.0728   -0.1490    0.0024
          34   -0.0745   -0.0644   -0.2382   -0.0009    0.0417    0.0247   -0.0782    0.0114
          35    0.0446   -0.3003   -0.2875   -0.0065    0.0157   -0.1608    0.2321   -0.0267
          36   -0.0039   -0.0632   -0.0694    0.0007    0.2769    0.0243   -0.0905    0.0006
          37    0.0485   -0.1870   -0.2867   -0.0003    0.0835    0.1937   -0.3541    0.0187
          38   -0.0348   -0.1395    0.2513    0.0069    0.5011   -0.0128    0.0387   -0.0077
          39    0.0079    0.2800    0.4052    0.0088   -0.2962    0.1014   -0.0466    0.0421
          40   -0.0493    0.5912   -0.2876   -0.0072   -0.1068   -0.0037   -0.0754   -0.0290
          41    0.0190   -0.0797   -0.0087    0.0020   -0.4350    0.1520   -0.2053    0.0271
          42    0.0531   -0.2763   -0.3574   -0.0083   -0.3140   -0.2091    0.3495   -0.0041
          43    0.0955   -0.0472    0.0090   -0.0016   -0.0169   -0.0570   -0.0777   -0.2113
          44    0.0993   -0.0062    0.0166   -0.0115   -0.0120   -0.0824   -0.0775   -0.2155
          45   -0.1462    0.0222    0.0052   -0.0008   -0.0125   -0.0999   -0.0729   -0.3619
          46   -0.0678    0.1377    0.0117   -0.0032    0.0185   -0.0348    0.0688    0.0600
          47    0.0104   -0.0467   -0.0128   -0.0017    0.0058    0.1054    0.0532    0.4517
          48   -0.1403   -0.0568   -0.0047    0.0094   -0.0095    0.0097   -0.0208    0.0084
          49    0.1807   -0.2897    0.1640    0.0056   -0.0998    0.0560   -0.0832   -0.0607
          50   -0.0774    0.2889    0.0729   -0.0094    0.1031   -0.2846    0.3580   -0.0645
          51    0.7461    0.1477   -0.0236   -0.0086    0.0462   -0.0602    0.0336   -0.0182


   Root No.      25        26        27        28        29        30        31        32

                25 A      26 A      27 A      28 A      29 A      30 A      31 A      32 A   

                   2.2       2.5       2.7       3.3       3.6       3.9       4.4       5.5
  
           1    0.0282    0.1946    0.0068   -0.1404   -0.0008    0.0112    0.0009   -0.0074
           2   -0.0387   -0.0075    0.0100   -0.0439    0.0106   -0.4570   -0.0637   -0.0856
           3   -0.0173   -0.1445   -0.0094   -0.2075   -0.0007   -0.0123   -0.0030    0.1333
           4    0.0445    0.3433    0.0127   -0.4801   -0.0012    0.0093    0.0031   -0.0606
           5    0.0182    0.0330   -0.0050   -0.0007   -0.0010    0.0594    0.0098   -0.0043
           6    0.0249    0.1854    0.0089    0.0457    0.0003    0.0102    0.0036    0.0111
           7   -0.0705   -0.1107    0.0115    0.0183   -0.0081    0.0367   -0.0340    0.2522
           8   -0.0307   -0.1617    0.0042   -0.0108   -0.0075    0.0301   -0.0382    0.0374
           9   -0.0130    0.4537    0.0293    0.0180   -0.0122    0.0895   -0.0477   -0.3942
          10   -0.0033    0.0127    0.0047    0.2444    0.0010    0.0003    0.0017    0.1286
          11    0.0153    0.0264   -0.0031    0.0320   -0.0011    0.0649    0.0103    0.0259
          12   -0.0446   -0.4130   -0.0265   -0.3302   -0.0041    0.0411   -0.0001   -0.3733
          13   -0.0149   -0.1815   -0.0119   -0.0511   -0.0014   -0.0400   -0.0119   -0.1913
          14   -0.0465   -0.0412    0.0343   -0.0423   -0.0268    0.7961    0.0687    0.0525
          15    0.0055    0.0845    0.0051   -0.1515    0.0018   -0.0428   -0.0070    0.2870
          16   -0.0239   -0.2440   -0.0146   -0.0374   -0.0020   -0.0065   -0.0054   -0.0677
          17    0.0430    0.1413   -0.0101    0.0249    0.0065   -0.2221   -0.0209   -0.2619
          18   -0.0080   -0.0641    0.0019    0.5260    0.0015    0.0297    0.0030   -0.3063
          19   -0.0052    0.0059    0.0093    0.4609    0.0011    0.0373    0.0114   -0.0253
          20   -0.0032   -0.1157   -0.0147    0.0343    0.0087   -0.2499   -0.0166    0.2172
          21    0.0187    0.2339    0.0160    0.1091    0.0040   -0.0275    0.0057    0.4264
          22    0.2682   -0.0058   -0.1676    0.0020    0.1655    0.0029    0.2508   -0.0364
          23   -0.1538    0.0245   -0.3410    0.0042   -0.1519    0.0032   -0.0225    0.0017
          24   -0.2068    0.0237   -0.0719   -0.0022    0.7943    0.0318   -0.1188   -0.0051
          25   -0.1604    0.0354   -0.3347    0.0009   -0.0183   -0.0174    0.1912   -0.0067
          26    0.4203   -0.0199   -0.2117    0.0052    0.0894    0.0203    0.1451   -0.0347
          27    0.1192    0.0059    0.0255    0.0048   -0.2248   -0.0035    0.0155   -0.0255
          28    0.1519   -0.0224    0.3086   -0.0070    0.0574   -0.0604    0.3119    0.0324
          29   -0.2004    0.0428   -0.3348    0.0013   -0.0706   -0.0063   -0.0954    0.0242
          30   -0.0242    0.0140   -0.0542    0.0037   -0.2181    0.0012   -0.0571   -0.0164
          31    0.3243   -0.0216   -0.0228    0.0033    0.0371    0.0245   -0.0749   -0.0239
          32    0.0341   -0.0028    0.1450   -0.0010    0.0189   -0.0054    0.0285   -0.0041
          33   -0.0980   -0.0015    0.0531   -0.0014   -0.1593   -0.0115   -0.0063    0.0230
          34   -0.1022   -0.0071   -0.0103   -0.0023    0.1275    0.0120   -0.1292    0.0286
          35    0.0393    0.0046   -0.0566    0.0021    0.0078    0.0101   -0.0725   -0.0060
          36   -0.2420    0.0105    0.0371   -0.0054   -0.2306   -0.0554    0.5415   -0.0238
          37    0.1075   -0.0140    0.2324    0.0029   -0.2220    0.0115   -0.2465    0.0050
          38    0.1980   -0.0105    0.0062    0.0028   -0.0925    0.0165   -0.1877    0.0019
          39    0.3252   -0.0386    0.0867    0.0009   -0.0198    0.0262   -0.2664    0.0281
          40   -0.2517    0.0254   -0.1192    0.0015   -0.0976   -0.0015   -0.0460   -0.0002
          41   -0.0165   -0.0066    0.2858   -0.0051    0.1827   -0.0307    0.3912   -0.0279
          42    0.0857   -0.0087   -0.1012    0.0009    0.0501    0.0179   -0.1444    0.0158
          43    0.0134   -0.1473   -0.0155   -0.0058    0.0015   -0.0135    0.0118    0.0582
          44   -0.0079   -0.0881    0.0034   -0.0036   -0.0010    0.0176   -0.0255   -0.0711
          45    0.0331   -0.2567   -0.0153   -0.0124    0.0052   -0.0488    0.0431    0.1522
          46   -0.0437    0.1618    0.0652   -0.0110   -0.0007   -0.0153   -0.0212   -0.0753
          47    0.0040    0.1885   -0.0327    0.0057    0.0023   -0.0369    0.0438    0.1475
          48    0.0172   -0.1084   -0.0281    0.0011    0.0021   -0.0499    0.0142    0.0815
          49   -0.2621   -0.0246    0.0455    0.0011   -0.0390    0.0088   -0.2138   -0.0100
          50   -0.2744   -0.0070    0.5206   -0.0054    0.0255   -0.0097   -0.1544   -0.0125
          51    0.0243    0.0239    0.0432    0.0006    0.0103    0.0041    0.0243   -0.0138


   Root No.      33        34        35        36        37        38        39        40

                33 A      34 A      35 A      36 A      37 A      38 A      39 A      40 A   

                   6.0       6.4       7.0       7.6       8.5       8.8       9.2      10.4
  
           1   -0.1600    0.0966   -0.0501   -0.0325   -0.0004   -0.0015   -0.0056    0.6865
           2   -0.0101   -0.0669    0.0456    0.0197   -0.0517    0.0007    0.0016    0.0311
           3   -0.1971    0.0597   -0.0121   -0.0017    0.0101    0.0000    0.0013   -0.4437
           4    0.4447   -0.1959    0.0726    0.0368   -0.0022    0.0011    0.0039   -0.3545
           5    0.0003    0.0148   -0.0089   -0.0036    0.0062   -0.0000    0.0001   -0.0003
           6    0.0614   -0.0263    0.0078    0.0036    0.0002   -0.0000    0.0001    0.0294
           7    0.0174   -0.2716    0.2255    0.1559   -0.1762    0.0101    0.0275    0.0512
           8   -0.0879   -0.2227    0.2316    0.1752   -0.2231    0.0118    0.0356    0.0224
           9   -0.2560   -0.0483    0.1408    0.1190   -0.2660    0.0119    0.0329   -0.0375
          10   -0.1099    0.0223    0.0008    0.0035    0.0012    0.0004    0.0014   -0.1865
          11   -0.0194    0.0170   -0.0087   -0.0035    0.0052   -0.0000   -0.0000   -0.0296
          12    0.3199   -0.0669    0.0045   -0.0041   -0.0052   -0.0004   -0.0017    0.3138
          13   -0.2597    0.1511   -0.0624   -0.0343   -0.0122   -0.0006   -0.0025   -0.0921
          14   -0.0113    0.0507   -0.0313   -0.0153    0.0244   -0.0005   -0.0018   -0.0029
          15   -0.2170    0.0174    0.0162    0.0139   -0.0081    0.0005    0.0015    0.0562
          16   -0.3427    0.1762   -0.0681   -0.0313    0.0221   -0.0010   -0.0020   -0.1177
          17   -0.1048    0.1034   -0.0538   -0.0326   -0.0025   -0.0008   -0.0027   -0.0454
          18    0.1359    0.0107   -0.0224   -0.0163    0.0001   -0.0002   -0.0012   -0.0911
          19    0.3420   -0.1495    0.0537    0.0277   -0.0028    0.0006    0.0023    0.0290
          20    0.0977   -0.1141    0.0621    0.0356   -0.0064    0.0011    0.0034    0.0395
          21   -0.0413   -0.0674    0.0443    0.0274    0.0108    0.0004    0.0015    0.1632
          22   -0.0686   -0.1364    0.0749   -0.1669   -0.0020   -0.0212   -0.3159   -0.0032
          23    0.0188    0.0727    0.0403    0.0924   -0.0155   -0.0373    0.0531    0.0020
          24    0.0083    0.0130   -0.0929    0.1093   -0.0079   -0.0126    0.0081   -0.0012
          25    0.0083    0.0611    0.0881    0.0147   -0.0127   -0.0610   -0.1834   -0.0012
          26   -0.0663   -0.1319    0.0603   -0.1324   -0.0013    0.0003   -0.1874   -0.0016
          27   -0.0143   -0.0054    0.0250   -0.0482    0.0023    0.0092    0.0043   -0.0032
          28    0.1437    0.4465    0.1022    0.4278   -0.0343    0.0823    0.1301    0.0020
          29    0.0821    0.1980   -0.0887    0.2100    0.0054   -0.0691    0.3401   -0.0010
          30   -0.0189   -0.0468   -0.0077   -0.0839    0.0166   -0.0168    0.0123   -0.0030
          31   -0.0730   -0.2364   -0.1555   -0.1838    0.0553    0.2077    0.7318    0.0016
          32    0.0069    0.0167   -0.0601    0.0759    0.0020    0.7785   -0.2186   -0.0013
          33    0.0665    0.2772    0.5794   -0.3952    0.0203    0.1148    0.0863    0.0018
          34    0.0323    0.0758    0.0926   -0.0210   -0.0027   -0.0103   -0.0234    0.0027
          35    0.0068    0.0377    0.0481   -0.0234   -0.0018   -0.0279    0.0043   -0.0013
          36   -0.0887   -0.2967   -0.3693    0.1639   -0.0014    0.0105    0.0144    0.0017
          37    0.0269    0.0523   -0.1106    0.1838   -0.0235   -0.2234   -0.1628   -0.0021
          38    0.0120    0.0151   -0.0924    0.1247   -0.0161   -0.2139   -0.1025   -0.0013
          39    0.0240    0.0135   -0.1042    0.1513   -0.0165   -0.1846   -0.1113    0.0021
          40    0.0117    0.0334   -0.0117    0.0463   -0.0050    0.0413   -0.0535   -0.0009
          41   -0.0342   -0.0312    0.1487   -0.1833    0.0088   -0.4252    0.1714   -0.0010
          42    0.0105   -0.0002   -0.0454    0.0538   -0.0035    0.0757   -0.0357    0.0018
          43    0.0454    0.0290   -0.0498   -0.0508   -0.1136    0.0005   -0.0010    0.0001
          44   -0.0934   -0.1103    0.1486    0.1434    0.2817   -0.0015    0.0041    0.0063
          45    0.1520    0.1408   -0.2037   -0.1984   -0.4262    0.0019   -0.0037   -0.0054
          46    0.0078    0.0860   -0.1207   -0.1192    0.2871   -0.0116   -0.0466   -0.0125
          47    0.2336    0.2684   -0.3706   -0.3389   -0.0282   -0.0157   -0.0513   -0.0134
          48    0.0522   -0.0116    0.0298    0.0695    0.6923   -0.0128   -0.0246    0.0163
          49   -0.0666   -0.2406   -0.0814   -0.2567    0.0219   -0.0135   -0.1003   -0.0023
          50   -0.0308   -0.1173   -0.0707   -0.1438    0.0128   -0.0005   -0.0492   -0.0022
          51    0.0028    0.0373    0.0098    0.0361   -0.0181    0.0026    0.0155   -0.0011


   Root No.      41        42        43        44        45

                41 A      42 A      43 A      44 A      45 A   

                  13.5      14.4      19.1      22.2      25.3
  
           1    0.0030   -0.3346   -0.0392   -0.2786    0.0013
           2    0.0038   -0.0238    0.0010   -0.0110    0.0014
           3    0.0063   -0.5207    0.0275   -0.4413    0.0024
           4   -0.0013    0.1271   -0.0087    0.0119    0.0001
           5   -0.0010   -0.0009   -0.0014   -0.0027   -0.0003
           6   -0.0005    0.0173   -0.0208   -0.0055    0.0000
           7   -0.0119   -0.0172    0.0285   -0.0021   -0.0019
           8   -0.0179    0.0068    0.0046   -0.0282   -0.0023
           9   -0.0157    0.0153   -0.0253   -0.0105   -0.0026
          10    0.0005   -0.0360    0.0167   -0.0084   -0.0000
          11   -0.0006   -0.0077    0.0021   -0.0037   -0.0001
          12   -0.0018    0.1167    0.0138    0.0063   -0.0000
          13    0.0035   -0.0493    0.6539    0.4160   -0.0024
          14   -0.0008    0.0032    0.0260    0.0389   -0.0004
          15    0.0017   -0.1100   -0.4053    0.6758   -0.0037
          16   -0.0057    0.5377   -0.4509   -0.2156    0.0014
          17    0.0010    0.0391   -0.0383   -0.0122    0.0002
          18    0.0007    0.0150   -0.0038   -0.0281    0.0002
          19    0.0015   -0.2322   -0.1903    0.0722   -0.0006
          20   -0.0016   -0.0144    0.0107    0.0043   -0.0001
          21   -0.0075    0.4738    0.4016   -0.2043    0.0012
          22   -0.3331   -0.0038   -0.0004    0.0037    0.5894
          23    0.6451    0.0075   -0.0005    0.0003    0.4331
          24    0.0996    0.0013   -0.0002   -0.0003   -0.0052
          25    0.0870    0.0012   -0.0005   -0.0030   -0.5351
          26    0.0664    0.0010   -0.0007   -0.0025   -0.4185
          27   -0.0019    0.0004   -0.0008   -0.0001    0.0003
          28    0.0861   -0.0003    0.0001    0.0025    0.0101
          29   -0.6404   -0.0084    0.0002    0.0037    0.0096
          30   -0.0732   -0.0006   -0.0003   -0.0000    0.0016
          31    0.1249    0.0014    0.0001   -0.0005   -0.0346
          32   -0.0675   -0.0009   -0.0005    0.0004    0.0001
          33   -0.0339   -0.0004   -0.0003    0.0003    0.0072
          34   -0.0006   -0.0003    0.0006    0.0002   -0.0023
          35    0.0034    0.0001   -0.0007   -0.0002    0.0012
          36    0.0038   -0.0001    0.0006    0.0000    0.0041
          37    0.0017    0.0001   -0.0004    0.0001   -0.0170
          38    0.0097    0.0002   -0.0004    0.0000    0.0016
          39    0.0075   -0.0002    0.0006    0.0003   -0.0048
          40    0.0233    0.0004   -0.0003    0.0000    0.0031
          41   -0.0128    0.0001   -0.0006   -0.0001    0.0052
          42    0.0033   -0.0001    0.0004    0.0002   -0.0020
          43    0.0018    0.0012    0.0002   -0.0009    0.0001
          44   -0.0075   -0.0017    0.0012   -0.0020   -0.0008
          45    0.0086    0.0058   -0.0016   -0.0052    0.0012
          46    0.0457    0.0028   -0.0089    0.0078    0.0066
          47    0.0398   -0.0014   -0.0019    0.0187    0.0064
          48   -0.0022   -0.0137    0.0141    0.0115    0.0005
          49   -0.0263    0.0016   -0.0004   -0.0054   -0.0183
          50   -0.0194    0.0013   -0.0008   -0.0038   -0.0362
          51    0.0052    0.0001   -0.0004    0.0009   -0.0004


          FORCE CONSTANTS IN MILLIDYNES/ANGSTROM (= 10**5 DYNES/CM)

  -0.22217  -0.03315  -0.02040  -0.01111  -0.00676   0.01008   0.01490   0.02191
   0.05262   0.19126   0.24951   0.29716   0.33352   0.38464   0.52136   0.63416
   0.73688   0.85717   1.04095   1.27498   1.32553   1.43035   1.45873   1.90424
   2.22190   2.46151   2.74141   3.25232   3.57415   3.86124   4.41442   5.53384
   6.01228   6.36997   6.96171   7.55571   8.53398   8.80943   9.15265  10.40187
  13.47336  14.42757  19.10016  22.23556  25.32417


           ASSOCIATED EIGENVECTORS




    ROOT NO.    1           2           3           4           5           6

            -0.22217    -0.03315    -0.02040    -0.01111    -0.00676     0.01008
  
         1   0.08924    -0.11654     0.02571     0.03108     0.01426     0.00314
         2  -0.03629    -0.07583     0.04753    -0.04864    -0.05865     0.17856
         3  -0.10959     0.08247     0.06644     0.03718    -0.04704    -0.05570
         4   0.08276    -0.11454     0.02565     0.03068     0.01396     0.00345
         5  -0.07586    -0.40130     0.11966    -0.09126    -0.13594     0.22764
         6  -0.19342     0.15838     0.02272     0.07439    -0.00960    -0.12054
         7   0.44046     0.30315    -0.10016     0.03040     0.09113     0.01507
         8  -0.40230    -0.05970     0.06280    -0.10259    -0.13801     0.18636
         9  -0.06869    -0.15255    -0.21963    -0.10687    -0.13102    -0.05845
        10   0.15549    -0.20231     0.07100    -0.00446    -0.02377     0.05912
        11  -0.01406     0.11563     0.12913     0.01026     0.00662     0.25764
        12  -0.06180     0.05359     0.09310     0.02458    -0.05992    -0.02141
        13  -0.10573    -0.05087    -0.00941     0.06037     0.04016    -0.05796
        14  -0.02697     0.04537    -0.10522    -0.07507    -0.07597     0.04218
        15   0.00213     0.03222     0.09963     0.01883    -0.06445    -0.00614
        16  -0.09292    -0.07080    -0.00677     0.05781     0.03617    -0.05435
        17   0.02838     0.47588    -0.17125    -0.00273     0.03301    -0.01037
        18   0.28137    -0.07300     0.14728    -0.01072    -0.09146     0.06592
        19  -0.38356     0.05338    -0.04750     0.09038     0.06802    -0.11763
        20  -0.05468    -0.21945    -0.19146    -0.15258    -0.17825    -0.08299
        21  -0.13051     0.07961     0.07856     0.03366    -0.05051    -0.03987
        22   0.02239    -0.03571     0.03974     0.00478    -0.00224     0.03121
        23   0.04263     0.10450    -0.01171     0.01714     0.00891    -0.00918
        24   0.11071    -0.00041     0.09027    -0.08713    -0.02441     0.00053
        25   0.03845    -0.10340     0.03766     0.03249    -0.00604    -0.09202
        26   0.02013     0.19296    -0.00998    -0.01780     0.01367     0.14866
        27   0.21424     0.04402     0.43142    -0.40458    -0.25104    -0.26021
        28  -0.00044     0.08723     0.06221    -0.06945    -0.01641     0.23583
        29   0.03017     0.13465     0.02957    -0.01479    -0.01048    -0.01917
        30   0.15787    -0.06451    -0.25107     0.09383     0.12557     0.32587
        31   0.01011    -0.07416     0.01912     0.05370     0.01838    -0.03194
        32   0.06947    -0.02768    -0.06983     0.10443     0.02033    -0.20319
        33  -0.06310     0.02492     0.07695     0.07609     0.11890    -0.02015
        34  -0.19508    -0.03768     0.03580    -0.00545     0.34947    -0.06063
        35   0.08906    -0.12626    -0.14235    -0.41069     0.43217    -0.27999
        36  -0.10644     0.01992     0.07199    -0.01178     0.24984    -0.03666
        37   0.07633    -0.03064     0.03650     0.01348    -0.08387     0.07254
        38   0.07214    -0.06508    -0.07446     0.37133    -0.14949    -0.30390
        39  -0.14345     0.01000     0.06097    -0.13567     0.40138    -0.05227
        40   0.05376    -0.16640    -0.01515     0.15265    -0.05304    -0.17669
        41   0.06885    -0.02965    -0.06670     0.19710    -0.04567    -0.22086
        42  -0.08964     0.06815     0.11268     0.42789    -0.13049    -0.00852
        43  -0.05678     0.20192    -0.20713    -0.23998    -0.29520    -0.16231
        44   0.16756    -0.05615     0.30471     0.15991     0.22895     0.05972
        45   0.10514    -0.10148    -0.18759     0.00235     0.02438     0.03201
        46  -0.10783     0.22015    -0.03381    -0.13317    -0.11530     0.07129
        47  -0.03507    -0.05573     0.13753     0.02413     0.03717     0.09752
        48  -0.01116    -0.10559    -0.34500    -0.11644    -0.14978    -0.00544
        49  -0.02665     0.13721     0.06654    -0.10529    -0.03568     0.26186
        50   0.05683     0.04785     0.01203     0.03185     0.01166    -0.06864
        51   0.10635    -0.07575    -0.34872     0.08439     0.08965     0.26103




    ROOT NO.    7           8           9          10          11          12

             0.01490     0.02191     0.05262     0.19126     0.24951     0.29716
  
         1   0.14598    -0.13289     0.04616    -0.03936    -0.03143     0.00963
         2  -0.05437    -0.08348     0.22878     0.05870     0.10299     0.04096
         3   0.08492    -0.01725    -0.05455     0.05467     0.05887     0.01684
         4   0.14547    -0.13432     0.04861    -0.04249    -0.03456     0.00568
         5  -0.17141     0.04563     0.10652     0.20926     0.65802     0.11285
         6   0.04899     0.09034    -0.03181     0.13153     0.20218     0.12815
         7  -0.05042     0.04088     0.27980    -0.00683     0.23390     0.01061
         8  -0.01758    -0.26382    -0.02648    -0.17607    -0.23776    -0.15141
         9  -0.07065     0.34071     0.13532    -0.07775    -0.16681    -0.02915
        10   0.18578    -0.21520     0.00498    -0.09328    -0.12887    -0.09203
        11  -0.20666    -0.25749     0.40284    -0.07811    -0.20833     0.01988
        12   0.09151    -0.07056    -0.05842     0.02248    -0.00077    -0.02604
        13   0.09627    -0.02985     0.06478     0.00131     0.03142     0.04128
        14   0.27247    -0.01800     0.07301     0.03235     0.07146     0.02449
        15   0.09091    -0.08891    -0.06200     0.02216     0.01701    -0.00679
        16   0.08679    -0.02418     0.06753     0.00878     0.03185     0.04492
        17   0.44182    -0.16956     0.14003    -0.04309     0.16468     0.03101
        18   0.11928    -0.17599    -0.09069     0.03280     0.03984     0.01637
        19   0.06290     0.03926     0.10543    -0.00722     0.01299     0.01473
        20   0.49564     0.21543    -0.17861     0.12183    -0.03072     0.00819
        21   0.07726    -0.04617    -0.04223     0.02622     0.01218    -0.01489
        22  -0.03086     0.03495    -0.08687    -0.02727    -0.03975     0.10107
        23  -0.11636     0.07209    -0.19481    -0.10575    -0.02193     0.14943
        24  -0.03417    -0.05633    -0.06065     0.08442    -0.04980    -0.03638
        25  -0.03276    -0.01716    -0.03731    -0.03424    -0.04907     0.18600
        26  -0.11437     0.13530    -0.25087    -0.08838    -0.00492     0.01953
        27  -0.02390    -0.01906     0.02367    -0.16455    -0.01045     0.11478
        28  -0.02683     0.13216    -0.19829    -0.03172     0.00045    -0.14374
        29  -0.11784     0.08599    -0.17275    -0.11533    -0.00136     0.07664
        30  -0.03046    -0.12207    -0.24183     0.32419    -0.12441     0.06421
        31  -0.03611     0.00402    -0.05483    -0.01677    -0.02393     0.05974
        32  -0.12469    -0.04901    -0.09828    -0.04429     0.00725     0.00931
        33  -0.05083    -0.01974     0.00645     0.06694     0.00047    -0.09154
        34  -0.04542     0.05624    -0.00396    -0.16142     0.05740     0.41263
        35  -0.10080    -0.15613    -0.09043     0.06335     0.02393    -0.27676
        36  -0.04859    -0.02282     0.02086     0.04537     0.02140    -0.03759
        37  -0.02835     0.04258    -0.12317    -0.01796    -0.08880     0.21136
        38  -0.14397    -0.08253    -0.04140    -0.03809     0.06050    -0.20984
        39  -0.04301    -0.03465     0.03417     0.06063     0.03462    -0.08281
        40  -0.04469    -0.08764     0.01261     0.05733     0.02277    -0.31758
        41  -0.13075    -0.04941    -0.08726    -0.04708     0.02208    -0.05585
        42  -0.06977     0.02985     0.02650     0.01726     0.01591    -0.06878
        43  -0.26056     0.00766     0.13371     0.56342    -0.23333     0.10141
        44   0.14284     0.48642     0.21742     0.25820    -0.25579    -0.10632
        45   0.00554     0.31830     0.24472    -0.33259     0.03576    -0.10455
        46  -0.12661     0.09047     0.00234     0.01766     0.15825    -0.32981
        47   0.04795     0.04558     0.12940     0.07033    -0.25550    -0.00565
        48  -0.09632     0.01567     0.21397    -0.31153    -0.06837     0.07563
        49  -0.04058     0.19302    -0.26153    -0.16994     0.08071    -0.31592
        50  -0.10193     0.04298    -0.15711    -0.07783    -0.09461     0.31354
        51  -0.05069    -0.12133    -0.06349    -0.00224    -0.01761     0.08252




    ROOT NO.   13          14          15          16          17          18

             0.33352     0.38464     0.52136     0.63416     0.73688     0.85717
  
         1   0.04697    -0.00722     0.11862    -0.02011    -0.03483    -0.01922
         2   0.10114    -0.00549    -0.01678     0.00741     0.00779     0.01187
         3   0.00638    -0.00194    -0.07417    -0.00106     0.02430     0.01090
         4   0.04185    -0.00648     0.08663    -0.02308    -0.03142    -0.01887
         5  -0.18311    -0.04320    -0.12351    -0.08756     0.00109    -0.01807
         6   0.17724    -0.03787     0.44329    -0.01749    -0.05643    -0.02516
         7  -0.09015    -0.02260     0.18461     0.02827    -0.08225    -0.00841
         8  -0.34877     0.04412     0.32759     0.16937    -0.12091    -0.01195
         9   0.01402    -0.00733    -0.11750    -0.06905    -0.04352    -0.01592
        10  -0.14560     0.02667    -0.33388     0.00559     0.03923     0.01608
        11   0.60712    -0.01509    -0.15621    -0.02439     0.02314    -0.00051
        12  -0.03504     0.01136    -0.27972     0.00745     0.05985     0.02711
        13   0.07206    -0.01414     0.13330    -0.01866    -0.02054    -0.00973
        14   0.06926    -0.00469    -0.00679    -0.00004    -0.00311     0.00257
        15  -0.01415     0.00230    -0.07812     0.00049     0.01152     0.00386
        16   0.09013    -0.01353     0.12448    -0.01601    -0.01404    -0.00533
        17  -0.26066    -0.02675    -0.15341    -0.12649    -0.01890    -0.03608
        18   0.09430    -0.00536     0.29586     0.03874    -0.05497    -0.01540
        19  -0.03381    -0.00425    -0.24150    -0.04509     0.04340     0.01142
        20   0.39046     0.02122     0.05597     0.10150     0.03806     0.03245
        21  -0.05316     0.00638    -0.24570    -0.01277     0.04186     0.01347
        22  -0.01848    -0.12803    -0.01410     0.01506    -0.00264     0.04631
        23   0.00520    -0.07828    -0.03615     0.02293     0.01360     0.04548
        24  -0.01415    -0.07426    -0.03580     0.02572    -0.08686    -0.01565
        25  -0.03639    -0.16221    -0.03530     0.13778     0.05198    -0.12568
        26   0.02852    -0.01750    -0.00643    -0.11911    -0.06254     0.26899
        27  -0.03380     0.31020    -0.00923    -0.00148     0.07100     0.03813
        28   0.03874     0.05435     0.00532    -0.22053    -0.08761    -0.04070
        29   0.00779    -0.07198    -0.01593     0.03142     0.04375     0.07722
        30  -0.00656     0.24710    -0.13479     0.04644    -0.49946    -0.06335
        31  -0.01204    -0.11080    -0.01175     0.02149     0.00572     0.01359
        32   0.00387     0.02427    -0.03469     0.08923     0.01700    -0.08850
        33   0.01132    -0.22706     0.01264    -0.00362     0.01609    -0.01170
        34   0.02879     0.53856    -0.01012     0.01933    -0.07450    -0.06443
        35   0.01879    -0.14308    -0.01160     0.01531     0.04455    -0.30028
        36   0.02084    -0.06898     0.01560    -0.00816    -0.00391    -0.06316
        37  -0.04034    -0.40300    -0.05710     0.19181     0.04848    -0.18698
        38   0.02682     0.29520    -0.00070    -0.06158    -0.03484    -0.13952
        39   0.02811    -0.11376     0.03491    -0.06960     0.00791     0.27996
        40   0.00703    -0.01323     0.04618    -0.23584    -0.04934     0.59120
        41   0.01227     0.06919    -0.02498     0.04738     0.01903    -0.07971
        42   0.01524    -0.11757     0.02028     0.01661     0.05306    -0.27630
        43  -0.07883     0.06534     0.00024    -0.14734     0.09550    -0.04721
        44  -0.16119     0.10002    -0.00592     0.07914     0.09931    -0.00620
        45  -0.02310    -0.02576    -0.06086     0.14131    -0.14619     0.02225
        46   0.02495     0.11562    -0.02466     0.68161    -0.06785     0.13770
        47  -0.26906     0.02984     0.24076    -0.11374     0.01037    -0.04670
        48  -0.11131    -0.08471     0.09834    -0.21347    -0.14030    -0.05677
        49   0.10512     0.08495     0.02904    -0.37426     0.18071    -0.28972
        50  -0.04845    -0.17781    -0.03119    -0.03078    -0.07738     0.28893
        51  -0.07616     0.18728     0.11496     0.11995     0.74606     0.14773




    ROOT NO.   19          20          21          22          23          24

             1.04095     1.27498     1.32553     1.43035     1.45873     1.90424
  
         1   0.00784    -0.09626    -0.00971    -0.04202    -0.04519    -0.13912
         2  -0.04947     0.12315     0.02873     0.60863     0.36580    -0.21000
         3  -0.00501    -0.13434     0.00840     0.05024     0.04026     0.10240
         4   0.00759    -0.13733    -0.01052    -0.03938    -0.04790    -0.19501
         5   0.02262    -0.05334    -0.01327    -0.23534    -0.14480     0.05488
         6   0.00344     0.58992    -0.01465    -0.10107    -0.07103    -0.12046
         7   0.00938    -0.00643     0.00721     0.04775     0.06992     0.40806
         8   0.02420    -0.01483    -0.01596    -0.11682    -0.08039    -0.03583
         9   0.00343    -0.00212     0.00228     0.04975     0.04484     0.26595
        10  -0.00919     0.60852     0.00003    -0.04161    -0.01171     0.02520
        11   0.02372    -0.00907    -0.01128    -0.26024    -0.14991     0.08631
        12  -0.00848     0.15924     0.01207    -0.00206     0.02951     0.27939
        13   0.00347    -0.09384    -0.00172    -0.00418    -0.00320     0.04399
        14  -0.01734     0.03923     0.01334     0.29254     0.18223    -0.14273
        15  -0.00006    -0.14097     0.00238     0.02449     0.01303    -0.02622
        16  -0.00158    -0.09789     0.00289     0.04267     0.02949     0.08074
        17   0.01558    -0.03723    -0.01929    -0.18317    -0.13934    -0.10452
        18   0.00850    -0.27741    -0.00291     0.03185     0.00482    -0.08117
        19  -0.00657    -0.18115     0.00731     0.06542     0.04640     0.01369
        20   0.00312    -0.03650     0.00655    -0.12142    -0.04708     0.22193
        21  -0.00622    -0.19673     0.00679     0.06488     0.03793    -0.05958
        22   0.09702     0.00205     0.07165    -0.06106     0.15172    -0.00606
        23   0.07956     0.00110    -0.07900     0.02420    -0.03197    -0.03456
        24   0.01293     0.00140     0.19625     0.07371    -0.16152    -0.01156
        25   0.39731     0.00320    -0.10120    -0.08133     0.18587    -0.02638
        26  -0.29982     0.00075     0.14071     0.06069    -0.07047    -0.00133
        27  -0.05525    -0.00342    -0.08065    -0.02399     0.03661    -0.01577
        28   0.03995     0.00355     0.04120    -0.07428     0.19488    -0.00136
        29   0.03934     0.00185    -0.03351     0.04415    -0.05103    -0.02067
        30   0.03820    -0.00015    -0.13493    -0.00681     0.02220    -0.00224
        31   0.08262     0.00317     0.07266     0.00907     0.02967     0.00717
        32   0.12665     0.00511    -0.19575     0.16986    -0.23223     0.02210
        33   0.05334     0.00334     0.31410     0.07278    -0.14896     0.00239
        34  -0.23823    -0.00090     0.04172     0.02465    -0.07825     0.01137
        35  -0.28746    -0.00654     0.01568    -0.16079     0.23207    -0.02668
        36  -0.06938     0.00065     0.27693     0.02431    -0.09047     0.00062
        37  -0.28670    -0.00026     0.08349     0.19369    -0.35412     0.01873
        38   0.25127     0.00687     0.50111    -0.01279     0.03869    -0.00769
        39   0.40516     0.00883    -0.29621     0.10143    -0.04657     0.04207
        40  -0.28761    -0.00724    -0.10677    -0.00368    -0.07544    -0.02899
        41  -0.00874     0.00199    -0.43498     0.15205    -0.20526     0.02709
        42  -0.35743    -0.00829    -0.31403    -0.20915     0.34955    -0.00407
        43   0.00898    -0.00164    -0.01692    -0.05696    -0.07765    -0.21129
        44   0.01665    -0.01146    -0.01196    -0.08235    -0.07749    -0.21547
        45   0.00516    -0.00081    -0.01246    -0.09987    -0.07294    -0.36195
        46   0.01167    -0.00321     0.01848    -0.03481     0.06876     0.06000
        47  -0.01277    -0.00169     0.00581     0.10543     0.05316     0.45165
        48  -0.00475     0.00945    -0.00953     0.00974    -0.02085     0.00843
        49   0.16404     0.00564    -0.09980     0.05605    -0.08324    -0.06075
        50   0.07289    -0.00938     0.10309    -0.28461     0.35802    -0.06450
        51  -0.02358    -0.00858     0.04616    -0.06022     0.03359    -0.01821




    ROOT NO.   25          26          27          28          29          30

             2.22190     2.46151     2.74141     3.25232     3.57415     3.86124
  
         1   0.02816     0.19456     0.00682    -0.14042    -0.00076     0.01118
         2  -0.03870    -0.00752     0.00995    -0.04389     0.01055    -0.45704
         3  -0.01733    -0.14448    -0.00944    -0.20755    -0.00066    -0.01227
         4   0.04454     0.34326     0.01273    -0.48010    -0.00117     0.00934
         5   0.01823     0.03298    -0.00496    -0.00069    -0.00099     0.05940
         6   0.02492     0.18543     0.00894     0.04571     0.00033     0.01018
         7  -0.07049    -0.11071     0.01148     0.01829    -0.00813     0.03668
         8  -0.03073    -0.16171     0.00420    -0.01076    -0.00747     0.03014
         9  -0.01298     0.45371     0.02932     0.01804    -0.01216     0.08948
        10  -0.00334     0.01275     0.00468     0.24441     0.00099     0.00028
        11   0.01531     0.02643    -0.00307     0.03201    -0.00107     0.06486
        12  -0.04461    -0.41304    -0.02653    -0.33023    -0.00409     0.04112
        13  -0.01491    -0.18154    -0.01186    -0.05106    -0.00136    -0.03996
        14  -0.04652    -0.04119     0.03426    -0.04225    -0.02683     0.79605
        15   0.00551     0.08453     0.00509    -0.15149     0.00177    -0.04276
        16  -0.02387    -0.24398    -0.01463    -0.03740    -0.00204    -0.00651
        17   0.04295     0.14128    -0.01007     0.02494     0.00650    -0.22211
        18  -0.00804    -0.06414     0.00194     0.52596     0.00146     0.02968
        19  -0.00522     0.00594     0.00928     0.46088     0.00113     0.03726
        20  -0.00317    -0.11572    -0.01471     0.03432     0.00869    -0.24985
        21   0.01866     0.23388     0.01599     0.10908     0.00402    -0.02748
        22   0.26816    -0.00585    -0.16756     0.00197     0.16553     0.00288
        23  -0.15385     0.02454    -0.34103     0.00419    -0.15187     0.00322
        24  -0.20676     0.02368    -0.07191    -0.00219     0.79433     0.03179
        25  -0.16039     0.03545    -0.33465     0.00086    -0.01831    -0.01735
        26   0.42029    -0.01987    -0.21166     0.00517     0.08942     0.02028
        27   0.11924     0.00585     0.02546     0.00476    -0.22476    -0.00351
        28   0.15193    -0.02243     0.30855    -0.00697     0.05736    -0.06038
        29  -0.20040     0.04275    -0.33478     0.00132    -0.07058    -0.00634
        30  -0.02421     0.01404    -0.05420     0.00366    -0.21812     0.00120
        31   0.32430    -0.02161    -0.02285     0.00332     0.03713     0.02454
        32   0.03409    -0.00283     0.14502    -0.00098     0.01888    -0.00540
        33  -0.09797    -0.00150     0.05307    -0.00137    -0.15929    -0.01155
        34  -0.10217    -0.00709    -0.01029    -0.00234     0.12747     0.01201
        35   0.03932     0.00456    -0.05658     0.00214     0.00779     0.01005
        36  -0.24198     0.01048     0.03711    -0.00545    -0.23065    -0.05543
        37   0.10750    -0.01401     0.23235     0.00290    -0.22205     0.01147
        38   0.19801    -0.01051     0.00624     0.00281    -0.09253     0.01645
        39   0.32524    -0.03864     0.08670     0.00086    -0.01982     0.02620
        40  -0.25174     0.02535    -0.11922     0.00148    -0.09760    -0.00148
        41  -0.01650    -0.00657     0.28580    -0.00505     0.18273    -0.03070
        42   0.08572    -0.00867    -0.10124     0.00094     0.05007     0.01791
        43   0.01335    -0.14727    -0.01555    -0.00585     0.00153    -0.01346
        44  -0.00794    -0.08809     0.00344    -0.00363    -0.00097     0.01756
        45   0.03313    -0.25673    -0.01535    -0.01242     0.00520    -0.04876
        46  -0.04372     0.16183     0.06518    -0.01102    -0.00074    -0.01533
        47   0.00396     0.18848    -0.03269     0.00572     0.00226    -0.03686
        48   0.01717    -0.10836    -0.02813     0.00107     0.00210    -0.04989
        49  -0.26211    -0.02465     0.04553     0.00106    -0.03897     0.00882
        50  -0.27435    -0.00701     0.52062    -0.00537     0.02549    -0.00971
        51   0.02428     0.02394     0.04317     0.00061     0.01026     0.00409




    ROOT NO.   31          32          33          34          35          36

             4.41442     5.53384     6.01228     6.36997     6.96171     7.55571
  
         1   0.00089    -0.00739    -0.16001     0.09662    -0.05011    -0.03249
         2  -0.06372    -0.08563    -0.01009    -0.06693     0.04557     0.01974
         3  -0.00301     0.13330    -0.19714     0.05969    -0.01211    -0.00165
         4   0.00315    -0.06062     0.44472    -0.19589     0.07262     0.03676
         5   0.00979    -0.00435     0.00025     0.01483    -0.00891    -0.00361
         6   0.00359     0.01111     0.06140    -0.02629     0.00784     0.00361
         7  -0.03403     0.25217     0.01744    -0.27164     0.22546     0.15593
         8  -0.03824     0.03735    -0.08786    -0.22271     0.23163     0.17520
         9  -0.04770    -0.39421    -0.25598    -0.04828     0.14081     0.11898
        10   0.00165     0.12861    -0.10988     0.02235     0.00078     0.00352
        11   0.01032     0.02594    -0.01941     0.01700    -0.00870    -0.00351
        12  -0.00010    -0.37334     0.31987    -0.06692     0.00453    -0.00413
        13  -0.01187    -0.19127    -0.25974     0.15111    -0.06245    -0.03434
        14   0.06875     0.05254    -0.01127     0.05068    -0.03128    -0.01528
        15  -0.00700     0.28704    -0.21704     0.01735     0.01619     0.01385
        16  -0.00537    -0.06774    -0.34266     0.17625    -0.06811    -0.03134
        17  -0.02087    -0.26194    -0.10480     0.10344    -0.05383    -0.03264
        18   0.00299    -0.30632     0.13588     0.01073    -0.02243    -0.01626
        19   0.01145    -0.02533     0.34205    -0.14949     0.05374     0.02769
        20  -0.01658     0.21717     0.09775    -0.11412     0.06211     0.03563
        21   0.00567     0.42639    -0.04133    -0.06739     0.04435     0.02735
        22   0.25075    -0.03645    -0.06856    -0.13638     0.07494    -0.16693
        23  -0.02248     0.00169     0.01875     0.07270     0.04028     0.09242
        24  -0.11881    -0.00509     0.00833     0.01295    -0.09288     0.10931
        25   0.19121    -0.00668     0.00831     0.06115     0.08805     0.01474
        26   0.14507    -0.03471    -0.06625    -0.13190     0.06028    -0.13240
        27   0.01548    -0.02549    -0.01425    -0.00543     0.02503    -0.04818
        28   0.31194     0.03237     0.14370     0.44649     0.10220     0.42777
        29  -0.09536     0.02417     0.08208     0.19799    -0.08874     0.20996
        30  -0.05705    -0.01637    -0.01894    -0.04681    -0.00772    -0.08391
        31  -0.07495    -0.02394    -0.07300    -0.23638    -0.15548    -0.18378
        32   0.02849    -0.00415     0.00685     0.01674    -0.06011     0.07587
        33  -0.00630     0.02302     0.06650     0.27725     0.57942    -0.39521
        34  -0.12919     0.02858     0.03232     0.07577     0.09263    -0.02096
        35  -0.07253    -0.00604     0.00676     0.03768     0.04807    -0.02342
        36   0.54150    -0.02382    -0.08868    -0.29670    -0.36927     0.16393
        37  -0.24649     0.00496     0.02694     0.05226    -0.11061     0.18382
        38  -0.18768     0.00194     0.01201     0.01507    -0.09242     0.12467
        39  -0.26642     0.02814     0.02396     0.01355    -0.10418     0.15128
        40  -0.04600    -0.00018     0.01172     0.03342    -0.01173     0.04634
        41   0.39121    -0.02793    -0.03422    -0.03124     0.14869    -0.18334
        42  -0.14444     0.01585     0.01046    -0.00022    -0.04540     0.05377
        43   0.01182     0.05820     0.04542     0.02896    -0.04985    -0.05083
        44  -0.02551    -0.07110    -0.09335    -0.11032     0.14864     0.14344
        45   0.04306     0.15217     0.15198     0.14081    -0.20374    -0.19837
        46  -0.02120    -0.07534     0.00782     0.08603    -0.12074    -0.11924
        47   0.04375     0.14747     0.23356     0.26838    -0.37059    -0.33890
        48   0.01423     0.08146     0.05221    -0.01160     0.02977     0.06954
        49  -0.21378    -0.00997    -0.06660    -0.24061    -0.08135    -0.25666
        50  -0.15441    -0.01246    -0.03077    -0.11729    -0.07068    -0.14383
        51   0.02432    -0.01381     0.00278     0.03732     0.00978     0.03608




    ROOT NO.   37          38          39          40          41          42

             8.53398     8.80943     9.15265    10.40187    13.47336    14.42757
  
         1  -0.00040    -0.00152    -0.00556     0.68652     0.00296    -0.33455
         2  -0.05172     0.00068     0.00157     0.03106     0.00383    -0.02385
         3   0.01015     0.00003     0.00133    -0.44371     0.00625    -0.52066
         4  -0.00216     0.00110     0.00389    -0.35449    -0.00127     0.12715
         5   0.00618    -0.00001     0.00014    -0.00026    -0.00097    -0.00093
         6   0.00019    -0.00004     0.00006     0.02940    -0.00048     0.01733
         7  -0.17621     0.01009     0.02747     0.05121    -0.01193    -0.01720
         8  -0.22309     0.01184     0.03555     0.02238    -0.01786     0.00683
         9  -0.26597     0.01188     0.03295    -0.03755    -0.01572     0.01529
        10   0.00118     0.00037     0.00144    -0.18654     0.00054    -0.03598
        11   0.00516    -0.00003    -0.00002    -0.02959    -0.00057    -0.00769
        12  -0.00521    -0.00035    -0.00169     0.31376    -0.00177     0.11672
        13  -0.01219    -0.00057    -0.00250    -0.09212     0.00347    -0.04929
        14   0.02443    -0.00055    -0.00184    -0.00288    -0.00078     0.00318
        15  -0.00806     0.00046     0.00152     0.05617     0.00173    -0.10998
        16   0.02211    -0.00099    -0.00202    -0.11775    -0.00575     0.53766
        17  -0.00246    -0.00076    -0.00272    -0.04541     0.00096     0.03910
        18   0.00014    -0.00024    -0.00124    -0.09107     0.00065     0.01498
        19  -0.00283     0.00060     0.00230     0.02898     0.00152    -0.23218
        20  -0.00635     0.00112     0.00344     0.03946    -0.00157    -0.01438
        21   0.01084     0.00039     0.00148     0.16324    -0.00747     0.47384
        22  -0.00197    -0.02116    -0.31591    -0.00322    -0.33314    -0.00382
        23  -0.01545    -0.03732     0.05308     0.00197     0.64513     0.00746
        24  -0.00792    -0.01260     0.00811    -0.00119     0.09961     0.00127
        25  -0.01272    -0.06098    -0.18342    -0.00118     0.08700     0.00122
        26  -0.00130     0.00027    -0.18743    -0.00159     0.06643     0.00097
        27   0.00233     0.00915     0.00430    -0.00321    -0.00195     0.00038
        28  -0.03433     0.08232     0.13012     0.00199     0.08607    -0.00030
        29   0.00540    -0.06907     0.34014    -0.00099    -0.64044    -0.00844
        30   0.01664    -0.01677     0.01228    -0.00295    -0.07316    -0.00057
        31   0.05532     0.20766     0.73176     0.00158     0.12494     0.00142
        32   0.00202     0.77846    -0.21858    -0.00128    -0.06747    -0.00091
        33   0.02029     0.11480     0.08627     0.00178    -0.03387    -0.00043
        34  -0.00266    -0.01025    -0.02335     0.00268    -0.00061    -0.00025
        35  -0.00183    -0.02787     0.00425    -0.00133     0.00343     0.00011
        36  -0.00144     0.01047     0.01443     0.00167     0.00380    -0.00008
        37  -0.02349    -0.22337    -0.16284    -0.00208     0.00170     0.00014
        38  -0.01612    -0.21387    -0.10251    -0.00128     0.00975     0.00023
        39  -0.01651    -0.18462    -0.11127     0.00213     0.00753    -0.00018
        40  -0.00499     0.04133    -0.05355    -0.00094     0.02329     0.00035
        41   0.00877    -0.42519     0.17140    -0.00095    -0.01280     0.00007
        42  -0.00353     0.07566    -0.03572     0.00176     0.00326    -0.00007
        43  -0.11365     0.00050    -0.00097     0.00010     0.00177     0.00123
        44   0.28173    -0.00150     0.00406     0.00627    -0.00745    -0.00168
        45  -0.42617     0.00193    -0.00368    -0.00545     0.00860     0.00581
        46   0.28713    -0.01164    -0.04658    -0.01246     0.04569     0.00280
        47  -0.02817    -0.01570    -0.05133    -0.01337     0.03981    -0.00140
        48   0.69234    -0.01275    -0.02462     0.01631    -0.00225    -0.01371
        49   0.02186    -0.01348    -0.10028    -0.00229    -0.02628     0.00160
        50   0.01278    -0.00051    -0.04921    -0.00221    -0.01940     0.00134
        51  -0.01812     0.00259     0.01549    -0.00110     0.00524     0.00006




    ROOT NO.   43          44          45

            19.10016    22.23556    25.32417
  
         1  -0.03925    -0.27855     0.00135
         2   0.00102    -0.01102     0.00141
         3   0.02752    -0.44129     0.00238
         4  -0.00870     0.01186     0.00009
         5  -0.00141    -0.00269    -0.00026
         6  -0.02078    -0.00549     0.00004
         7   0.02848    -0.00208    -0.00191
         8   0.00464    -0.02823    -0.00229
         9  -0.02529    -0.01052    -0.00258
        10   0.01669    -0.00843    -0.00001
        11   0.00209    -0.00368    -0.00007
        12   0.01381     0.00632    -0.00002
        13   0.65387     0.41598    -0.00237
        14   0.02596     0.03891    -0.00035
        15  -0.40530     0.67582    -0.00369
        16  -0.45094    -0.21556     0.00142
        17  -0.03832    -0.01216     0.00020
        18  -0.00380    -0.02814     0.00024
        19  -0.19028     0.07222    -0.00063
        20   0.01070     0.00428    -0.00014
        21   0.40165    -0.20429     0.00122
        22  -0.00037     0.00366     0.58938
        23  -0.00051     0.00030     0.43305
        24  -0.00018    -0.00035    -0.00522
        25  -0.00050    -0.00303    -0.53508
        26  -0.00069    -0.00254    -0.41852
        27  -0.00082    -0.00012     0.00032
        28   0.00012     0.00253     0.01006
        29   0.00017     0.00369     0.00961
        30  -0.00030    -0.00005     0.00156
        31   0.00013    -0.00046    -0.03458
        32  -0.00052     0.00039     0.00013
        33  -0.00027     0.00034     0.00717
        34   0.00062     0.00024    -0.00227
        35  -0.00066    -0.00015     0.00122
        36   0.00062     0.00004     0.00411
        37  -0.00043     0.00012    -0.01699
        38  -0.00041     0.00005     0.00157
        39   0.00064     0.00028    -0.00481
        40  -0.00034     0.00001     0.00312
        41  -0.00058    -0.00013     0.00516
        42   0.00043     0.00016    -0.00197
        43   0.00018    -0.00086     0.00009
        44   0.00118    -0.00195    -0.00084
        45  -0.00163    -0.00515     0.00122
        46  -0.00887     0.00777     0.00661
        47  -0.00188     0.01870     0.00637
        48   0.01407     0.01154     0.00047
        49  -0.00043    -0.00542    -0.01826
        50  -0.00079    -0.00378    -0.03624
        51  -0.00037     0.00092    -0.00044

          ZERO POINT ENERGY      64.644 KCAL/MOL

         NOTE: SYSTEM IS NOT A GROUND STATE, THEREFORE ZERO POINT
         ENERGY IS NOT MEANINGFULL. ZERO POINT ENERGY PRINTED
         DOES NOT INCLUDE THE  4 IMAGINARY FREQUENCIES


           FREQUENCIES, REDUCED MASSES AND VIBRATIONAL DIPOLES



   I         1         2         3         4         5         6
 FREQ(I) -507.9196 -156.5688 -102.7500  -51.2609   33.7180   53.8325

 MASS(I)   1.17760   6.33189   5.39914   4.16303   2.18542   6.53355

 DIPX(I)   0.44589   0.24916   0.21063  -0.00744  -0.00721  -0.14786
 DIPY(I)  -0.77765  -0.41221  -0.07985  -0.49404   0.32242   0.54586
 DIPZ(I)  -0.02699  -0.14638  -0.19056  -0.08995  -0.23483   0.19795

 DIPT(I)   0.89682   0.50341   0.29505   0.50221   0.39894   0.59917


   I         7         8         9        10        11        12
 FREQ(I)   72.8577   96.5756  178.6835  194.2149  257.5155  337.4457

 MASS(I)   5.52080   1.71199   4.17835   2.55161   3.67956   4.17496

 DIPX(I)  -0.18026   0.85847   0.04493  -0.10378  -1.35126  -0.37131
 DIPY(I)   0.07646   0.85461   0.27810  -0.17854  -0.94320  -0.11190
 DIPZ(I)   0.67438  -0.30972   0.08132  -0.83593  -0.22560   0.34020

 DIPT(I)   0.70223   1.25030   0.29320   0.86106   1.66325   0.51588


   I        13        14        15        16        17        18
 FREQ(I)  405.1102  481.3787  517.1112  545.6659  598.2350  635.6761

 MASS(I)   2.20847   0.72747   0.58354   1.56909   0.44734   4.94469

 DIPX(I)  -0.31814   0.89272   0.54846   0.72093   0.32698   0.28417
 DIPY(I)   0.01674  -0.44299  -0.90569   0.58849   0.08111   0.70215
 DIPZ(I)  -0.04413  -0.65795  -0.28731  -0.97578  -0.16426   1.78478

 DIPT(I)   0.32163   1.19419   1.09710   1.34841   0.37481   1.93887


   I        19        20        21        22        23        24
 FREQ(I)  653.1979  661.5423  781.3776  880.5397  913.1401  921.8737

 MASS(I)   5.72648   3.83393   5.45266   0.39320   1.60584   0.47738

 DIPX(I)  -0.27862  -0.31995  -0.64165  -0.27892  -0.00381   0.28966
 DIPY(I)   1.57443  -0.58650   0.14551  -1.84936  -0.12426   1.37660
 DIPZ(I)  -0.52487  -0.91616   0.75849   0.38378  -0.07334   0.76028

 DIPT(I)   1.68284   1.13389   1.00409   1.90925   0.14433   1.59905


   I        25        26        27        28        29        30
 FREQ(I)  992.9743 1051.4322 1060.1350 1109.4360 1217.2553 1219.0837

 MASS(I)   3.26495   0.49751   0.42763   0.57982   2.93642   0.43888

 DIPX(I)   0.01392   0.52018   0.00356   0.71052  -0.77835   0.22569
 DIPY(I)  -0.57910   0.27823   0.16866   0.76057   0.37934  -0.36948
 DIPZ(I)  -0.36473   0.75670  -0.15642   0.99679  -1.34786   0.23208

 DIPT(I)   0.68453   0.95948   0.23006   1.44114   1.60201   0.49124


   I        31        32        33        34        35        36
 FREQ(I) 1266.8498 1311.9456 1351.9522 1366.1860 1487.4038 1588.3983

 MASS(I)   0.75797   4.33696   0.76357   0.53431   5.35429   1.24316

 DIPX(I)   0.78844   0.95769  -0.68557   0.02642   4.39924   3.28496
 DIPY(I)  -0.92563   4.24791   1.03139  -0.06276  -0.44410   1.24853
 DIPZ(I)  -0.12447   0.72591   0.41207   0.01224  -3.85744   0.08993

 DIPT(I)   1.22226   4.41462   1.30521   0.06919   5.86774   3.51537


   I        37        38        39        40        41        42
 FREQ(I) 1670.7402 1755.5860 1909.8103 2175.2865 2587.9870 2681.5777

[...]
 TRANSITION DIPOLE   0.8611         C  8 -- C 11          +7.5% (133.8%)      0.4%
 TRAVEL (Ang.)       0.3689         H 15 -- O 16          +7.0% (129.4%)     25.8%
 REDUCED MASS        2.5516         O  9 -- O 10          +7.0% (129.3%)      2.9%
 EFFECTIVE MASS     46.4034
 FORCE CONSTANT      0.0567

 VIBRATION         11   11A           ATOM PAIR      ENERGY CONTRIBUTION    RADIAL
 FREQUENCY           257.52         C  8 -- C 11         +11.8% (117.8%)      0.0%
 TRANSITION DIPOLE   1.6633         C  8 -- O 10         +11.6% (116.8%)      4.8%
 TRAVEL (Ang.)       0.2668         O  9 -- O 10          +9.5% (105.7%)      8.1%
 REDUCED MASS        3.6796         C  8 -- Cl12          +8.7% (101.4%)     59.5%
 EFFECTIVE MASS     24.6667
 FORCE CONSTANT      0.1438

 VIBRATION         12   12A           ATOM PAIR      ENERGY CONTRIBUTION    RADIAL
 FREQUENCY           337.45         O 16 -- H 17         +21.6% (126.6%)     65.7%
 TRANSITION DIPOLE   0.5159         H 15 -- O 16         +18.4% (117.0%)      6.1%
 TRAVEL (Ang.)       0.2188         C  8 -- C 11          +7.2% ( 73.0%)      0.0%
 REDUCED MASS        4.1750         H  3 -- O 16          +7.0% ( 72.3%)     54.7%
 EFFECTIVE MASS     25.0598
 FORCE CONSTANT      0.2801

 VIBRATION         13   13A           ATOM PAIR      ENERGY CONTRIBUTION    RADIAL
 FREQUENCY           405.11         C  8 -- C 11         +17.5% (125.0%)      0.0%
 TRANSITION DIPOLE   0.3216         O  9 -- O 10         +15.9% (119.2%)      0.9%
 TRAVEL (Ang.)       0.2745         C  8 -- O 10         +13.1% (108.3%)      1.7%
 REDUCED MASS        2.2085         C  8 -- Cl12         +10.7% ( 98.0%)      1.2%
 EFFECTIVE MASS     18.4251
 FORCE CONSTANT      0.2135

 VIBRATION         14   14A           ATOM PAIR      ENERGY CONTRIBUTION    RADIAL
 FREQUENCY           481.38         C  1 -- N  5         +21.4% (101.4%)      0.0%
 TRANSITION DIPOLE   1.1942         C  1 -- H  2         +14.6% ( 83.8%)     43.6%
 TRAVEL (Ang.)       0.4388         C  1 -- H  4         +13.4% ( 80.4%)     56.2%
 REDUCED MASS        0.7275         O  6 -- O  7         +11.1% ( 73.1%)      0.3%
 EFFECTIVE MASS     12.9885
 FORCE CONSTANT      0.0993

 VIBRATION         15   15A           ATOM PAIR      ENERGY CONTRIBUTION    RADIAL
 FREQUENCY           517.11         H 15 -- O 16         +11.2% ( 69.1%)      1.9%
 TRANSITION DIPOLE   1.0971         C  1 -- N  5          +8.5% ( 60.0%)      0.3%
 TRAVEL (Ang.)       0.4727         O  6 -- O  7          +7.3% ( 55.9%)      0.2%
 REDUCED MASS        0.5835         O  9 -- O 10          +6.3% ( 51.6%)     89.3%
 EFFECTIVE MASS     11.2110
 FORCE CONSTANT      0.0919

 VIBRATION         16   16A           ATOM PAIR      ENERGY CONTRIBUTION    RADIAL
 FREQUENCY           545.67         C  8 -- O 10         +16.2% ( 82.6%)      0.4%
 TRANSITION DIPOLE   1.3484         O  9 -- O 10         +13.7% ( 75.9%)     97.4%
 TRAVEL (Ang.)       0.2806         C  8 -- O  9         +10.0% ( 65.1%)      0.1%
 REDUCED MASS        1.5691         C  8 -- C 11         +10.0% ( 65.0%)      7.2%
 EFFECTIVE MASS     14.6055
 FORCE CONSTANT      0.2753

 VIBRATION         17   17A           ATOM PAIR      ENERGY CONTRIBUTION    RADIAL
 FREQUENCY           598.24         C  1 -- H  2         +48.1% ( 86.6%)      0.9%
 TRANSITION DIPOLE   0.3748         C  1 -- H  4         +38.6% ( 77.6%)      2.1%
 TRAVEL (Ang.)       0.5020         C  1 -- N  5          +4.5% ( 26.5%)      0.0%
 REDUCED MASS        0.4473         O  6 -- O  7          +2.5% ( 19.7%)      2.7%
 EFFECTIVE MASS      2.0572
 FORCE CONSTANT      0.0943

 VIBRATION         18   18A           ATOM PAIR      ENERGY CONTRIBUTION    RADIAL
 FREQUENCY           635.68         C  8 -- O 10         +19.9% ( 92.0%)      0.0%
 TRANSITION DIPOLE   1.9389         C  8 -- Cl12         +19.7% ( 91.5%)     79.3%
 TRAVEL (Ang.)       0.1465         C  8 -- O  9         +18.1% ( 87.6%)      0.2%
 REDUCED MASS        4.9447         C  8 -- C 11         +16.0% ( 82.3%)      1.2%
 EFFECTIVE MASS     15.5643
 FORCE CONSTANT      1.1772

 VIBRATION         19   19A           ATOM PAIR      ENERGY CONTRIBUTION    RADIAL
 FREQUENCY           653.20         N  5 -- O  6         +28.3% ( 83.4%)      0.0%
 TRANSITION DIPOLE   1.6828         C  1 -- N  5         +27.7% ( 82.6%)      0.0%
 TRAVEL (Ang.)       0.1343         N  5 -- O  7         +27.4% ( 82.0%)      0.0%
 REDUCED MASS        5.7265         O  6 -- O  7          +6.7% ( 40.7%)     99.9%
 EFFECTIVE MASS     13.7617
 FORCE CONSTANT      1.4396

 VIBRATION         20   20A           ATOM PAIR      ENERGY CONTRIBUTION    RADIAL
 FREQUENCY           661.54         N  5 -- O  6         +22.0% ( 88.0%)      0.3%
 TRANSITION DIPOLE   1.1339         N  5 -- O  7         +19.6% ( 82.9%)      0.3%
 TRAVEL (Ang.)       0.1631         O  6 -- O  7         +17.9% ( 79.2%)     99.3%
 REDUCED MASS        3.8339         C  1 -- N  5         +15.0% ( 72.5%)      0.1%
 EFFECTIVE MASS     15.3404         C  1 -- H  4         +12.7% ( 66.8%)     31.3%
 FORCE CONSTANT      0.9886         C  1 -- H  2         +12.5% ( 66.2%)     26.2%

 VIBRATION         21   21A           ATOM PAIR      ENERGY CONTRIBUTION    RADIAL
 FREQUENCY           781.38         C 11 -- Cl12         +27.7% ( 93.1%)     95.3%
 TRANSITION DIPOLE   1.0041         C  8 -- C 11         +26.8% ( 91.6%)      0.2%
 TRAVEL (Ang.)       0.1258         C 11 -- H 13         +17.2% ( 73.4%)     17.7%
 REDUCED MASS        5.4527         C 11 -- H 14         +16.7% ( 72.4%)     21.0%
 EFFECTIVE MASS     15.3749
 FORCE CONSTANT      1.9615

 VIBRATION         22   22A           ATOM PAIR      ENERGY CONTRIBUTION    RADIAL
 FREQUENCY           880.54         O 10 -- H 17         +32.7% ( 74.3%)      0.4%
 TRANSITION DIPOLE   1.9092         O 16 -- H 17         +32.3% ( 73.8%)      6.1%
 TRAVEL (Ang.)       0.4413         C  1 -- H  4         +10.8% ( 42.6%)      0.1%
 REDUCED MASS        0.3932         C  1 -- H  2          +8.3% ( 37.4%)      0.7%
 EFFECTIVE MASS      2.3461
 FORCE CONSTANT      0.1796

 VIBRATION         23   23A           ATOM PAIR      ENERGY CONTRIBUTION    RADIAL
 FREQUENCY           913.14         C 11 -- H 14         +31.4% ( 86.5%)     16.6%
 TRANSITION DIPOLE   0.1443         C 11 -- H 13         +31.3% ( 86.4%)     14.8%
 TRAVEL (Ang.)       0.2144         C  8 -- C 11         +15.1% ( 60.1%)      0.4%
 REDUCED MASS        1.6058         C 11 -- Cl12         +15.0% ( 59.7%)      0.1%
 EFFECTIVE MASS      6.0527
 FORCE CONSTANT      0.7889

 VIBRATION         24   24A           ATOM PAIR      ENERGY CONTRIBUTION    RADIAL
 FREQUENCY           921.87         O 10 -- H 17         +25.0% ( 57.2%)      0.1%
 TRANSITION DIPOLE   1.5990         O 16 -- H 17         +24.7% ( 56.9%)      1.0%
 TRAVEL (Ang.)       0.3914         C  1 -- H  4         +24.0% ( 56.1%)      0.0%
 REDUCED MASS        0.4774         C  1 -- H  2         +17.2% ( 47.4%)      0.0%
 EFFECTIVE MASS      2.4543
 FORCE CONSTANT      0.2390

 VIBRATION         25   25A           ATOM PAIR      ENERGY CONTRIBUTION    RADIAL
 FREQUENCY           992.97         C  8 -- C 11         +21.9% ( 82.0%)     96.8%
 TRANSITION DIPOLE   0.6845         O  9 -- O 10         +15.5% ( 68.9%)     99.9%
 TRAVEL (Ang.)       0.1442         C 11 -- H 14         +13.2% ( 63.5%)     12.9%
 REDUCED MASS        3.2650         C 11 -- Cl12         +12.9% ( 63.0%)     16.8%
 EFFECTIVE MASS     12.7160         C 11 -- H 13         +11.6% ( 59.5%)     21.5%
 FORCE CONSTANT      1.8967

 VIBRATION         26   26A           ATOM PAIR      ENERGY CONTRIBUTION    RADIAL
 FREQUENCY          1051.43         C  1 -- H  2         +28.6% ( 66.5%)     15.1%
 TRANSITION DIPOLE   0.9595         C  1 -- H  4         +25.3% ( 62.5%)     15.2%
 TRAVEL (Ang.)       0.3590         H 15 -- O 16         +12.3% ( 43.5%)      1.7%
 REDUCED MASS        0.4975         C  1 -- N  5          +9.7% ( 38.7%)      0.0%
 EFFECTIVE MASS      4.3808
 FORCE CONSTANT      0.3241

 VIBRATION         27   27A           ATOM PAIR      ENERGY CONTRIBUTION    RADIAL
 FREQUENCY          1060.14         C 11 -- H 13         +43.3% ( 73.4%)      2.6%
 TRANSITION DIPOLE   0.2301         C 11 -- H 14         +39.2% ( 69.9%)      0.2%
 TRAVEL (Ang.)       0.3857         C  8 -- C 11          +3.0% ( 19.2%)     88.0%
 REDUCED MASS        0.4276         C  8 -- O 10          +2.8% ( 18.5%)     83.8%
 EFFECTIVE MASS      2.0059
 FORCE CONSTANT      0.2832

 VIBRATION         28   28A           ATOM PAIR      ENERGY CONTRIBUTION    RADIAL
 FREQUENCY          1109.44         H 15 -- O 16         +27.8% ( 57.7%)      2.7%
 TRANSITION DIPOLE   1.4411         C  1 -- H  4         +20.7% ( 49.8%)     19.7%
 TRAVEL (Ang.)       0.3238         C  1 -- H  2         +16.5% ( 44.4%)     13.7%
 REDUCED MASS        0.5798         C  1 -- N  5          +8.8% ( 32.5%)      0.1%
 EFFECTIVE MASS      4.7189
 FORCE CONSTANT      0.4205

 VIBRATION         29   29A           ATOM PAIR      ENERGY CONTRIBUTION    RADIAL
 FREQUENCY          1217.26         O  6 -- O  7         +28.9% ( 69.1%)     99.6%
 TRANSITION DIPOLE   1.6020         N  5 -- O  6         +15.9% ( 51.2%)     95.5%
 TRAVEL (Ang.)       0.1373         N  5 -- O  7         +15.0% ( 49.9%)     99.3%
 REDUCED MASS        2.9364         C  1 -- H  2         +13.9% ( 48.0%)     98.6%
 EFFECTIVE MASS     11.8379         C  1 -- H  4         +13.1% ( 46.6%)     69.6%
 FORCE CONSTANT      2.5635

 VIBRATION         30   30A           ATOM PAIR      ENERGY CONTRIBUTION    RADIAL
 FREQUENCY          1219.08         C 11 -- H 14         +40.3% ( 62.4%)      0.8%
 TRANSITION DIPOLE   0.4912         C 11 -- H 13         +38.5% ( 61.0%)      0.5%
 TRAVEL (Ang.)       0.3550         C  8 -- C 11          +4.1% ( 19.8%)      2.8%
 REDUCED MASS        0.4389         C 11 -- Cl12          +3.1% ( 17.2%)     95.6%
 EFFECTIVE MASS      2.3872
 FORCE CONSTANT      0.3843

 VIBRATION         31   31A           ATOM PAIR      ENERGY CONTRIBUTION    RADIAL
 FREQUENCY          1266.85         C 11 -- H 13         +35.8% ( 69.5%)      0.9%
 TRANSITION DIPOLE   1.2223         C 11 -- H 14         +30.1% ( 63.7%)      1.7%
 TRAVEL (Ang.)       0.2650         C  8 -- C 11         +13.6% ( 42.8%)     90.4%
 REDUCED MASS        0.7580         C 11 -- Cl12          +8.3% ( 33.4%)     12.0%
 EFFECTIVE MASS      3.6565
 FORCE CONSTANT      0.7167

 VIBRATION         32   32A           ATOM PAIR      ENERGY CONTRIBUTION    RADIAL
 FREQUENCY          1311.95         C  8 -- O 10         +30.3% ( 85.6%)     98.7%
 TRANSITION DIPOLE   4.4146         C  8 -- C 11         +17.1% ( 64.3%)     57.7%
 TRAVEL (Ang.)       0.1089         C  8 -- O  9         +15.4% ( 60.9%)      0.2%
 REDUCED MASS        4.3370         C  8 -- Cl12         +15.3% ( 60.7%)     22.8%
 EFFECTIVE MASS     10.8578
 FORCE CONSTANT      4.3981

 VIBRATION         33   33A           ATOM PAIR      ENERGY CONTRIBUTION    RADIAL
 FREQUENCY          1351.95         O 10 -- H 17         +45.5% ( 92.4%)      3.5%
 TRANSITION DIPOLE   1.3052         O 16 -- H 17         +39.9% ( 86.5%)      5.4%
 TRAVEL (Ang.)       0.2556         C  8 -- O  9          +3.6% ( 26.0%)     57.3%
 REDUCED MASS        0.7636         C  8 -- O 10          +3.4% ( 25.2%)     57.6%
 EFFECTIVE MASS      2.8083
 FORCE CONSTANT      0.8223

 VIBRATION         34   34A           ATOM PAIR      ENERGY CONTRIBUTION    RADIAL
 FREQUENCY          1366.19         C  1 -- H  4         +39.5% ( 65.3%)      1.5%
 TRANSITION DIPOLE   0.0692         C  1 -- H  2         +36.8% ( 63.0%)      1.7%
 TRAVEL (Ang.)       0.3039         C  1 -- N  5          +7.9% ( 29.1%)     98.5%
 REDUCED MASS        0.5343         N  5 -- O  6          +5.7% ( 24.7%)     81.3%
 EFFECTIVE MASS      3.4511
 FORCE CONSTANT      0.5876

 VIBRATION         35   35A           ATOM PAIR      ENERGY CONTRIBUTION    RADIAL
 FREQUENCY          1487.40         N  5 -- O  7         +33.0% ( 78.6%)     85.6%
 TRANSITION DIPOLE   5.8677         N  5 -- O  6         +30.6% ( 75.7%)     77.6%
 TRAVEL (Ang.)       0.0920         C  1 -- N  5         +23.0% ( 65.6%)      0.7%
 REDUCED MASS        5.3543         H  3 -- O 16          +5.6% ( 32.5%)      6.3%
 EFFECTIVE MASS     12.0360
 FORCE CONSTANT      6.9793

 VIBRATION         36   36A           ATOM PAIR      ENERGY CONTRIBUTION    RADIAL
 FREQUENCY          1588.40         H  3 -- O 16         +56.2% ( 74.7%)      8.1%
 TRANSITION DIPOLE   3.5154         N  5 -- O  6         +16.1% ( 39.9%)     92.8%
 TRAVEL (Ang.)       0.1848         N  5 -- O  7          +7.7% ( 27.6%)     67.3%
 REDUCED MASS        1.2432         C  1 -- N  5          +7.3% ( 26.9%)     56.2%
 EFFECTIVE MASS      5.3438
 FORCE CONSTANT      1.8480

 VIBRATION         37   37A           ATOM PAIR      ENERGY CONTRIBUTION    RADIAL
 FREQUENCY          1670.74         C  1 -- N  5         +39.5% ( 92.0%)     99.9%
 TRANSITION DIPOLE   9.1199         N  5 -- O  7         +19.3% ( 64.4%)     41.7%
 TRAVEL (Ang.)       0.0863         N  5 -- O  6         +18.1% ( 62.2%)     36.0%
 REDUCED MASS        5.4205         C  1 -- H  4          +8.9% ( 43.6%)     24.4%
 EFFECTIVE MASS     12.4512
 FORCE CONSTANT      8.9148

 VIBRATION         38   38A           ATOM PAIR      ENERGY CONTRIBUTION    RADIAL
 FREQUENCY          1755.59         C  8 -- O  9         +35.6% ( 92.5%)     99.4%
 TRANSITION DIPOLE   8.5331         C  8 -- C 11         +15.4% ( 60.9%)     47.8%
 TRAVEL (Ang.)       0.0885         C  8 -- O 10         +15.3% ( 60.6%)     11.3%
 REDUCED MASS        4.9077         C  8 -- Cl12         +15.0% ( 60.0%)     32.1%
 EFFECTIVE MASS     11.9926
 FORCE CONSTANT      8.9119

 VIBRATION         39   39A           ATOM PAIR      ENERGY CONTRIBUTION    RADIAL
 FREQUENCY          1909.81         H  3 -- O 16         +74.3% ( 92.3%)     96.7%
 TRANSITION DIPOLE   2.0753         C  8 -- O  9          +4.9% ( 23.7%)     98.1%
 TRAVEL (Ang.)       0.1616         O 16 -- H 17          +4.5% ( 22.8%)     34.4%
 REDUCED MASS        1.3516         O 10 -- H 17          +4.1% ( 21.7%)     87.7%
 EFFECTIVE MASS      3.4834
 FORCE CONSTANT      2.9045

 VIBRATION         40   40A           ATOM PAIR      ENERGY CONTRIBUTION    RADIAL
 FREQUENCY          2175.29         O 10 -- H 17         +46.1% ( 89.5%)     98.9%
 TRANSITION DIPOLE   3.5796         O 16 -- H 17         +42.1% ( 85.6%)     89.2%
 TRAVEL (Ang.)       0.2064         H  3 -- O 16          +3.0% ( 22.7%)     97.3%
 REDUCED MASS        0.7275         C  8 -- O  9          +2.4% ( 20.5%)     87.2%
 EFFECTIVE MASS      2.0876
 FORCE CONSTANT      2.0284

 VIBRATION         41   41A           ATOM PAIR      ENERGY CONTRIBUTION    RADIAL
 FREQUENCY          2587.99         C 11 -- H 13         +57.3% ( 78.6%)     98.6%
 TRANSITION DIPOLE   1.3147         C 11 -- H 14         +40.7% ( 66.2%)     97.1%
 TRAVEL (Ang.)       0.2244         C 11 -- Cl12          +1.0% ( 10.2%)      0.1%
 REDUCED MASS        0.5172         C  8 -- C 11          +1.0% ( 10.1%)      0.1%
 EFFECTIVE MASS      1.4728
 FORCE CONSTANT      2.0411

 VIBRATION         42   42A           ATOM PAIR      ENERGY CONTRIBUTION    RADIAL
 FREQUENCY          2681.58         C 11 -- H 14         +58.8% ( 75.1%)     97.6%
 TRANSITION DIPOLE   1.0726         C 11 -- H 13         +40.0% ( 62.0%)     95.0%
 TRAVEL (Ang.)       0.2253         C 11 -- Cl12          +0.5% (  6.6%)     23.8%
 REDUCED MASS        0.4954         C  8 -- C 11          +0.4% (  6.5%)     22.4%
 EFFECTIVE MASS      1.2409
 FORCE CONSTANT      2.0988

 VIBRATION         43   43A           ATOM PAIR      ENERGY CONTRIBUTION    RADIAL
 FREQUENCY          2706.02         C  1 -- H  4         +49.5% ( 72.5%)     98.9%
 TRANSITION DIPOLE   1.1786         C  1 -- H  2         +42.1% ( 66.8%)     98.5%
 TRAVEL (Ang.)       0.2374         H 15 -- O 16          +7.1% ( 27.5%)     99.2%
 REDUCED MASS        0.4420         C  1 -- N  5          +1.0% ( 10.5%)      0.0%
 EFFECTIVE MASS      1.5005
 FORCE CONSTANT      1.9068

 VIBRATION         44   44A           ATOM PAIR      ENERGY CONTRIBUTION    RADIAL
 FREQUENCY          2713.51         H 15 -- O 16         +89.5% ( 94.4%)     99.3%
 TRANSITION DIPOLE   1.4314         C  1 -- H  2          +4.2% ( 20.4%)     98.8%
 TRAVEL (Ang.)       0.1789         C  1 -- H  4          +4.1% ( 20.2%)     98.5%
 REDUCED MASS        0.7761         O 16 -- H 17          +1.0% (  9.9%)      5.7%
 EFFECTIVE MASS      1.3309
 FORCE CONSTANT      3.3667

 VIBRATION         45   45A           ATOM PAIR      ENERGY CONTRIBUTION    RADIAL
 FREQUENCY          2775.98         C  1 -- H  2         +53.7% ( 71.8%)     96.2%
 TRANSITION DIPOLE   1.4086         C  1 -- H  4         +45.5% ( 66.1%)     95.2%
 TRAVEL (Ang.)       0.2243         C  1 -- N  5          +0.6% (  7.5%)     97.5%
 REDUCED MASS        0.4827         N  5 -- O  6          +0.1% (  3.2%)     53.3%
 EFFECTIVE MASS      1.2366
 FORCE CONSTANT      2.1915

      SYMMETRY NUMBER FOR POINT-GROUP C1  =  1


          SYSTEM IS A GROUND STATE



 Title: ASE calculation


          MOLECULE IS NOT LINEAR

          THERE ARE 45 GENUINE VIBRATIONS IN THIS SYSTEM
          THIS THERMODYNAMICS CALCULATION IS LIMITED TO
          MOLECULES WHICH HAVE NO INTERNAL ROTATIONS




                    CALCULATED THERMODYNAMIC PROPERTIES
                                          *
   TEMP. (K)   PARTITION FUNCTION   H.O.F.    ENTHALPY  HEAT CAPACITY ENTROPY
                                   KCAL/MOL   CAL/MOLE    CAL/K/MOL  CAL/K/MOL


 298.00  VIB.     0.6384D+05                  6028.2714    35.5402    42.2159
         ROT.     0.2021D+07                   888.2803     2.9808    31.8335
         INT.     0.1290D+12                  6916.5517    38.5210    74.0495
         TRA.     0.2210D+28                  1480.4672     4.9680    41.3591
         TOT.                     -301.065    8397.0189    43.4891   115.4086

   *: NOTE: HEATS OF FORMATION ARE RELATIVE TO THE
            ELEMENTS IN THEIR STANDARD STATE AT 298K
              (=  Standard Enthalpy of Formation).

            Hvib:  Zero-point energy is not included.
                   frequencies of less than zero cm-1 are not included.
            Hrot = (3/2)RT
            Htra = (3/2)RT + pV = (5/2)RT

            Heat capacity is Cp, not Cv

          For more information, see: HTTP://OpenMOPAC.net/Manual/thermochemistry.html


           FORCE CONSTANT IN CARTESIAN COORDINATES (Millidynes/A)

    ATOM   CHEMICAL       X               Y               Z
   NUMBER   SYMBOL  FORCE CONSTANT  FORCE CONSTANT  FORCE CONSTANT

      1       C        8.751827        1.799018       10.914814
      2       H        4.199689        0.277957        0.759940
      3       H        1.511532        1.642108        3.291767
      4       H        1.295797        0.342323        3.646649
      5       N       13.078819        2.877583       14.264653
      6       O       10.546149        1.275891        2.042767
      7       O        3.256426        0.603202        8.524712
      8       C       12.318682       10.999017        2.762630
      9       O        8.562248        5.972267        0.324445
     10       O        4.094817        7.796089        0.635811
     11       C        6.639002        6.179273        4.588032
     12      Cl        0.521130        0.397604        3.522100
     13       H        2.139811        1.421548        1.634024
     14       H        0.770680        3.655441        0.816298
     15       H        0.486649        1.294811        3.046562
     16       O        1.722582        3.454701        4.180805
     17       H        1.700238        1.804531        0.498192

 **********************
 *                    *
 * JOB ENDED NORMALLY *
 *                    *
 **********************



 TOTAL JOB TIME:             2.76 SECONDS

 == MOPAC DONE ==
