 *******************************************************************************
 **                                                                           **
 **                              MOPAC v22.0.6                                **
 **                                                                           **
 *******************************************************************************
 **          Digital Object Identifier (DOI): 10.5281/zenodo.6511958          **
 **    Visit the DOI location for information on how to cite this program.    **
 *******************************************************************************

                              PM7 CALCULATION RESULTS

 *******************************************************************************
 *  CALCULATION DONE:                                Sun Mar 24 01:10:38 2024  *
 *  PM7        - The PM7 Hamiltonian to be used
 *  SINGLET    - SPIN STATE DEFINED AS A SINGLET
 *
 *
 *
 *                 CHARGE ON SYSTEM = 0
 *
 *
 *
 *  EPS=78.4   - USE ANDREAS KLAMT'S COSMO IMPLICIT SOLVATION MODEL
 *  THREADS    - USE A MAXIMUM OF 30 THREADS
 *  T=         - A TIME OF 14.0 DAYS REQUESTED
 *  DUMP=N     - RESTART FILE WRITTEN EVERY 30.0 MINUTES REQUESTED
 *  RELSCF     - DEFAULT SCF CRITERION MULTIPLIED BY 1.0000
 *              (DEFAULT SCF CRITERION = 0.00010)
 *  ITRY=      - DO A MAXIMUM OF 15000 ITERATIONS FOR SCF
 *  AUX        - OUTPUT AUXILIARY INFORMATION
 *  BONDS      - FINAL BOND-ORDER MATRIX TO BE PRINTED
 *******************************************************************************
PM7 BONDS AUX DUMP=30M ITRY=15000 T=14D THREADS=30 CHARGE=0 SINGLET eps=78.4 RELSCF=1
 Title: ASE calculation

   ATOM   CHEMICAL          X               Y               Z
  NUMBER   SYMBOL      (ANGSTROMS)     (ANGSTROMS)     (ANGSTROMS)

     1       C          0.59869034  *   0.24420556  *   0.27816482  *
     2       H          0.19007332  *  -0.01658544  *   1.26137287  *
     3       N          0.81828715  *  -2.13692759  *  -0.20650301  *
     4       O          0.53928578  *  -2.45152906  *   0.97146297  *
     5       O          1.07335604  *  -3.06522013  *  -1.01206524  *
     6       H          1.24355426  *   1.83340960  *  -1.00172247  *
     7       C          0.87125298     -0.85641354     -0.61366093   
     8       H          1.06882200  *  -0.65881853  *  -1.66695751  *
     9       H          2.83071643     -0.30933727  *  -0.84450291  *
    10       C          0.83764365  *   1.51825704  *  -0.05514109  *
    11       H          0.64607779  *   2.34877996  *   0.60303208  *
    12       C          6.85889417  *   1.36854281  *  -0.17780540  *
    13       C          7.87009888  *   2.32870262  *  -0.05408880  *
    14       C          7.50855705  *   3.68049215  *  -0.03706912  *
    15       C          6.16607624  *   4.03504558  *  -0.13770266  *
    16       C          5.19600310  *   3.04061186  *  -0.26070030  *
    17       N          5.55621410  *   1.73333560  *  -0.27964633  *
    18       H          7.08224898  *   0.28783727  *  -0.19490365  *
    19       H          5.86609498  *   5.08779292  *  -0.12334251  *
    20       H          4.12213284  *   3.27717778  *  -0.34575194  *
    21       C          9.28566564  *   1.90323045  *   0.04040448  *
    22       H          9.96246672  *   2.72315069  *   0.32977424  *
    23       H          9.66004528  *   1.51702266  *  -0.92512482  *
    24       H          9.43863096  *   1.09684094  *   0.77824917  *
    25       H          8.27711713  *   4.45633537  *   0.05543087  *
    26       H          4.30955090  *  -0.95201798  *  -0.19868760  *
    27       O          4.13131583     -0.29246015     -0.87556243   
    28       H          4.78723738  *   0.94161741  *  -0.41661747  *



          CARTESIAN COORDINATES 

    NO.       ATOM           X           Y           Z

     1         C          0.5987      0.2442      0.2782
     2         H          0.1901     -0.0166      1.2614
     3         N          0.8183     -2.1369     -0.2065
     4         O          0.5393     -2.4515      0.9715
     5         O          1.0734     -3.0652     -1.0121
     6         H          1.2436      1.8334     -1.0017
     7         C          0.8713     -0.8564     -0.6137
     8         H          1.0688     -0.6588     -1.6670
     9         H          2.8307     -0.3093     -0.8445
    10         C          0.8376      1.5183     -0.0551
    11         H          0.6461      2.3488      0.6030
    12         C          6.8589      1.3685     -0.1778
    13         C          7.8701      2.3287     -0.0541
    14         C          7.5086      3.6805     -0.0371
    15         C          6.1661      4.0350     -0.1377
    16         C          5.1960      3.0406     -0.2607
    17         N          5.5562      1.7333     -0.2796
    18         H          7.0822      0.2878     -0.1949
    19         H          5.8661      5.0878     -0.1233
    20         H          4.1221      3.2772     -0.3458
    21         C          9.2857      1.9032      0.0404
    22         H          9.9625      2.7232      0.3298
    23         H          9.6600      1.5170     -0.9251
    24         H          9.4386      1.0968      0.7782
    25         H          8.2771      4.4563      0.0554
    26         H          4.3096     -0.9520     -0.1987
    27         O          4.1313     -0.2925     -0.8756
    28         H          4.7872      0.9416     -0.4166

 General Reference for PM7:
 "Optimization of Parameters for Semiempirical Methods VI: More Modifications to the 
 NDDO Approximations and Re-optimization of Parameters", J. J. P. Stewart, J. Mol. Mod., 1:32, 19 (2013)
 https://link.springer.com/article/10.1007/s00894-012-1667-x

           Empirical Formula: C9 H14 N2 O3  =    28 atoms



      MOLECULAR POINT GROUP   :   C1  


 SINGLET STATE CALCULATION


      RHF CALCULATION, NO. OF DOUBLY OCCUPIED LEVELS = 39


          Geometry optimization using EF
  SCF CRITERION =    0.1000E-03

          DIAGONAL MATRIX USED AS START HESSIAN

 CYCLE:     1 TIME:   0.092 TIME LEFT:  2.00W  GRAD.:     6.463 HEAT: -36.08504

     TRUST RADIUS NOW LESS THAN  0.00010 OPTIMIZATION TERMINATING
      THE GEOMETRY MAY NOT BE COMPLETELY OPTIMIZED
      (TO CONTINUE, ADD 'LET DDMIN=0.0' TO THE KEYWORD LINE)

 -------------------------------------------------------------------------------
 PM7 BONDS AUX DUMP=30M ITRY=15000 T=14D THREADS=30 CHARGE=0 SINGLET eps=78.4 RELSCF=1
 Title: ASE calculation



     GEOMETRY OPTIMISED USING EIGENVECTOR FOLLOWING (EF).     
     SCF FIELD WAS ACHIEVED                                   


                              PM7 CALCULATION
                                                       MOPAC v22.0.6 Linux
                                                       Sun Mar 24 01:10:38 2024




          FINAL HEAT OF FORMATION =        -36.08507 KCAL/MOL =    -150.97995 KJ/MOL
          VAN DER WAALS AREA      =        259.31 SQUARE ANGSTROMS



          DIELECTRIC ENERGY       =         -2.27589 EV
          COSMO AREA              =        259.31 SQUARE ANGSTROMS
          COSMO VOLUME            =        263.16 CUBIC ANGSTROMS

          GRADIENT NORM           =          6.46326          =       1.22144 PER ATOM
          IONIZATION POTENTIAL    =          8.774953 EV
          HOMO LUMO ENERGIES (EV) =         -8.775 -1.173
          NO. OF FILLED LEVELS    =         39
          MOLECULAR WEIGHT        =        198.2212         POINT GROUP:  C1  

          MOLECULAR DIMENSIONS (Angstroms)

            Atom       Atom       Distance
            H    22    O     4    10.76965
            H    11    H    24     5.36306
            H     8    H     2     2.98755


          SCF CALCULATIONS        =         11

          WALL-CLOCK TIME         =      0.589 SECONDS
          COMPUTATION TIME        =     13.231 SECONDS



       FINAL  POINT  AND  DERIVATIVES

   PARAMETER     ATOM    TYPE            VALUE        GRADIENT
      1          1  C    CARTESIAN X     0.598690     -0.774999  KCAL/ANGSTROM
      2          1  C    CARTESIAN Y     0.244206      0.707841  KCAL/ANGSTROM
      3          1  C    CARTESIAN Z     0.278165      0.456044  KCAL/ANGSTROM
      4          2  H    CARTESIAN X     0.190073     -0.297186  KCAL/ANGSTROM
      5          2  H    CARTESIAN Y    -0.016585     -0.001696  KCAL/ANGSTROM
      6          2  H    CARTESIAN Z     1.261373      0.029384  KCAL/ANGSTROM
      7          3  N    CARTESIAN X     0.818287     -0.274803  KCAL/ANGSTROM
      8          3  N    CARTESIAN Y    -2.136928     -4.195115  KCAL/ANGSTROM
      9          3  N    CARTESIAN Z    -0.206503      1.397197  KCAL/ANGSTROM
     10          4  O    CARTESIAN X     0.539286     -0.120394  KCAL/ANGSTROM
     11          4  O    CARTESIAN Y    -2.451529      0.487491  KCAL/ANGSTROM
     12          4  O    CARTESIAN Z     0.971463     -1.363872  KCAL/ANGSTROM
     13          5  O    CARTESIAN X     1.073356      0.434938  KCAL/ANGSTROM
     14          5  O    CARTESIAN Y    -3.065220      1.178156  KCAL/ANGSTROM
     15          5  O    CARTESIAN Z    -1.012065      0.947962  KCAL/ANGSTROM
     16          6  H    CARTESIAN X     1.243554      0.192062  KCAL/ANGSTROM
     17          6  H    CARTESIAN Y     1.833410      0.095798  KCAL/ANGSTROM
     18          6  H    CARTESIAN Z    -1.001722     -0.160847  KCAL/ANGSTROM
     19          8  H    CARTESIAN X     1.068822      0.371281  KCAL/ANGSTROM
     20          8  H    CARTESIAN Y    -0.658819     -0.055885  KCAL/ANGSTROM
     21          8  H    CARTESIAN Z    -1.666958     -0.723227  KCAL/ANGSTROM
     22          9  H    CARTESIAN Y    -0.309337     -1.392154  KCAL/ANGSTROM
     23          9  H    CARTESIAN Z    -0.844503      0.365516  KCAL/ANGSTROM
     24         10  C    CARTESIAN X     0.837644      0.135228  KCAL/ANGSTROM
     25         10  C    CARTESIAN Y     1.518257     -0.340888  KCAL/ANGSTROM
     26         10  C    CARTESIAN Z    -0.055141      0.039651  KCAL/ANGSTROM
     27         11  H    CARTESIAN X     0.646078     -0.008691  KCAL/ANGSTROM
     28         11  H    CARTESIAN Y     2.348780     -0.001816  KCAL/ANGSTROM
     29         11  H    CARTESIAN Z     0.603032      0.102903  KCAL/ANGSTROM
     30         12  C    CARTESIAN X     6.858894     -0.102666  KCAL/ANGSTROM
     31         12  C    CARTESIAN Y     1.368543      0.015894  KCAL/ANGSTROM
     32         12  C    CARTESIAN Z    -0.177805     -0.099248  KCAL/ANGSTROM
     33         13  C    CARTESIAN X     7.870099      0.002562  KCAL/ANGSTROM
     34         13  C    CARTESIAN Y     2.328703     -0.072342  KCAL/ANGSTROM
     35         13  C    CARTESIAN Z    -0.054089      0.062009  KCAL/ANGSTROM
     36         14  C    CARTESIAN X     7.508557      0.139778  KCAL/ANGSTROM
     37         14  C    CARTESIAN Y     3.680492     -0.279034  KCAL/ANGSTROM
     38         14  C    CARTESIAN Z    -0.037069     -0.184462  KCAL/ANGSTROM
     39         15  C    CARTESIAN X     6.166076      0.140607  KCAL/ANGSTROM
     40         15  C    CARTESIAN Y     4.035046     -0.298080  KCAL/ANGSTROM
     41         15  C    CARTESIAN Z    -0.137703     -0.045640  KCAL/ANGSTROM
     42         16  C    CARTESIAN X     5.196003      0.136240  KCAL/ANGSTROM
     43         16  C    CARTESIAN Y     3.040612      0.027666  KCAL/ANGSTROM
     44         16  C    CARTESIAN Z    -0.260700      0.043962  KCAL/ANGSTROM
     45         17  N    CARTESIAN X     5.556214      0.703791  KCAL/ANGSTROM
     46         17  N    CARTESIAN Y     1.733336      0.740042  KCAL/ANGSTROM
     47         17  N    CARTESIAN Z    -0.279646      0.315887  KCAL/ANGSTROM
     48         18  H    CARTESIAN X     7.082249     -0.517249  KCAL/ANGSTROM
     49         18  H    CARTESIAN Y     0.287837     -0.048525  KCAL/ANGSTROM
     50         18  H    CARTESIAN Z    -0.194904      0.113668  KCAL/ANGSTROM
     51         19  H    CARTESIAN X     5.866095      0.241798  KCAL/ANGSTROM
     52         19  H    CARTESIAN Y     5.087793     -0.391825  KCAL/ANGSTROM
     53         19  H    CARTESIAN Z    -0.123343     -0.055433  KCAL/ANGSTROM
     54         20  H    CARTESIAN X     4.122133     -0.146966  KCAL/ANGSTROM
     55         20  H    CARTESIAN Y     3.277178     -0.270485  KCAL/ANGSTROM
     56         20  H    CARTESIAN Z    -0.345752      0.003535  KCAL/ANGSTROM
     57         21  C    CARTESIAN X     9.285666     -0.028177  KCAL/ANGSTROM
     58         21  C    CARTESIAN Y     1.903230     -0.064972  KCAL/ANGSTROM
     59         21  C    CARTESIAN Z     0.040404     -0.080112  KCAL/ANGSTROM
     60         22  H    CARTESIAN X     9.962467     -0.132381  KCAL/ANGSTROM
     61         22  H    CARTESIAN Y     2.723151      0.120978  KCAL/ANGSTROM
     62         22  H    CARTESIAN Z     0.329774     -0.029503  KCAL/ANGSTROM
     63         23  H    CARTESIAN X     9.660045      0.190005  KCAL/ANGSTROM
     64         23  H    CARTESIAN Y     1.517023      0.042005  KCAL/ANGSTROM
     65         23  H    CARTESIAN Z    -0.925125     -0.004571  KCAL/ANGSTROM
     66         24  H    CARTESIAN X     9.438631      0.371183  KCAL/ANGSTROM
     67         24  H    CARTESIAN Y     1.096841      0.019730  KCAL/ANGSTROM
     68         24  H    CARTESIAN Z     0.778249      0.060947  KCAL/ANGSTROM
     69         25  H    CARTESIAN X     8.277117      0.102415  KCAL/ANGSTROM
     70         25  H    CARTESIAN Y     4.456335      0.129633  KCAL/ANGSTROM
     71         25  H    CARTESIAN Z     0.055431      0.004494  KCAL/ANGSTROM
     72         26  H    CARTESIAN X     4.309551      0.221759  KCAL/ANGSTROM
     73         26  H    CARTESIAN Y    -0.952018      1.446168  KCAL/ANGSTROM
     74         26  H    CARTESIAN Z    -0.198688     -1.529700  KCAL/ANGSTROM
     75         28  H    CARTESIAN X     4.787237     -1.392725  KCAL/ANGSTROM
     76         28  H    CARTESIAN Y     0.941617     -2.044829  KCAL/ANGSTROM
     77         28  H    CARTESIAN Z    -0.416617     -0.569265  KCAL/ANGSTROM




   ATOM   CHEMICAL          X               Y               Z
  NUMBER   SYMBOL      (ANGSTROMS)     (ANGSTROMS)     (ANGSTROMS)

     1       C          0.59869034  *   0.24420556  *   0.27816482  *
     2       H          0.19007332  *  -0.01658544  *   1.26137287  *
     3       N          0.81828715  *  -2.13692759  *  -0.20650301  *
     4       O          0.53928578  *  -2.45152906  *   0.97146297  *
     5       O          1.07335604  *  -3.06522013  *  -1.01206524  *
     6       H          1.24355426  *   1.83340960  *  -1.00172247  *
     7       C          0.87125298     -0.85641354     -0.61366093   
     8       H          1.06882200  *  -0.65881853  *  -1.66695751  *
     9       H          2.83071643     -0.30933727  *  -0.84450291  *
    10       C          0.83764365  *   1.51825704  *  -0.05514109  *
    11       H          0.64607779  *   2.34877996  *   0.60303208  *
    12       C          6.85889417  *   1.36854281  *  -0.17780540  *
    13       C          7.87009888  *   2.32870262  *  -0.05408880  *
    14       C          7.50855705  *   3.68049215  *  -0.03706912  *
    15       C          6.16607624  *   4.03504558  *  -0.13770266  *
    16       C          5.19600310  *   3.04061186  *  -0.26070030  *
    17       N          5.55621410  *   1.73333560  *  -0.27964633  *
    18       H          7.08224898  *   0.28783727  *  -0.19490365  *
    19       H          5.86609498  *   5.08779292  *  -0.12334251  *
    20       H          4.12213284  *   3.27717778  *  -0.34575194  *
    21       C          9.28566564  *   1.90323045  *   0.04040448  *
    22       H          9.96246672  *   2.72315069  *   0.32977424  *
    23       H          9.66004528  *   1.51702266  *  -0.92512482  *
    24       H          9.43863096  *   1.09684094  *   0.77824917  *
    25       H          8.27711713  *   4.45633537  *   0.05543087  *
    26       H          4.30955090  *  -0.95201798  *  -0.19868760  *
    27       O          4.13131583     -0.29246015     -0.87556243   
    28       H          4.78723738  *   0.94161741  *  -0.41661747  *

                             CARTESIAN COORDINATES

   1    C        0.598690340     0.244205560     0.278164820
   2    H        0.190073320    -0.016585440     1.261372870
   3    N        0.818287150    -2.136927590    -0.206503010
   4    O        0.539285780    -2.451529060     0.971462970
   5    O        1.073356040    -3.065220130    -1.012065240
   6    H        1.243554260     1.833409600    -1.001722470
   7    C        0.871252980    -0.856413540    -0.613660930
   8    H        1.068822000    -0.658818530    -1.666957510
   9    H        2.830716430    -0.309337270    -0.844502910
  10    C        0.837643650     1.518257040    -0.055141090
  11    H        0.646077790     2.348779960     0.603032080
  12    C        6.858894170     1.368542810    -0.177805400
  13    C        7.870098880     2.328702620    -0.054088800
  14    C        7.508557050     3.680492150    -0.037069120
  15    C        6.166076240     4.035045580    -0.137702660
  16    C        5.196003100     3.040611860    -0.260700300
  17    N        5.556214100     1.733335600    -0.279646330
  18    H        7.082248980     0.287837270    -0.194903650
  19    H        5.866094980     5.087792920    -0.123342510
  20    H        4.122132840     3.277177780    -0.345751940
  21    C        9.285665640     1.903230450     0.040404480
  22    H        9.962466720     2.723150690     0.329774240
  23    H        9.660045280     1.517022660    -0.925124820
  24    H        9.438630960     1.096840940     0.778249170
  25    H        8.277117130     4.456335370     0.055430870
  26    H        4.309550900    -0.952017980    -0.198687600
  27    O        4.131315830    -0.292460150    -0.875562430
  28    H        4.787237380     0.941617410    -0.416617470


           Empirical Formula: C9 H14 N2 O3  =    28 atoms



      MOLECULAR POINT GROUP   :   C1  


                  EIGENVALUES  
 -38.28907 -36.21258 -30.03733 -28.71174 -28.20259 -27.91806 -27.68803 -25.76850
 -25.10582 -23.38424 -21.99685 -21.43404 -19.54223 -19.51314 -17.94280 -17.70996
 -17.25403 -16.97715 -16.56376 -16.19240 -16.04543 -15.86652 -15.12566 -14.67635
 -14.37007 -14.28995 -14.22457 -13.86016 -13.35806 -12.98209 -12.17966 -12.16954
 -11.58344 -11.55268 -11.29202 -11.09610 -11.00948 -10.59782  -8.77495  -1.17315
  -0.86486   0.26986   1.15770   1.44208   1.58928   1.82470   2.22182   3.22828
   3.32204   3.65689   4.07933   4.16473   4.22535   4.32495   4.64469   4.93686
   5.15286   5.36294   5.38468   5.39265   5.44663   5.44987   5.55762   5.93310
   6.00171   6.03107   6.19209   6.47455   6.59393   6.80576


              NET ATOMIC CHARGES AND DIPOLE CONTRIBUTIONS

  ATOM NO.   TYPE          CHARGE      No. of ELECS.   s-Pop       p-Pop       
    1          C          -0.044947        4.0449     1.07822     2.96673
    2          H           0.157784        0.8422     0.84222
    3          N           0.734822        4.2652     1.41515     2.85003
    4          O          -0.659680        6.6597     1.94343     4.71625
    5          O          -0.678197        6.6782     1.94454     4.73366
    6          H           0.149896        0.8501     0.85010
    7          C          -0.531831        4.5318     1.05555     3.47628
    8          H           0.196497        0.8035     0.80350
    9          H           0.476376        0.5236     0.52362
   10          C          -0.426047        4.4260     1.08818     3.33786
   11          H           0.149912        0.8501     0.85009
   12          C           0.002127        3.9979     1.10531     2.89257
   13          C           0.009594        3.9904     1.07366     2.91675
   14          C          -0.085066        4.0851     1.10148     2.98358
   15          C          -0.174503        4.1745     1.09298     3.08152
   16          C           0.025980        3.9740     1.10234     2.87168
   17          N          -0.195572        5.1956     1.54235     3.65322
   18          H           0.221821        0.7782     0.77818
   19          H           0.201756        0.7982     0.79824
   20          H           0.217749        0.7823     0.78225
   21          C          -0.467725        4.4677     1.04874     3.41899
   22          H           0.177597        0.8224     0.82240
   23          H           0.187487        0.8125     0.81251
   24          H           0.185335        0.8147     0.81467
   25          H           0.192441        0.8076     0.80756
   26          H           0.371224        0.6288     0.62878
   27          O          -0.800681        6.8007     1.87048     4.93020
   28          H           0.405852        0.5941     0.59415
 DIPOLE           X         Y         Z       TOTAL
 POINT-CHG.    21.289    19.331     0.243    28.757
 HYBRID        -0.219    -0.739     0.236     0.806
 SUM           21.071    18.591     0.479    28.104


          ATOMIC ORBITAL ELECTRON POPULATIONS

     Atom    s        px        py        pz   
    1  C   1.07822   0.95572   0.96536   1.04565
    2  H   0.84222
    3  N   1.41515   0.93092   0.99072   0.92838
    4  O   1.94343   1.69782   1.89751   1.12092
    5  O   1.94454   1.71506   1.47805   1.54055
    6  H   0.85010
    7  C   1.05555   1.47575   0.87793   1.12260
    8  H   0.80350
    9  H   0.52362
   10  C   1.08818   1.13015   1.05452   1.15320
   11  H   0.85009
   12  C   1.10531   0.84923   1.09499   0.94835
   13  C   1.07366   0.99167   0.97110   0.95397
   14  C   1.10148   1.04164   1.03930   0.90264
   15  C   1.09298   0.98756   1.10261   0.99135
   16  C   1.10234   1.08841   0.84534   0.93793
   17  N   1.54235   1.17922   1.17781   1.29619
   18  H   0.77818
   19  H   0.79824
   20  H   0.78225
   21  C   1.04874   1.01560   1.19814   1.20525
   22  H   0.82240
   23  H   0.81251
   24  H   0.81467
   25  H   0.80756
   26  H   0.62878
   27  O   1.87048   1.54024   1.69124   1.69872
   28  H   0.59415

          BONDING CONTRIBUTION OF EACH M.O.

  1.4269  1.4116  1.8643  1.0385  1.2592  1.8759  1.3844  1.3244  1.9861  1.8621
  1.9606  1.2885  1.6536  1.8571  1.5672  2.0467  1.3545  1.8230  1.3586  1.2953
  1.8984  1.8696  2.0195  1.4408  1.8104  1.8472  1.7565  1.9022  1.6690  1.7506
  1.6364  1.1334  1.9491  1.6168  0.5338  0.4895  0.2538  2.0790  1.2410 -2.0491
 -1.9144 -2.3003 -1.8174 -1.9521 -2.1627 -2.1395 -1.8331 -1.9253 -1.9170 -2.0050
 -1.9921 -1.9546 -1.8803 -1.9809 -1.8847 -1.9452 -1.9195 -1.8898 -1.9054 -1.8971
 -1.9593 -1.9384 -1.9217 -1.9406 -1.9979 -1.7427 -1.9501 -1.9832 -1.8846 -1.9518





            (VALENCIES)   BOND ORDERS

     1  C     (3.967)    10  C 1.912     7  C 1.073     2  H 0.959     5  O 0.011

     2  H     (0.975)     1  C 0.959

     3  N     (3.813)     7  C 1.293     4  O 1.248     5  O 1.231    10  C 0.030

     4  O     (1.587)     3  N 1.248     5  O 0.170     7  C 0.140    10  C 0.012

     5  O     (1.563)     3  N 1.231     4  O 0.170     7  C 0.134    10  C 0.013     1  C 0.011

     6  H     (0.978)    10  C 0.968

     7  C     (3.686)     3  N 1.293     1  C 1.073     8  H 0.934     4  O 0.140     5  O 0.134     9  H 0.052
                         10  C 0.034    27  O 0.014

     8  H     (0.961)     7  C 0.934

     9  H     (0.773)    27  O 0.695     7  C 0.052

    10  C     (3.939)     1  C 1.912    11  H 0.968     6  H 0.968     7  C 0.034     3  N 0.030     5  O 0.013
                          4  O 0.012

    11  H     (0.978)    10  C 0.968

    12  C     (3.908)    13  C 1.426    17  N 1.335    18  H 0.933    15  C 0.105    16  C 0.042    14  C 0.019
                         20  H 0.010

    13  C     (3.990)    12  C 1.426    14  C 1.407    21  C 1.021    16  C 0.107

    14  C     (3.952)    15  C 1.443    13  C 1.407    25  H 0.950    17  N 0.096    12  C 0.019

    15  C     (3.961)    14  C 1.443    16  C 1.441    19  H 0.946    12  C 0.105

    16  C     (3.907)    15  C 1.441    17  N 1.336    20  H 0.935    13  C 0.107    12  C 0.042

    17  N     (3.509)    16  C 1.336    12  C 1.335    28  H 0.666    14  C 0.096    27  O 0.042

    18  H     (0.951)    12  C 0.933

    19  H     (0.959)    15  C 0.946

    20  H     (0.953)    16  C 0.935    12  C 0.010

    21  C     (3.900)    13  C 1.021    22  H 0.957    24  H 0.949    23  H 0.943

    22  H     (0.968)    21  C 0.957

    23  H     (0.965)    21  C 0.943

    24  H     (0.966)    21  C 0.949

    25  H     (0.963)    14  C 0.950

    26  H     (0.862)    27  O 0.857

    27  O     (1.767)    26  H 0.857     9  H 0.695    28  H 0.138    17  N 0.042     7  C 0.014

    28  H     (0.835)    17  N 0.666    27  O 0.138


 **********************
 *                    *
 * JOB ENDED NORMALLY *
 *                    *
 **********************



 TOTAL JOB TIME:             0.60 SECONDS

 == MOPAC DONE ==
