
                                        *****************
                                        * O   R   C   A *
                                        *****************

                                            #,                                       
                                            ###                                      
                                            ####                                     
                                            #####                                    
                                            ######                                   
                                           ########,                                 
                                     ,,################,,,,,                         
                               ,,#################################,,                 
                          ,,##########################################,,             
                       ,#########################################, ''#####,          
                    ,#############################################,,   '####,        
                  ,##################################################,,,,####,       
                ,###########''''           ''''###############################       
              ,#####''   ,,,,##########,,,,          '''####'''          '####       
            ,##' ,,,,###########################,,,                        '##       
           ' ,,###''''                  '''############,,,                           
         ,,##''                                '''############,,,,        ,,,,,,###''
      ,#''                                            '''#######################'''  
     '                                                          ''''####''''         
             ,#######,   #######,   ,#######,      ##                                
            ,#'     '#,  ##    ##  ,#'     '#,    #''#        ######   ,####,        
            ##       ##  ##   ,#'  ##            #'  '#       #        #'  '#        
            ##       ##  #######   ##           ,######,      #####,   #    #        
            '#,     ,#'  ##    ##  '#,     ,#' ,#      #,         ##   #,  ,#        
             '#######'   ##     ##  '#######'  #'      '#     #####' # '####'        



                  #######################################################
                  #                        -***-                        #
                  #          Department of theory and spectroscopy      #
                  #    Directorship and core code : Frank Neese         #
                  #        Max Planck Institute fuer Kohlenforschung    #
                  #                Kaiser Wilhelm Platz 1               #
                  #                 D-45470 Muelheim/Ruhr               #
                  #                      Germany                        #
                  #                                                     #
                  #                  All rights reserved                #
                  #                        -***-                        #
                  #######################################################


                         Program Version 5.0.0 -  RELEASE  -
                                (SVN: $Rev: 19529$)
                ($Date: 2021-06-28 11:36:33 +0200 (Mo, 28 Jun 2021) $)


 With contributions from (in alphabetic order):
   Daniel Aravena         : Magnetic Suceptibility
   Michael Atanasov       : Ab Initio Ligand Field Theory (pilot matlab implementation)
   Alexander A. Auer      : GIAO ZORA, VPT2 properties, NMR spectrum
   Ute Becker             : Parallelization
   Giovanni Bistoni       : ED, misc. LED, open-shell LED, HFLD
   Martin Brehm           : Molecular dynamics
   Dmytro Bykov           : SCF Hessian
   Vijay G. Chilkuri      : MRCI spin determinant printing, contributions to CSF-ICE
   Dipayan Datta          : RHF DLPNO-CCSD density
   Achintya Kumar Dutta   : EOM-CC, STEOM-CC
   Dmitry Ganyushin       : Spin-Orbit,Spin-Spin,Magnetic field MRCI
   Miquel Garcia          : C-PCM Hessian, Gaussian charge scheme
   Yang Guo               : DLPNO-NEVPT2, F12-NEVPT2, CIM, IAO-localization
   Andreas Hansen         : Spin unrestricted coupled pair/coupled cluster methods
   Benjamin Helmich-Paris : MC-RPA, TRAH-SCF, COSX integrals
   Lee Huntington         : MR-EOM, pCC
   Robert Izsak           : Overlap fitted RIJCOSX, COSX-SCS-MP3, EOM
   Marcus Kettner         : VPT2
   Christian Kollmar      : KDIIS, OOCD, Brueckner-CCSD(T), CCSD density, CASPT2, CASPT2-K
   Simone Kossmann        : Meta GGA functionals, TD-DFT gradient, OOMP2, MP2 Hessian
   Martin Krupicka        : Initial AUTO-CI
   Lucas Lang             : DCDCAS
   Marvin Lechner         : AUTO-CI (C++ implementation), FIC-MRCC
   Dagmar Lenk            : GEPOL surface, SMD
   Dimitrios Liakos       : Extrapolation schemes; Compound Job, initial MDCI parallelization
   Dimitrios Manganas     : Further ROCIS development; embedding schemes
   Dimitrios Pantazis     : SARC Basis sets
   Anastasios Papadopoulos: AUTO-CI, single reference methods and gradients
   Taras Petrenko         : DFT Hessian,TD-DFT gradient, ASA, ECA, R-Raman, ABS, FL, XAS/XES, NRVS
   Peter Pinski           : DLPNO-MP2, DLPNO-MP2 Gradient
   Christoph Reimann      : Effective Core Potentials
   Marius Retegan         : Local ZFS, SOC
   Christoph Riplinger    : Optimizer, TS searches, QM/MM, DLPNO-CCSD(T), (RO)-DLPNO pert. Triples
   Tobias Risthaus        : Range-separated hybrids, TD-DFT gradient, RPA, STAB
   Michael Roemelt        : Original ROCIS implementation
   Masaaki Saitow         : Open-shell DLPNO-CCSD energy and density
   Barbara Sandhoefer     : DKH picture change effects
   Avijit Sen             : IP-ROCIS
   Kantharuban Sivalingam : CASSCF convergence, NEVPT2, FIC-MRCI
   Bernardo de Souza      : ESD, SOC TD-DFT
   Georgi Stoychev        : AutoAux, RI-MP2 NMR
   Willem Van den Heuvel  : Paramagnetic NMR
   Boris Wezisla          : Elementary symmetry handling
   Frank Wennmohs         : Technical directorship


 We gratefully acknowledge several colleagues who have allowed us to
 interface, adapt or use parts of their codes:
   Stefan Grimme, W. Hujo, H. Kruse, P. Pracht,  : VdW corrections, initial TS optimization,
                  C. Bannwarth, S. Ehlert          DFT functionals, gCP, sTDA/sTD-DF
   Ed Valeev, F. Pavosevic, A. Kumar             : LibInt (2-el integral package), F12 methods
   Garnet Chan, S. Sharma, J. Yang, R. Olivares  : DMRG
   Ulf Ekstrom                                   : XCFun DFT Library
   Mihaly Kallay                                 : mrcc  (arbitrary order and MRCC methods)
   Jiri Pittner, Ondrej Demel                    : Mk-CCSD
   Frank Weinhold                                : gennbo (NPA and NBO analysis)
   Christopher J. Cramer and Donald G. Truhlar   : smd solvation model
   Lars Goerigk                                  : TD-DFT with DH, B97 family of functionals
   V. Asgeirsson, H. Jonsson                     : NEB implementation
   FAccTs GmbH                                   : IRC, NEB, NEB-TS, DLPNO-Multilevel, CI-OPT
                                                   MM, QMMM, 2- and 3-layer-ONIOM, Crystal-QMMM,
                                                   LR-CPCM, SF, NACMEs, symmetry and pop. for TD-DFT,
                                                   nearIR, NL-DFT gradient (VV10), updates on ESD,
                                                   ML-optimized integration grids
   S Lehtola, MJT Oliveira, MAL Marques          : LibXC Library
   Liviu Ungur et al                             : ANISO software


 Your calculation uses the libint2 library for the computation of 2-el integrals
 For citations please refer to: http://libint.valeyev.net

 Your ORCA version has been built with support for libXC version: 5.1.0
 For citations please refer to: https://tddft.org/programs/libxc/

 This ORCA versions uses:
   CBLAS   interface :  Fast vector & matrix operations
   LAPACKE interface :  Fast linear algebra routines
   SCALAPACK package :  Parallel linear algebra routines
   Shared memory     :  Shared parallel matrices
   BLAS/LAPACK       :  OpenBLAS 0.3.15  USE64BITINT DYNAMIC_ARCH NO_AFFINITY Sandybridge SINGLE_THREADED
        Core in use  :  Sandybridge
   Copyright (c) 2011-2014, The OpenBLAS Project


Your calculation utilizes the atom-pairwise dispersion correction
with the Becke-Johnson damping scheme (D3BJ)
Cite in your paper:
S.Grimme, S.Ehrlich, L.Goerigk, J Comput Chem, (2011), 32, 1456–1465 
S.Grimme, J.Antony, S.Ehrlich and H.Krieg, J.Chem.Phys., 132, (2010), 154104 
   

================================================================================

----- Orbital basis set information -----
Your calculation utilizes the basis: def2-TZVP
   F. Weigend and R. Ahlrichs, Phys. Chem. Chem. Phys. 7, 3297 (2005).

----- AuxJ basis set information -----
Your calculation utilizes the auxiliary basis: def2/J
   F. Weigend, Phys. Chem. Chem. Phys. 8, 1057 (2006).

================================================================================
                                        WARNINGS
                       Please study these warnings very carefully!
================================================================================

WARNING: Gradients needed for Numerical Frequencies
  ===> : Setting RunTyp to EnGrad

WARNING: The environment variable RSH_COMMAND is not set!
  ===> : All Displacements for the Numerical Hessian calculation
         will be started on localhost

INFO   : the flag for use of the SHARK integral package has been found!

================================================================================
                                       INPUT FILE
================================================================================
NAME = /home/rudenko/mopac_kie/for_orca/CH3NO2_H2O_near/orca/start_freq_D/start_f_D.inp
|  1> !  NUMFREQ B3LYP def2-TZVP CPCM D3 
|  2> %pal nprocs 18 end
|  3> %cpcm epsilon 78.4 end 
|  4> *xyz 0 1 
|  5> C   0.53718366791371 -0.85510417312979 0.39442541633536
|  6> H   0.67897126752168 -1.75667571143495 -0.192162478266
|  7> H   1.01696030764946 -0.00980255047892 -0.09617063360082
|  8> H   0.87997962124491 -0.96189468995881 1.41630267011959 M = 2
|  9> N   -0.92465725062461 -0.55335603714967 0.42208244154224
| 10> O   -1.40918389993222 -0.14173520998524 1.46418776252197
| 11> O   -1.55455538458488 -0.71487559149105 -0.61108572696602
| 12> H   3.66652000177299 -0.8963847885935 -0.24616489632751
| 13> O   3.79612583755679 -1.51054577273253 0.4871474076621
| 14> H   3.61434583148215 -0.98326547504551 1.27472803697909
| 15> *
| 16> 
| 17>                          ****END OF INPUT****
================================================================================

                     *******************************
                     * Energy+Gradient Calculation *
                     *******************************

---------------------------------
CARTESIAN COORDINATES (ANGSTROEM)
---------------------------------
  C      0.537184   -0.855104    0.394425
  H      0.678971   -1.756676   -0.192162
  H      1.016960   -0.009803   -0.096171
  H      0.879980   -0.961895    1.416303
  N     -0.924657   -0.553356    0.422082
  O     -1.409184   -0.141735    1.464188
  O     -1.554555   -0.714876   -0.611086
  H      3.666520   -0.896385   -0.246165
  O      3.796126   -1.510546    0.487147
  H      3.614346   -0.983265    1.274728

----------------------------
CARTESIAN COORDINATES (A.U.)
----------------------------
  NO LB      ZA    FRAG     MASS         X           Y           Z
   0 C     6.0000    0    12.011    1.015130   -1.615913    0.745356
   1 H     1.0000    0     1.008    1.283070   -3.319636   -0.363134
   2 H     1.0000    0     1.008    1.921776   -0.018524   -0.181736
   3 H     1.0000    0     2.000    1.662920   -1.817718    2.676424
   4 N     7.0000    0    14.007   -1.747349   -1.045691    0.797620
   5 O     8.0000    0    15.999   -2.662972   -0.267841    2.766914
   6 O     8.0000    0    15.999   -2.937684   -1.350919   -1.154785
   7 H     1.0000    0     1.008    6.928719   -1.693922   -0.465184
   8 O     8.0000    0    15.999    7.173638   -2.854518    0.920575
   9 H     1.0000    0     1.008    6.830124   -1.858102    2.408887

--------------------------------
INTERNAL COORDINATES (ANGSTROEM)
--------------------------------
 C      0   0   0     0.000000000000     0.00000000     0.00000000
 H      1   0   0     1.084905673401     0.00000000     0.00000000
 H      1   2   0     1.088763032760   110.11876049     0.00000000
 H      1   2   3     1.083118830926   112.75636185   235.11283604
 N      1   2   3     1.492915174993   107.81543989   115.73414443
 O      5   1   2     1.220729814193   118.20463587   140.67780776
 O      5   1   2     1.220777084492   117.56926745   319.49647568
 H      3   1   2     2.797980149414   101.27000376   301.65549159
 O      8   3   1     0.965265933456   106.74005212   332.55115322
 H      9   8   3     0.965065661296   104.30362641   300.17379601

---------------------------
INTERNAL COORDINATES (A.U.)
---------------------------
 C      0   0   0     0.000000000000     0.00000000     0.00000000
 H      1   0   0     2.050174603865     0.00000000     0.00000000
 H      1   2   0     2.057463956654   110.11876049     0.00000000
 H      1   2   3     2.046797960943   112.75636185   235.11283604
 N      1   2   3     2.821200821911   107.81543989   115.73414443
 O      5   1   2     2.306845032337   118.20463587   140.67780776
 O      5   1   2     2.306934360256   117.56926745   319.49647568
 H      3   1   2     5.287416210541   101.27000376   301.65549159
 O      8   3   1     1.824088260635   106.74005212   332.55115322
 H      9   8   3     1.823709801101   104.30362641   300.17379601

---------------------
BASIS SET INFORMATION
---------------------
There are 4 groups of distinct atoms

 Group   1 Type C   : 11s6p2d1f contracted to 5s3p2d1f pattern {62111/411/11/1}
 Group   2 Type H   : 5s1p contracted to 3s1p pattern {311/1}
 Group   3 Type N   : 11s6p2d1f contracted to 5s3p2d1f pattern {62111/411/11/1}
 Group   4 Type O   : 11s6p2d1f contracted to 5s3p2d1f pattern {62111/411/11/1}

Atom   0C    basis set group =>   1
Atom   1H    basis set group =>   2
Atom   2H    basis set group =>   2
Atom   3H    basis set group =>   2
Atom   4N    basis set group =>   3
Atom   5O    basis set group =>   4
Atom   6O    basis set group =>   4
Atom   7H    basis set group =>   2
Atom   8O    basis set group =>   4
Atom   9H    basis set group =>   2
---------------------------------
AUXILIARY/J BASIS SET INFORMATION
---------------------------------
There are 4 groups of distinct atoms

 Group   1 Type C   : 12s5p4d2f1g contracted to 6s4p3d1f1g pattern {711111/2111/211/2/1}
 Group   2 Type H   : 5s2p1d contracted to 3s1p1d pattern {311/2/1}
 Group   3 Type N   : 12s5p4d2f1g contracted to 6s4p3d1f1g pattern {711111/2111/211/2/1}
 Group   4 Type O   : 12s5p4d2f1g contracted to 6s4p3d1f1g pattern {711111/2111/211/2/1}

Atom   0C    basis set group =>   1
Atom   1H    basis set group =>   2
Atom   2H    basis set group =>   2
Atom   3H    basis set group =>   2
Atom   4N    basis set group =>   3
Atom   5O    basis set group =>   4
Atom   6O    basis set group =>   4
Atom   7H    basis set group =>   2
Atom   8O    basis set group =>   4
Atom   9H    basis set group =>   2


           ************************************************************
           *        Program running with 18 parallel MPI-processes    *
           *              working on a common directory               *
           ************************************************************
------------------------------------------------------------------------------
                           ORCA GTO INTEGRAL CALCULATION
                           -- RI-GTO INTEGRALS CHOSEN --
------------------------------------------------------------------------------
------------------------------------------------------------------------------
                   ___                                                        
                  /   \      - P O W E R E D   B Y -                         
                 /     \                                                     
                 |  |  |   _    _      __       _____    __    __             
                 |  |  |  | |  | |    /  \     |  _  \  |  |  /  |          
                  \  \/   | |  | |   /    \    | | | |  |  | /  /          
                 / \  \   | |__| |  /  /\  \   | |_| |  |  |/  /          
                |  |  |   |  __  | /  /__\  \  |    /   |      \           
                |  |  |   | |  | | |   __   |  |    \   |  |\   \          
                \     /   | |  | | |  |  |  |  | |\  \  |  | \   \       
                 \___/    |_|  |_| |__|  |__|  |_| \__\ |__|  \__/        
                                                                              
                      - O R C A' S   B I G   F R I E N D -                    
                                      &                                       
                       - I N T E G R A L  F E E D E R -                       
                                                                              
 v1 FN, 2020, v2 2021                                                         
------------------------------------------------------------------------------


Reading SHARK input file /home/rudenko/mopac_kie/for_orca/CH3NO2_H2O_near/orca/start_freq_D/start_f_D.SHARKINP.tmp ... ok
----------------------
SHARK INTEGRAL PACKAGE
----------------------

Number of atoms                             ...     10
Number of basis functions                   ...    185
Number of shells                            ...     75
Maximum angular momentum                    ...      3
Integral batch strategy                     ... SHARK/LIBINT Hybrid
RI-J (if used) integral strategy            ... SPLIT-RIJ (Revised 2003 algorithm where possible)
Printlevel                                  ...      1
Contraction scheme used                     ... SEGMENTED contraction
Coulomb Range Separation                    ... NOT USED
Exchange Range Separation                   ... NOT USED
Finite Nucleus Model                        ... NOT USED
Auxiliary Coulomb fitting basis             ... AVAILABLE
   # of basis functions in Aux-J            ...    300
   # of shells in Aux-J                     ...    100
   Maximum angular momentum in Aux-J        ...      4
Auxiliary J/K fitting basis                 ... NOT available
Auxiliary Correlation fitting basis         ... NOT available
Auxiliary 'external' fitting basis          ... NOT available
Integral threshold                          ...     2.500000e-11
Primitive cut-off                           ...     2.500000e-12
Primitive pair pre-selection threshold      ...     2.500000e-12

Calculating pre-screening integrals         ... done (  0.2 sec) Dimension = 75
Organizing shell pair data                  ... done (  0.0 sec)
Shell pair information
Total number of shell pairs                 ...      2850
Shell pairs after pre-screening             ...      2487
Total number of primitive shell pairs       ...      8640
Primitive shell pairs kept                  ...      5825
          la=0 lb=0:    707 shell pairs
          la=1 lb=0:    722 shell pairs
          la=1 lb=1:    193 shell pairs
          la=2 lb=0:    340 shell pairs
          la=2 lb=1:    174 shell pairs
          la=2 lb=2:     45 shell pairs
          la=3 lb=0:    170 shell pairs
          la=3 lb=1:     84 shell pairs
          la=3 lb=2:     40 shell pairs
          la=3 lb=3:     12 shell pairs

Calculating one electron integrals          ... done (  0.0 sec)
Calculating RI/J V-Matrix + Cholesky decomp.... done (  0.1 sec)
Calculating Nuclear repulsion               ... done (  0.0 sec) ENN=    172.116379286075 Eh

SHARK setup successfully completed in   0.4 seconds

Maximum memory used throughout the entire GTOINT-calculation: 13.8 MB


           ************************************************************
           *        Program running with 18 parallel MPI-processes    *
           *              working on a common directory               *
           ************************************************************
-------------------------------------------------------------------------------
                                 ORCA SCF
-------------------------------------------------------------------------------

------------
SCF SETTINGS
------------
Hamiltonian:
 Density Functional     Method          .... DFT(GTOs)
 Exchange Functional    Exchange        .... B88
   X-Alpha parameter    XAlpha          ....  0.666667
   Becke's b parameter  XBeta           ....  0.004200
 Correlation Functional Correlation     .... LYP
 LDA part of GGA corr.  LDAOpt          .... VWN-5
 Gradients option       PostSCFGGA      .... off
 Hybrid DFT is turned on
   Fraction HF Exchange ScalHFX         ....  0.200000
   Scaling of DF-GGA-X  ScalDFX         ....  0.720000
   Scaling of DF-GGA-C  ScalDFC         ....  0.810000
   Scaling of DF-LDA-C  ScalLDAC        ....  1.000000
   Perturbative correction              ....  0.000000
   Density functional embedding theory  .... OFF
   NL short-range parameter             ....  4.800000
 RI-approximation to the Coulomb term is turned on
   Number of AuxJ basis functions       .... 300
   RIJ-COSX (HFX calculated with COS-X)).... on


General Settings:
 Integral files         IntName         .... /home/rudenko/mopac_kie/for_orca/CH3NO2_H2O_near/orca/start_freq_D/start_f_D
 Hartree-Fock type      HFTyp           .... RHF
 Total Charge           Charge          ....    0
 Multiplicity           Mult            ....    1
 Number of Electrons    NEL             ....   42
 Basis Dimension        Dim             ....  185
 Nuclear Repulsion      ENuc            ....    172.1163792861 Eh

Convergence Acceleration:
 DIIS                   CNVDIIS         .... on
   Start iteration      DIISMaxIt       ....    12
   Startup error        DIISStart       ....  0.200000
   # of expansion vecs  DIISMaxEq       ....     5
   Bias factor          DIISBfac        ....   1.050
   Max. coefficient     DIISMaxC        ....  10.000
 Trust-Rad. Augm. Hess. CNVTRAH         .... auto
   Auto Start mean grad. ratio tolernc. ....  1.125000
   Auto Start start iteration           ....    20
   Auto Start num. interpolation iter.  ....    10
   Max. Number of Micro iterations      ....    16
   Max. Number of Macro iterations      .... Maxiter - #DIIS iter
   Number of Davidson start vectors     ....     2
   Converg. threshold I  (grad. norm)   ....   1.000e-05
   Converg. threshold II (energy diff.) ....   1.000e-08
   Grad. Scal. Fac. for Micro threshold ....   0.100
   Minimum threshold for Micro iter.    ....   0.010
   NR start threshold (gradient norm)   ....   0.001
   Initial trust radius                 ....   0.400
   Minimum AH scaling param. (alpha)    ....   1.000
   Maximum AH scaling param. (alpha)    .... 1000.000
   Orbital update algorithm             .... Taylor
   White noise on init. David. guess    .... on
   Maximum white noise                  ....   0.010
   Quad. conv. algorithm                .... NR
 SOSCF                  CNVSOSCF        .... on
   Start iteration      SOSCFMaxIt      ....   150
   Startup grad/error   SOSCFStart      ....  0.003300
 Level Shifting         CNVShift        .... on
   Level shift para.    LevelShift      ....    0.2500
   Turn off err/grad.   ShiftErr        ....    0.0010
 Zerner damping         CNVZerner       .... off
 Static damping         CNVDamp         .... on
   Fraction old density DampFac         ....    0.7000
   Max. Damping (<1)    DampMax         ....    0.9800
   Min. Damping (>=0)   DampMin         ....    0.0000
   Turn off err/grad.   DampErr         ....    0.1000
 Fernandez-Rico         CNVRico         .... off

SCF Procedure:
 Maximum # iterations   MaxIter         ....   125
 SCF integral mode      SCFMode         .... Direct
   Integral package                     .... SHARK and LIBINT hybrid scheme
 Reset frequency        DirectResetFreq ....    20
 Integral Threshold     Thresh          ....  2.500e-11 Eh
 Primitive CutOff       TCut            ....  2.500e-12 Eh

Convergence Tolerance:
 Convergence Check Mode ConvCheckMode   .... Total+1el-Energy
 Convergence forced     ConvForced      .... 0
 Energy Change          TolE            ....  1.000e-08 Eh
 1-El. energy change                    ....  1.000e-05 Eh
 Orbital Gradient       TolG            ....  1.000e-05
 Orbital Rotation angle TolX            ....  1.000e-05
 DIIS Error             TolErr          ....  5.000e-07


Diagonalization of the overlap matrix:
Smallest eigenvalue                        ... 8.543e-04
Time for diagonalization                   ...    0.015 sec
Threshold for overlap eigenvalues          ... 1.000e-08
Number of eigenvalues below threshold      ... 0
Time for construction of square roots      ...    0.010 sec
Total time needed                          ...    0.026 sec

Time for model grid setup =    0.054 sec

------------------------------
INITIAL GUESS: MODEL POTENTIAL
------------------------------
Loading Hartree-Fock densities                     ... done
Calculating cut-offs                               ... done
Initializing the effective Hamiltonian             ... done
Setting up the integral package (SHARK)            ... done
Starting the Coulomb interaction                   ... done (   0.1 sec)
Reading the grid                                   ... done
Mapping shells                                     ... done
Starting the XC term evaluation                    ... done (   0.0 sec)
  promolecular density results
     # of electrons  =     41.997755643
     EX              =    -37.760976998
     EC              =     -1.456412273
     EX+EC           =    -39.217389271
Transforming the Hamiltonian                       ... done (   0.0 sec)
Diagonalizing the Hamiltonian                      ... done (   0.0 sec)
Back transforming the eigenvectors                 ... done (   0.0 sec)
Now organizing SCF variables                       ... done
                      ------------------
                      INITIAL GUESS DONE (   0.2 sec)
                      ------------------
-------------------
DFT GRID GENERATION
-------------------

General Integration Accuracy     IntAcc      ... 4.388
Radial Grid Type                 RadialGrid  ... OptM3 with GC (2021)
Angular Grid (max. ang.)         AngularGrid ... 4 (Lebedev-302)
Angular grid pruning method      GridPruning ... 4 (adaptive)
Weight generation scheme         WeightScheme... Becke
Basis function cutoff            BFCut       ... 1.0000e-11
Integration weight cutoff        WCut        ... 1.0000e-14
Angular grids for H and He will be reduced by one unit
Partially contracted basis set               ... off
Rotationally invariant grid construction     ... off

Total number of grid points                  ...    46818
Total number of batches                      ...      737
Average number of points per batch           ...       63
Average number of grid points per atom       ...     4682
Time for grid setup =    0.240 sec

--------------------
COSX GRID GENERATION
--------------------

GRIDX 1
-------
General Integration Accuracy     IntAcc      ... 3.816
Radial Grid Type                 RadialGrid  ... OptM3 with GC (2021)
Angular Grid (max. ang.)         AngularGrid ... 1 (Lebedev-50)
Angular grid pruning method      GridPruning ... 4 (adaptive)
Weight generation scheme         WeightScheme... Becke
Basis function cutoff            BFCut       ... 1.0000e-11
Integration weight cutoff        WCut        ... 1.0000e-14
Angular grids for H and He will be reduced by one unit
Partially contracted basis set               ... on
Rotationally invariant grid construction     ... off

Total number of grid points                  ...     6009
Total number of batches                      ...       99
Average number of points per batch           ...       60
Average number of grid points per atom       ...      601
UseSFitting                                  ... on

GRIDX 2
-------
General Integration Accuracy     IntAcc      ... 4.020
Radial Grid Type                 RadialGrid  ... OptM3 with GC (2021)
Angular Grid (max. ang.)         AngularGrid ... 2 (Lebedev-110)
Angular grid pruning method      GridPruning ... 4 (adaptive)
Weight generation scheme         WeightScheme... Becke
Basis function cutoff            BFCut       ... 1.0000e-11
Integration weight cutoff        WCut        ... 1.0000e-14
Angular grids for H and He will be reduced by one unit
Partially contracted basis set               ... on
Rotationally invariant grid construction     ... off

Total number of grid points                  ...    13198
Total number of batches                      ...      212
Average number of points per batch           ...       62
Average number of grid points per atom       ...     1320
UseSFitting                                  ... on

GRIDX 3
-------
General Integration Accuracy     IntAcc      ... 4.338
Radial Grid Type                 RadialGrid  ... OptM3 with GC (2021)
Angular Grid (max. ang.)         AngularGrid ... 3 (Lebedev-194)
Angular grid pruning method      GridPruning ... 4 (adaptive)
Weight generation scheme         WeightScheme... Becke
Basis function cutoff            BFCut       ... 1.0000e-11
Integration weight cutoff        WCut        ... 1.0000e-14
Angular grids for H and He will be reduced by one unit
Partially contracted basis set               ... on
Rotationally invariant grid construction     ... off

Total number of grid points                  ...    29071
Total number of batches                      ...      461
Average number of points per batch           ...       63
Average number of grid points per atom       ...     2907
UseSFitting                                  ... on

Time for X-Grid setup             =    0.187 sec


--------------------
CPCM SOLVATION MODEL
--------------------
CPCM parameters:
  Epsilon                                         ...      78.4000
  Refrac                                          ...       1.3300
  Rsolv                                           ...       1.3000
  Surface type                                    ... GAUSSIAN VDW
  Epsilon function type                           ...         CPCM
Radii:
 Radius for C  used is    3.8550 Bohr (=   2.0400 Ang.)
 Radius for H  used is    2.4944 Bohr (=   1.3200 Ang.)
 Radius for N  used is    3.5149 Bohr (=   1.8600 Ang.)
 Radius for O  used is    3.4469 Bohr (=   1.8240 Ang.)
Calculating surface                               ...        done! (  0.0s)
GEPOL surface points                              ...          691
GEPOL Volume                                      ...     683.2835
GEPOL Surface-area                                ...     475.0217
Calculating surface distance matrix               ...        done! (  0.0s)
Performing Cholesky decomposition & store         ...        done! (  0.0s)
Overall time for CPCM initialization              ...                 0.0s
--------------
SCF ITERATIONS
--------------
ITER       Energy         Delta-E        Max-DP      RMS-DP      [F,P]     Damp
               ***  Starting incremental Fock matrix formation  ***
  0   -321.1991099515   0.000000000000 0.05507264  0.00150465  0.3385780 0.7000
  1   -321.3243883074  -0.125278355850 0.03071427  0.00091748  0.1333021 0.7000
                               ***Turning on DIIS***
  2   -321.3630847961  -0.038696488767 0.04011068  0.00116467  0.0332078 0.0000
  3   -321.4381162641  -0.075031467914 0.02127422  0.00062174  0.0790198 0.0000
  4   -321.4490150332  -0.010898769105 0.00847446  0.00020331  0.0166576 0.0000
                      *** Initiating the SOSCF procedure ***
                           *** Shutting down DIIS ***
                      *** Re-Reading the Fockian *** 
                      *** Removing any level shift *** 
ITER      Energy       Delta-E        Grad      Rot      Max-DP    RMS-DP
  5   -321.44974918  -0.0007341434  0.000795  0.000795  0.002304  0.000057
               *** Restarting incremental Fock matrix formation ***
  6   -321.44975402  -0.0000048386  0.000648  0.001086  0.002050  0.000047
  7   -321.44974438   0.0000096384  0.001280  0.000999  0.000739  0.000021
  8   -321.44976083  -0.0000164483  0.000122  0.000219  0.000189  0.000005
  9   -321.44976060   0.0000002274  0.000181  0.000132  0.000131  0.000003
 10   -321.44976096  -0.0000003666  0.000024  0.000089  0.000056  0.000001
 11   -321.44976095   0.0000000170  0.000060  0.000069  0.000036  0.000001
 12   -321.44976097  -0.0000000196  0.000006  0.000008  0.000013  0.000000
 13   -321.44976097  -0.0000000003  0.000008  0.000005  0.000007  0.000000
                 **** Energy Check signals convergence ****
              ***Rediagonalizing the Fockian in SOSCF/NRSCF***

               *****************************************************
               *                     SUCCESS                       *
               *           SCF CONVERGED AFTER  14 CYCLES          *
               *****************************************************

Old exchange energy                            =     -7.622317348 Eh
New exchange energy                            =     -7.622310859 Eh
Exchange energy change after final integration =      0.000006489 Eh
Total energy after final integration           =   -321.449754478 Eh
Final COS-X integration done in                =     0.471 sec

----------------
TOTAL SCF ENERGY
----------------

Total Energy       :         -321.44975448 Eh           -8747.09251 eV

Components:
Nuclear Repulsion  :          172.11637929 Eh            4683.52479 eV
Electronic Energy  :         -493.56613376 Eh          -13430.61730 eV
One Electron Energy:         -780.30302949 Eh          -21233.12490 eV
Two Electron Energy:          286.73689573 Eh            7802.50760 eV
Max COSX asymmetry :            0.00000119 Eh               0.00003 eV
CPCM Dielectric    :           -0.02587886 Eh              -0.70420 eV

Virial components:
Potential Energy   :         -641.66255962 Eh          -17460.52592 eV
Kinetic Energy     :          320.21280514 Eh            8713.43341 eV
Virial Ratio       :            2.00386290


DFT components:
N(Alpha)           :       20.999994904896 electrons
N(Beta)            :       20.999994904896 electrons
N(Total)           :       41.999989809791 electrons
E(X)               :      -30.411508544202 Eh       
E(C)               :       -1.722438112740 Eh       
E(XC)              :      -32.133946656942 Eh       
DFET-embed. en.    :        0.000000000000 Eh       
CPCM Solvation Model Properties:
Surface-charge          :           -0.01374139
Charge-correction       :            0.00020765 Eh               0.00565 eV
Free-energy (cav+disp)  :  This term is not implemented in the current solvation scheme

---------------
SCF CONVERGENCE
---------------

  Last Energy change         ...   -2.1987e-10  Tolerance :   1.0000e-08
  Last MAX-Density change    ...    1.0424e-15  Tolerance :   1.0000e-07
  Last RMS-Density change    ...    2.2576e-17  Tolerance :   5.0000e-09
  Last Orbital Gradient      ...    2.3219e-07  Tolerance :   1.0000e-05
  Last Orbital Rotation      ...    3.1916e-07  Tolerance :   1.0000e-05

             **** THE GBW FILE WAS UPDATED (/home/rudenko/mopac_kie/for_orca/CH3NO2_H2O_near/orca/start_freq_D/start_f_D.gbw) ****
             **** DENSITY /home/rudenko/mopac_kie/for_orca/CH3NO2_H2O_near/orca/start_freq_D/start_f_D.scfp WAS UPDATED ****
             **** ENERGY FILE WAS UPDATED (/home/rudenko/mopac_kie/for_orca/CH3NO2_H2O_near/orca/start_freq_D/start_f_D.en.tmp) ****
             **** THE GBW FILE WAS UPDATED (/home/rudenko/mopac_kie/for_orca/CH3NO2_H2O_near/orca/start_freq_D/start_f_D.gbw) ****
             **** DENSITY /home/rudenko/mopac_kie/for_orca/CH3NO2_H2O_near/orca/start_freq_D/start_f_D.scfp WAS UPDATED ****
----------------
ORBITAL ENERGIES
----------------

  NO   OCC          E(Eh)            E(eV) 
   0   2.0000     -19.171459      -521.6819 
   1   2.0000     -19.170360      -521.6520 
   2   2.0000     -19.124304      -520.3988 
   3   2.0000     -14.558895      -396.1677 
   4   2.0000     -10.220146      -278.1043 
   5   2.0000      -1.243022       -33.8244 
   6   2.0000      -1.069125       -29.0924 
   7   2.0000      -1.008053       -27.4305 
   8   2.0000      -0.812655       -22.1135 
   9   2.0000      -0.624534       -16.9944 
  10   2.0000      -0.555443       -15.1144 
  11   2.0000      -0.544576       -14.8187 
  12   2.0000      -0.534223       -14.5370 
  13   2.0000      -0.525143       -14.2899 
  14   2.0000      -0.439145       -11.9497 
  15   2.0000      -0.421501       -11.4696 
  16   2.0000      -0.392717       -10.6864 
  17   2.0000      -0.332107        -9.0371 
  18   2.0000      -0.326181        -8.8758 
  19   2.0000      -0.315112        -8.5746 
  20   2.0000      -0.309316        -8.4169 
  21   0.0000      -0.081291        -2.2120 
  22   0.0000       0.024436         0.6649 
  23   0.0000       0.069959         1.9037 
  24   0.0000       0.094833         2.5805 
  25   0.0000       0.119030         3.2390 
  26   0.0000       0.128599         3.4993 
  27   0.0000       0.145479         3.9587 
  28   0.0000       0.178044         4.8448 
  29   0.0000       0.201392         5.4802 
  30   0.0000       0.218916         5.9570 
  31   0.0000       0.245964         6.6930 
  32   0.0000       0.307242         8.3605 
  33   0.0000       0.346030         9.4160 
  34   0.0000       0.352495         9.5919 
  35   0.0000       0.361416         9.8346 
  36   0.0000       0.387232        10.5371 
  37   0.0000       0.409478        11.1425 
  38   0.0000       0.414089        11.2679 
  39   0.0000       0.433169        11.7871 
  40   0.0000       0.437940        11.9169 
  41   0.0000       0.445164        12.1135 
  42   0.0000       0.450529        12.2595 
  43   0.0000       0.467833        12.7304 
  44   0.0000       0.491599        13.3771 
  45   0.0000       0.510485        13.8910 
  46   0.0000       0.525047        14.2873 
  47   0.0000       0.533680        14.5222 
  48   0.0000       0.562778        15.3140 
  49   0.0000       0.584217        15.8974 
  50   0.0000       0.592550        16.1241 
  51   0.0000       0.613368        16.6906 
  52   0.0000       0.673433        18.3250 
  53   0.0000       0.713080        19.4039 
  54   0.0000       0.782892        21.3036 
  55   0.0000       0.825715        22.4689 
  56   0.0000       0.874153        23.7869 
  57   0.0000       0.925879        25.1945 
  58   0.0000       0.984717        26.7955 
  59   0.0000       1.021171        27.7875 
  60   0.0000       1.136552        30.9271 
  61   0.0000       1.152990        31.3744 
  62   0.0000       1.180969        32.1358 
  63   0.0000       1.208924        32.8965 
  64   0.0000       1.284803        34.9613 
  65   0.0000       1.326375        36.0925 
  66   0.0000       1.360157        37.0117 
  67   0.0000       1.384163        37.6650 
  68   0.0000       1.487314        40.4719 
  69   0.0000       1.493495        40.6401 
  70   0.0000       1.504978        40.9525 
  71   0.0000       1.536820        41.8190 
  72   0.0000       1.550124        42.1810 
  73   0.0000       1.580116        42.9972 
  74   0.0000       1.607343        43.7380 
  75   0.0000       1.611484        43.8507 
  76   0.0000       1.661623        45.2151 
  77   0.0000       1.694242        46.1027 
  78   0.0000       1.738652        47.3111 
  79   0.0000       1.759310        47.8733 
  80   0.0000       1.765717        48.0476 
  81   0.0000       1.905180        51.8426 
  82   0.0000       1.923981        52.3542 
  83   0.0000       1.931926        52.5704 
  84   0.0000       1.975577        53.7582 
  85   0.0000       2.012948        54.7751 
  86   0.0000       2.020110        54.9700 
  87   0.0000       2.050033        55.7842 
  88   0.0000       2.105447        57.2921 
  89   0.0000       2.110912        57.4408 
  90   0.0000       2.132210        58.0204 
  91   0.0000       2.169742        59.0417 
  92   0.0000       2.194425        59.7133 
  93   0.0000       2.227724        60.6194 
  94   0.0000       2.258257        61.4503 
  95   0.0000       2.285822        62.2004 
  96   0.0000       2.316252        63.0284 
  97   0.0000       2.355030        64.0836 
  98   0.0000       2.390995        65.0623 
  99   0.0000       2.499320        68.0100 
 100   0.0000       2.538964        69.0887 
 101   0.0000       2.565549        69.8121 
 102   0.0000       2.571364        69.9704 
 103   0.0000       2.581908        70.2573 
 104   0.0000       2.597706        70.6872 
 105   0.0000       2.612943        71.1018 
 106   0.0000       2.659956        72.3811 
 107   0.0000       2.686141        73.0936 
 108   0.0000       2.711593        73.7862 
 109   0.0000       2.721846        74.0652 
 110   0.0000       2.842109        77.3377 
 111   0.0000       2.859895        77.8217 
 112   0.0000       2.906833        79.0989 
 113   0.0000       2.979343        81.0720 
 114   0.0000       2.999320        81.6156 
 115   0.0000       3.056923        83.1831 
 116   0.0000       3.139914        85.4414 
 117   0.0000       3.212635        87.4202 
 118   0.0000       3.220219        87.6266 
 119   0.0000       3.340808        90.9080 
 120   0.0000       3.407883        92.7332 
 121   0.0000       3.450824        93.9017 
 122   0.0000       3.482757        94.7706 
 123   0.0000       3.550554        96.6155 
 124   0.0000       3.653949        99.4290 
 125   0.0000       3.725006       101.3626 
 126   0.0000       3.767137       102.5090 
 127   0.0000       3.920389       106.6792 
 128   0.0000       3.975796       108.1869 
 129   0.0000       4.016991       109.3079 
 130   0.0000       4.081473       111.0625 
 131   0.0000       4.146492       112.8318 
 132   0.0000       4.263245       116.0088 
 133   0.0000       4.411416       120.0407 
 134   0.0000       4.535007       123.4038 
 135   0.0000       4.545352       123.6853 
 136   0.0000       4.603788       125.2755 
 137   0.0000       4.662728       126.8793 
 138   0.0000       4.748719       129.2192 
 139   0.0000       4.796180       130.5107 
 140   0.0000       4.884281       132.9081 
 141   0.0000       5.056073       137.5827 
 142   0.0000       5.075380       138.1081 
 143   0.0000       5.095148       138.6460 
 144   0.0000       5.111974       139.1039 
 145   0.0000       5.125767       139.4792 
 146   0.0000       5.130172       139.5991 
 147   0.0000       5.199126       141.4754 
 148   0.0000       5.272080       143.4606 
 149   0.0000       5.285099       143.8148 
 150   0.0000       5.303292       144.3099 
 151   0.0000       5.374647       146.2516 
 152   0.0000       5.400819       146.9638 
 153   0.0000       5.452445       148.3686 
 154   0.0000       5.554533       151.1465 
 155   0.0000       5.598873       152.3531 
 156   0.0000       5.675721       154.4442 
 157   0.0000       5.921922       161.1437 
 158   0.0000       6.016915       163.7286 
 159   0.0000       6.200964       168.7368 
 160   0.0000       6.220235       169.2612 
 161   0.0000       6.258724       170.3085 
 162   0.0000       6.308445       171.6615 
 163   0.0000       6.321777       172.0243 
 164   0.0000       6.326440       172.1512 
 165   0.0000       6.336454       172.4237 
 166   0.0000       6.360426       173.0760 
 167   0.0000       6.400279       174.1605 
 168   0.0000       6.423902       174.8032 
 169   0.0000       6.625164       180.2799 
 170   0.0000       6.835098       185.9925 
 171   0.0000       6.854799       186.5286 
 172   0.0000       6.897322       187.6857 
 173   0.0000       6.911361       188.0677 
 174   0.0000       6.990734       190.2275 
 175   0.0000       7.066907       192.3003 
 176   0.0000       7.206553       196.1003 
 177   0.0000       7.240267       197.0177 
 178   0.0000       7.293529       198.4670 
 179   0.0000       7.368022       200.4941 
 180   0.0000      22.332861       607.7080 
 181   0.0000      32.302490       878.9954 
 182   0.0000      43.269909      1177.4341 
 183   0.0000      43.881589      1194.0787 
 184   0.0000      43.909160      1194.8290 

                    ********************************
                    * MULLIKEN POPULATION ANALYSIS *
                    ********************************

-----------------------
MULLIKEN ATOMIC CHARGES
-----------------------
   0 C :   -0.270577
   1 H :    0.171930
   2 H :    0.179424
   3 H :    0.163535
   4 N :    0.431318
   5 O :   -0.348573
   6 O :   -0.347832
   7 H :    0.361171
   8 O :   -0.701113
   9 H :    0.360717
Sum of atomic charges:   -0.0000000

--------------------------------
MULLIKEN REDUCED ORBITAL CHARGES
--------------------------------
  0 C s       :     3.290446  s :     3.290446
      pz      :     1.105493  p :     2.925885
      px      :     0.741226
      py      :     1.079166
      dz2     :     0.008179  d :     0.049058
      dxz     :     0.010472
      dyz     :     0.006534
      dx2y2   :     0.013811
      dxy     :     0.010061
      f0      :     0.000937  f :     0.005188
      f+1     :     0.000903
      f-1     :     0.000140
      f+2     :     0.000951
      f-2     :     0.000109
      f+3     :     0.001152
      f-3     :     0.000996
  1 H s       :     0.806508  s :     0.806508
      pz      :     0.007014  p :     0.021562
      px      :     0.003574
      py      :     0.010974
  2 H s       :     0.798723  s :     0.798723
      pz      :     0.006264  p :     0.021852
      px      :     0.005943
      py      :     0.009645
  3 H s       :     0.814844  s :     0.814844
      pz      :     0.012713  p :     0.021621
      px      :     0.004608
      py      :     0.004299
  4 N s       :     3.315282  s :     3.315282
      pz      :     0.871255  p :     3.000806
      px      :     1.064185
      py      :     1.065366
      dz2     :     0.075584  d :     0.238205
      dxz     :     0.059284
      dyz     :     0.054254
      dx2y2   :     0.026342
      dxy     :     0.022741
      f0      :     0.003874  f :     0.014389
      f+1     :     0.002278
      f-1     :     0.001776
      f+2     :     0.002722
      f-2     :     0.002360
      f+3     :     0.000679
      f-3     :     0.000700
  5 O s       :     3.878601  s :     3.878601
      pz      :     1.303401  p :     4.425472
      px      :     1.736052
      py      :     1.386019
      dz2     :     0.012534  d :     0.041231
      dxz     :     0.011275
      dyz     :     0.011117
      dx2y2   :     0.003079
      dxy     :     0.003225
      f0      :     0.000698  f :     0.003269
      f+1     :     0.000898
      f-1     :     0.000643
      f+2     :     0.000428
      f-2     :     0.000504
      f+3     :     0.000060
      f-3     :     0.000039
  6 O s       :     3.876585  s :     3.876585
      pz      :     1.308461  p :     4.426807
      px      :     1.656963
      py      :     1.461383
      dz2     :     0.012246  d :     0.041169
      dxz     :     0.013579
      dyz     :     0.008774
      dx2y2   :     0.002796
      dxy     :     0.003773
      f0      :     0.000669  f :     0.003271
      f+1     :     0.001123
      f-1     :     0.000406
      f+2     :     0.000434
      f-2     :     0.000530
      f+3     :     0.000046
      f-3     :     0.000064
  7 H s       :     0.592794  s :     0.592794
      pz      :     0.015431  p :     0.046036
      px      :     0.015342
      py      :     0.015263
  8 O s       :     3.808376  s :     3.808376
      pz      :     1.310499  p :     4.871954
      px      :     1.919158
      py      :     1.642297
      dz2     :     0.000150  d :     0.019495
      dxz     :     0.000924
      dyz     :     0.011904
      dx2y2   :     0.003958
      dxy     :     0.002559
      f0      :     0.000072  f :     0.001288
      f+1     :     0.000125
      f-1     :     0.000541
      f+2     :     0.000288
      f-2     :     0.000098
      f+3     :     0.000080
      f-3     :     0.000085
  9 H s       :     0.593259  s :     0.593259
      pz      :     0.016480  p :     0.046024
      px      :     0.015391
      py      :     0.014153


                     *******************************
                     * LOEWDIN POPULATION ANALYSIS *
                     *******************************

----------------------
LOEWDIN ATOMIC CHARGES
----------------------
   0 C :   -0.243266
   1 H :    0.135588
   2 H :    0.143890
   3 H :    0.131113
   4 N :   -0.067667
   5 O :   -0.058957
   6 O :   -0.060540
   7 H :    0.173203
   8 O :   -0.326309
   9 H :    0.172944

-------------------------------
LOEWDIN REDUCED ORBITAL CHARGES
-------------------------------
  0 C s       :     2.871541  s :     2.871541
      pz      :     1.119842  p :     3.086885
      px      :     0.863739
      py      :     1.103305
      dz2     :     0.045832  d :     0.251440
      dxz     :     0.048005
      dyz     :     0.033077
      dx2y2   :     0.073652
      dxy     :     0.050874
      f0      :     0.004182  f :     0.033400
      f+1     :     0.006406
      f-1     :     0.000740
      f+2     :     0.004798
      f-2     :     0.002365
      f+3     :     0.007961
      f-3     :     0.006948
  1 H s       :     0.799800  s :     0.799800
      pz      :     0.021856  p :     0.064612
      px      :     0.009982
      py      :     0.032775
  2 H s       :     0.791463  s :     0.791463
      pz      :     0.019243  p :     0.064646
      px      :     0.015954
      py      :     0.029450
  3 H s       :     0.804290  s :     0.804290
      pz      :     0.038493  p :     0.064597
      px      :     0.012479
      py      :     0.013625
  4 N s       :     2.952787  s :     2.952787
      pz      :     1.102209  p :     3.292821
      px      :     1.170436
      py      :     1.020176
      dz2     :     0.244933  d :     0.749365
      dxz     :     0.205345
      dyz     :     0.155422
      dx2y2   :     0.078593
      dxy     :     0.065072
      f0      :     0.019684  f :     0.072694
      f+1     :     0.011950
      f-1     :     0.007938
      f+2     :     0.014658
      f-2     :     0.012814
      f+3     :     0.002751
      f-3     :     0.002897
  5 O s       :     3.504426  s :     3.504426
      pz      :     1.405732  p :     4.444689
      px      :     1.671870
      py      :     1.367087
      dz2     :     0.031466  d :     0.098803
      dxz     :     0.029033
      dyz     :     0.024704
      dx2y2   :     0.006254
      dxy     :     0.007346
      f0      :     0.002447  f :     0.011039
      f+1     :     0.002903
      f-1     :     0.002314
      f+2     :     0.001291
      f-2     :     0.001717
      f+3     :     0.000174
      f-3     :     0.000193
  6 O s       :     3.503873  s :     3.503873
      pz      :     1.409777  p :     4.446793
      px      :     1.621164
      py      :     1.415851
      dz2     :     0.030728  d :     0.098828
      dxz     :     0.036278
      dyz     :     0.017540
      dx2y2   :     0.007807
      dxy     :     0.006475
      f0      :     0.002359  f :     0.011046
      f+1     :     0.003852
      f-1     :     0.001313
      f+2     :     0.001709
      f-2     :     0.001408
      f+3     :     0.000212
      f-3     :     0.000192
  7 H s       :     0.667282  s :     0.667282
      pz      :     0.055183  p :     0.159515
      px      :     0.045854
      py      :     0.058478
  8 O s       :     3.459552  s :     3.459552
      pz      :     1.317029  p :     4.835543
      px      :     1.868537
      py      :     1.649977
      dz2     :     0.002205  d :     0.028868
      dxz     :     0.001593
      dyz     :     0.020472
      dx2y2   :     0.003156
      dxy     :     0.001441
      f0      :     0.000027  f :     0.002347
      f+1     :     0.000100
      f-1     :     0.001147
      f+2     :     0.000734
      f-2     :     0.000251
      f+3     :     0.000041
      f-3     :     0.000047
  9 H s       :     0.667439  s :     0.667439
      pz      :     0.060320  p :     0.159617
      px      :     0.046878
      py      :     0.052420


                      *****************************
                      * MAYER POPULATION ANALYSIS *
                      *****************************

  NA   - Mulliken gross atomic population
  ZA   - Total nuclear charge
  QA   - Mulliken gross atomic charge
  VA   - Mayer's total valence
  BVA  - Mayer's bonded valence
  FA   - Mayer's free valence

  ATOM       NA         ZA         QA         VA         BVA        FA
  0 C      6.2706     6.0000    -0.2706     3.7994     3.7994    -0.0000
  1 H      0.8281     1.0000     0.1719     0.9680     0.9680     0.0000
  2 H      0.8206     1.0000     0.1794     0.9675     0.9675     0.0000
  3 H      0.8365     1.0000     0.1635     0.9758     0.9758    -0.0000
  4 N      6.5687     7.0000     0.4313     4.1069     4.1069    -0.0000
  5 O      8.3486     8.0000    -0.3486     1.8963     1.8963    -0.0000
  6 O      8.3478     8.0000    -0.3478     1.8837     1.8837    -0.0000
  7 H      0.6388     1.0000     0.3612     0.8857     0.8857     0.0000
  8 O      8.7011     8.0000    -0.7011     1.8026     1.8026     0.0000
  9 H      0.6393     1.0000     0.3607     0.8858     0.8858    -0.0000

  Mayer bond orders larger than 0.100000
B(  0-C ,  1-H ) :   0.9462 B(  0-C ,  2-H ) :   0.9358 B(  0-C ,  3-H ) :   0.9529 
B(  0-C ,  4-N ) :   0.8745 B(  4-N ,  5-O ) :   1.6191 B(  4-N ,  6-O ) :   1.6094 
B(  5-O ,  6-O ) :   0.2110 B(  7-H ,  8-O ) :   0.8804 B(  8-O ,  9-H ) :   0.8805 


-------
TIMINGS
-------

Total SCF time: 0 days 0 hours 0 min 9 sec 

Total time                  ....       9.207 sec
Sum of individual times     ....       8.776 sec  ( 95.3%)

Fock matrix formation       ....       7.889 sec  ( 85.7%)
  Split-RI-J                ....       0.793 sec  ( 10.1% of F)
  Chain of spheres X        ....       3.692 sec  ( 46.8% of F)
  XC integration            ....       0.895 sec  ( 11.3% of F)
    Basis function eval.    ....       0.204 sec  ( 22.8% of XC)
    Density eval.           ....       0.151 sec  ( 16.9% of XC)
    XC-Functional eval.     ....       0.047 sec  (  5.3% of XC)
    XC-Potential eval.      ....       0.143 sec  ( 15.9% of XC)
Diagonalization             ....       0.084 sec  (  0.9%)
Density matrix formation    ....       0.011 sec  (  0.1%)
Population analysis         ....       0.012 sec  (  0.1%)
Initial guess               ....       0.150 sec  (  1.6%)
Orbital Transformation      ....       0.000 sec  (  0.0%)
Orbital Orthonormalization  ....       0.000 sec  (  0.0%)
DIIS solution               ....       0.056 sec  (  0.6%)
SOSCF solution              ....       0.094 sec  (  1.0%)
Grid generation             ....       0.481 sec  (  5.2%)

Maximum memory used throughout the entire SCF-calculation: 65.0 MB


-------------------------------------------------------------------------------
                          DFT DISPERSION CORRECTION                            
                                                                               
                              DFTD3 V3.1  Rev 1                                
                          USING Becke-Johnson damping                          
-------------------------------------------------------------------------------
The B3LYP functional is recognized
Active option DFTDOPT                   ...         4   

molecular C6(AA) [au] = 741.704529 


            DFT-D V3
 parameters
 s6 scaling factor         :     1.0000 
 a1 scaling factor         :     0.3981 
 s8 scaling factor         :     1.9889 
 a2 scaling factor         :     4.4211 
 ad hoc parameters k1-k3   :    16.0000     1.3333    -4.0000 

 Edisp/kcal,au: -4.917352953621  -0.007836299900 
 E6   /kcal   :  -2.493110506 
 E8   /kcal   :  -2.424242447 
 % E8         :  49.299744600 

-------------------------   ----------------
Dispersion correction           -0.007836300
-------------------------   ----------------


-------------------------   --------------------
FINAL SINGLE POINT ENERGY      -321.457590778107
-------------------------   --------------------



           ************************************************************
           *        Program running with 18 parallel MPI-processes    *
           *              working on a common directory               *
           ************************************************************
------------------------------------------------------------------------------
                         ORCA SCF GRADIENT CALCULATION
------------------------------------------------------------------------------

 ... reading COSX grid (gridx3)
Gradient of the Kohn-Sham DFT energy:
Kohn-Sham wavefunction type      ... RKS
Hartree-Fock exchange scaling    ...    0.200
Number of operators              ...    1
Number of atoms                  ...   10
Basis set dimensions             ...  185
Integral neglect threshold       ... 2.5e-11
Integral primitive cutoff        ... 2.5e-12
SHARK Integral package           ... ON

Nuc. rep. gradient       (SHARK) ... done (  0.0 sec)
HCore & Overlap gradient (SHARK) ... done (  0.0 sec)
RI-J gradient            (SHARK) ... done (  0.2 sec)
COSX-gradient                    ... done (  0.6 sec)
Exchange-correlation gradient    ... done
Dispersion correction            ... done

------------------
CARTESIAN GRADIENT
------------------

   1   C   :    0.000048412    0.000086404   -0.000140316
   2   H   :    0.000191850    0.000206113   -0.000013225
   3   H   :    0.000104934   -0.000199305   -0.000131157
   4   H   :   -0.000220713    0.000046828   -0.000107468
   5   N   :   -0.000580926   -0.000012437    0.000185113
   6   O   :    0.000067986   -0.000068970    0.000008662
   7   O   :    0.000467727   -0.000023923    0.000045191
   8   H   :    0.000013132   -0.000010245    0.000246862
   9   O   :   -0.000097448    0.000189989    0.000233509
  10   H   :    0.000077420   -0.000113649   -0.000373403

Difference to translation invariance:
           :    0.0000723755    0.0001008076   -0.0000462315

Difference to rotation invariance:
           :   -0.0000633032   -0.0011337741    0.0010847833

Norm of the cartesian gradient     ...    0.0010778519
RMS gradient                       ...    0.0001967879
MAX gradient                       ...    0.0005809257

-------
TIMINGS
-------

Total SCF gradient time            ...        1.652 sec

One electron gradient       ....       0.013 sec  (  0.8%)
RI-J Coulomb gradient       ....       0.220 sec  ( 13.3%)
COSX gradient               ....       0.566 sec  ( 34.3%)
XC gradient                 ....       0.234 sec  ( 14.2%)
CPCM gradient               ....       0.117 sec  (  7.1%)
   A-Matrix (El+Nuc)        ....       0.036 sec  (  2.2%)
   Potential                ....       0.081 sec  (  4.9%)

Maximum memory used throughout the entire SCFGRAD-calculation: 39.5 MB

                            ***************************************
                            *     ORCA property calculations      *
                            ***************************************

                                    ---------------------
                                    Active property flags
                                    ---------------------
   (+) Dipole Moment


------------------------------------------------------------------------------
                       ORCA ELECTRIC PROPERTIES CALCULATION
------------------------------------------------------------------------------

Dipole Moment Calculation                       ... on
Quadrupole Moment Calculation                   ... off
Polarizability Calculation                      ... off
GBWName                                         ... /home/rudenko/mopac_kie/for_orca/CH3NO2_H2O_near/orca/start_freq_D/start_f_D.gbw
Electron density file                           ... /home/rudenko/mopac_kie/for_orca/CH3NO2_H2O_near/orca/start_freq_D/start_f_D.scfp
The origin for moment calculation is the CENTER OF MASS  = ( 0.416118, -1.451703  0.842110)

-------------
DIPOLE MOMENT
-------------
                                X             Y             Z
Electronic contribution:     -6.05751       1.08017       0.98283
Nuclear contribution   :      7.59285      -0.53793      -0.97623
                        -----------------------------------------
Total Dipole Moment    :      1.53534       0.54224       0.00660
                        -----------------------------------------
Magnitude (a.u.)       :      1.62829
Magnitude (Debye)      :      4.13879



--------------------
Rotational spectrum 
--------------------
 
Rotational constants in cm-1:     0.390918     0.047173     0.042578 
Rotational constants in MHz : 11719.415458  1414.201088  1276.467436 

 Dipole components along the rotational axes: 
x,y,z [a.u.] :     1.404458    -0.199153     0.799484 
x,y,z [Debye]:     3.569848    -0.506206     2.032126 

 

----------------------------------------------------------------------------
                           ORCA NUMERICAL FREQUENCIES
                              (18-process run)
----------------------------------------------------------------------------

Number of atoms                ... 10
Central differences            ... used
Number of displacements        ... 60
Numerical increment            ... 5.000e-03 bohr
IR-spectrum generation         ... on
Raman-spectrum generation      ... off
Surface Crossing Hessian       ... off

The output will be reduced. Please look at the following files:
SCF program output             ... >/home/rudenko/mopac_kie/for_orca/CH3NO2_H2O_near/orca/start_freq_D/start_f_D.lastscf
Integral program output        ... >/home/rudenko/mopac_kie/for_orca/CH3NO2_H2O_near/orca/start_freq_D/start_f_D.lastint
Gradient program output        ... >/home/rudenko/mopac_kie/for_orca/CH3NO2_H2O_near/orca/start_freq_D/start_f_D.lastgrad
Dipole moment program output   ... >/home/rudenko/mopac_kie/for_orca/CH3NO2_H2O_near/orca/start_freq_D/start_f_D.lastmom
AutoCI program output          ... >/home/rudenko/mopac_kie/for_orca/CH3NO2_H2O_near/orca/start_freq_D/start_f_D.lastautoci

	<< Calculating on displaced geometry   1 (of  60) >>
	<< Calculating on displaced geometry   5 (of  60) >>
	<< Calculating on displaced geometry  18 (of  60) >>
	<< Calculating on displaced geometry  12 (of  60) >>
	<< Calculating on displaced geometry   7 (of  60) >>
	<< Calculating on displaced geometry   3 (of  60) >>
	<< Calculating on displaced geometry   4 (of  60) >>
	<< Calculating on displaced geometry  14 (of  60) >>
	<< Calculating on displaced geometry  17 (of  60) >>
	<< Calculating on displaced geometry   2 (of  60) >>
	<< Calculating on displaced geometry  13 (of  60) >>
	<< Calculating on displaced geometry   9 (of  60) >>
	<< Calculating on displaced geometry  11 (of  60) >>
	<< Calculating on displaced geometry  16 (of  60) >>
	<< Calculating on displaced geometry   6 (of  60) >>
	<< Calculating on displaced geometry  10 (of  60) >>
	<< Calculating on displaced geometry   8 (of  60) >>
	<< Calculating on displaced geometry  15 (of  60) >>
	<< Calculating on displaced geometry  19 (of  60) >>
	<< Calculating on displaced geometry  20 (of  60) >>
	<< Calculating on displaced geometry  21 (of  60) >>
	<< Calculating on displaced geometry  22 (of  60) >>
	<< Calculating on displaced geometry  23 (of  60) >>
	<< Calculating on displaced geometry  24 (of  60) >>
	<< Calculating on displaced geometry  25 (of  60) >>
	<< Calculating on displaced geometry  26 (of  60) >>
	<< Calculating on displaced geometry  27 (of  60) >>
	<< Calculating on displaced geometry  28 (of  60) >>
	<< Calculating on displaced geometry  29 (of  60) >>
	<< Calculating on displaced geometry  31 (of  60) >>
	<< Calculating on displaced geometry  30 (of  60) >>
	<< Calculating on displaced geometry  34 (of  60) >>
	<< Calculating on displaced geometry  32 (of  60) >>
	<< Calculating on displaced geometry  33 (of  60) >>
	<< Calculating on displaced geometry  35 (of  60) >>
	<< Calculating on displaced geometry  36 (of  60) >>
	<< Calculating on displaced geometry  37 (of  60) >>
	<< Calculating on displaced geometry  38 (of  60) >>
	<< Calculating on displaced geometry  39 (of  60) >>
	<< Calculating on displaced geometry  40 (of  60) >>
	<< Calculating on displaced geometry  41 (of  60) >>
	<< Calculating on displaced geometry  42 (of  60) >>
	<< Calculating on displaced geometry  43 (of  60) >>
	<< Calculating on displaced geometry  44 (of  60) >>
	<< Calculating on displaced geometry  45 (of  60) >>
	<< Calculating on displaced geometry  46 (of  60) >>
	<< Calculating on displaced geometry  47 (of  60) >>
	<< Calculating on displaced geometry  48 (of  60) >>
	<< Calculating on displaced geometry  49 (of  60) >>
	<< Calculating on displaced geometry  50 (of  60) >>
	<< Calculating on displaced geometry  51 (of  60) >>
	<< Calculating on displaced geometry  53 (of  60) >>
	<< Calculating on displaced geometry  52 (of  60) >>
	<< Calculating on displaced geometry  54 (of  60) >>
	<< Calculating on displaced geometry  55 (of  60) >>
	<< Calculating on displaced geometry  56 (of  60) >>
	<< Calculating on displaced geometry  57 (of  60) >>
	<< Calculating on displaced geometry  59 (of  60) >>
	<< Calculating on displaced geometry  58 (of  60) >>
	<< Calculating on displaced geometry  60 (of  60) >>

-----------------------
VIBRATIONAL FREQUENCIES
-----------------------

Scaling factor for frequencies =  1.000000000 (already applied!)

   0:         0.00 cm**-1
   1:         0.00 cm**-1
   2:         0.00 cm**-1
   3:         0.00 cm**-1
   4:         0.00 cm**-1
   5:         0.00 cm**-1
   6:       -52.78 cm**-1 ***imaginary mode***
   7:        10.85 cm**-1
   8:        31.62 cm**-1
   9:        41.20 cm**-1
  10:        65.10 cm**-1
  11:       182.74 cm**-1
  12:       258.00 cm**-1
  13:       461.42 cm**-1
  14:       614.30 cm**-1
  15:       649.94 cm**-1
  16:       908.63 cm**-1
  17:       952.21 cm**-1
  18:      1077.09 cm**-1
  19:      1289.97 cm**-1
  20:      1315.10 cm**-1
  21:      1410.65 cm**-1
  22:      1441.05 cm**-1
  23:      1559.80 cm**-1
  24:      1600.13 cm**-1
  25:      2339.97 cm**-1
  26:      3112.96 cm**-1
  27:      3180.31 cm**-1
  28:      3768.25 cm**-1
  29:      3849.93 cm**-1


------------
NORMAL MODES
------------

These modes are the cartesian displacements weighted by the diagonal matrix
M(i,i)=1/sqrt(m[i]) where m[i] is the mass of the displaced atom
Thus, these vectors are normalized but *not* orthogonal

                  0          1          2          3          4          5    
      0       0.000000   0.000000   0.000000   0.000000   0.000000   0.000000
      1       0.000000   0.000000   0.000000   0.000000   0.000000   0.000000
      2       0.000000   0.000000   0.000000   0.000000   0.000000   0.000000
      3       0.000000   0.000000   0.000000   0.000000   0.000000   0.000000
      4       0.000000   0.000000   0.000000   0.000000   0.000000   0.000000
      5       0.000000   0.000000   0.000000   0.000000   0.000000   0.000000
      6       0.000000   0.000000   0.000000   0.000000   0.000000   0.000000
      7       0.000000   0.000000   0.000000   0.000000   0.000000   0.000000
      8       0.000000   0.000000   0.000000   0.000000   0.000000   0.000000
      9       0.000000   0.000000   0.000000   0.000000   0.000000   0.000000
     10       0.000000   0.000000   0.000000   0.000000   0.000000   0.000000
     11       0.000000   0.000000   0.000000   0.000000   0.000000   0.000000
     12       0.000000   0.000000   0.000000   0.000000   0.000000   0.000000
     13       0.000000   0.000000   0.000000   0.000000   0.000000   0.000000
     14       0.000000   0.000000   0.000000   0.000000   0.000000   0.000000
     15       0.000000   0.000000   0.000000   0.000000   0.000000   0.000000
     16       0.000000   0.000000   0.000000   0.000000   0.000000   0.000000
     17       0.000000   0.000000   0.000000   0.000000   0.000000   0.000000
     18       0.000000   0.000000   0.000000   0.000000   0.000000   0.000000
     19       0.000000   0.000000   0.000000   0.000000   0.000000   0.000000
     20       0.000000   0.000000   0.000000   0.000000   0.000000   0.000000
     21       0.000000   0.000000   0.000000   0.000000   0.000000   0.000000
     22       0.000000   0.000000   0.000000   0.000000   0.000000   0.000000
     23       0.000000   0.000000   0.000000   0.000000   0.000000   0.000000
     24       0.000000   0.000000   0.000000   0.000000   0.000000   0.000000
     25       0.000000   0.000000   0.000000   0.000000   0.000000   0.000000
     26       0.000000   0.000000   0.000000   0.000000   0.000000   0.000000
     27       0.000000   0.000000   0.000000   0.000000   0.000000   0.000000
     28       0.000000   0.000000   0.000000   0.000000   0.000000   0.000000
     29       0.000000   0.000000   0.000000   0.000000   0.000000   0.000000
                  6          7          8          9         10         11    
      0       0.004837   0.002862   0.057878   0.035060  -0.179034   0.005289
      1      -0.005843   0.027657   0.259441   0.252275  -0.007357   0.005016
      2      -0.034856   0.010727   0.157413  -0.246651   0.030561   0.014522
      3      -0.004189  -0.062561   0.295922   0.107840  -0.185326   0.013793
      4       0.024361  -0.289700   0.403834   0.331588   0.021573   0.006767
      5      -0.083385   0.476414  -0.004407  -0.350674  -0.017369   0.014078
      6       0.002515  -0.062494  -0.017250  -0.166183  -0.141690   0.007876
      7       0.018563  -0.244020   0.444401   0.379770   0.010084   0.007288
      8       0.005008  -0.517331   0.401220  -0.224595   0.094840   0.020897
      9       0.015619   0.120865  -0.064511   0.184263  -0.213790  -0.006073
     10      -0.060490   0.561705   0.117241   0.211515  -0.073815   0.003315
     11      -0.044522   0.025381   0.184509  -0.301297   0.037112   0.019242
     12       0.005833  -0.001909   0.003901  -0.011399  -0.175284   0.005580
     13      -0.002403   0.006385   0.014317   0.010991   0.032499   0.000430
     14      -0.003676   0.005615   0.020445  -0.023983   0.001348   0.005564
     15       0.023107  -0.043408  -0.151131   0.080643  -0.184681  -0.002847
     16      -0.034833  -0.078326  -0.035787  -0.084971   0.046039  -0.000553
     17       0.017334   0.019188  -0.031294   0.057171  -0.008718   0.001939
     18      -0.010875   0.029547   0.118026  -0.142446  -0.158034   0.014633
     19       0.033894   0.045037  -0.115263  -0.080082   0.054637  -0.003115
     20       0.000751  -0.019883  -0.028319   0.069979  -0.012053   0.000929
     21      -0.034370  -0.006477  -0.088584   0.137546   0.187044   0.419720
     22      -0.538435  -0.072452  -0.238153   0.030949  -0.420014  -0.090351
     23      -0.388759  -0.044005  -0.195532   0.211280  -0.184275  -0.154310
     24      -0.030083   0.004970  -0.028658   0.024136   0.652246   0.006969
     25       0.005833  -0.026657  -0.113061  -0.092818  -0.090869   0.004666
     26       0.066307  -0.007726  -0.101509   0.127771   0.008911  -0.001415
     27       0.149696   0.025255   0.174351  -0.106323   0.220298  -0.867591
     28       0.640865   0.024856   0.058931  -0.227797   0.015220  -0.011859
     29      -0.317575  -0.037625  -0.169822   0.187958  -0.161468  -0.192264
                 12         13         14         15         16         17    
      0       0.007119  -0.014857  -0.065216  -0.445651  -0.105998  -0.224748
      1       0.006140  -0.050880   0.001698   0.083353   0.003248   0.054461
      2      -0.005521  -0.179054   0.019197  -0.034458  -0.176167   0.203475
      3       0.012648  -0.378982   0.406951  -0.494884   0.112475  -0.439926
      4       0.009440   0.007890   0.168689   0.075972  -0.056660   0.189151
      5      -0.010299  -0.355439  -0.116370  -0.031782  -0.027831  -0.054648
      6      -0.001560  -0.138477  -0.638250  -0.308424  -0.020107  -0.305179
      7       0.013905  -0.062854   0.345215   0.005642   0.065157  -0.034622
      8      -0.003107  -0.320781   0.030841  -0.039377   0.013128  -0.043618
      9       0.010200   0.484372   0.203437  -0.508542  -0.835941   0.676947
     10       0.003921  -0.238945   0.212804   0.064032   0.202418  -0.139587
     11      -0.005979  -0.367996  -0.050477  -0.030474   0.061395  -0.105892
     12       0.012156   0.000170  -0.080198  -0.021761   0.222141   0.150399
     13      -0.000061   0.037243  -0.341980   0.078904  -0.094793   0.031410
     14      -0.001439   0.157871   0.091995   0.000376   0.041782  -0.043956
     15       0.017068  -0.237510   0.063898   0.216917  -0.084412   0.049439
     16      -0.004251   0.072967   0.118681  -0.024324  -0.025318  -0.083521
     17       0.001824   0.040949  -0.024986   0.169143  -0.190074  -0.197223
     18       0.013256   0.221706   0.043873   0.244944   0.067042  -0.050787
     19       0.000792  -0.034101   0.121306  -0.120457   0.080397   0.023185
     20      -0.001518   0.042832  -0.058630  -0.134947   0.278546   0.102482
     21      -0.883927  -0.008000   0.017473   0.052667   0.001394   0.011365
     22      -0.200697  -0.000622   0.002726   0.014352   0.001231   0.002210
     23      -0.013657   0.001395   0.000235   0.003737   0.001743   0.000032
     24       0.032363  -0.000558  -0.000854  -0.000408   0.000196   0.000265
     25       0.018107   0.000160  -0.001193  -0.001892  -0.000630  -0.000534
     26       0.006865   0.000864   0.000410  -0.000539   0.000273   0.000022
     27      -0.396110  -0.001233   0.004701   0.048067   0.013650  -0.004104
     28      -0.135230  -0.000977   0.002845   0.015342   0.002945   0.000954
     29       0.010885   0.001305  -0.000995  -0.000966   0.001132  -0.002027
                 18         19         20         21         22         23    
      0      -0.039596   0.015273  -0.117938   0.058345  -0.007008   0.029586
      1      -0.201483   0.006156   0.030833  -0.011455  -0.000692   0.012613
      2      -0.007303   0.013626  -0.055933  -0.057414   0.042827   0.043016
      3       0.486823   0.463194   0.595508  -0.368918   0.400934  -0.517097
      4       0.129448  -0.107961  -0.190166  -0.380656   0.332782  -0.094902
      5      -0.371449   0.280278   0.451906   0.432179  -0.391355   0.060164
      6      -0.366410  -0.614638   0.447431  -0.236642   0.350376  -0.176814
      7       0.234317   0.096285  -0.075246   0.446893  -0.437118   0.192975
      8       0.387767  -0.432025   0.321054   0.477884  -0.368040   0.150370
      9       0.119889  -0.081796   0.188063   0.045639   0.007037   0.143365
     10       0.435267  -0.330898  -0.086604   0.000871   0.020116   0.000314
     11       0.006226   0.009618  -0.184625  -0.045902   0.042756   0.004138
     12       0.026725   0.004155   0.006570  -0.133300  -0.264737  -0.028335
     13       0.135257   0.060230  -0.008020   0.044192   0.037062  -0.181019
     14      -0.038316  -0.025761  -0.014781   0.024338  -0.028801  -0.633048
     15      -0.020355  -0.003184  -0.013957   0.056669   0.075612  -0.107537
     16      -0.020035  -0.007662   0.008516  -0.038418  -0.044050   0.100130
     17       0.023426   0.004726   0.017822  -0.082929  -0.101001   0.259785
     18       0.003815   0.007618   0.007425   0.048724   0.113433   0.136005
     19      -0.024521  -0.007691   0.002859   0.004033   0.016032   0.042585
     20       0.013735   0.015920   0.011497   0.053200   0.136423   0.248381
     21       0.003586   0.002534  -0.000865   0.002608  -0.001056   0.002029
     22       0.000571   0.003486  -0.001207   0.001584   0.001616  -0.000706
     23      -0.000190   0.002369  -0.001090   0.001034   0.001633  -0.000999
     24       0.000015  -0.000032   0.000174  -0.000242  -0.000226  -0.000098
     25      -0.000047  -0.000326   0.000220  -0.000193  -0.000072   0.000236
     26       0.000106  -0.000003  -0.000010  -0.000063   0.000095   0.000001
     27       0.000856   0.001595  -0.000293   0.000533   0.001078  -0.001647
     28       0.001281   0.003288  -0.001551   0.001669   0.001890  -0.001794
     29      -0.000531  -0.001736   0.001139  -0.001217  -0.000898   0.000781
                 24         25         26         27         28         29    
      0       0.000209  -0.061207  -0.034223   0.007298   0.000069  -0.000008
      1       0.000007   0.017872  -0.024717   0.089362   0.000003  -0.000001
      2      -0.000151  -0.148749   0.058949   0.024796  -0.000023  -0.000021
      3      -0.000351   0.030270   0.053535   0.111813   0.000128  -0.000024
      4      -0.000162  -0.103951  -0.393733  -0.732963   0.000722   0.000087
      5      -0.000286  -0.055565  -0.241932  -0.484218   0.000467   0.000010
      6       0.004603   0.057385   0.386758  -0.201620  -0.000488  -0.000126
      7      -0.000202   0.084668   0.688441  -0.346739  -0.001027  -0.000112
      8       0.001872  -0.047855  -0.391714   0.214609   0.000588   0.000033
      9       0.001176   0.298414  -0.012248  -0.002338  -0.000022   0.000124
     10       0.001073  -0.095017   0.000406   0.007087   0.000002  -0.000006
     11       0.000594   0.920944  -0.034505  -0.012219  -0.000304   0.000041
     12       0.000515   0.002567  -0.001098   0.000550   0.000044   0.000001
     13      -0.000432  -0.001476   0.000510   0.000016  -0.000011  -0.000001
     14      -0.000105   0.000719   0.000758   0.000847  -0.000005   0.000002
     15      -0.000285  -0.001014   0.000382   0.000204  -0.000021   0.000000
     16       0.000273   0.000601  -0.000388   0.000153   0.000025  -0.000003
     17       0.000297   0.001086  -0.000692  -0.000385   0.000008   0.000003
     18      -0.000236   0.001985   0.000112  -0.000158  -0.000029   0.000003
     19      -0.000030   0.000317  -0.000147  -0.000124  -0.000003   0.000002
     20      -0.000212   0.001228   0.000034  -0.000442  -0.000009   0.000002
     21      -0.165514   0.001066   0.001232   0.000061   0.085920   0.093963
     22       0.515434  -0.000764  -0.000808   0.000133  -0.422480  -0.442316
     23       0.454206  -0.000174   0.000627   0.000211   0.572046   0.527437
     24       0.018521  -0.000352  -0.000164  -0.000051  -0.013128   0.002564
     25      -0.067842   0.000141   0.000118  -0.000002   0.048313   0.003247
     26      -0.003344   0.000099  -0.000032  -0.000018   0.001275  -0.070048
     27      -0.136402   0.003023   0.000594  -0.000123   0.122220  -0.134720
     28       0.561644  -0.000688  -0.000651   0.000051  -0.344270   0.390871
     29      -0.401989   0.000484  -0.000532  -0.000176  -0.592386   0.584366


-----------
IR SPECTRUM
-----------

 Mode   freq       eps      Int      T**2         TX        TY        TZ
       cm**-1   L/(mol*cm) km/mol    a.u.
----------------------------------------------------------------------------
  7:     10.85   0.000077    0.39  0.002217  ( 0.006809  0.017558 -0.043159)
  8:     31.62   0.002276   11.50  0.022461  ( 0.075633  0.128420  0.015775)
  9:     41.20   0.001390    7.02  0.010527  ( 0.010417  0.090844 -0.046538)
 10:     65.10   0.004157   21.01  0.019925  (-0.130529 -0.033948 -0.041653)
 11:    182.74   0.012330   62.31  0.021056  (-0.115102 -0.025652 -0.084553)
 12:    258.00   0.069736  352.42  0.084349  (-0.280925 -0.073652 -0.002371)
 13:    461.42   0.000202    1.02  0.000136  (-0.001821 -0.004280 -0.010712)
 14:    614.30   0.001029    5.20  0.000523  (-0.011787 -0.017887  0.008005)
 15:    649.94   0.006233   31.50  0.002993  (-0.051402  0.018335 -0.003790)
 16:    908.63   0.003357   16.96  0.001153  ( 0.025191 -0.010797 -0.020041)
 17:    952.21   0.003344   16.90  0.001096  ( 0.021750  0.006887  0.023990)
 18:   1077.09   0.001911    9.66  0.000554  ( 0.012231  0.017111 -0.010548)
 19:   1289.97   0.003140   15.87  0.000760  (-0.011761 -0.019967 -0.014918)
 20:   1315.10   0.000936    4.73  0.000222  ( 0.008330 -0.010944 -0.005730)
 21:   1410.65   0.023916  120.86  0.005291  (-0.055230  0.016055  0.044525)
 22:   1441.05   0.020065  101.40  0.004345  (-0.055980  0.007051 -0.034081)
 23:   1559.80   0.129620  655.05  0.025933  (-0.011644 -0.042958 -0.154763)
 24:   1600.13   0.024767  125.16  0.004830  (-0.020645  0.066284  0.003210)
 25:   2339.97   0.000118    0.60  0.000016  (-0.003780  0.000928 -0.000750)
 26:   3112.96   0.000396    2.00  0.000040  ( 0.005822  0.001316 -0.002023)
 27:   3180.31   0.000152    0.77  0.000015  (-0.003029 -0.002288  0.000681)
 28:   3768.25   0.004816   24.34  0.000399  ( 0.002834 -0.019763 -0.000472)
 29:   3849.93   0.021410  108.20  0.001735  (-0.001531 -0.002035  0.041580)

* The epsilon (eps) is given for a Dirac delta lineshape.
** The dipole moment derivative (T) already includes vibrational overlap.

The first frequency considered to be a vibration is 7
The total number of vibrations considered is 23


--------------------------
THERMOCHEMISTRY AT 298.15K
--------------------------

Temperature         ... 298.15 K
Pressure            ... 1.00 atm
Total Mass          ... 80.05 AMU

Throughout the following assumptions are being made:
  (1) The electronic state is orbitally nondegenerate
  (2) There are no thermally accessible electronically excited states
  (3) Hindered rotations indicated by low frequency modes are not
      treated as such but are treated as vibrations and this may
      cause some error
  (4) All equations used are the standard statistical mechanics
      equations for an ideal gas
  (5) All vibrations are strictly harmonic

freq.      10.85  E(vib)   ...       0.58 
freq.      31.62  E(vib)   ...       0.55 
freq.      41.20  E(vib)   ...       0.54 
freq.      65.10  E(vib)   ...       0.50 
freq.     182.74  E(vib)   ...       0.37 
freq.     258.00  E(vib)   ...       0.30 
freq.     461.42  E(vib)   ...       0.16 
freq.     614.30  E(vib)   ...       0.10 
freq.     649.94  E(vib)   ...       0.08 
freq.     908.63  E(vib)   ...       0.03 
freq.     952.21  E(vib)   ...       0.03 
freq.    1077.09  E(vib)   ...       0.02 
freq.    1289.97  E(vib)   ...       0.01 
freq.    1315.10  E(vib)   ...       0.01 
freq.    1410.65  E(vib)   ...       0.00 
freq.    1441.05  E(vib)   ...       0.00 
freq.    1559.80  E(vib)   ...       0.00 
freq.    1600.13  E(vib)   ...       0.00 
freq.    2339.97  E(vib)   ...       0.00 
freq.    3112.96  E(vib)   ...       0.00 
freq.    3180.31  E(vib)   ...       0.00 
freq.    3768.25  E(vib)   ...       0.00 
freq.    3849.93  E(vib)   ...       0.00 

------------
INNER ENERGY
------------

The inner energy is: U= E(el) + E(ZPE) + E(vib) + E(rot) + E(trans)
    E(el)   - is the total energy from the electronic structure calculation
              = E(kin-el) + E(nuc-el) + E(el-el) + E(nuc-nuc)
    E(ZPE)  - the the zero temperature vibrational energy from the frequency calculation
    E(vib)  - the the finite temperature correction to E(ZPE) due to population
              of excited vibrational states
    E(rot)  - is the rotational thermal energy
    E(trans)- is the translational thermal energy

Summary of contributions to the inner energy U:
Electronic energy                ...   -321.45759078 Eh
Zero point energy                ...      0.06862122 Eh      43.06 kcal/mol
Thermal vibrational correction   ...      0.00522212 Eh       3.28 kcal/mol
Thermal rotational correction    ...      0.00141627 Eh       0.89 kcal/mol
Thermal translational correction ...      0.00141627 Eh       0.89 kcal/mol
-----------------------------------------------------------------------
Total thermal energy                   -321.38091490 Eh


Summary of corrections to the electronic energy:
(perhaps to be used in another calculation)
Total thermal correction                  0.00805466 Eh       5.05 kcal/mol
Non-thermal (ZPE) correction              0.06862122 Eh      43.06 kcal/mol
-----------------------------------------------------------------------
Total correction                          0.07667588 Eh      48.11 kcal/mol


--------
ENTHALPY
--------

The enthalpy is H = U + kB*T
                kB is Boltzmann's constant
Total free energy                 ...   -321.38091490 Eh 
Thermal Enthalpy correction       ...      0.00094421 Eh       0.59 kcal/mol
-----------------------------------------------------------------------
Total Enthalpy                    ...   -321.37997069 Eh


Note: Only C1 symmetry has been detected, increase convergence thresholds 
      if your molecule has a higher symmetry. Symmetry factor of 1.0 is   
      used for the rotational entropy correction. 
 

Note: Rotational entropy computed according to Herzberg 
Infrared and Raman Spectra, Chapter V,1, Van Nostrand Reinhold, 1945 
Point Group:  C1, Symmetry Number:   1  
Rotational constants in cm-1:     0.390918     0.047173     0.042578 

Vibrational entropy computed according to the QRRHO of S. Grimme
Chem.Eur.J. 2012 18 9955


-------
ENTROPY
-------

The entropy contributions are T*S = T*(S(el)+S(vib)+S(rot)+S(trans))
     S(el)   - electronic entropy
     S(vib)  - vibrational entropy
     S(rot)  - rotational entropy
     S(trans)- translational entropy
The entropies will be listed as multiplied by the temperature to get
units of energy

Electronic entropy                ...      0.00000000 Eh      0.00 kcal/mol
Vibrational entropy               ...      0.01057207 Eh      6.63 kcal/mol
Rotational entropy                ...      0.01288607 Eh      8.09 kcal/mol
Translational entropy             ...      0.01855604 Eh     11.64 kcal/mol
-----------------------------------------------------------------------
Final entropy term                ...      0.04201418 Eh     26.36 kcal/mol

In case the symmetry of your molecule has not been determined correctly
or in case you have a reason to use a different symmetry number we print 
out the resulting rotational entropy values for sn=1,12 :
 --------------------------------------------------------
|  sn= 1 | S(rot)=       0.01288607 Eh      8.09 kcal/mol|
|  sn= 2 | S(rot)=       0.01223162 Eh      7.68 kcal/mol|
|  sn= 3 | S(rot)=       0.01184878 Eh      7.44 kcal/mol|
|  sn= 4 | S(rot)=       0.01157716 Eh      7.26 kcal/mol|
|  sn= 5 | S(rot)=       0.01136647 Eh      7.13 kcal/mol|
|  sn= 6 | S(rot)=       0.01119433 Eh      7.02 kcal/mol|
|  sn= 7 | S(rot)=       0.01104878 Eh      6.93 kcal/mol|
|  sn= 8 | S(rot)=       0.01092270 Eh      6.85 kcal/mol|
|  sn= 9 | S(rot)=       0.01081149 Eh      6.78 kcal/mol|
|  sn=10 | S(rot)=       0.01071202 Eh      6.72 kcal/mol|
|  sn=11 | S(rot)=       0.01062202 Eh      6.67 kcal/mol|
|  sn=12 | S(rot)=       0.01053987 Eh      6.61 kcal/mol|
 --------------------------------------------------------


-------------------
GIBBS FREE ENERGY
-------------------

The Gibbs free energy is G = H - T*S

Total enthalpy                    ...   -321.37997069 Eh 
Total entropy correction          ...     -0.04201418 Eh    -26.36 kcal/mol
-----------------------------------------------------------------------
Final Gibbs free energy         ...   -321.42198487 Eh

For completeness - the Gibbs free energy minus the electronic energy
G-E(el)                           ...      0.03560591 Eh     22.34 kcal/mol



Timings for individual modules:

Sum of individual times         ...      248.982 sec (=   4.150 min)
GTO integral calculation        ...        1.469 sec (=   0.024 min)   0.6 %
SCF iterations                  ...       19.015 sec (=   0.317 min)   7.6 %
SCF Gradient evaluation         ...        4.197 sec (=   0.070 min)   1.7 %
Numerical frequency calculation ...      224.301 sec (=   3.738 min)  90.1 %
                             ****ORCA TERMINATED NORMALLY****
TOTAL RUN TIME: 0 days 0 hours 3 minutes 57 seconds 899 msec
