 *******************************************************************************
 **                                                                           **
 **                              MOPAC v22.0.6                                **
 **                                                                           **
 *******************************************************************************
 **          Digital Object Identifier (DOI): 10.5281/zenodo.6511958          **
 **    Visit the DOI location for information on how to cite this program.    **
 *******************************************************************************

                              PM7 CALCULATION RESULTS

 *******************************************************************************
 *  CALCULATION DONE:                                Tue Mar 26 11:49:57 2024  *
 *  PM7        - The PM7 Hamiltonian to be used
 *  SINGLET    - SPIN STATE DEFINED AS A SINGLET
 *
 *
 *
 *                 CHARGE ON SYSTEM = 0
 *
 *
 *
 *  EPS=78.4   - USE ANDREAS KLAMT'S COSMO IMPLICIT SOLVATION MODEL
 *  T=         - A TIME OF 14.0 DAYS REQUESTED
 *  DUMP=N     - RESTART FILE WRITTEN EVERY 30.0 MINUTES REQUESTED
 *  RELSCF     - DEFAULT SCF CRITERION MULTIPLIED BY 1.0000
 *              (DEFAULT SCF CRITERION = 0.00010)
 *  ITRY=      - DO A MAXIMUM OF 15000 ITERATIONS FOR SCF
 *  AUX        - OUTPUT AUXILIARY INFORMATION
 *  BONDS      - FINAL BOND-ORDER MATRIX TO BE PRINTED
 *******************************************************************************
PM7 BONDS AUX DUMP=30M ITRY=15000 T=14D CHARGE=0 SINGLET eps=78.4 RELSCF=1
 Title: ASE calculation

   ATOM   CHEMICAL          X               Y               Z
  NUMBER   SYMBOL      (ANGSTROMS)     (ANGSTROMS)     (ANGSTROMS)

     1       C         -0.08605000  *  -0.46341000  *   0.17799000  *
     2       H         -0.07163000  *  -0.91773000  *  -0.81574000  *
     3       N         -0.17269000  *  -2.70545000  *   1.20686000  *
     4       O         -0.60634000  *  -3.12794000  *   0.14742000  *
     5       O         -0.16502000  *  -3.39455000  *   2.21888000  *
     6       H         -0.48249000  *   1.27946000  *   1.35115000  *
     7       C          0.37671000  *  -1.34040000  *   1.29515000  *
     8       H          1.50921000  *  -1.41818000  *   1.28183000  *
     9       H          0.13517000  *  -0.91747000  *   2.30647000  *
    10       C         -0.45595000  *   0.79918000  *   0.38202000  *
    11       H         -0.76132000  *   1.46427000  *  -0.41555000  *
    12       C          6.69408000  *  -3.15063000  *   0.76359000  *
    13       C          8.08913000  *  -3.20744000  *   0.67950000  *
    14       C          8.79121000  *  -2.03261000  *   0.41527000  *
    15       C          8.08581000  *  -0.84334000  *   0.24072000  *
    16       C          6.68989000  *  -0.86978000  *   0.33821000  *
    17       N          6.00582000  *  -2.00272000  *   0.59561000  *
    18       H          6.09365000  *  -4.04736000  *   0.97126000  *
    19       H          8.61154000  *  -4.15346000  *   0.81692000  *
    20       H          8.60513000  *   0.09114000  *   0.03156000  *
    21       H          6.08857000  *   0.03973000  *   0.20631000  *
    22       H          9.88182000  *  -2.04542000  *   0.34581000  *
    23       H          3.06721000  *  -3.43066000  *   0.84365000  *
    24       H          3.99734000  *  -2.27534000  *   0.49713000  *
    25       O          3.07347000  *  -2.56449000  *   0.42372000  *



          CARTESIAN COORDINATES 

    NO.       ATOM           X           Y           Z

     1         C         -0.0861     -0.4634      0.1780
     2         H         -0.0716     -0.9177     -0.8157
     3         N         -0.1727     -2.7054      1.2069
     4         O         -0.6063     -3.1279      0.1474
     5         O         -0.1650     -3.3946      2.2189
     6         H         -0.4825      1.2795      1.3512
     7         C          0.3767     -1.3404      1.2952
     8         H          1.5092     -1.4182      1.2818
     9         H          0.1352     -0.9175      2.3065
    10         C         -0.4560      0.7992      0.3820
    11         H         -0.7613      1.4643     -0.4156
    12         C          6.6941     -3.1506      0.7636
    13         C          8.0891     -3.2074      0.6795
    14         C          8.7912     -2.0326      0.4153
    15         C          8.0858     -0.8433      0.2407
    16         C          6.6899     -0.8698      0.3382
    17         N          6.0058     -2.0027      0.5956
    18         H          6.0937     -4.0474      0.9713
    19         H          8.6115     -4.1535      0.8169
    20         H          8.6051      0.0911      0.0316
    21         H          6.0886      0.0397      0.2063
    22         H          9.8818     -2.0454      0.3458
    23         H          3.0672     -3.4307      0.8437
    24         H          3.9973     -2.2753      0.4971
    25         O          3.0735     -2.5645      0.4237

 General Reference for PM7:
 "Optimization of Parameters for Semiempirical Methods VI: More Modifications to the 
 NDDO Approximations and Re-optimization of Parameters", J. J. P. Stewart, J. Mol. Mod., 1:32, 19 (2013)
 https://link.springer.com/article/10.1007/s00894-012-1667-x

           Empirical Formula: C8 H12 N2 O3  =    25 atoms



      MOLECULAR POINT GROUP   :   C1  


 SINGLET STATE CALCULATION


      RHF CALCULATION, NO. OF DOUBLY OCCUPIED LEVELS = 36


          Geometry optimization using EF
  SCF CRITERION =    0.1000E-03

     GRADIENT =  0.86974 IS LESS THAN CUTOFF =  1.00000



 -------------------------------------------------------------------------------
 PM7 BONDS AUX DUMP=30M ITRY=15000 T=14D CHARGE=0 SINGLET eps=78.4 RELSCF=1
 Title: ASE calculation



     GRADIENTS WERE INITIALLY ACCEPTABLY SMALL                
     SCF FIELD WAS ACHIEVED                                   


                              PM7 CALCULATION
                                                       MOPAC v22.0.6 Linux
                                                       Tue Mar 26 11:49:58 2024




          FINAL HEAT OF FORMATION =        -49.21473 KCAL/MOL =    -205.91445 KJ/MOL
          VAN DER WAALS AREA      =        251.30 SQUARE ANGSTROMS



          DIELECTRIC ENERGY       =         -0.71781 EV
          COSMO AREA              =        251.30 SQUARE ANGSTROMS
          COSMO VOLUME            =        241.43 CUBIC ANGSTROMS

          GRADIENT NORM           =          0.86974          =       0.17395 PER ATOM
          IONIZATION POTENTIAL    =         10.330919 EV
          HOMO LUMO ENERGIES (EV) =        -10.331 -0.474
          NO. OF FILLED LEVELS    =         36
          MOLECULAR WEIGHT        =        184.1944         POINT GROUP:  C1  

          MOLECULAR DIMENSIONS (Angstroms)

            Atom       Atom       Distance
            H    22    H    11    11.23272
            H    20    O     5     6.62045
            O     4    H     9     2.91127


          SCF CALCULATIONS        =          2

          WALL-CLOCK TIME         =      0.117 SECONDS
          COMPUTATION TIME        =      9.643 SECONDS




   ATOM   CHEMICAL          X               Y               Z
  NUMBER   SYMBOL      (ANGSTROMS)     (ANGSTROMS)     (ANGSTROMS)

     1       C         -0.08605000  *  -0.46341000  *   0.17799000  *
     2       H         -0.07163000  *  -0.91773000  *  -0.81574000  *
     3       N         -0.17269000  *  -2.70545000  *   1.20686000  *
     4       O         -0.60634000  *  -3.12794000  *   0.14742000  *
     5       O         -0.16502000  *  -3.39455000  *   2.21888000  *
     6       H         -0.48249000  *   1.27946000  *   1.35115000  *
     7       C          0.37671000  *  -1.34040000  *   1.29515000  *
     8       H          1.50921000  *  -1.41818000  *   1.28183000  *
     9       H          0.13517000  *  -0.91747000  *   2.30647000  *
    10       C         -0.45595000  *   0.79918000  *   0.38202000  *
    11       H         -0.76132000  *   1.46427000  *  -0.41555000  *
    12       C          6.69408000  *  -3.15063000  *   0.76359000  *
    13       C          8.08913000  *  -3.20744000  *   0.67950000  *
    14       C          8.79121000  *  -2.03261000  *   0.41527000  *
    15       C          8.08581000  *  -0.84334000  *   0.24072000  *
    16       C          6.68989000  *  -0.86978000  *   0.33821000  *
    17       N          6.00582000  *  -2.00272000  *   0.59561000  *
    18       H          6.09365000  *  -4.04736000  *   0.97126000  *
    19       H          8.61154000  *  -4.15346000  *   0.81692000  *
    20       H          8.60513000  *   0.09114000  *   0.03156000  *
    21       H          6.08857000  *   0.03973000  *   0.20631000  *
    22       H          9.88182000  *  -2.04542000  *   0.34581000  *
    23       H          3.06721000  *  -3.43066000  *   0.84365000  *
    24       H          3.99734000  *  -2.27534000  *   0.49713000  *
    25       O          3.07347000  *  -2.56449000  *   0.42372000  *

                             CARTESIAN COORDINATES

   1    C       -0.086050000    -0.463410000     0.177990000
   2    H       -0.071630000    -0.917730000    -0.815740000
   3    N       -0.172690000    -2.705450000     1.206860000
   4    O       -0.606340000    -3.127940000     0.147420000
   5    O       -0.165020000    -3.394550000     2.218880000
   6    H       -0.482490000     1.279460000     1.351150000
   7    C        0.376710000    -1.340400000     1.295150000
   8    H        1.509210000    -1.418180000     1.281830000
   9    H        0.135170000    -0.917470000     2.306470000
  10    C       -0.455950000     0.799180000     0.382020000
  11    H       -0.761320000     1.464270000    -0.415550000
  12    C        6.694080000    -3.150630000     0.763590000
  13    C        8.089130000    -3.207440000     0.679500000
  14    C        8.791210000    -2.032610000     0.415270000
  15    C        8.085810000    -0.843340000     0.240720000
  16    C        6.689890000    -0.869780000     0.338210000
  17    N        6.005820000    -2.002720000     0.595610000
  18    H        6.093650000    -4.047360000     0.971260000
  19    H        8.611540000    -4.153460000     0.816920000
  20    H        8.605130000     0.091140000     0.031560000
  21    H        6.088570000     0.039730000     0.206310000
  22    H        9.881820000    -2.045420000     0.345810000
  23    H        3.067210000    -3.430660000     0.843650000
  24    H        3.997340000    -2.275340000     0.497130000
  25    O        3.073470000    -2.564490000     0.423720000


           Empirical Formula: C8 H12 N2 O3  =    25 atoms



      MOLECULAR POINT GROUP   :   C1  


                  EIGENVALUES  
 -37.47228 -36.21815 -30.86021 -29.19745 -28.97470 -28.57547 -26.52003 -26.44529
 -22.94372 -22.34738 -22.11717 -20.06032 -18.60114 -18.32247 -18.15373 -18.11353
 -17.47819 -16.61402 -16.07669 -15.66680 -15.03168 -14.71656 -14.69367 -14.48992
 -13.90081 -13.67119 -12.69173 -12.57223 -12.26332 -12.06333 -11.96227 -11.78917
 -11.08808 -10.83723 -10.77675 -10.33092  -0.47446  -0.33468  -0.32643   0.13186
   0.83608   2.11173   3.16732   3.21962   3.82302   4.04837   4.08465   4.26893
   4.41698   4.44270   4.74190   5.00142   5.10702   5.26091   5.35042   5.49862
   5.54998   5.71812   5.73910   5.91003   6.05738   6.07164   6.21451   6.70594


              NET ATOMIC CHARGES AND DIPOLE CONTRIBUTIONS

  ATOM NO.   TYPE          CHARGE      No. of ELECS.   s-Pop       p-Pop       
    1          C          -0.154395        4.1544     1.08683     3.06756
    2          H           0.175610        0.8244     0.82439
    3          N           0.668695        4.3313     1.46118     2.87013
    4          O          -0.457419        6.4574     1.93930     4.51812
    5          O          -0.479371        6.4794     1.94042     4.53895
    6          H           0.159900        0.8401     0.84010
    7          C          -0.251732        4.2517     1.09248     3.15925
    8          H           0.245409        0.7546     0.75459
    9          H           0.216368        0.7836     0.78363
   10          C          -0.286836        4.2868     1.10261     3.18422
   11          H           0.160819        0.8392     0.83918
   12          C           0.051293        3.9487     1.10114     2.84757
   13          C          -0.238527        4.2385     1.09176     3.14677
   14          C          -0.066969        4.0670     1.09487     2.97209
   15          C          -0.239384        4.2394     1.09168     3.14770
   16          C           0.052228        3.9478     1.10040     2.84737
   17          N          -0.456771        5.4568     1.73602     3.72075
   18          H           0.187544        0.8125     0.81246
   19          H           0.183318        0.8167     0.81668
   20          H           0.182537        0.8175     0.81746
   21          H           0.184840        0.8152     0.81516
   22          H           0.174637        0.8254     0.82536
   23          H           0.368060        0.6319     0.63194
   24          H           0.375939        0.6241     0.62406
   25          O          -0.755795        6.7558     1.81627     4.93952
 DIPOLE           X         Y         Z       TOTAL
 POINT-CHG.     6.847     4.507     0.879     8.244
 HYBRID         0.744    -0.638     0.178     0.996
 SUM            7.590     3.869     1.057     8.585


          ATOMIC ORBITAL ELECTRON POPULATIONS

     Atom    s        px        py        pz   
    1  C   1.08683   1.01440   1.00132   1.05184
    2  H   0.82439
    3  N   1.46118   0.91411   1.01128   0.94474
    4  O   1.93930   1.51844   1.79294   1.20674
    5  O   1.94042   1.64106   1.62905   1.26883
    6  H   0.84010
    7  C   1.09248   1.15788   0.86185   1.13953
    8  H   0.75459
    9  H   0.78363
   10  C   1.10261   0.98542   1.03699   1.16181
   11  H   0.83918
   12  C   1.10114   0.97169   0.96858   0.90729
   13  C   1.09176   1.02162   1.08124   1.04391
   14  C   1.09487   1.09210   0.97383   0.90617
   15  C   1.09168   1.02081   1.07932   1.04757
   16  C   1.10040   0.97165   0.97288   0.90284
   17  N   1.73602   1.43946   1.08193   1.19937
   18  H   0.81246
   19  H   0.81668
   20  H   0.81746
   21  H   0.81516
   22  H   0.82536
   23  H   0.63194
   24  H   0.62406
   25  O   1.81627   1.51474   1.53933   1.88546

          BONDING CONTRIBUTION OF EACH M.O.

  1.3345  1.3565  0.9758  1.2662  1.6366  1.7391  1.8909  1.3852  1.1510  1.8188
  1.9571  1.7107  1.4795  1.7892  1.3421  1.6288  1.6698  2.0446  1.8997  1.7762
  1.9475  1.9089  1.9887  0.9645  1.6732  1.5805  2.0260  1.9264  0.1127  0.8522
  0.2955  0.7343  1.9390  1.3114  1.8197  2.0473 -2.3596 -1.9974 -1.9416 -2.0569
 -2.0332 -1.9872 -1.9655 -1.9398 -1.9654 -1.9430 -1.9598 -1.9188 -1.9748 -1.9464
 -1.8712 -1.9849 -1.9017 -1.9004 -1.9225 -1.9610 -1.9780 -1.9593 -1.9543 -1.9447
 -1.9696 -1.9591 -1.9543 -1.7293





            (VALENCIES)   BOND ORDERS

     1  C     (3.963)    10  C 1.986     7  C 1.007     2  H 0.955

     2  H     (0.969)     1  C 0.955

     3  N     (3.762)     4  O 1.446     5  O 1.424     7  C 0.866    10  C 0.011

     4  O     (1.828)     3  N 1.446     5  O 0.288     7  C 0.073

     5  O     (1.804)     3  N 1.424     4  O 0.288     7  C 0.069

     6  H     (0.974)    10  C 0.964

     7  C     (3.866)     1  C 1.007     9  H 0.930     8  H 0.895     3  N 0.866     4  O 0.073     5  O 0.069

     8  H     (0.940)     7  C 0.895    10  C 0.010

     9  H     (0.953)     7  C 0.930

    10  C     (3.950)     1  C 1.986     6  H 0.964    11  H 0.963     3  N 0.011     8  H 0.010

    11  H     (0.974)    10  C 0.963

    12  C     (3.930)    13  C 1.426    17  N 1.402    18  H 0.945    15  C 0.120    16  C 0.012    21  H 0.012

    13  C     (3.965)    14  C 1.442    12  C 1.426    19  H 0.954    16  C 0.120    17  N 0.014

    14  C     (3.959)    15  C 1.444    13  C 1.442    22  H 0.957    17  N 0.096

    15  C     (3.965)    14  C 1.444    16  C 1.423    20  H 0.954    12  C 0.120    17  N 0.014

    16  C     (3.931)    15  C 1.423    17  N 1.405    21  H 0.946    13  C 0.120    12  C 0.012    18  H 0.011

    17  N     (2.973)    16  C 1.405    12  C 1.402    14  C 0.096    24  H 0.020    15  C 0.014    13  C 0.014

    18  H     (0.965)    12  C 0.945    16  C 0.011

    19  H     (0.966)    13  C 0.954

    20  H     (0.967)    15  C 0.954

    21  H     (0.966)    16  C 0.946    12  C 0.012

    22  H     (0.970)    14  C 0.957

    23  H     (0.865)    25  O 0.862

    24  H     (0.859)    25  O 0.835    17  N 0.020

    25  O     (1.718)    23  H 0.862    24  H 0.835


 **********************
 *                    *
 * JOB ENDED NORMALLY *
 *                    *
 **********************



 TOTAL JOB TIME:             0.12 SECONDS

 == MOPAC DONE ==
