
                                 *****************
                                 * O   R   C   A *
                                 *****************

                                            #,                                       
                                            ###                                      
                                            ####                                     
                                            #####                                    
                                            ######                                   
                                           ########,                                 
                                     ,,################,,,,,                         
                               ,,#################################,,                 
                          ,,##########################################,,             
                       ,#########################################, ''#####,          
                    ,#############################################,,   '####,        
                  ,##################################################,,,,####,       
                ,###########''''           ''''###############################       
              ,#####''   ,,,,##########,,,,          '''####'''          '####       
            ,##' ,,,,###########################,,,                        '##       
           ' ,,###''''                  '''############,,,                           
         ,,##''                                '''############,,,,        ,,,,,,###''
      ,#''                                            '''#######################'''  
     '                                                          ''''####''''         
             ,#######,   #######,   ,#######,      ##                                
            ,#'     '#,  ##    ##  ,#'     '#,    #''#        ######   ,####,        
            ##       ##  ##   ,#'  ##            #'  '#       #        #'  '#        
            ##       ##  #######   ##           ,######,      #####,   #    #        
            '#,     ,#'  ##    ##  '#,     ,#' ,#      #,         ##   #,  ,#        
             '#######'   ##     ##  '#######'  #'      '#     #####' # '####'        



                  #######################################################
                  #                        -***-                        #
                  #          Department of theory and spectroscopy      #
                  #    Directorship and core code : Frank Neese         #
                  #        Max Planck Institute fuer Kohlenforschung    #
                  #                Kaiser Wilhelm Platz 1               #
                  #                 D-45470 Muelheim/Ruhr               #
                  #                      Germany                        #
                  #                                                     #
                  #                  All rights reserved                #
                  #                        -***-                        #
                  #######################################################


                         Program Version 5.0.4 -  RELEASE  -


 With contributions from (in alphabetic order):
   Daniel Aravena         : Magnetic Suceptibility
   Michael Atanasov       : Ab Initio Ligand Field Theory (pilot matlab implementation)
   Alexander A. Auer      : GIAO ZORA, VPT2 properties, NMR spectrum
   Ute Becker             : Parallelization
   Giovanni Bistoni       : ED, misc. LED, open-shell LED, HFLD
   Martin Brehm           : Molecular dynamics
   Dmytro Bykov           : SCF Hessian
   Vijay G. Chilkuri      : MRCI spin determinant printing, contributions to CSF-ICE
   Dipayan Datta          : RHF DLPNO-CCSD density
   Achintya Kumar Dutta   : EOM-CC, STEOM-CC
   Dmitry Ganyushin       : Spin-Orbit,Spin-Spin,Magnetic field MRCI
   Miquel Garcia          : C-PCM and meta-GGA Hessian, CC/C-PCM, Gaussian charge scheme
   Yang Guo               : DLPNO-NEVPT2, F12-NEVPT2, CIM, IAO-localization
   Andreas Hansen         : Spin unrestricted coupled pair/coupled cluster methods
   Benjamin Helmich-Paris : MC-RPA, TRAH-SCF, COSX integrals
   Lee Huntington         : MR-EOM, pCC
   Robert Izsak           : Overlap fitted RIJCOSX, COSX-SCS-MP3, EOM
   Marcus Kettner         : VPT2
   Christian Kollmar      : KDIIS, OOCD, Brueckner-CCSD(T), CCSD density, CASPT2, CASPT2-K
   Simone Kossmann        : Meta GGA functionals, TD-DFT gradient, OOMP2, MP2 Hessian
   Martin Krupicka        : Initial AUTO-CI
   Lucas Lang             : DCDCAS
   Marvin Lechner         : AUTO-CI (C++ implementation), FIC-MRCC
   Dagmar Lenk            : GEPOL surface, SMD
   Dimitrios Liakos       : Extrapolation schemes; Compound Job, initial MDCI parallelization
   Dimitrios Manganas     : Further ROCIS development; embedding schemes
   Dimitrios Pantazis     : SARC Basis sets
   Anastasios Papadopoulos: AUTO-CI, single reference methods and gradients
   Taras Petrenko         : DFT Hessian,TD-DFT gradient, ASA, ECA, R-Raman, ABS, FL, XAS/XES, NRVS
   Peter Pinski           : DLPNO-MP2, DLPNO-MP2 Gradient
   Christoph Reimann      : Effective Core Potentials
   Marius Retegan         : Local ZFS, SOC
   Christoph Riplinger    : Optimizer, TS searches, QM/MM, DLPNO-CCSD(T), (RO)-DLPNO pert. Triples
   Tobias Risthaus        : Range-separated hybrids, TD-DFT gradient, RPA, STAB
   Michael Roemelt        : Original ROCIS implementation
   Masaaki Saitow         : Open-shell DLPNO-CCSD energy and density
   Barbara Sandhoefer     : DKH picture change effects
   Avijit Sen             : IP-ROCIS
   Kantharuban Sivalingam : CASSCF convergence, NEVPT2, FIC-MRCI
   Bernardo de Souza      : ESD, SOC TD-DFT
   Georgi Stoychev        : AutoAux, RI-MP2 NMR, DLPNO-MP2 response
   Willem Van den Heuvel  : Paramagnetic NMR
   Boris Wezisla          : Elementary symmetry handling
   Frank Wennmohs         : Technical directorship


 We gratefully acknowledge several colleagues who have allowed us to
 interface, adapt or use parts of their codes:
   Stefan Grimme, W. Hujo, H. Kruse, P. Pracht,  : VdW corrections, initial TS optimization,
                  C. Bannwarth, S. Ehlert          DFT functionals, gCP, sTDA/sTD-DF
   Ed Valeev, F. Pavosevic, A. Kumar             : LibInt (2-el integral package), F12 methods
   Garnet Chan, S. Sharma, J. Yang, R. Olivares  : DMRG
   Ulf Ekstrom                                   : XCFun DFT Library
   Mihaly Kallay                                 : mrcc  (arbitrary order and MRCC methods)
   Jiri Pittner, Ondrej Demel                    : Mk-CCSD
   Frank Weinhold                                : gennbo (NPA and NBO analysis)
   Christopher J. Cramer and Donald G. Truhlar   : smd solvation model
   Lars Goerigk                                  : TD-DFT with DH, B97 family of functionals
   V. Asgeirsson, H. Jonsson                     : NEB implementation
   FAccTs GmbH                                   : IRC, NEB, NEB-TS, DLPNO-Multilevel, CI-OPT
                                                   MM, QMMM, 2- and 3-layer-ONIOM, Crystal-QMMM,
                                                   LR-CPCM, SF, NACMEs, symmetry and pop. for TD-DFT,
                                                   nearIR, NL-DFT gradient (VV10), updates on ESD,
                                                   ML-optimized integration grids
   S Lehtola, MJT Oliveira, MAL Marques          : LibXC Library
   Liviu Ungur et al                             : ANISO software


 Your calculation uses the libint2 library for the computation of 2-el integrals
 For citations please refer to: http://libint.valeyev.net

 Your ORCA version has been built with support for libXC version: 5.1.0
 For citations please refer to: https://tddft.org/programs/libxc/

 This ORCA versions uses:
   CBLAS   interface :  Fast vector & matrix operations
   LAPACKE interface :  Fast linear algebra routines
   SCALAPACK package :  Parallel linear algebra routines
   Shared memory     :  Shared parallel matrices
   BLAS/LAPACK       :  OpenBLAS 0.3.15  USE64BITINT DYNAMIC_ARCH NO_AFFINITY Prescott SINGLE_THREADED
        Core in use  :  Prescott
   Copyright (c) 2011-2014, The OpenBLAS Project




***************************************
The coordinates will be read from file: start.xyz
***************************************


Your calculation utilizes the atom-pairwise dispersion correction
with the Becke-Johnson damping scheme (D3BJ)
Cite in your paper:
S.Grimme, S.Ehrlich, L.Goerigk, J Comput Chem, (2011), 32, 1456–1465 
S.Grimme, J.Antony, S.Ehrlich and H.Krieg, J.Chem.Phys., 132, (2010), 154104 
   

Your calculation utilizes a Nudged-Elastic-Band implementation
 by V.Asgeirsson, C. Riplinger & H. Jonsson
Please cite in your paper:
 V. Asgeirsson et al., in prep. (2019)
   

================================================================================

----- Orbital basis set information -----
Your calculation utilizes the basis: def2-TZVP
   F. Weigend and R. Ahlrichs, Phys. Chem. Chem. Phys. 7, 3297 (2005).

----- AuxJ basis set information -----
Your calculation utilizes the auxiliary basis: def2/J
   F. Weigend, Phys. Chem. Chem. Phys. 8, 1057 (2006).

================================================================================
                                        WARNINGS
                       Please study these warnings very carefully!
================================================================================


WARNING: Geometry Optimization
  ===> : Switching off AutoStart
         For restart on a previous wavefunction, please use MOREAD

INFO   : the flag for use of the SHARK integral package has been found!

================================================================================
                                       INPUT FILE
================================================================================
NAME = neb.inp
|  1> ! NEB-TS b3lyp D3 def2-TZVP CPCM
|  2> 
|  3> %pal
|  4> nprocs 102
|  5> end
|  6> 
|  7> %cpcm
|  8> epsilon 78.4
|  9> end
| 10> 
| 11> %neb
| 12> NEB_End_XYZFile "end.xyz"
| 13> Nimages 6
| 14> end
| 15> 
| 16> 
| 17> *XYZfile -1 1 start.xyz
| 18> 
| 19>                          ****END OF INPUT****
================================================================================


--------------------------------------------------------------------------------
                        Nudged Elastic Band Calculation
--------------------------------------------------------------------------------

Number of images (incl. end points)     ....  8
Number of intermediate images           ....  6
Number of optimized images              ....  6
Optimization of end points before NEB   ....  NO
Use existing gbw files for MO input     ....  NO
Number of atoms                         ....  27
Number of (active) degrees of freedom   ....  81
Constrained atoms                       ....  None

-----------------------------------------
  REACTANT (ANGSTROEM)
-----------------------------------------
C     -1.057527     0.363602     0.777817 
C      0.263682     0.286989     1.191299 
C      1.243709    -0.224248     0.341536 
C      0.889557    -0.659797    -0.937511 
C     -0.423272    -0.583796    -1.369300 
C     -1.380694    -0.073368    -0.499672 
H     -1.823734     0.757548     1.427891 
H      0.548855     0.626629     2.178923 
H      1.643871    -1.056912    -1.604546 
C      2.665419    -0.336191     0.834867 
H      2.726001     0.115247     1.851194 
C      3.198304    -1.755250     0.861908 
H      4.200905    -1.784531     1.284447 
H      3.216558    -2.207115    -0.130093 
H      2.539203    -2.346562     1.498665 
N      3.551307     0.578067     0.008345 
O      4.638484     0.173072    -0.371289 
O      3.144572     1.715570    -0.190418 
O      2.525164     2.650586     5.277272 
H      2.907977     2.339927     6.104637 
H     -0.705855    -0.913902    -2.357152 
N     -2.772929     0.006461    -0.946330 
O     -3.042500    -0.377882    -2.077956 
O     -3.607976     0.453338    -0.169072 
H      2.025839     0.035676     3.930548 
H      2.580808     1.841472     4.626969 
O      2.675503     0.689891     3.648661 

-----------------------------------------
  PRODUCT (ANGSTROEM)
-----------------------------------------
C      0.704398     1.254490     0.671532 
C      0.588721     1.451709    -0.685257 
C      0.273204     0.386668    -1.575959 
C      0.059956    -0.886544    -0.972837 
C      0.161259    -1.085240     0.383195 
C      0.491040    -0.013891     1.217226 
H      0.965116     2.078647     1.318607 
H      0.760011     2.433171    -1.088460 
H     -0.215355    -1.732405    -1.582462 
C      0.188430     0.492591    -3.003161 
H      2.448478     0.455674    -2.988990 
C      0.095354    -0.720555    -3.885002 
H      0.623530    -0.546051    -4.820750 
H     -0.934881    -0.978957    -4.154463 
H      0.542413    -1.590451    -3.407824 
N      0.072287     1.697698    -3.653642 
O     -0.097588     1.700377    -4.910698 
O      0.112834     2.808384    -3.043474 
O      3.889794     2.751566    -1.425504 
H      3.215659     2.711325    -0.737714 
H     -0.021194    -2.061969     0.805583 
N      0.606596    -0.217878     2.629476 
O      0.432092    -1.353498     3.086780 
O      0.882307     0.747858     3.351431 
H      3.646948    -0.356391    -2.481171 
H      3.750766     1.945602    -1.960947 
O      3.420261     0.435129    -2.987753 



----------------------
NEB settings
----------------------
Method type                             ....  climbing image
Threshold for climbing image            ....  2.00e-02 Eh/Bohr 
Free endpoints                          ....  off 
Tangent type                            ....  improved 
Number of intermediate images           ....  6 
Number of images free to move           ....  6 
Spring type for image distribution      ....  distance between adjacent images 
Spring constant                         ....  energy weighted (0.0100 -to- 0.1000) Eh/Bohr^2 
Spring force perp. to the path          ....  none 
Generation of initial path              ....  image dependent pair potential 
Initial path via TS guess               ....  off 

Minimization of RMSD: Rotation          ....  always 
Minimization of RMSD: Translation type  ....  centroid 
Center fixed to origin                  ....  true 
Remove external force                   ....  true 

Reparametrization of the path           ....  off 
Convergence thresholds:
Convergence monitored for               ....  all images
Scaling factor                          ....  10.00

Convergence parameters for regular images:
               Max(|Fp|)                ....  2.00e-02 Eh/Bohr
               RMS(Fp)                  ....  1.00e-02 Eh/Bohr

Convergence parameters for climbing image:
               Max(|F|)                 ....  2.00e-03 Eh/Bohr
               RMS(F)                   ....  1.00e-03 Eh/Bohr
Optimization method:
Method                                  ....  L-BFGS
Max. iterations                         ....  500 
Step size                               ....  1.00 
Maximum allowed step size               ....  0.10 Bohr

LBFGS parameters: 
               Memory                   ....  20 
               Initial step size        ....  0.0010 
               Estimate curvature       ....  YES 
               Reset on maxmove         ....  YES 
               Reparam. on reset        ....  NO 
Generation of  the initial path:
Minimize RMSD between reactant and product configurations     .... done
       RMSD before minimization         ....  5.4430 Bohr
       RMSD after minimization          ....  1.5092 Bohr
Performing linear interpolation         ....  done
Interpolation using                     ....  IDPP (Image Dependent Pair Potential)
IDPP-Settings:
       Remove global transl. and rot.   ...   true
       Convergence tolerance            ....  0.0100 1/Ang.^3
       Max. numer of iterations         ....    7000
       Spring constant                  ....  1.0000 1/Ang.^4
       Time step                        ....  0.0100 fs
       Max. movement per iteration      ....  0.0500 Ang.
       Full print                       ....  false 
idpp initial path generation successfully converged in 252 iterations
Displacement along initial path:             14.5545 Bohr
Writing initial trajectory to file      ....  neb_initial_path_trj.xyz



----------------------
NEB OPTIMIZATION      
----------------------

Following output files will be written:
Energy profile during opt. written to    ....  neb.interp
Optimization log-file                    ....  neb.NEB.log
Current trajectory will be written to    ....  neb_MEP_trj.xyz
       and to allxyz file                ....  neb_MEP.allxyz
       and individual images to xyz file ....  neb_im{NIm}.xyz
Trajectory history will be written to    ....  neb_MEP_ALL_trj.xyz
Converged CI will be written to          ....  neb_NEB-CI_converged.xyz
Converged TS will be written to          ....  neb_NEB-TS_converged.xyz

Single point energy and gradient calculation of reactant and
product configurations (have to be performed only once)
Properties of fixed NEB end points:
               Reactant:
                         E               ....   -872.243435 Eh
                         RMS(F)          ....      0.000080 Eh/Bohr
                         MAX(|F|)        ....      0.000506 Eh/Bohr
               Product:
                         E               ....   -872.272149 Eh
                         RMS(F)          ....      0.000560 Eh/Bohr
                         MAX(|F|)        ....      0.002020 Eh/Bohr



Starting iterations:

Optim.  Iteration  HEI  E(HEI)-E(0)  max(|Fp|)   RMS(Fp)    dS
Switch-on CI threshold               0.020000 
   LBFGS     0      3    0.031946    0.077313   0.009143  14.5545       
   LBFGS     1      3    0.024254    0.065763   0.006681  14.5393       
   LBFGS     2      3    0.019609    0.054911   0.006180  14.5390       
   LBFGS     3      3    0.016873    0.050945   0.004626  14.5335       
   LBFGS     4      3    0.015332    0.046707   0.004798  14.5366       
   LBFGS     5      3    0.013700    0.042816   0.003883  14.5363       
   LBFGS     6      3    0.012349    0.038546   0.003493  14.5384       
   LBFGS     7      3    0.010955    0.034007   0.003158  14.5402       
   LBFGS     8      3    0.009192    0.032825   0.003666  14.5265       
   LBFGS     9      3    0.007718    0.029411   0.002721  14.5450       
   LBFGS    10      3    0.005974    0.025538   0.002487  14.5578       
   LBFGS    11      2    0.004810    0.023302   0.002666  14.5641       
   LBFGS    12      2    0.004094    0.021983   0.002231  14.5934       
   LBFGS    13      2    0.003643    0.018557   0.002156  14.6260       

Image  2 will be converted to a climbing image in the next iteration (max(|Fp|) < 0.0200) 

Optim.  Iteration  CI   E(CI)-E(0)   max(|Fp|)   RMS(Fp)    dS     max(|FCI|)   RMS(FCI)
Convergence thresholds               0.020000   0.010000            0.002000    0.001000 
   LBFGS    14      2    0.003596    0.018376   0.002083  14.6264    0.006132    0.001829       
   LBFGS    15      2    0.003381    0.022381   0.002721  14.6355    0.007022    0.002417       
   LBFGS    16      2    0.003208    0.030584   0.003595  14.6788    0.010675    0.003537       
   LBFGS    17      2    0.003010    0.019703   0.002708  14.7169    0.008852    0.003075       
   LBFGS    18      2    0.002784    0.012617   0.002028  14.7245    0.005627    0.001978       
   LBFGS    19      2    0.002541    0.009481   0.001357  14.7701    0.004704    0.001122       
   LBFGS    20      2    0.002498    0.019570   0.002169  14.8041    0.004748    0.001819       
   LBFGS    21      2    0.002330    0.016398   0.001729  14.8707    0.003693    0.001436       
   LBFGS    22      2    0.002409    0.017877   0.002530  14.9091    0.008378    0.002640       
   LBFGS    23      2    0.002360    0.018062   0.002488  14.9378    0.007745    0.002551       
   LBFGS    24      2    0.002447    0.014898   0.002471  14.9808    0.009096    0.003327       
   LBFGS    25      3    0.004311    0.008956   0.001263  14.9754    0.022258    0.003733       
   LBFGS    26      3    0.004802    0.009548   0.001473  14.9852    0.020169    0.003591       
   LBFGS    27      3    0.006385    0.009413   0.001634  15.0381    0.011688    0.002523       
   LBFGS    28      3    0.006563    0.009343   0.001646  15.0523    0.010421    0.002488       
   LBFGS    29      3    0.006565    0.008702   0.001494  15.0635    0.008639    0.002071       
   LBFGS    30      3    0.006134    0.007386   0.001369  15.1442    0.006203    0.002172       
   LBFGS    31      3    0.005990    0.004915   0.000944  15.1532    0.004937    0.001508       
   LBFGS    32      3    0.005916    0.005202   0.000891  15.1625    0.004721    0.001376       
   LBFGS    33      3    0.005438    0.007869   0.001121  15.2649    0.005887    0.001517       
   LBFGS    34      3    0.005357    0.003763   0.000638  15.2604    0.002841    0.000865       
   LBFGS    35      3    0.005327    0.004115   0.000644  15.2580    0.003024    0.000895       
   LBFGS    36      3    0.005002    0.005275   0.000871  15.2477    0.003268    0.001019       
   LBFGS    37      3    0.004963    0.004746   0.000773  15.2630    0.003596    0.001007       
   LBFGS    38      3    0.004919    0.004109   0.000518  15.2680    0.002240    0.000724       
   LBFGS    39      3    0.004773    0.005664   0.000695  15.2879    0.002711    0.000818       
   LBFGS    40      3    0.004574    0.012377   0.001435  15.3428    0.005323    0.001330       
   LBFGS    41      3    0.004512    0.008983   0.001279  15.3579    0.004222    0.001151       
   LBFGS    42      3    0.004468    0.004889   0.000603  15.3560    0.002144    0.000633       
   LBFGS    43      3    0.004444    0.005778   0.000801  15.3431    0.002862    0.000764       
   LBFGS    44      3    0.004430    0.006380   0.000942  15.3315    0.003312    0.000875       
   LBFGS    45      3    0.004352    0.005883   0.000708  15.3153    0.002168    0.000667       
   LBFGS    46      3    0.004227    0.005735   0.000791  15.3005    0.001823    0.000678       

                                .--------------------.
          ----------------------| CI-NEB convergence |-------------------------
          Item                value                   Tolerance       Converged
          ---------------------------------------------------------------------
          RMS(Fp)             0.0007914885            0.0100000000      YES
          MAX(|Fp|)           0.0057350754            0.0200000000      YES
          RMS(FCI)            0.0006775421            0.0010000000      YES
          MAX(|FCI|)          0.0018227198            0.0020000000      YES
          ---------------------------------------------------------------------

The elastic band and climbing image have converged successfully to a MEP in 46 iterations!


                    *********************H U R R A Y*********************
                    ***        THE NEB OPTIMIZATION HAS CONVERGED     ***
                    *****************************************************



---------------------------------------------------------------
                         PATH SUMMARY              
---------------------------------------------------------------
All forces in Eh/Bohr.

Image Dist.(Ang.)    E(Eh)   dE(kcal/mol)  max(|Fp|)  RMS(Fp)
  0     0.000    -872.24344      0.00       0.00051   0.00008
  1     1.536    -872.24287      0.36       0.00230   0.00062
  2     2.394    -872.24184      1.00       0.00574   0.00139
  3     2.728    -872.23921      2.65       0.00182   0.00066 <= CI
  4     2.928    -872.24565     -1.39       0.00560   0.00133
  5     4.846    -872.26588    -14.09       0.00167   0.00041
  6     6.574    -872.27093    -17.25       0.00153   0.00038
  7     8.097    -872.27215    -18.02       0.00202   0.00056

Straight line distance between images along the path:
        D( 0- 1) =   1.5363 Ang.
        D( 1- 2) =   0.8578 Ang.
        D( 2- 3) =   0.3336 Ang.
        D( 3- 4) =   0.2003 Ang.
        D( 4- 5) =   1.9184 Ang.
        D( 5- 6) =   1.7272 Ang.
        D( 6- 7) =   1.5231 Ang.

---------------------------------------------------------------
               INFORMATION ABOUT SADDLE POINT     
---------------------------------------------------------------

Climbing image                            ....  3 
Energy                                    ....  -872.23920793 Eh
Max. abs. force                           ....  1.8227e-03 Eh/Bohr

-----------------------------------------
  SADDLE POINT (ANGSTROEM)
-----------------------------------------
C     -2.088003     0.745959    -0.202608 
C     -0.751365     0.656531     0.143955 
C      0.124553    -0.166859    -0.571564 
C     -0.366202    -0.877786    -1.670398 
C     -1.700289    -0.797177    -2.036716 
C     -2.549508     0.006384    -1.283979 
H     -2.770191     1.364757     0.361269 
H     -0.380270     1.208869     0.995099 
H      0.297785    -1.505562    -2.248743 
C      1.550476    -0.330390    -0.118879 
H      1.554403    -0.060475     1.120422 
C      2.136707    -1.721581    -0.262712 
H      3.089759    -1.788575     0.259853 
H      2.298476    -2.013204    -1.303097 
H      1.448555    -2.434346     0.193892 
N      2.413225     0.696437    -0.670161 
O      3.604588     0.433924    -0.877202 
O      1.960124     1.837017    -0.841550 
O      0.934700     2.430131     3.781176 
H      0.863923     2.211947     4.716252 
H     -2.077632    -1.347815    -2.883120 
N     -3.967408     0.056291    -1.626564 
O     -4.364665    -0.605397    -2.579897 
O     -4.707658     0.754611    -0.938941 
H      0.807695    -0.471885     2.744266 
H      1.141661     1.566155     3.315059 
O      1.496562     0.152039     2.484889 

-----------------------------------------
  FORCES (Eh/Bohr)
-----------------------------------------
C     -0.000470     0.000855     0.001065 
C      0.000141    -0.000358    -0.000315 
C     -0.000087     0.000351     0.001219 
C     -0.000457    -0.000429    -0.000550 
C      0.000532     0.000866     0.001302 
C      0.000372    -0.001435    -0.001693 
H      0.000289    -0.000165    -0.000179 
H     -0.000064    -0.000493     0.000171 
H     -0.000299    -0.000259     0.000281 
C      0.000098     0.000097     0.000700 
H      0.000395     0.000233    -0.001686 
C     -0.000211     0.000213     0.000008 
H     -0.000524    -0.000107    -0.000023 
H      0.000147    -0.000211     0.000068 
H      0.000005     0.000073    -0.000279 
N      0.000684     0.000871     0.000326 
O     -0.000306     0.000555     0.000702 
O     -0.000378    -0.000320    -0.000341 
O      0.000347    -0.000266    -0.001696 
H     -0.000042    -0.000736     0.000479 
H     -0.000578    -0.000545    -0.000594 
N     -0.001823     0.001303     0.000931 
O      0.000638     0.000372     0.000164 
O      0.001005    -0.000767    -0.001268 
H     -0.000198    -0.000060     0.000541 
H      0.000105    -0.000082    -0.000498 
O      0.000740     0.000693     0.001137 

-----------------------------------------
  UNIT TANGENT
-----------------------------------------
C     -0.014216     0.021156     0.003528 
C     -0.020188     0.038224     0.010221 
C     -0.002245     0.016784     0.044474 
C     -0.011741    -0.009866     0.055740 
C      0.002430    -0.007362     0.036983 
C     -0.014023    -0.001701     0.010031 
H     -0.023768     0.020374    -0.007552 
H     -0.032989     0.072499    -0.004637 
H      0.000797    -0.002974     0.064171 
C      0.009167     0.011511    -0.109832 
H     -0.057013     0.009938     0.453312 
C     -0.006968     0.007608     0.031207 
H     -0.014425    -0.002272     0.051438 
H      0.031590    -0.000289     0.040219 
H     -0.026513     0.006908     0.006039 
N     -0.079854    -0.052353     0.153752 
O      0.018871     0.031954     0.272776 
O     -0.064696     0.001828     0.074495 
O      0.011696    -0.011492    -0.028501 
H      0.043800    -0.148232    -0.052621 
H      0.018201    -0.004056     0.028201 
N     -0.001023    -0.001742    -0.000876 
O     -0.000095    -0.004177    -0.007799 
O     -0.013448    -0.001148    -0.012370 
H      0.178086    -0.088410    -0.319689 
H      0.021718     0.145214    -0.150920 
O      0.046850    -0.047923    -0.641791 
 => Unit tangent is an approximation to the TS mode at the saddle point

Next a TS optimization is performed on the CI from the NEB run.

         *************************************************************
         *                       TS OPTIMIZATION                     *
         *************************************************************


Following output files will be written:
Converged TS will be written to          ....  neb_NEB-TS_converged.xyz
                                         ....  neb.xyz
Current trajectory will be written to    ....  neb_trj.xyz
Initial Hessian will be stored in        ....  neb.appr.hess
Geometry optimization settings:
Update method            Update   .... Bofill
Choice of coordinates    CoordSys .... Z-matrix Internals
Initial Hessian          InHess   .... Read

Convergence Tolerances:
Energy Change            TolE     ....  5.0000e-06 Eh
Max. Gradient            TolMAXG  ....  3.0000e-04 Eh/bohr
RMS Gradient             TolRMSG  ....  1.0000e-04 Eh/bohr
Max. Displacement        TolMAXD  ....  4.0000e-03 bohr
RMS Displacement         TolRMSD  ....  2.0000e-03 bohr
Strict Convergence                ....  False
------------------------------------------------------------------------------
                        ORCA OPTIMIZATION COORDINATE SETUP
------------------------------------------------------------------------------

The optimization will be done in new redundant internal coordinates
Making redundant internal coordinates   ...  (new redundants) done
Following TS mode number                ...     0
TS-active-atoms for coordinate setup... 10 24 26 
Evaluating the initial hessian          ... (Reading Exact Hessian)...  
InHessName: neb.appr.hess	The file <neb.appr.hess> is opened as a .hess file
done
done
Diagonalizing the Hessian               .... done
Dimension of the hessian                .... 134
Lowest eigenvalues of the non projected Hessian:
 -0.027209838 -0.000000000 -0.000000000 -0.000000000 -0.000000000
done
Evaluating the coordinates              ...  done
Calculating the B-matrix                .... done
Calculating the G-matrix                .... done
Diagonalizing the G-matrix              .... done
Small eigenvalue found = 5.635e-03
Small eigenvalue found = 2.379e-02
The first mode is                       ....   59
The number of degrees of freedom        ....   75

    -----------------------------------------------------------------
                    Redundant Internal Coordinates


    -----------------------------------------------------------------
         Definition                    Initial Value    d2E/dq (diagonal element)
    -----------------------------------------------------------------
      1. B(C   1,C   0)                  1.3837         0.591644   
      2. B(C   2,C   1)                  1.3990         0.564436   
      3. B(C   3,C   2)                  1.3977         0.566375   
      4. B(C   4,C   3)                  1.3858         0.585812   
      5. B(C   5,C   4)                  1.3905         0.576190   
      6. B(C   5,C   0)                  1.3890         0.579188   
      7. B(H   6,C   0)                  1.0799         0.373795   
      8. B(H   7,C   1)                  1.0804         0.373136   
      9. B(H   8,C   3)                  1.0814         0.371854   
     10. B(C   9,C   2)                  1.5050         0.411827   
     11. B(H  10,C   9)                  1.2684         0.473013   
     12. B(C  11,C   9)                  1.5165         0.392402   
     13. B(H  12,C  11)                  1.0890         0.361457   
     14. B(H  13,C  11)                  1.0925         0.357017   
     15. B(H  14,C  11)                  1.0909         0.358931   
     16. B(N  15,C   9)                  1.4500         0.417309   
     17. B(O  16,N  15)                  1.2374         0.881721   
     18. B(O  17,N  15)                  1.2392         0.870804   
     19. B(H  19,O  18)                  0.9628         0.514849   
     20. B(H  20,C   4)                  1.0780         0.376547   
     21. B(N  21,C   5)                  1.4596         0.433666   
     22. B(O  22,N  21)                  1.2266         0.913496   
     23. B(O  23,N  21)                  1.2282         0.908182   
     24. B(H  25,H  24)                  2.1426         0.040002   
     25. B(H  25,O  18)                  1.0033         0.439076   
     26. B(O  26,H  25)                  1.6778         0.054748   
     27. B(O  26,H  10)                  1.3821         0.160942   
     28. B(O  26,H  24)                  0.9649         0.362589   
     29. A(C   1,C   0,C   5)          118.7850         0.160297   
     30. A(C   5,C   0,H   6)          120.1132         0.218058   
     31. A(C   1,C   0,H   6)          121.0949         0.218450   
     32. A(C   0,C   1,C   2)          120.9801         0.160815   
     33. A(C   0,C   1,H   7)          119.7401         0.218441   
     34. A(C   2,C   1,H   7)          119.2598         0.218237   
     35. A(C   3,C   2,C   9)          120.9217         0.240117   
     36. A(C   1,C   2,C   3)          118.7903         0.160361   
     37. A(C   1,C   2,C   9)          120.2208         0.239758   
     38. A(C   4,C   3,H   8)          118.9129         0.217947   
     39. A(C   2,C   3,H   8)          120.0078         0.217803   
     40. A(C   2,C   3,C   4)          121.0791         0.160909   
     41. A(C   3,C   4,H  20)          120.9860         0.218493   
     42. A(C   5,C   4,H  20)          120.4288         0.218048   
     43. A(C   3,C   4,C   5)          118.5843         0.160017   
     44. A(C   4,C   5,N  21)          119.0778         0.244101   
     45. A(C   0,C   5,N  21)          119.1635         0.244335   
     46. A(C   0,C   5,C   4)          121.7510         0.164164   
     47. A(C   2,C   9,H  10)          105.8853         0.051916   
     48. A(C  11,C   9,N  15)          112.5545         0.082359   
     49. A(H  10,C   9,N  15)          102.6465         0.063814   
     50. A(C   2,C   9,N  15)          111.8655         0.064819   
     51. A(H  10,C   9,C  11)          106.6603         0.055650   
     52. A(C   2,C   9,C  11)          115.9393         0.073905   
     53. L(C   9,H  10,O  26,C   2, 1) 177.9291         0.175608   
     54. L(C   9,H  10,O  26,C   2, 2) 174.3544         0.218575   
     55. A(H  13,C  11,H  14)          108.5167         0.116060   
     56. A(H  12,C  11,H  14)          108.1210         0.108182   
     57. A(C   9,C  11,H  14)          108.4112         0.223185   
     58. A(H  12,C  11,H  13)          108.1169         0.121199   
     59. A(C   9,C  11,H  13)          113.1057         0.227551   
     60. A(C   9,C  11,H  12)          110.4409         0.224920   
     61. A(O  16,N  15,O  17)          121.6124         0.314905   
     62. A(C   9,N  15,O  17)          119.1315         0.295652   
     63. A(C   9,N  15,O  16)          119.0933         0.291728   
     64. A(H  19,O  18,H  25)          105.7376         0.336576   
     65. A(O  22,N  21,O  23)          123.1386         0.311083   
     66. A(C   5,N  21,O  23)          118.2648         0.291625   
     67. A(C   5,N  21,O  22)          118.5951         0.291774   
     68. A(H  25,H  24,O  26)           49.1035         0.029210   
     69. A(H  24,H  25,O  26)           25.7687         0.028602   
     70. A(O  18,H  25,H  24)          155.6064         0.129315   
     71. A(H  10,O  26,H  25)          128.8245         0.126543   
     72. A(H  24,O  26,H  25)          105.1278         0.064616   
     73. A(H  10,O  26,H  24)          101.2929         0.080936   
     74. D(C   2,C   1,C   0,C   5)     -0.3508         0.008823   
     75. D(C   2,C   1,C   0,H   6)    178.6902         0.010076   
     76. D(H   7,C   1,C   0,C   5)   -178.7123         0.009680   
     77. D(H   7,C   1,C   0,H   6)      0.3287         0.012377   
     78. D(C   3,C   2,C   1,H   7)    179.9505         0.008565   
     79. D(C   9,C   2,C   1,C   0)   -175.4648         0.007899   
     80. D(C   3,C   2,C   1,C   0)      1.5812         0.007460   
     81. D(C   9,C   2,C   1,H   7)      2.9044         0.010013   
     82. D(H   8,C   3,C   2,C   1)    178.8513         0.008674   
     83. D(H   8,C   3,C   2,C   9)     -4.1241         0.009624   
     84. D(C   4,C   3,C   2,C   9)    175.7178         0.008171   
     85. D(C   4,C   3,C   2,C   1)     -1.3069         0.007475   
     86. D(C   5,C   4,C   3,H   8)    179.6578         0.009495   
     87. D(H  20,C   4,C   3,C   2)   -179.8631         0.009911   
     88. D(C   5,C   4,C   3,C   2)     -0.1858         0.008776   
     89. D(H  20,C   4,C   3,H   8)     -0.0196         0.012133   
     90. D(N  21,C   5,C   4,H  20)      2.1741         0.010430   
     91. D(C   0,C   5,C   4,H  20)   -178.8474         0.008981   
     92. D(C   0,C   5,C   4,C   3)      1.4734         0.008047   
     93. D(N  21,C   5,C   0,H   6)     -1.2820         0.010486   
     94. D(C   4,C   5,C   0,H   6)    179.7404         0.009077   
     95. D(N  21,C   5,C   4,C   3)   -177.5051         0.008520   
     96. D(C   4,C   5,C   0,C   1)     -1.2089         0.008110   
     97. D(N  21,C   5,C   0,C   1)    177.7688         0.008516   
     98. D(N  15,C   9,C   2,C   1)    -87.3363         0.032602   
     99. D(C  11,C   9,C   2,C   3)    -35.2228         0.015395   
    100. D(C  11,C   9,C   2,C   1)    141.7595         0.015106   
    101. D(H  10,C   9,C   2,C   3)   -153.2506         0.017149   
    102. D(H  10,C   9,C   2,C   1)     23.7316         0.016753   
    103. D(N  15,C   9,C   2,C   3)     95.6814         0.035491   
    104. D(H  12,C  11,C   9,C   2)   -169.1162         0.027053   
    105. D(H  14,C  11,C   9,H  10)     66.7703         0.031587   
    106. D(H  14,C  11,C   9,C   2)    -50.8287         0.025975   
    107. D(H  13,C  11,C   9,N  15)    -61.0135         0.031205   
    108. D(H  13,C  11,C   9,H  10)   -172.8369         0.032417   
    109. D(H  13,C  11,C   9,C   2)     69.5641         0.025950   
    110. D(H  12,C  11,C   9,N  15)     60.3062         0.029650   
    111. D(H  14,C  11,C   9,N  15)    178.5937         0.033002   
    112. D(H  12,C  11,C   9,H  10)    -51.5172         0.034729   
    113. D(O  17,N  15,C   9,C  11)    166.9536         0.022628   
    114. D(O  17,N  15,C   9,H  10)    -78.7566         0.020607   
    115. D(O  17,N  15,C   9,C   2)     34.3415         0.018277   
    116. D(O  16,N  15,C   9,C  11)    -17.6085         0.020521   
    117. D(O  16,N  15,C   9,H  10)     96.6813         0.034169   
    118. D(O  16,N  15,C   9,C   2)   -150.2207         0.028465   
    119. D(O  23,N  21,C   5,C   4)    178.8825         0.009154   
    120. D(O  23,N  21,C   5,C   0)     -0.1228         0.009148   
    121. D(O  22,N  21,C   5,C   4)     -0.6833         0.009145   
    122. D(O  22,N  21,C   5,C   0)   -179.6886         0.009146   
    123. D(O  18,H  25,H  24,O  26)    176.4239         0.036171   
    124. D(H  24,H  25,O  18,H  19)     57.2065         0.087064   
    125. D(H  10,O  26,H  25,H  24)    118.5503         0.036915   
    126. D(H  10,O  26,H  24,H  25)   -135.7457         0.103798   
    127. D(H  24,O  26,O  18,H  19)     54.1706         0.025285   
    128. D(H  25,O  26,C   9,N  15)     52.6550         0.025127   
    129. D(H  25,O  26,C   9,C  11)    171.7311         0.026567   
    130. D(H  25,O  26,C   9,C   2)    -65.3327         0.025755   
    131. D(H  10,O  26,O  18,H  19)    172.7280         0.018774   
    132. D(H  24,O  26,C   9,N  15)    171.5470         0.029157   
    133. D(H  24,O  26,C   9,C  11)    -69.3770         0.025998   
    134. D(H  24,O  26,C   9,C   2)     53.5592         0.025959   
    -----------------------------------------------------------------

Number of atoms                         .... 27
Number of degrees of freedom            .... 134

         *************************************************************
         *                GEOMETRY OPTIMIZATION CYCLE   1            *
         *************************************************************


           ************************************************************
           *        Program running with 102 parallel MPI-processes   *
           *              working on a common directory               *
           ************************************************************
------------------------------------------------------------------------------
                           ORCA GTO INTEGRAL CALCULATION
                           -- RI-GTO INTEGRALS CHOSEN --
------------------------------------------------------------------------------
------------------------------------------------------------------------------
                   ___                                                        
                  /   \      - P O W E R E D   B Y -                         
                 /     \                                                     
                 |  |  |   _    _      __       _____    __    __             
                 |  |  |  | |  | |    /  \     |  _  \  |  |  /  |          
                  \  \/   | |  | |   /    \    | | | |  |  | /  /          
                 / \  \   | |__| |  /  /\  \   | |_| |  |  |/  /          
                |  |  |   |  __  | /  /__\  \  |    /   |      \           
                |  |  |   | |  | | |   __   |  |    \   |  |\   \          
                \     /   | |  | | |  |  |  |  | |\  \  |  | \   \       
                 \___/    |_|  |_| |__|  |__|  |_| \__\ |__|  \__/        
                                                                              
                      - O R C A' S   B I G   F R I E N D -                    
                                      &                                       
                       - I N T E G R A L  F E E D E R -                       
                                                                              
 v1 FN, 2020, v2 2021                                                         
------------------------------------------------------------------------------


Reading SHARK input file neb.SHARKINP.tmp ... ok
----------------------
SHARK INTEGRAL PACKAGE
----------------------

Number of atoms                             ...     27
Number of basis functions                   ...    562
Number of shells                            ...    220
Maximum angular momentum                    ...      3
Integral batch strategy                     ... SHARK/LIBINT Hybrid
RI-J (if used) integral strategy            ... SPLIT-RIJ (Revised 2003 algorithm where possible)
Printlevel                                  ...      1
Contraction scheme used                     ... SEGMENTED contraction
Coulomb Range Separation                    ... NOT USED
Exchange Range Separation                   ... NOT USED
Finite Nucleus Model                        ... NOT USED
Auxiliary Coulomb fitting basis             ... AVAILABLE
   # of basis functions in Aux-J            ...    905
   # of shells in Aux-J                     ...    295
   Maximum angular momentum in Aux-J        ...      4
Auxiliary J/K fitting basis                 ... NOT available
Auxiliary Correlation fitting basis         ... NOT available
Auxiliary 'external' fitting basis          ... NOT available
Integral threshold                          ...     2.500000e-11
Primitive cut-off                           ...     2.500000e-12
Primitive pair pre-selection threshold      ...     2.500000e-12

Calculating pre-screening integrals         ... done (  0.1 sec) Dimension = 220
Organizing shell pair data                  ... done (  0.4 sec)
Shell pair information
Total number of shell pairs                 ...     24310
Shell pairs after pre-screening             ...     17926
Total number of primitive shell pairs       ...     75076
Primitive shell pairs kept                  ...     37719
          la=0 lb=0:   4611 shell pairs
          la=1 lb=0:   5130 shell pairs
          la=1 lb=1:   1457 shell pairs
          la=2 lb=0:   2551 shell pairs
          la=2 lb=1:   1459 shell pairs
          la=2 lb=2:    375 shell pairs
          la=3 lb=0:   1217 shell pairs
          la=3 lb=1:    696 shell pairs
          la=3 lb=2:    340 shell pairs
          la=3 lb=3:     90 shell pairs

Calculating one electron integrals          ... done (  0.1 sec)
Calculating RI/J V-Matrix + Cholesky decomp.... done (  0.1 sec)
Calculating Nuclear repulsion               ... done (  0.0 sec) ENN=   1104.958634566983 Eh

SHARK setup successfully completed in   1.1 seconds

Maximum memory used throughout the entire GTOINT-calculation: 30.2 MB


           ************************************************************
           *        Program running with 102 parallel MPI-processes   *
           *              working on a common directory               *
           ************************************************************
-------------------------------------------------------------------------------
                                 ORCA SCF
-------------------------------------------------------------------------------

------------
SCF SETTINGS
------------
Hamiltonian:
 Density Functional     Method          .... DFT(GTOs)
 Exchange Functional    Exchange        .... B88
   X-Alpha parameter    XAlpha          ....  0.666667
   Becke's b parameter  XBeta           ....  0.004200
 Correlation Functional Correlation     .... LYP
 LDA part of GGA corr.  LDAOpt          .... VWN-5
 Gradients option       PostSCFGGA      .... off
 Hybrid DFT is turned on
   Fraction HF Exchange ScalHFX         ....  0.200000
   Scaling of DF-GGA-X  ScalDFX         ....  0.720000
   Scaling of DF-GGA-C  ScalDFC         ....  0.810000
   Scaling of DF-LDA-C  ScalLDAC        ....  1.000000
   Perturbative correction              ....  0.000000
   Density functional embedding theory  .... OFF
   NL short-range parameter             ....  4.800000
 RI-approximation to the Coulomb term is turned on
   Number of AuxJ basis functions       .... 905
   RIJ-COSX (HFX calculated with COS-X)).... on


General Settings:
 Integral files         IntName         .... neb
 Hartree-Fock type      HFTyp           .... RHF
 Total Charge           Charge          ....   -1
 Multiplicity           Mult            ....    1
 Number of Electrons    NEL             ....  122
 Basis Dimension        Dim             ....  562
 Nuclear Repulsion      ENuc            ....   1104.9586345670 Eh

Convergence Acceleration:
 DIIS                   CNVDIIS         .... on
   Start iteration      DIISMaxIt       ....    12
   Startup error        DIISStart       ....  0.200000
   # of expansion vecs  DIISMaxEq       ....     5
   Bias factor          DIISBfac        ....   1.050
   Max. coefficient     DIISMaxC        ....  10.000
 Trust-Rad. Augm. Hess. CNVTRAH         .... auto
   Auto Start mean grad. ratio tolernc. ....  1.125000
   Auto Start start iteration           ....     1
   Auto Start num. interpolation iter.  ....    10
   Max. Number of Micro iterations      ....    16
   Max. Number of Macro iterations      .... Maxiter - #DIIS iter
   Number of Davidson start vectors     ....     2
   Converg. threshold I  (grad. norm)   ....   1.000e-05
   Converg. threshold II (energy diff.) ....   1.000e-08
   Grad. Scal. Fac. for Micro threshold ....   0.100
   Minimum threshold for Micro iter.    ....   0.010
   NR start threshold (gradient norm)   ....   0.001
   Initial trust radius                 ....   0.400
   Minimum AH scaling param. (alpha)    ....   1.000
   Maximum AH scaling param. (alpha)    .... 1000.000
   Orbital update algorithm             .... Taylor
   White noise on init. David. guess    .... on
   Maximum white noise                  ....   0.010
   Quad. conv. algorithm                .... NR
 SOSCF                  CNVSOSCF        .... on
   Start iteration      SOSCFMaxIt      ....   150
   Startup grad/error   SOSCFStart      ....  0.003300
 Level Shifting         CNVShift        .... on
   Level shift para.    LevelShift      ....    0.2500
   Turn off err/grad.   ShiftErr        ....    0.0010
 Zerner damping         CNVZerner       .... off
 Static damping         CNVDamp         .... on
   Fraction old density DampFac         ....    0.7000
   Max. Damping (<1)    DampMax         ....    0.9800
   Min. Damping (>=0)   DampMin         ....    0.0000
   Turn off err/grad.   DampErr         ....    0.1000
 Fernandez-Rico         CNVRico         .... off

SCF Procedure:
 Maximum # iterations   MaxIter         ....   125
 SCF integral mode      SCFMode         .... Direct
   Integral package                     .... SHARK and LIBINT hybrid scheme
 Reset frequency        DirectResetFreq ....    20
 Integral Threshold     Thresh          ....  2.500e-11 Eh
 Primitive CutOff       TCut            ....  2.500e-12 Eh

Convergence Tolerance:
 Convergence Check Mode ConvCheckMode   .... Total+1el-Energy
 Convergence forced     ConvForced      .... 0
 Energy Change          TolE            ....  1.000e-08 Eh
 1-El. energy change                    ....  1.000e-05 Eh
 Orbital Gradient       TolG            ....  1.000e-05
 Orbital Rotation angle TolX            ....  1.000e-05
 DIIS Error             TolErr          ....  5.000e-07


Diagonalization of the overlap matrix:
Smallest eigenvalue                        ... 6.773e-06
Time for diagonalization                   ...    0.173 sec
Threshold for overlap eigenvalues          ... 1.000e-08
Number of eigenvalues below threshold      ... 0
Time for construction of square roots      ...    0.233 sec
Total time needed                          ...    0.410 sec

---------------------
INITIAL GUESS: MOREAD
---------------------
Guess MOs are being read from file: neb.gbw
Input Geometry matches current geometry (good)
Input basis set matches current basis set (good)
MOs were renormalized
MOs were reorthogonalized (Cholesky)
                      ------------------
                      INITIAL GUESS DONE (   0.6 sec)
                      ------------------
-------------------
DFT GRID GENERATION
-------------------

General Integration Accuracy     IntAcc      ... 4.388
Radial Grid Type                 RadialGrid  ... OptM3 with GC (2021)
Angular Grid (max. ang.)         AngularGrid ... 4 (Lebedev-302)
Angular grid pruning method      GridPruning ... 4 (adaptive)
Weight generation scheme         WeightScheme... Becke
Basis function cutoff            BFCut       ... 1.0000e-11
Integration weight cutoff        WCut        ... 1.0000e-14
Angular grids for H and He will be reduced by one unit
Partially contracted basis set               ... off
Rotationally invariant grid construction     ... off

Total number of grid points                  ...   131609
Total number of batches                      ...     2070
Average number of points per batch           ...       63
Average number of grid points per atom       ...     4874
Time for grid setup =    1.072 sec

--------------------
COSX GRID GENERATION
--------------------

GRIDX 1
-------
General Integration Accuracy     IntAcc      ... 3.816
Radial Grid Type                 RadialGrid  ... OptM3 with GC (2021)
Angular Grid (max. ang.)         AngularGrid ... 1 (Lebedev-50)
Angular grid pruning method      GridPruning ... 4 (adaptive)
Weight generation scheme         WeightScheme... Becke
Basis function cutoff            BFCut       ... 1.0000e-11
Integration weight cutoff        WCut        ... 1.0000e-14
Angular grids for H and He will be reduced by one unit
Partially contracted basis set               ... on
Rotationally invariant grid construction     ... off

Total number of grid points                  ...    16706
Total number of batches                      ...      273
Average number of points per batch           ...       61
Average number of grid points per atom       ...      619
UseSFitting                                  ... on

GRIDX 2
-------
General Integration Accuracy     IntAcc      ... 4.020
Radial Grid Type                 RadialGrid  ... OptM3 with GC (2021)
Angular Grid (max. ang.)         AngularGrid ... 2 (Lebedev-110)
Angular grid pruning method      GridPruning ... 4 (adaptive)
Weight generation scheme         WeightScheme... Becke
Basis function cutoff            BFCut       ... 1.0000e-11
Integration weight cutoff        WCut        ... 1.0000e-14
Angular grids for H and He will be reduced by one unit
Partially contracted basis set               ... on
Rotationally invariant grid construction     ... off

Total number of grid points                  ...    36829
Total number of batches                      ...      588
Average number of points per batch           ...       62
Average number of grid points per atom       ...     1364
UseSFitting                                  ... on

GRIDX 3
-------
General Integration Accuracy     IntAcc      ... 4.338
Radial Grid Type                 RadialGrid  ... OptM3 with GC (2021)
Angular Grid (max. ang.)         AngularGrid ... 3 (Lebedev-194)
Angular grid pruning method      GridPruning ... 4 (adaptive)
Weight generation scheme         WeightScheme... Becke
Basis function cutoff            BFCut       ... 1.0000e-11
Integration weight cutoff        WCut        ... 1.0000e-14
Angular grids for H and He will be reduced by one unit
Partially contracted basis set               ... on
Rotationally invariant grid construction     ... off

Total number of grid points                  ...    80870
Total number of batches                      ...     1277
Average number of points per batch           ...       63
Average number of grid points per atom       ...     2995
UseSFitting                                  ... on

Time for X-Grid setup             =    1.640 sec


--------------------
CPCM SOLVATION MODEL
--------------------
CPCM parameters:
  Epsilon                                         ...      78.4000
  Refrac                                          ...       1.3300
  Rsolv                                           ...       1.3000
  Surface type                                    ... GAUSSIAN VDW
  Epsilon function type                           ...         CPCM
Radii:
 Radius for C  used is    3.8550 Bohr (=   2.0400 Ang.)
 Radius for H  used is    2.4944 Bohr (=   1.3200 Ang.)
 Radius for N  used is    3.5149 Bohr (=   1.8600 Ang.)
 Radius for O  used is    3.4469 Bohr (=   1.8240 Ang.)
Calculating surface                               ...        done! (  0.0s)
GEPOL surface points                              ...         1513
GEPOL Volume                                      ...    1791.9764
GEPOL Surface-area                                ...    1009.0120
Calculating surface distance matrix               ...        done! (  0.1s)
Performing Cholesky decomposition & store         ...        done! (  0.4s)
Overall time for CPCM initialization              ...                 0.6s
--------------
SCF ITERATIONS
--------------
ITER       Energy         Delta-E        Max-DP      RMS-DP      [F,P]     Damp
               ***  Starting incremental Fock matrix formation  ***
                      *** Initiating the SOSCF procedure ***
                      *** Re-Reading the Fockian *** 
                      *** Removing any level shift *** 
ITER      Energy       Delta-E        Grad      Rot      Max-DP    RMS-DP
  0   -872.18971688 -872.1897168759  0.000002  0.000002  0.000274  0.000003
               *** Restarting incremental Fock matrix formation ***
                  ***Gradient check signals convergence***
              ***Rediagonalizing the Fockian in SOSCF/NRSCF***

               *****************************************************
               *                     SUCCESS                       *
               *           SCF CONVERGED AFTER   1 CYCLES          *
               *****************************************************

Old exchange energy                            =    -21.592970468 Eh
New exchange energy                            =    -21.592981732 Eh
Exchange energy change after final integration =     -0.000011264 Eh
Total energy after final integration           =   -872.189728140 Eh
Final COS-X integration done in                =     2.015 sec

----------------
TOTAL SCF ENERGY
----------------

Total Energy       :         -872.18972814 Eh          -23733.48909 eV

Components:
Nuclear Repulsion  :         1104.95863457 Eh           30067.45305 eV
Electronic Energy  :        -1977.14836271 Eh          -53800.94214 eV
One Electron Energy:        -3402.90455730 Eh          -92597.74058 eV
Two Electron Energy:         1425.75619460 Eh           38796.79845 eV
Max COSX asymmetry :            0.00000140 Eh               0.00004 eV
CPCM Dielectric    :           -0.09698573 Eh              -2.63912 eV

Virial components:
Potential Energy   :        -1740.93302093 Eh          -47373.19591 eV
Kinetic Energy     :          868.74329279 Eh           23639.70682 eV
Virial Ratio       :            2.00396715


DFT components:
N(Alpha)           :       61.000061566058 electrons
N(Beta)            :       61.000061566058 electrons
N(Total)           :      122.000123132115 electrons
E(X)               :      -86.077824509268 Eh       
E(C)               :       -5.004006112866 Eh       
E(XC)              :      -91.081830622133 Eh       
DFET-embed. en.    :        0.000000000000 Eh       
CPCM Solvation Model Properties:
Surface-charge          :            0.97370956
Charge-correction       :           -0.00300792 Eh              -0.08185 eV
Free-energy (cav+disp)  :  This term is not implemented in the current solvation scheme

---------------
SCF CONVERGENCE
---------------

  Last Energy change         ...   -1.1039e-10  Tolerance :   1.0000e-08
  Last MAX-Density change    ...    1.5543e-15  Tolerance :   1.0000e-07
  Last RMS-Density change    ...    1.5285e-17  Tolerance :   5.0000e-09
  Last Orbital Gradient      ...    2.4892e-06  Tolerance :   1.0000e-05
  Last Orbital Rotation      ...    1.0008e-05  Tolerance :   1.0000e-05

             **** THE GBW FILE WAS UPDATED (neb.gbw) ****
             **** DENSITY neb.scfp WAS UPDATED ****
             **** ENERGY FILE WAS UPDATED (neb.en.tmp) ****
             **** THE GBW FILE WAS UPDATED (neb.gbw) ****
             **** DENSITY neb.scfp WAS UPDATED ****
----------------
ORBITAL ENERGIES
----------------

  NO   OCC          E(Eh)            E(eV) 
   0   2.0000     -19.165432      -521.5179 
   1   2.0000     -19.164862      -521.5024 
   2   2.0000     -19.139058      -520.8002 
   3   2.0000     -19.136165      -520.7215 
   4   2.0000     -19.087247      -519.3904 
   5   2.0000     -19.049675      -518.3680 
   6   2.0000     -14.558518      -396.1574 
   7   2.0000     -14.525824      -395.2678 
   8   2.0000     -10.233683      -278.4727 
   9   2.0000     -10.200915      -277.5810 
  10   2.0000     -10.195870      -277.4437 
  11   2.0000     -10.195163      -277.4245 
  12   2.0000     -10.193783      -277.3869 
  13   2.0000     -10.185751      -277.1684 
  14   2.0000     -10.182479      -277.0793 
  15   2.0000     -10.158406      -276.4243 
  16   2.0000      -1.237400       -33.6714 
  17   2.0000      -1.204100       -32.7652 
  18   2.0000      -1.061628       -28.8884 
  19   2.0000      -1.027822       -27.9685 
  20   2.0000      -0.969742       -26.3880 
  21   2.0000      -0.902356       -24.5544 
  22   2.0000      -0.890394       -24.2289 
  23   2.0000      -0.837019       -22.7764 
  24   2.0000      -0.789057       -21.4713 
  25   2.0000      -0.766651       -20.8616 
  26   2.0000      -0.699556       -19.0359 
  27   2.0000      -0.692077       -18.8324 
  28   2.0000      -0.627749       -17.0819 
  29   2.0000      -0.602972       -16.4077 
  30   2.0000      -0.568548       -15.4710 
  31   2.0000      -0.564560       -15.3625 
  32   2.0000      -0.544747       -14.8233 
  33   2.0000      -0.531902       -14.4738 
  34   2.0000      -0.527041       -14.3415 
  35   2.0000      -0.524580       -14.2745 
  36   2.0000      -0.503025       -13.6880 
  37   2.0000      -0.494762       -13.4632 
  38   2.0000      -0.474138       -12.9019 
  39   2.0000      -0.459207       -12.4957 
  40   2.0000      -0.453440       -12.3387 
  41   2.0000      -0.438946       -11.9443 
  42   2.0000      -0.413150       -11.2424 
  43   2.0000      -0.395550       -10.7635 
  44   2.0000      -0.394455       -10.7337 
  45   2.0000      -0.387958       -10.5569 
  46   2.0000      -0.373499       -10.1634 
  47   2.0000      -0.365722        -9.9518 
  48   2.0000      -0.357423        -9.7260 
  49   2.0000      -0.336482        -9.1562 
  50   2.0000      -0.327879        -8.9221 
  51   2.0000      -0.326582        -8.8867 
  52   2.0000      -0.306734        -8.3466 
  53   2.0000      -0.305951        -8.3254 
  54   2.0000      -0.303818        -8.2673 
  55   2.0000      -0.288173        -7.8416 
  56   2.0000      -0.287817        -7.8319 
  57   2.0000      -0.273961        -7.4549 
  58   2.0000      -0.267284        -7.2732 
  59   2.0000      -0.250073        -6.8048 
  60   2.0000      -0.216407        -5.8887 
  61   0.0000      -0.101168        -2.7529 
  62   0.0000      -0.055099        -1.4993 
  63   0.0000      -0.024116        -0.6562 
  64   0.0000      -0.005128        -0.1395 
  65   0.0000       0.042302         1.1511 
  66   0.0000       0.061869         1.6835 
  67   0.0000       0.069428         1.8892 
  68   0.0000       0.085081         2.3152 
  69   0.0000       0.097353         2.6491 
  70   0.0000       0.104532         2.8445 
  71   0.0000       0.117193         3.1890 
  72   0.0000       0.117547         3.1986 
  73   0.0000       0.130560         3.5527 
  74   0.0000       0.134211         3.6521 
  75   0.0000       0.145245         3.9523 
  76   0.0000       0.157311         4.2806 
  77   0.0000       0.167225         4.5504 
  78   0.0000       0.175793         4.7836 
  79   0.0000       0.182962         4.9787 
  80   0.0000       0.198048         5.3892 
  81   0.0000       0.202917         5.5216 
  82   0.0000       0.214729         5.8431 
  83   0.0000       0.216263         5.8848 
  84   0.0000       0.219180         5.9642 
  85   0.0000       0.223272         6.0755 
  86   0.0000       0.230504         6.2723 
  87   0.0000       0.235865         6.4182 
  88   0.0000       0.246091         6.6965 
  89   0.0000       0.251209         6.8357 
  90   0.0000       0.252935         6.8827 
  91   0.0000       0.263733         7.1765 
  92   0.0000       0.280839         7.6420 
  93   0.0000       0.285797         7.7769 
  94   0.0000       0.299414         8.1475 
  95   0.0000       0.305025         8.3002 
  96   0.0000       0.308486         8.3943 
  97   0.0000       0.319438         8.6923 
  98   0.0000       0.329603         8.9690 
  99   0.0000       0.335808         9.1378 
 100   0.0000       0.341147         9.2831 
 101   0.0000       0.345059         9.3895 
 102   0.0000       0.348343         9.4789 
 103   0.0000       0.363553         9.8928 
 104   0.0000       0.368934        10.0392 
 105   0.0000       0.370718        10.0878 
 106   0.0000       0.384002        10.4492 
 107   0.0000       0.389363        10.5951 
 108   0.0000       0.391382        10.6500 
 109   0.0000       0.401712        10.9311 
 110   0.0000       0.403987        10.9930 
 111   0.0000       0.411004        11.1840 
 112   0.0000       0.413921        11.2634 
 113   0.0000       0.419905        11.4262 
 114   0.0000       0.425714        11.5843 
 115   0.0000       0.434483        11.8229 
 116   0.0000       0.438556        11.9337 
 117   0.0000       0.441397        12.0110 
 118   0.0000       0.446478        12.1493 
 119   0.0000       0.456646        12.4260 
 120   0.0000       0.462453        12.5840 
 121   0.0000       0.466673        12.6988 
 122   0.0000       0.469889        12.7863 
 123   0.0000       0.474386        12.9087 
 124   0.0000       0.485938        13.2230 
 125   0.0000       0.491254        13.3677 
 126   0.0000       0.496717        13.5164 
 127   0.0000       0.499064        13.5802 
 128   0.0000       0.505278        13.7493 
 129   0.0000       0.514992        14.0137 
 130   0.0000       0.518898        14.1199 
 131   0.0000       0.528978        14.3942 
 132   0.0000       0.534220        14.5369 
 133   0.0000       0.547459        14.8971 
 134   0.0000       0.553231        15.0542 
 135   0.0000       0.557016        15.1572 
 136   0.0000       0.569397        15.4941 
 137   0.0000       0.573290        15.6000 
 138   0.0000       0.575131        15.6501 
 139   0.0000       0.587633        15.9903 
 140   0.0000       0.593615        16.1531 
 141   0.0000       0.604175        16.4404 
 142   0.0000       0.621443        16.9103 
 143   0.0000       0.633406        17.2358 
 144   0.0000       0.640600        17.4316 
 145   0.0000       0.645061        17.5530 
 146   0.0000       0.649025        17.6609 
 147   0.0000       0.655611        17.8401 
 148   0.0000       0.665927        18.1208 
 149   0.0000       0.672244        18.2927 
 150   0.0000       0.685476        18.6527 
 151   0.0000       0.693518        18.8716 
 152   0.0000       0.699823        19.0431 
 153   0.0000       0.716301        19.4916 
 154   0.0000       0.724436        19.7129 
 155   0.0000       0.730178        19.8691 
 156   0.0000       0.747831        20.3495 
 157   0.0000       0.763145        20.7662 
 158   0.0000       0.770155        20.9570 
 159   0.0000       0.778773        21.1915 
 160   0.0000       0.784883        21.3578 
 161   0.0000       0.803547        21.8656 
 162   0.0000       0.814523        22.1643 
 163   0.0000       0.827729        22.5237 
 164   0.0000       0.833396        22.6779 
 165   0.0000       0.841217        22.8907 
 166   0.0000       0.859997        23.4017 
 167   0.0000       0.874559        23.7980 
 168   0.0000       0.886963        24.1355 
 169   0.0000       0.893891        24.3240 
 170   0.0000       0.909674        24.7535 
 171   0.0000       0.914823        24.8936 
 172   0.0000       0.926565        25.2131 
 173   0.0000       0.957637        26.0586 
 174   0.0000       0.971996        26.4494 
 175   0.0000       0.983747        26.7691 
 176   0.0000       0.990295        26.9473 
 177   0.0000       1.013009        27.5654 
 178   0.0000       1.024690        27.8832 
 179   0.0000       1.027283        27.9538 
 180   0.0000       1.043669        28.3997 
 181   0.0000       1.059349        28.8264 
 182   0.0000       1.068134        29.0654 
 183   0.0000       1.079902        29.3856 
 184   0.0000       1.083500        29.4835 
 185   0.0000       1.094643        29.7868 
 186   0.0000       1.105771        30.0896 
 187   0.0000       1.122087        30.5336 
 188   0.0000       1.147831        31.2341 
 189   0.0000       1.163592        31.6629 
 190   0.0000       1.192320        32.4447 
 191   0.0000       1.196613        32.5615 
 192   0.0000       1.213185        33.0124 
 193   0.0000       1.219980        33.1974 
 194   0.0000       1.223675        33.2979 
 195   0.0000       1.236018        33.6338 
 196   0.0000       1.248345        33.9692 
 197   0.0000       1.262986        34.3676 
 198   0.0000       1.275165        34.6990 
 199   0.0000       1.291262        35.1370 
 200   0.0000       1.300699        35.3938 
 201   0.0000       1.315940        35.8086 
 202   0.0000       1.321655        35.9641 
 203   0.0000       1.330536        36.2057 
 204   0.0000       1.331888        36.2425 
 205   0.0000       1.341759        36.5111 
 206   0.0000       1.365292        37.1515 
 207   0.0000       1.381996        37.6060 
 208   0.0000       1.391402        37.8620 
 209   0.0000       1.407537        38.3010 
 210   0.0000       1.415508        38.5179 
 211   0.0000       1.431056        38.9410 
 212   0.0000       1.435416        39.0597 
 213   0.0000       1.445092        39.3229 
 214   0.0000       1.456113        39.6228 
 215   0.0000       1.483112        40.3575 
 216   0.0000       1.488866        40.5141 
 217   0.0000       1.499834        40.8126 
 218   0.0000       1.516031        41.2533 
 219   0.0000       1.524511        41.4840 
 220   0.0000       1.540903        41.9301 
 221   0.0000       1.544386        42.0249 
 222   0.0000       1.556232        42.3472 
 223   0.0000       1.580103        42.9968 
 224   0.0000       1.583002        43.0757 
 225   0.0000       1.588591        43.2278 
 226   0.0000       1.596654        43.4472 
 227   0.0000       1.611827        43.8601 
 228   0.0000       1.613956        43.9180 
 229   0.0000       1.626699        44.2647 
 230   0.0000       1.630513        44.3685 
 231   0.0000       1.631991        44.4087 
 232   0.0000       1.646181        44.7949 
 233   0.0000       1.665749        45.3273 
 234   0.0000       1.672790        45.5189 
 235   0.0000       1.679993        45.7149 
 236   0.0000       1.699397        46.2429 
 237   0.0000       1.712100        46.5886 
 238   0.0000       1.719932        46.8017 
 239   0.0000       1.728972        47.0477 
 240   0.0000       1.737493        47.2796 
 241   0.0000       1.745953        47.5098 
 242   0.0000       1.764815        48.0230 
 243   0.0000       1.767230        48.0888 
 244   0.0000       1.779752        48.4295 
 245   0.0000       1.784920        48.5701 
 246   0.0000       1.810917        49.2776 
 247   0.0000       1.813417        49.3456 
 248   0.0000       1.819332        49.5065 
 249   0.0000       1.833038        49.8795 
 250   0.0000       1.846278        50.2398 
 251   0.0000       1.878091        51.1055 
 252   0.0000       1.884863        51.2897 
 253   0.0000       1.901251        51.7357 
 254   0.0000       1.928400        52.4744 
 255   0.0000       1.945525        52.9404 
 256   0.0000       1.959159        53.3114 
 257   0.0000       1.966855        53.5209 
 258   0.0000       1.973732        53.7080 
 259   0.0000       1.995339        54.2959 
 260   0.0000       2.012182        54.7543 
 261   0.0000       2.016286        54.8659 
 262   0.0000       2.020478        54.9800 
 263   0.0000       2.036802        55.4242 
 264   0.0000       2.049412        55.7673 
 265   0.0000       2.058942        56.0266 
 266   0.0000       2.070205        56.3331 
 267   0.0000       2.074889        56.4606 
 268   0.0000       2.102116        57.2015 
 269   0.0000       2.106318        57.3158 
 270   0.0000       2.109099        57.3915 
 271   0.0000       2.121956        57.7414 
 272   0.0000       2.131838        58.0103 
 273   0.0000       2.140812        58.2545 
 274   0.0000       2.157066        58.6967 
 275   0.0000       2.158665        58.7403 
 276   0.0000       2.164978        58.9120 
 277   0.0000       2.166224        58.9460 
 278   0.0000       2.180524        59.3351 
 279   0.0000       2.188806        59.5604 
 280   0.0000       2.203612        59.9633 
 281   0.0000       2.216670        60.3187 
 282   0.0000       2.244618        61.0792 
 283   0.0000       2.260811        61.5198 
 284   0.0000       2.263150        61.5834 
 285   0.0000       2.276567        61.9485 
 286   0.0000       2.293527        62.4100 
 287   0.0000       2.304455        62.7074 
 288   0.0000       2.308855        62.8271 
 289   0.0000       2.320981        63.1571 
 290   0.0000       2.361521        64.2603 
 291   0.0000       2.368646        64.4541 
 292   0.0000       2.380915        64.7880 
 293   0.0000       2.390277        65.0428 
 294   0.0000       2.405592        65.4595 
 295   0.0000       2.435256        66.2667 
 296   0.0000       2.439221        66.3746 
 297   0.0000       2.449734        66.6607 
 298   0.0000       2.458912        66.9104 
 299   0.0000       2.475862        67.3716 
 300   0.0000       2.484896        67.6175 
 301   0.0000       2.496172        67.9243 
 302   0.0000       2.528128        68.7939 
 303   0.0000       2.548177        69.3394 
 304   0.0000       2.565258        69.8042 
 305   0.0000       2.568153        69.8830 
 306   0.0000       2.582366        70.2697 
 307   0.0000       2.593904        70.5837 
 308   0.0000       2.608327        70.9762 
 309   0.0000       2.613922        71.1284 
 310   0.0000       2.624940        71.4283 
 311   0.0000       2.635510        71.7159 
 312   0.0000       2.638237        71.7901 
 313   0.0000       2.644228        71.9531 
 314   0.0000       2.658402        72.3388 
 315   0.0000       2.667913        72.5976 
 316   0.0000       2.680069        72.9284 
 317   0.0000       2.685765        73.0834 
 318   0.0000       2.690462        73.2112 
 319   0.0000       2.700524        73.4850 
 320   0.0000       2.700841        73.4936 
 321   0.0000       2.714526        73.8660 
 322   0.0000       2.720979        74.0416 
 323   0.0000       2.723241        74.1032 
 324   0.0000       2.732399        74.3523 
 325   0.0000       2.753115        74.9161 
 326   0.0000       2.759218        75.0821 
 327   0.0000       2.778263        75.6004 
 328   0.0000       2.790317        75.9284 
 329   0.0000       2.799233        76.1710 
 330   0.0000       2.805592        76.3440 
 331   0.0000       2.826794        76.9210 
 332   0.0000       2.840160        77.2847 
 333   0.0000       2.846120        77.4469 
 334   0.0000       2.849890        77.5495 
 335   0.0000       2.857666        77.7610 
 336   0.0000       2.866071        77.9898 
 337   0.0000       2.891885        78.6922 
 338   0.0000       2.898910        78.8833 
 339   0.0000       2.913509        79.2806 
 340   0.0000       2.925426        79.6049 
 341   0.0000       2.943506        80.0969 
 342   0.0000       2.963524        80.6416 
 343   0.0000       2.970271        80.8252 
 344   0.0000       2.980695        81.1088 
 345   0.0000       2.991887        81.4134 
 346   0.0000       3.005493        81.7836 
 347   0.0000       3.017976        82.1233 
 348   0.0000       3.035678        82.6050 
 349   0.0000       3.052153        83.0533 
 350   0.0000       3.074496        83.6613 
 351   0.0000       3.084678        83.9384 
 352   0.0000       3.095170        84.2239 
 353   0.0000       3.100760        84.3760 
 354   0.0000       3.112159        84.6861 
 355   0.0000       3.125131        85.0391 
 356   0.0000       3.137215        85.3680 
 357   0.0000       3.145115        85.5829 
 358   0.0000       3.157838        85.9291 
 359   0.0000       3.173941        86.3673 
 360   0.0000       3.176431        86.4351 
 361   0.0000       3.178153        86.4819 
 362   0.0000       3.206997        87.2668 
 363   0.0000       3.209886        87.3454 
 364   0.0000       3.217097        87.5417 
 365   0.0000       3.239767        88.1585 
 366   0.0000       3.254854        88.5691 
 367   0.0000       3.257587        88.6435 
 368   0.0000       3.267607        88.9161 
 369   0.0000       3.290818        89.5477 
 370   0.0000       3.303705        89.8984 
 371   0.0000       3.308411        90.0264 
 372   0.0000       3.324299        90.4588 
 373   0.0000       3.334888        90.7469 
 374   0.0000       3.342672        90.9587 
 375   0.0000       3.351788        91.2068 
 376   0.0000       3.367965        91.6470 
 377   0.0000       3.381680        92.0202 
 378   0.0000       3.399212        92.4973 
 379   0.0000       3.403329        92.6093 
 380   0.0000       3.417034        92.9822 
 381   0.0000       3.424187        93.1769 
 382   0.0000       3.433934        93.4421 
 383   0.0000       3.465306        94.2958 
 384   0.0000       3.475637        94.5769 
 385   0.0000       3.487230        94.8924 
 386   0.0000       3.505053        95.3773 
 387   0.0000       3.525376        95.9304 
 388   0.0000       3.540473        96.3412 
 389   0.0000       3.547509        96.5326 
 390   0.0000       3.575045        97.2819 
 391   0.0000       3.604156        98.0741 
 392   0.0000       3.627141        98.6995 
 393   0.0000       3.658291        99.5472 
 394   0.0000       3.668220        99.8173 
 395   0.0000       3.691707       100.4565 
 396   0.0000       3.697549       100.6154 
 397   0.0000       3.722349       101.2903 
 398   0.0000       3.737150       101.6930 
 399   0.0000       3.743735       101.8722 
 400   0.0000       3.761945       102.3677 
 401   0.0000       3.775950       102.7488 
 402   0.0000       3.799006       103.3762 
 403   0.0000       3.808618       103.6378 
 404   0.0000       3.842940       104.5717 
 405   0.0000       3.868580       105.2694 
 406   0.0000       3.876319       105.4800 
 407   0.0000       3.887631       105.7878 
 408   0.0000       3.926729       106.8517 
 409   0.0000       3.952596       107.5556 
 410   0.0000       3.968826       107.9972 
 411   0.0000       3.978088       108.2493 
 412   0.0000       3.997527       108.7782 
 413   0.0000       4.011756       109.1654 
 414   0.0000       4.033466       109.7562 
 415   0.0000       4.039384       109.9172 
 416   0.0000       4.054690       110.3337 
 417   0.0000       4.060772       110.4992 
 418   0.0000       4.079255       111.0022 
 419   0.0000       4.118158       112.0608 
 420   0.0000       4.123072       112.1945 
 421   0.0000       4.156819       113.1128 
 422   0.0000       4.169852       113.4674 
 423   0.0000       4.193317       114.1060 
 424   0.0000       4.199993       114.2876 
 425   0.0000       4.214927       114.6940 
 426   0.0000       4.227888       115.0467 
 427   0.0000       4.241775       115.4246 
 428   0.0000       4.247822       115.5891 
 429   0.0000       4.271169       116.2244 
 430   0.0000       4.286163       116.6324 
 431   0.0000       4.315508       117.4310 
 432   0.0000       4.331276       117.8600 
 433   0.0000       4.386959       119.3752 
 434   0.0000       4.415753       120.1588 
 435   0.0000       4.465825       121.5213 
 436   0.0000       4.527907       123.2106 
 437   0.0000       4.533701       123.3683 
 438   0.0000       4.544330       123.6575 
 439   0.0000       4.564542       124.2075 
 440   0.0000       4.599939       125.1707 
 441   0.0000       4.620002       125.7166 
 442   0.0000       4.634449       126.1098 
 443   0.0000       4.657826       126.7459 
 444   0.0000       4.671585       127.1203 
 445   0.0000       4.695262       127.7646 
 446   0.0000       4.698049       127.8404 
 447   0.0000       4.704086       128.0047 
 448   0.0000       4.728661       128.6734 
 449   0.0000       4.767364       129.7266 
 450   0.0000       4.779036       130.0442 
 451   0.0000       4.808169       130.8369 
 452   0.0000       4.835407       131.5781 
 453   0.0000       4.884646       132.9180 
 454   0.0000       4.899348       133.3180 
 455   0.0000       4.917879       133.8223 
 456   0.0000       4.925419       134.0275 
 457   0.0000       4.953193       134.7832 
 458   0.0000       4.995383       135.9313 
 459   0.0000       5.026220       136.7704 
 460   0.0000       5.062019       137.7445 
[...]
 269   0.0000       2.104580        57.2685 
 270   0.0000       2.114905        57.5495 
 271   0.0000       2.120109        57.6911 
 272   0.0000       2.148006        58.4502 
 273   0.0000       2.153390        58.5967 
 274   0.0000       2.157537        58.7096 
 275   0.0000       2.160748        58.7969 
 276   0.0000       2.166841        58.9628 
 277   0.0000       2.179030        59.2944 
 278   0.0000       2.183658        59.4204 
 279   0.0000       2.191206        59.6257 
 280   0.0000       2.201266        59.8995 
 281   0.0000       2.227353        60.6093 
 282   0.0000       2.236950        60.8705 
 283   0.0000       2.259302        61.4787 
 284   0.0000       2.269188        61.7477 
 285   0.0000       2.270474        61.7827 
 286   0.0000       2.291779        62.3625 
 287   0.0000       2.301081        62.6156 
 288   0.0000       2.334538        63.5260 
 289   0.0000       2.348668        63.9105 
 290   0.0000       2.362817        64.2955 
 291   0.0000       2.363453        64.3128 
 292   0.0000       2.373487        64.5859 
 293   0.0000       2.408084        65.5273 
 294   0.0000       2.423473        65.9460 
 295   0.0000       2.433030        66.2061 
 296   0.0000       2.453239        66.7560 
 297   0.0000       2.461986        66.9940 
 298   0.0000       2.473270        67.3011 
 299   0.0000       2.476285        67.3831 
 300   0.0000       2.487812        67.6968 
 301   0.0000       2.498324        67.9829 
 302   0.0000       2.547103        69.3102 
 303   0.0000       2.557267        69.5868 
 304   0.0000       2.562961        69.7417 
 305   0.0000       2.570503        69.9469 
 306   0.0000       2.577898        70.1482 
 307   0.0000       2.590941        70.5031 
 308   0.0000       2.599835        70.7451 
 309   0.0000       2.612149        71.0802 
 310   0.0000       2.621043        71.3222 
 311   0.0000       2.624978        71.4293 
 312   0.0000       2.639731        71.8307 
 313   0.0000       2.656732        72.2933 
 314   0.0000       2.659581        72.3709 
 315   0.0000       2.663244        72.4706 
 316   0.0000       2.680700        72.9456 
 317   0.0000       2.682825        73.0034 
 318   0.0000       2.689063        73.1731 
 319   0.0000       2.696817        73.3841 
 320   0.0000       2.714626        73.8687 
 321   0.0000       2.716893        73.9304 
 322   0.0000       2.724570        74.1393 
 323   0.0000       2.736421        74.4618 
 324   0.0000       2.742581        74.6294 
 325   0.0000       2.753179        74.9178 
 326   0.0000       2.760549        75.1184 
 327   0.0000       2.776808        75.5608 
 328   0.0000       2.797291        76.1182 
 329   0.0000       2.803929        76.2988 
 330   0.0000       2.817131        76.6580 
 331   0.0000       2.823174        76.8225 
 332   0.0000       2.827295        76.9346 
 333   0.0000       2.836313        77.1800 
 334   0.0000       2.851200        77.5851 
 335   0.0000       2.869511        78.0834 
 336   0.0000       2.886348        78.5415 
 337   0.0000       2.892055        78.6968 
 338   0.0000       2.902946        78.9932 
 339   0.0000       2.920319        79.4659 
 340   0.0000       2.932929        79.8090 
 341   0.0000       2.937753        79.9403 
 342   0.0000       2.952802        80.3498 
 343   0.0000       2.961801        80.5947 
 344   0.0000       2.984507        81.2126 
 345   0.0000       2.997125        81.5559 
 346   0.0000       3.005231        81.7765 
 347   0.0000       3.019538        82.1658 
 348   0.0000       3.037624        82.6580 
 349   0.0000       3.067080        83.4595 
 350   0.0000       3.070102        83.5417 
 351   0.0000       3.076914        83.7271 
 352   0.0000       3.099903        84.3526 
 353   0.0000       3.109408        84.6113 
 354   0.0000       3.113981        84.7357 
 355   0.0000       3.119954        84.8983 
 356   0.0000       3.142630        85.5153 
 357   0.0000       3.149386        85.6991 
 358   0.0000       3.171157        86.2916 
 359   0.0000       3.175781        86.4174 
 360   0.0000       3.183758        86.6345 
 361   0.0000       3.190073        86.8063 
 362   0.0000       3.201833        87.1263 
 363   0.0000       3.211048        87.3770 
 364   0.0000       3.214293        87.4653 
 365   0.0000       3.242732        88.2392 
 366   0.0000       3.248878        88.4065 
 367   0.0000       3.263237        88.7972 
 368   0.0000       3.266222        88.8784 
 369   0.0000       3.283771        89.3560 
 370   0.0000       3.312147        90.1281 
 371   0.0000       3.314310        90.1869 
 372   0.0000       3.319479        90.3276 
 373   0.0000       3.335332        90.7590 
 374   0.0000       3.348416        91.1150 
 375   0.0000       3.350342        91.1674 
 376   0.0000       3.370735        91.7224 
 377   0.0000       3.380580        91.9903 
 378   0.0000       3.389526        92.2337 
 379   0.0000       3.392460        92.3135 
 380   0.0000       3.409774        92.7847 
 381   0.0000       3.412774        92.8663 
 382   0.0000       3.432686        93.4081 
 383   0.0000       3.463168        94.2376 
 384   0.0000       3.474180        94.5373 
 385   0.0000       3.492624        95.0391 
 386   0.0000       3.495318        95.1124 
 387   0.0000       3.516905        95.6999 
 388   0.0000       3.522065        95.8403 
 389   0.0000       3.554524        96.7235 
 390   0.0000       3.572107        97.2020 
 391   0.0000       3.584315        97.5342 
 392   0.0000       3.621295        98.5405 
 393   0.0000       3.654995        99.4575 
 394   0.0000       3.677741       100.0764 
 395   0.0000       3.693589       100.5077 
 396   0.0000       3.717254       101.1516 
 397   0.0000       3.731958       101.5518 
 398   0.0000       3.742940       101.8506 
 399   0.0000       3.757060       102.2348 
 400   0.0000       3.765714       102.4703 
 401   0.0000       3.786379       103.0326 
 402   0.0000       3.791236       103.1648 
 403   0.0000       3.823031       104.0300 
 404   0.0000       3.840882       104.5157 
 405   0.0000       3.869450       105.2931 
 406   0.0000       3.883102       105.6646 
 407   0.0000       3.890785       105.8736 
 408   0.0000       3.925580       106.8205 
 409   0.0000       3.941504       107.2538 
 410   0.0000       3.959114       107.7330 
 411   0.0000       3.988770       108.5399 
 412   0.0000       3.993687       108.6737 
 413   0.0000       4.019272       109.3699 
 414   0.0000       4.028251       109.6143 
 415   0.0000       4.040310       109.9424 
 416   0.0000       4.060148       110.4822 
 417   0.0000       4.066855       110.6647 
 418   0.0000       4.076404       110.9246 
 419   0.0000       4.111599       111.8823 
 420   0.0000       4.135235       112.5255 
 421   0.0000       4.152196       112.9870 
 422   0.0000       4.168924       113.4422 
 423   0.0000       4.194753       114.1450 
 424   0.0000       4.207434       114.4901 
 425   0.0000       4.211026       114.5879 
 426   0.0000       4.218499       114.7912 
 427   0.0000       4.232293       115.1665 
 428   0.0000       4.242520       115.4448 
 429   0.0000       4.251756       115.6962 
 430   0.0000       4.281626       116.5090 
 431   0.0000       4.328834       117.7936 
 432   0.0000       4.352349       118.4334 
 433   0.0000       4.385327       119.3308 
 434   0.0000       4.413305       120.0921 
 435   0.0000       4.478964       121.8788 
 436   0.0000       4.522123       123.0532 
 437   0.0000       4.528894       123.2375 
 438   0.0000       4.532522       123.3362 
 439   0.0000       4.554881       123.9446 
 440   0.0000       4.598615       125.1347 
 441   0.0000       4.627056       125.9086 
 442   0.0000       4.637942       126.2048 
 443   0.0000       4.658801       126.7724 
 444   0.0000       4.664562       126.9292 
 445   0.0000       4.675929       127.2385 
 446   0.0000       4.694769       127.7512 
 447   0.0000       4.713611       128.2639 
 448   0.0000       4.756146       129.4213 
 449   0.0000       4.766108       129.6924 
 450   0.0000       4.792774       130.4180 
 451   0.0000       4.810281       130.8944 
 452   0.0000       4.836245       131.6009 
 453   0.0000       4.885301       132.9358 
 454   0.0000       4.899741       133.3287 
 455   0.0000       4.912133       133.6659 
 456   0.0000       4.922336       133.9436 
 457   0.0000       4.951167       134.7281 
 458   0.0000       4.995828       135.9434 
 459   0.0000       5.041413       137.1838 
 460   0.0000       5.054405       137.5374 
 461   0.0000       5.076820       138.1473 
 462   0.0000       5.086476       138.4100 
 463   0.0000       5.117881       139.2646 
 464   0.0000       5.123643       139.4214 
 465   0.0000       5.133607       139.6925 
 466   0.0000       5.136120       139.7609 
 467   0.0000       5.142395       139.9317 
 468   0.0000       5.145346       140.0120 
 469   0.0000       5.151627       140.1829 
 470   0.0000       5.173775       140.7856 
 471   0.0000       5.177501       140.8870 
 472   0.0000       5.183083       141.0389 
 473   0.0000       5.218923       142.0141 
 474   0.0000       5.229781       142.3096 
 475   0.0000       5.257446       143.0624 
 476   0.0000       5.271488       143.4445 
 477   0.0000       5.276226       143.5734 
 478   0.0000       5.289503       143.9347 
 479   0.0000       5.297956       144.1647 
 480   0.0000       5.311625       144.5367 
 481   0.0000       5.367543       146.0583 
 482   0.0000       5.389324       146.6510 
 483   0.0000       5.401249       146.9755 
 484   0.0000       5.416013       147.3772 
 485   0.0000       5.425821       147.6441 
 486   0.0000       5.438758       147.9961 
 487   0.0000       5.454411       148.4221 
 488   0.0000       5.462477       148.6416 
 489   0.0000       5.467548       148.7795 
 490   0.0000       5.491764       149.4385 
 491   0.0000       5.519449       150.1919 
 492   0.0000       5.569013       151.5406 
 493   0.0000       5.608977       152.6280 
 494   0.0000       5.623991       153.0366 
 495   0.0000       5.638399       153.4286 
 496   0.0000       5.648136       153.6936 
 497   0.0000       5.730378       155.9315 
 498   0.0000       5.775577       157.1614 
 499   0.0000       5.802880       157.9044 
 500   0.0000       5.812275       158.1601 
 501   0.0000       5.953343       161.9987 
 502   0.0000       5.960508       162.1937 
 503   0.0000       6.034309       164.2019 
 504   0.0000       6.209081       168.9577 
 505   0.0000       6.225849       169.4140 
 506   0.0000       6.259930       170.3414 
 507   0.0000       6.265340       170.4886 
 508   0.0000       6.281723       170.9344 
 509   0.0000       6.313593       171.8016 
 510   0.0000       6.317252       171.9012 
 511   0.0000       6.332032       172.3033 
 512   0.0000       6.360167       173.0690 
 513   0.0000       6.387960       173.8252 
 514   0.0000       6.390420       173.8922 
 515   0.0000       6.392786       173.9565 
 516   0.0000       6.401405       174.1911 
 517   0.0000       6.414896       174.5582 
 518   0.0000       6.425574       174.8488 
 519   0.0000       6.432342       175.0329 
 520   0.0000       6.443879       175.3469 
 521   0.0000       6.493431       176.6952 
 522   0.0000       6.521108       177.4484 
 523   0.0000       6.612444       179.9337 
 524   0.0000       6.697624       182.2516 
 525   0.0000       6.737769       183.3440 
 526   0.0000       6.835816       186.0120 
 527   0.0000       6.858714       186.6351 
 528   0.0000       6.860864       186.6936 
 529   0.0000       6.875923       187.1034 
 530   0.0000       6.881183       187.2465 
 531   0.0000       6.917111       188.2242 
 532   0.0000       6.923033       188.3853 
 533   0.0000       6.993644       190.3067 
 534   0.0000       7.074431       192.5050 
 535   0.0000       7.116513       193.6502 
 536   0.0000       7.120895       193.7694 
 537   0.0000       7.128079       193.9649 
 538   0.0000       7.249385       197.2658 
 539   0.0000       7.260058       197.5562 
 540   0.0000       7.299348       198.6253 
 541   0.0000       7.390586       201.1081 
 542   0.0000       7.443315       202.5429 
 543   0.0000       7.479087       203.5163 
 544   0.0000       7.503007       204.1672 
 545   0.0000       7.545007       205.3101 
 546   0.0000      22.237101       605.1023 
 547   0.0000      22.421412       610.1176 
 548   0.0000      22.697049       617.6181 
 549   0.0000      22.711295       618.0057 
 550   0.0000      22.754890       619.1920 
 551   0.0000      22.874879       622.4571 
 552   0.0000      22.934288       624.0737 
 553   0.0000      23.312033       634.3527 
 554   0.0000      32.469766       883.5473 
 555   0.0000      32.499396       884.3535 
 556   0.0000      43.409724      1181.2386 
 557   0.0000      43.700594      1189.1536 
 558   0.0000      44.015794      1197.7306 
 559   0.0000      44.040285      1198.3971 
 560   0.0000      44.088991      1199.7224 
 561   0.0000      44.105870      1200.1817 
-------
TIMINGS
-------

Total SCF time: 0 days 0 hours 0 min 26 sec 

Total time                  ....      26.817 sec
Sum of individual times     ....      23.779 sec  ( 88.7%)

Fock matrix formation       ....      16.884 sec  ( 63.0%)
  Split-RI-J                ....       2.715 sec  ( 16.1% of F)
  Chain of spheres X        ....       8.441 sec  ( 50.0% of F)
  XC integration            ....       1.861 sec  ( 11.0% of F)
    Basis function eval.    ....       0.193 sec  ( 10.4% of XC)
    Density eval.           ....       0.567 sec  ( 30.5% of XC)
    XC-Functional eval.     ....       0.012 sec  (  0.7% of XC)
    XC-Potential eval.      ....       0.226 sec  ( 12.2% of XC)
Diagonalization             ....       0.423 sec  (  1.6%)
Density matrix formation    ....       0.197 sec  (  0.7%)
Population analysis         ....       0.000 sec  (  0.0%)
Initial guess               ....       0.564 sec  (  2.1%)
Orbital Transformation      ....       0.000 sec  (  0.0%)
Orbital Orthonormalization  ....       0.483 sec  (  1.8%)
DIIS solution               ....       0.201 sec  (  0.7%)
SOSCF solution              ....       2.734 sec  ( 10.2%)
Grid generation             ....       2.777 sec  ( 10.4%)

Maximum memory used throughout the entire SCF-calculation: 112.2 MB


-------------------------------------------------------------------------------
                          DFT DISPERSION CORRECTION                            
                                                                               
                              DFTD3 V3.1  Rev 1                                
                          USING Becke-Johnson damping                          
-------------------------------------------------------------------------------
The B3LYP functional is recognized
Active option DFTDOPT                   ...         4   

molecular C6(AA) [au] = 7478.839165 


            DFT-D V3
 parameters
 s6 scaling factor         :     1.0000 
 a1 scaling factor         :     0.3981 
 s8 scaling factor         :     1.9889 
 a2 scaling factor         :     4.4211 
 ad hoc parameters k1-k3   :    16.0000     1.3333    -4.0000 

 Edisp/kcal,au: -31.255242533091  -0.049808394121 
 E6   /kcal   : -15.004195390 
 E8   /kcal   : -16.251047143 
 % E8         :  51.994628183 

-------------------------   ----------------
Dispersion correction           -0.049808394
-------------------------   ----------------


-------------------------   --------------------
FINAL SINGLE POINT ENERGY      -872.240432312831
-------------------------   --------------------

                                *** OPTIMIZATION RUN DONE ***


                    ***********************HURRAY************************
                    ***        THE TS OPTIMIZATION HAS CONVERGED      ***
                    *****************************************************



---------------------------------------------------------------
                      PATH SUMMARY FOR NEB-TS             
---------------------------------------------------------------
All forces in Eh/Bohr. Global forces for TS.

Image     E(Eh)   dE(kcal/mol)  max(|Fp|)  RMS(Fp)
  0    -872.24344     0.00       0.00051   0.00008
  1    -872.24287     0.36       0.00230   0.00062
  2    -872.24184     1.00       0.00574   0.00139
  3    -872.23921     2.65       0.00182   0.00066 <= CI
 TS    -872.24043     1.88       0.00062   0.00013 <= TS
  4    -872.24565    -1.39       0.00560   0.00133
  5    -872.26588   -14.09       0.00167   0.00041
  6    -872.27093   -17.25       0.00153   0.00038
  7    -872.27215   -18.02       0.00202   0.00056
----------
STATISTICS
----------

For the individual parts of the NEB, NEB-CI or NEB-TS run:

Number of iterations:
     NEB                               ... 47  55.3%
     TS optimization                   ... 38  44.7%
Number of SCF / gradient calculations:
     NEB                               ... 386  91.0%
     TS optimization                   ... 38  9.0%

----------
 TIMINGS
----------

For the individual parts of the NEB, NEB-CI or NEB-TS run:

Total                                  ...     9412.280 sec
NEB                                    ...     7186.351 sec  76.4%
TS Optimization                        ...     2225.929 sec  23.6%


                            ***************************************
                            *     ORCA property calculations      *
                            ***************************************

                                    ---------------------
                                    Active property flags
                                    ---------------------
   (+) Dipole Moment


------------------------------------------------------------------------------
                       ORCA ELECTRIC PROPERTIES CALCULATION
------------------------------------------------------------------------------

Dipole Moment Calculation                       ... on
Quadrupole Moment Calculation                   ... off
Polarizability Calculation                      ... off
GBWName                                         ... neb.gbw
Electron density                                ... neb.scfp
The origin for moment calculation is the CENTER OF MASS  = (-0.693003,  0.416700 -0.622050)

-------------
DIPOLE MOMENT
-------------
                                X             Y             Z
Electronic contribution:    -13.53412       3.06986     -12.41403
Nuclear contribution   :     10.52113      -4.88615      10.00722
                        -----------------------------------------
Total Dipole Moment    :     -3.01300      -1.81630      -2.40682
                        -----------------------------------------
Magnitude (a.u.)       :      4.26261
Magnitude (Debye)      :     10.83470



--------------------
Rotational spectrum 
--------------------
 
Rotational constants in cm-1:     0.032804     0.007747     0.007142 
Rotational constants in MHz :   983.432158   232.242136   214.110688 

 Dipole components along the rotational axes: 
x,y,z [a.u.] :    -4.027071     1.167939     0.767120 
x,y,z [Debye]:   -10.236002     2.968664     1.949863 

 

Timings for individual modules:

Sum of individual times         ...     9414.900 sec (= 156.915 min)
GTO integral calculation        ...      202.247 sec (=   3.371 min)   2.1 %
SCF iterations                  ...     1565.145 sec (=  26.086 min)  16.6 %
SCF Gradient evaluation         ...      459.591 sec (=   7.660 min)   4.9 %
Geometry relaxation             ...        1.567 sec (=   0.026 min)   0.0 %
NEB Iterations                  ...     7186.351 sec (= 119.773 min)  76.3 %
                             ****ORCA TERMINATED NORMALLY****
TOTAL RUN TIME: 0 days 2 hours 37 minutes 0 seconds 426 msec
