 *******************************************************************************
 **                                                                           **
 **                              MOPAC v22.0.6                                **
 **                                                                           **
 *******************************************************************************
 **          Digital Object Identifier (DOI): 10.5281/zenodo.6511958          **
 **    Visit the DOI location for information on how to cite this program.    **
 *******************************************************************************

                              PM7 CALCULATION RESULTS

 *******************************************************************************
 *  CALCULATION DONE:                                Tue Mar 26 12:05:38 2024  *
 *  PM7        - The PM7 Hamiltonian to be used
 *  SINGLET    - SPIN STATE DEFINED AS A SINGLET
 *
 *
 *
 *                 CHARGE ON SYSTEM = -1
 *
 *
 *
 *  EPS=78.4   - USE ANDREAS KLAMT'S COSMO IMPLICIT SOLVATION MODEL
 *  LET        - OVERRIDE SOME SAFETY CHECKS
 *  THREADS    - USE A MAXIMUM OF 30 THREADS
 *  T=         - A TIME OF 14.0 DAYS REQUESTED
 *  DUMP=N     - RESTART FILE WRITTEN EVERY 30.0 MINUTES REQUESTED
 *  RELSCF     - DEFAULT SCF CRITERION MULTIPLIED BY 1.0000
 *              (DEFAULT SCF CRITERION = 0.00010)
 *  ITRY=      - DO A MAXIMUM OF 15000 ITERATIONS FOR SCF
 *  AUX        - OUTPUT AUXILIARY INFORMATION
 *  ISOTOPE    - SAVE THE FORCE MATRIX FOR USE LATER
 *  BONDS      - FINAL BOND-ORDER MATRIX TO BE PRINTED
 *  LARGE      - EXPANDED OUTPUT TO BE PRINTED
 *  THERMO     - THERMODYNAMIC QUANTITIES TO BE CALCULATED
 *******************************************************************************
PM7 AUX LARGE THERMO(298,298) LET ISOTOPE BONDS DUMP=30M ITRY=15000 T=14D THREADS=30 CHARGE=-1 SINGLET eps=78.4 RELSCF=1
 Title: ASE calculation

   ATOM   CHEMICAL          X               Y               Z
  NUMBER   SYMBOL      (ANGSTROMS)     (ANGSTROMS)     (ANGSTROMS)

     1       C          0.46770767  *  -1.16442653  *   0.81931018  *
     2       D          0.95251561  *  -1.09062455  *  -0.18045472  *
     3       H          0.96404287  *  -0.43312479  *   1.49425321  *
     4       H          0.63976533  *  -2.17724574  *   1.23357969  *
     5       N         -0.95492685  *  -0.87660791  *   0.70247574  *
     6       O         -1.75932263  *  -1.66547625  *   1.17844061  *
     7       O         -1.30898785  *   0.13799844  *   0.12179536  *
     8       C          0.66868277  *   2.71152924  *  -3.76935093  *
     9       O          1.49603957  *   3.29175587  *  -3.03373886  *
    10       O          1.00305308  *   1.92141414  *  -4.67595450  *
    11       C         -0.80000740  *   3.00789427  *  -3.57727442  *
    12       H         -1.43323006  *   2.29064491  *  -4.11255742  *
    13       H         -1.04087474  *   4.01194409  *  -3.94798742  *
    14       H         -1.07306222  *   2.97417530  *  -2.51589806  *
    15       H          1.79814000  *   1.46521055  *  -1.85549354  *
    16       O          1.23245422  *   0.80007416  *  -1.44101307  *
    17       H          0.63875194  *   1.30266670  *  -0.87558125  *


                                Isotopes Used

              Atom:    2  H  Default mass  1.0079,  mass used:  2.0140 amu


          CARTESIAN COORDINATES 

    NO.       ATOM           X           Y           Z

     1         C          0.4677     -1.1644      0.8193
     2         H          0.9525     -1.0906     -0.1805
     3         H          0.9640     -0.4331      1.4943
     4         H          0.6398     -2.1772      1.2336
     5         N         -0.9549     -0.8766      0.7025
     6         O         -1.7593     -1.6655      1.1784
     7         O         -1.3090      0.1380      0.1218
     8         C          0.6687      2.7115     -3.7694
     9         O          1.4960      3.2918     -3.0337
    10         O          1.0031      1.9214     -4.6760
    11         C         -0.8000      3.0079     -3.5773
    12         H         -1.4332      2.2906     -4.1126
    13         H         -1.0409      4.0119     -3.9480
    14         H         -1.0731      2.9742     -2.5159
    15         H          1.7981      1.4652     -1.8555
    16         O          1.2325      0.8001     -1.4410
    17         H          0.6388      1.3027     -0.8756

 General Reference for PM7:
 "Optimization of Parameters for Semiempirical Methods VI: More Modifications to the 
 NDDO Approximations and Re-optimization of Parameters", J. J. P. Stewart, J. Mol. Mod., 1:32, 19 (2013)
 https://link.springer.com/article/10.1007/s00894-012-1667-x

           Empirical Formula: C3 H8 N O5  =    17 atoms



      MOLECULAR POINT GROUP   :   C1  


 SINGLET STATE CALCULATION


      RHF CALCULATION, NO. OF DOUBLY OCCUPIED LEVELS = 28

  SCF CRITERION =    0.1000E-03


          HEAT OF FORMATION =    -297.727730 KCALS/MOLE


          CARTESIAN COORDINATE DERIVATIVES

   NUMBER  ATOM         X            Y            Z

     1       C      0.200223     0.852396     0.207358
     2       H     -0.681998    -1.094249    -2.397498
     3       H     -0.303053     0.314900    -0.173384
     4       H     -1.257390    -1.164591    -0.846943
     5       N      0.244393     0.418409     0.746121
     6       O      0.624517     0.207080     1.391802
     7       O      1.564037    -0.092575     1.582096
     8       C      0.366249     0.660827    -0.338140
     9       O      0.667731     0.606156    -1.005765
    10       O     -0.719202    -0.505859     0.251245
    11       C     -0.192830     0.279332    -0.181143
    12       H      0.068839    -0.273038     0.102729
    13       H      0.173832    -0.134216     0.229824
    14       H      0.111299    -0.233532     0.233962
    15       H     -0.961397     0.043937     3.194153
    16       O     -0.145355    -2.367878    -2.951649
    17       H      0.240107     2.482880    -0.044718

 DIPOLE           X         Y         Z       TOTAL
 POINT-CHG.   -22.415    -3.994    17.149    28.504
 HYBRID        -0.198     0.050    -0.469     0.511
 SUM          -22.613    -3.944    16.681    28.375


          GRADIENT NORM =   7.46428


                              **** WARNING ****

           GRADIENT IS VERY LARGE FOR A THERMO CALCULATION
           RESULTS ARE LIKELY TO BE INACCURATE IF THERE ARE
           ANY LOW-LYING VIBRATIONS (LESS THAN ABOUT 400CM-1)
           GRADIENT NORM SHOULD BE LESS THAN ABOUT 1.0 FOR THERMO
           TO GIVE ACCURATE RESULTS


          TIME FOR SCF CALCULATION =    0.66

          TIME FOR DERIVATIVES     =    0.04

          MOLECULAR WEIGHT =  139.11



          ROTATIONAL CONSTANTS IN CM(-1)

          A =    0.09824553   B =    0.01464727   C =    0.01370604



           PRINCIPAL MOMENTS OF INERTIA IN UNITS OF 10**(-40)*GRAM-CM**2

          A =      284.9265   B =     1911.1241   C =     2042.3655


          ORIENTATION OF MOLECULE IN FORCE CALCULATION

    NO.       ATOM         X         Y         Z

     1          C      -2.0029   -0.3842    2.3351
     2          H      -0.8893   -0.3842    2.3351
     3          H      -2.3443    0.6741    2.3351
     4          H      -2.3671   -0.8566    3.2685
     5          N      -2.4983   -1.0868    1.1598
     6          O      -3.3281   -1.9733    1.3064
     7          O      -2.0639   -0.7820    0.0597
     8          C       2.4612    0.9020   -1.4776
     9          O       2.1994    2.0756   -1.1363
    10          O       3.3684    0.2273   -0.9485
    11          C       1.6690    0.2849   -2.6060
    12          H       1.8264   -0.7982   -2.6689
    13          H       1.9635    0.7243   -3.5671
    14          H       0.5950    0.4640   -2.4771
    15          H       1.1521    1.3687    0.6579
    16          O       0.4896    0.6944    0.8596
    17          H      -0.2432    0.8875    0.2675


    FIRST DERIVATIVES WILL BE USED IN THE CALCULATION OF SECOND DERIVATIVES

          ESTIMATED TIME TO COMPLETE CALCULATION =       71.32 SECONDS

    FOR POINT-GROUP C1   THERE ARE   1 UNIQUE SYMMETRY FUNCTIONS.

 STEP:   1 TIME =     0.15 SECS, INTEGRAL =      0.15 TIME LEFT:1209599.15
 STEP:   2 TIME =     0.23 SECS, INTEGRAL =      0.38 TIME LEFT:1209598.92
 STEP:   3 TIME =     0.06 SECS, INTEGRAL =      0.44 TIME LEFT:1209598.86
 STEP:   4 TIME =     0.12 SECS, INTEGRAL =      0.56 TIME LEFT:1209598.74
 STEP:   5 TIME =     0.04 SECS, INTEGRAL =      0.59 TIME LEFT:1209598.71
 STEP:   6 TIME =     0.04 SECS, INTEGRAL =      0.63 TIME LEFT:1209598.67
 STEP:   7 TIME =     0.06 SECS, INTEGRAL =      0.70 TIME LEFT:1209598.61
 STEP:   8 TIME =     0.07 SECS, INTEGRAL =      0.76 TIME LEFT:1209598.54
 STEP:   9 TIME =     0.07 SECS, INTEGRAL =      0.83 TIME LEFT:1209598.47
 STEP:  10 TIME =     0.04 SECS, INTEGRAL =      0.87 TIME LEFT:1209598.43
 STEP:  11 TIME =     0.07 SECS, INTEGRAL =      0.94 TIME LEFT:1209598.36
 STEP:  12 TIME =     0.18 SECS, INTEGRAL =      1.11 TIME LEFT:1209598.19
 STEP:  13 TIME =     0.05 SECS, INTEGRAL =      1.16 TIME LEFT:1209598.14
 STEP:  14 TIME =     0.12 SECS, INTEGRAL =      1.29 TIME LEFT:1209598.02
 STEP:  15 TIME =     0.03 SECS, INTEGRAL =      1.32 TIME LEFT:1209597.98
 STEP:  16 TIME =     0.16 SECS, INTEGRAL =      1.47 TIME LEFT:1209597.83
 STEP:  17 TIME =     0.27 SECS, INTEGRAL =      1.74 TIME LEFT:1209597.56
 STEP:  18 TIME =     0.24 SECS, INTEGRAL =      1.98 TIME LEFT:1209597.32
 STEP:  19 TIME =     0.07 SECS, INTEGRAL =      2.05 TIME LEFT:1209597.25
 STEP:  20 TIME =     0.14 SECS, INTEGRAL =      2.20 TIME LEFT:1209597.10
 STEP:  21 TIME =     0.10 SECS, INTEGRAL =      2.30 TIME LEFT:1209597.00
 STEP:  22 TIME =     0.12 SECS, INTEGRAL =      2.43 TIME LEFT:1209596.88
 STEP:  23 TIME =     0.09 SECS, INTEGRAL =      2.52 TIME LEFT:1209596.79
 STEP:  24 TIME =     0.26 SECS, INTEGRAL =      2.77 TIME LEFT:1209596.53
 STEP:  25 TIME =     0.04 SECS, INTEGRAL =      2.81 TIME LEFT:1209596.49
 STEP:  26 TIME =     0.13 SECS, INTEGRAL =      2.95 TIME LEFT:1209596.36
 STEP:  27 TIME =     0.08 SECS, INTEGRAL =      3.03 TIME LEFT:1209596.27
 STEP:  28 TIME =     0.04 SECS, INTEGRAL =      3.07 TIME LEFT:1209596.23
 STEP:  29 TIME =     0.04 SECS, INTEGRAL =      3.11 TIME LEFT:1209596.19
 STEP:  30 TIME =     0.04 SECS, INTEGRAL =      3.15 TIME LEFT:1209596.15
 STEP:  31 TIME =     0.03 SECS, INTEGRAL =      3.18 TIME LEFT:1209596.12
 STEP:  32 TIME =     0.02 SECS, INTEGRAL =      3.20 TIME LEFT:1209596.10
 STEP:  33 TIME =     0.03 SECS, INTEGRAL =      3.23 TIME LEFT:1209596.07
 STEP:  34 TIME =     0.02 SECS, INTEGRAL =      3.25 TIME LEFT:1209596.05
 STEP:  35 TIME =     0.03 SECS, INTEGRAL =      3.28 TIME LEFT:1209596.02
 STEP:  36 TIME =     0.02 SECS, INTEGRAL =      3.30 TIME LEFT:1209596.00
 STEP:  37 TIME =     0.02 SECS, INTEGRAL =      3.33 TIME LEFT:1209595.97
 STEP:  38 TIME =     0.03 SECS, INTEGRAL =      3.36 TIME LEFT:1209595.95
 STEP:  39 TIME =     0.03 SECS, INTEGRAL =      3.38 TIME LEFT:1209595.92
 STEP:  40 TIME =     0.02 SECS, INTEGRAL =      3.41 TIME LEFT:1209595.89
 STEP:  41 TIME =     0.02 SECS, INTEGRAL =      3.43 TIME LEFT:1209595.87
 STEP:  42 TIME =     0.03 SECS, INTEGRAL =      3.46 TIME LEFT:1209595.84
 STEP:  43 TIME =     0.02 SECS, INTEGRAL =      3.48 TIME LEFT:1209595.82
 STEP:  44 TIME =     0.03 SECS, INTEGRAL =      3.51 TIME LEFT:1209595.79
 STEP:  45 TIME =     0.02 SECS, INTEGRAL =      3.53 TIME LEFT:1209595.77
 STEP:  46 TIME =     0.02 SECS, INTEGRAL =      3.55 TIME LEFT:1209595.75
 STEP:  47 TIME =     0.03 SECS, INTEGRAL =      3.58 TIME LEFT:1209595.72
 STEP:  48 TIME =     0.02 SECS, INTEGRAL =      3.61 TIME LEFT:1209595.70
 STEP:  49 TIME =     0.03 SECS, INTEGRAL =      3.63 TIME LEFT:1209595.67
 STEP:  50 TIME =     0.02 SECS, INTEGRAL =      3.66 TIME LEFT:1209595.64
 STEP:  51 TIME =     0.02 SECS, INTEGRAL =      3.68 TIME LEFT:1209595.62

(To convert to Hartree/Bohr^2, multiply by (10^(-21) x N x a0^2)/(4.184 x 627.51) =  0.0642)


           FORCE MATRIX IN MILLIDYNES/ANGSTROM


                  C  1       H  2       H  3       H  4       N  5       O  6
 ------------------------------------------------------------------------------
     C    1  11.137405
     H    2   3.132909   3.989861
     H    3   3.136655   0.433006   3.986152
     H    4   3.235420   0.420930   0.425588   4.074560
     N    5   3.448664   0.940442   0.926955   0.891181  19.211320
     O    6   1.324628   0.090261   0.079704   0.042817   9.347101  12.100525
     O    7   1.277235   0.067017   0.069616   0.088057   9.410217   2.691014
     C    8   0.009613   0.008140   0.002648   0.002887   0.012573   0.006986
     O    9   0.005660   0.006609   0.002745   0.001745   0.006368   0.004661
     O   10   0.003787   0.002867   0.001604   0.001948   0.004174   0.002354
     C   11   0.027885   0.028561   0.008031   0.003511   0.166749   0.070187
     H   12   0.001781   0.002028   0.000774   0.000359   0.003082   0.002373
     H   13   0.000919   0.000459   0.000305   0.000433   0.005177   0.001402
     H   14   0.003458   0.002232   0.000402   0.000538   0.018005   0.009420
     H   15   0.035224   0.037667   0.010769   0.003972   0.187639   0.081612
     O   16   0.077390   0.031387   0.025347   0.010275   0.219614   0.098026
     H   17   0.051253   0.050566   0.017707   0.007340   0.219370   0.092587


                  O  7       C  8       O  9       O 10       C 11       H 12
 ------------------------------------------------------------------------------
     O    7  12.141952
     C    8   0.010059  17.799067
     O    9   0.004033   8.845550  11.252767
     O   10   0.002579   8.969726   2.317082  11.365402
     C   11   0.104249   2.922516   1.273061   1.294225  11.178118
     H   12   0.002041   0.771233   0.067347   0.050068   3.370236   4.188091
     H   13   0.002793   0.779918   0.057335   0.065745   3.349018   0.455134
     H   14   0.010511   0.781076   0.050562   0.064285   3.371492   0.454180
     H   15   0.113598   0.161047   0.104680   0.067270   0.146011   0.018185
     O   16   0.121258   0.112055   0.090257   0.072304   0.147957   0.020834
     H   17   0.118633   0.076610   0.039898   0.048150   0.141925   0.017180


                  H 13       H 14       H 15       O 16       H 17
 ------------------------------------------------------------------
     H   13   4.163804
     H   14   0.459115   4.188582
     H   15   0.003646   0.015729   4.258953
     O   16   0.003009   0.022191   3.866846   6.183045
     H   17   0.001353   0.016051   0.801239   3.904304   4.311639


          HEAT OF FORMATION =    -297.727730 KCALS/MOLE


          TRIVIAL VIBRATIONS, SHOULD BE ZERO

 -45.3701=TX -31.2069=TY   2.1328=TZ  46.1864=RX -14.7343=RY  42.9822=RZ


      MOLECULAR POINT GROUP   :   C1  


           EIGENVECTORS  


   Root No.       1         2         3         4         5         6         7         8

                 1 A       2 A       3 A       4 A       5 A       6 A       7 A       8 A   

                  -0.3      -0.0      -0.0      -0.0      -0.0      -0.0      -0.0      -0.0
  
           1    0.0342   -0.0132    0.0043    0.0065    0.1248    0.0519   -0.0536    0.0217
           2   -0.0081    0.0261   -0.0692   -0.0350   -0.0340   -0.0987   -0.0265   -0.0045
           3   -0.0203   -0.0323    0.0556   -0.0394   -0.0872   -0.0161    0.1374   -0.0069
           4    0.0304   -0.0187    0.0042    0.0091    0.1287    0.0515   -0.0562    0.0226
           5   -0.0284    0.0875   -0.1739   -0.1672   -0.4281    0.1436   -0.0841    0.0080
           6    0.0053    0.0550    0.2275   -0.0364   -0.0841   -0.3146    0.1043    0.0519
           7    0.0278   -0.0772    0.0946    0.1274    0.4978   -0.1812   -0.0105    0.0153
           8   -0.0094    0.0069   -0.0397    0.0030    0.0848   -0.1722   -0.0119   -0.0072
           9   -0.0305   -0.1313    0.1146   -0.1972   -0.2185    0.2571    0.1735   -0.0538
          10    0.0239   -0.0724   -0.1719   -0.0430   -0.0383    0.3958   -0.0510   -0.0204
          11    0.0027    0.0834   -0.1355    0.1391    0.1968   -0.3243   -0.0289    0.0137
          12   -0.0166   -0.0245   -0.0467    0.0298   -0.0342    0.0038    0.1382   -0.0147
          13    0.0490    0.0945    0.1296   -0.0630   -0.0997   -0.1314   -0.1265    0.0953
          14   -0.0302   -0.0858    0.0971   -0.1598   -0.0120   -0.0051    0.0209   -0.0386
          15   -0.0112   -0.0114   -0.0974    0.0642   -0.0059    0.0066    0.1381   -0.0176
          16   -0.0102   -0.2894    0.1141    0.0468   -0.2427   -0.3119   -0.2642    0.2080
          17    0.0354    0.2672    0.0789   -0.2364    0.1410    0.1681    0.1509   -0.1461
          18   -0.0416   -0.0425   -0.3177    0.2172    0.1139    0.0397    0.1283   -0.0247
          19    0.1575    0.5727    0.2707   -0.2259   -0.1373   -0.1087   -0.0410    0.0423
          20   -0.0977   -0.5520    0.2527   -0.1822   -0.1553   -0.1043   -0.0694    0.0406
          21   -0.0006    0.0483   -0.0015   -0.0060   -0.0599   -0.0112    0.1450   -0.0158
          22   -0.0041   -0.0101   -0.0734    0.1233   -0.1186   -0.0277    0.1160   -0.0323
          23   -0.0386   -0.0194   -0.0679   -0.1068    0.0645   -0.0495    0.1109    0.0014
          24    0.0115   -0.0074   -0.0214    0.0059    0.0441    0.0438   -0.1015    0.0141
          25    0.0093    0.0815   -0.1675    0.3939   -0.3484   -0.0852    0.1142    0.0347
          26   -0.0371   -0.0055   -0.0922   -0.0325   -0.0049   -0.0648    0.1315    0.0109
          27    0.0256    0.0146    0.0008   -0.0374    0.1059    0.0565   -0.1752    0.0274
          28    0.0473   -0.0447   -0.0436   -0.0704    0.0038   -0.0240    0.0769   -0.0519
          29   -0.0133   -0.0928   -0.0150   -0.3154    0.2081   -0.0268    0.1262   -0.0481
          30   -0.0295   -0.0437   -0.0058    0.0671    0.0195    0.0662   -0.0153   -0.0122
          31   -0.0288   -0.0792   -0.0029    0.0312    0.0087    0.0405    0.1826   -0.0697
          32   -0.0434    0.0543   -0.0913    0.0601   -0.0241   -0.0547    0.0686    0.0435
          33    0.0332   -0.0005   -0.0544   -0.0206    0.0043   -0.0003   -0.1259    0.0164
          34   -0.0181   -0.1382    0.0174   -0.0377    0.0391   -0.0184    0.1286   -0.4906
          35   -0.0370    0.0481   -0.0888    0.0564   -0.0236   -0.0668    0.0548   -0.0369
          36    0.0289   -0.0361   -0.0391   -0.1357    0.0804    0.0627   -0.0248    0.3284
          37   -0.0230   -0.0802    0.0392    0.0035    0.1074    0.1689    0.2991    0.3222
          38   -0.0349    0.0647   -0.0913    0.1407   -0.0755   -0.1179   -0.0232   -0.3281
          39    0.0280    0.0032   -0.0426    0.0088    0.0091    0.0088   -0.1315   -0.0331
          40   -0.0202   -0.0643   -0.0126    0.0478   -0.0082    0.0391    0.1805   -0.0241
          41   -0.0339    0.1138   -0.1060    0.1090   -0.0343    0.0203    0.1353    0.5029
          42    0.0374    0.0303   -0.1115    0.0550   -0.1259   -0.1206   -0.2368   -0.2567
          43   -0.0714   -0.0063   -0.0253   -0.0671    0.0402    0.0726   -0.1932   -0.0355
          44    0.0744    0.0981    0.1793    0.1968    0.0007    0.2141   -0.1111    0.0046
          45    0.2491    0.0141   -0.2753   -0.2136    0.1187   -0.0767   -0.2195    0.0757
          46    0.0641    0.0720    0.0178   -0.0990   -0.0178    0.0143   -0.0286   -0.0471
          47   -0.3365    0.0564    0.2705    0.3170    0.0522    0.3010   -0.2428   -0.0054
          48   -0.4748    0.1158    0.2069    0.0830    0.1080    0.0300   -0.1239   -0.0033
          49   -0.2677    0.0733   -0.1945   -0.1831    0.0605    0.0538   -0.2732    0.0093
          50    0.6361   -0.1510    0.0923    0.2132    0.0439    0.2380   -0.2011   -0.0107
          51    0.2061    0.0483    0.4079    0.1555    0.0116   -0.0357    0.1896   -0.0753


   Root No.       9        10        11        12        13        14        15        16

                 9 A      10 A      11 A      12 A      13 A      14 A      15 A      16 A   

                   0.0       0.0       0.0       0.0       0.1       0.2       0.5       0.6
  
           1   -0.1164   -0.1295   -0.0664    0.0710    0.0953    0.0112    0.0021   -0.0791
           2    0.0819   -0.0680   -0.0772    0.0326    0.0620    0.0150   -0.0005   -0.0770
           3   -0.0134   -0.0196    0.0951   -0.0971   -0.1132   -0.0620    0.0001    0.0909
           4   -0.1176   -0.1299   -0.0649    0.0710    0.0999    0.0190    0.0020   -0.0591
           5    0.2159   -0.1169   -0.1261    0.0632    0.1689   -0.0255    0.0006   -0.2078
           6   -0.0054   -0.0014    0.1760   -0.1573   -0.2041   -0.1290    0.0026   -0.2885
           7   -0.2489   -0.0932   -0.0033    0.0277   -0.0082    0.0117    0.0033   -0.1398
           8    0.0393   -0.0560   -0.0573    0.0191    0.0286    0.0162   -0.0001   -0.0863
           9   -0.1114   -0.0288    0.0954   -0.0735   -0.0654   -0.0209   -0.0010   -0.2053
          10   -0.0614   -0.1640   -0.1693    0.1493    0.2451    0.0880   -0.0012    0.2447
          11    0.1256   -0.0481   -0.0861    0.0209    0.0099    0.0115   -0.0007    0.3236
          12    0.0309   -0.0218    0.0493   -0.0724   -0.0840   -0.0339   -0.0010    0.3890
          13   -0.0344   -0.1353   -0.0084    0.0222    0.0484   -0.0604    0.0011   -0.0760
          14   -0.0865   -0.0576   -0.0133    0.0133    0.0345    0.0251    0.0017   -0.0764
          15    0.0528   -0.0238    0.0328   -0.0645   -0.0737   -0.0350   -0.0005    0.0930
          16    0.0962   -0.1297   -0.0441    0.0247    0.0397    0.0141   -0.0047   -0.0840
          17   -0.1944   -0.0629    0.0014    0.0207    0.0513   -0.0266    0.0068   -0.1099
          18    0.1378   -0.0319   -0.0472   -0.0232   -0.0193   -0.0267   -0.0014   -0.3278
          19   -0.1001   -0.1399    0.0526   -0.0067    0.0122   -0.1281    0.0002    0.1855
          20   -0.1064   -0.0394    0.0162   -0.0050   -0.0049    0.1028    0.0014    0.2293
          21    0.0220   -0.0205    0.0688   -0.0828   -0.0999   -0.0546   -0.0009    0.2582
          22   -0.0895    0.1479   -0.0132   -0.1500    0.0962   -0.0024   -0.0934   -0.0207
          23   -0.0509    0.1364    0.0387    0.0835    0.0246   -0.0275    0.1306   -0.0160
          24   -0.0274   -0.1490   -0.1296    0.0653   -0.1039   -0.0296    0.0040    0.0230
          25   -0.2677    0.1511    0.1677    0.0816    0.0819    0.0673    0.2704    0.0657
          26   -0.1450    0.1556    0.1454    0.2410    0.0108   -0.0000    0.1060    0.0361
          27    0.1618   -0.2140   -0.3804   -0.2899   -0.0854   -0.0723    0.3127   -0.0895
          28   -0.0110    0.2763   -0.2257   -0.4617    0.1599   -0.0327   -0.1490    0.0743
          29   -0.0120    0.2361   -0.0475   -0.0166    0.0541   -0.0599   -0.2194    0.0459
          30   -0.1087   -0.2427    0.1285    0.4698   -0.1734   -0.0108   -0.3093   -0.0630
          31    0.0495   -0.0500    0.0477   -0.0552    0.0106   -0.0049   -0.1034   -0.0559
          32    0.0306   -0.0294   -0.0284    0.0044   -0.0253   -0.0175    0.1363   -0.0353
          33   -0.1680    0.0817   -0.1421    0.0450   -0.0180   -0.0369    0.0055    0.0603
          34    0.0605   -0.1052    0.1089   -0.0115    0.0011   -0.0146    0.3415   -0.1037
          35    0.0366   -0.0486   -0.0212    0.0067   -0.0306   -0.0241    0.1482   -0.0356
          36   -0.2346    0.2583   -0.1148    0.1071    0.0297   -0.0021    0.4563   -0.0142
          37    0.1856   -0.1909    0.0493   -0.0412   -0.0698   -0.0317   -0.0845    0.1336
          38    0.1034   -0.2187   -0.0369   -0.0223   -0.0826   -0.0351   -0.0575    0.1497
          39   -0.0956   -0.0458   -0.1456    0.0394   -0.0667   -0.0461   -0.0696    0.1963
          40    0.0331   -0.0231    0.0358   -0.0716    0.0209   -0.0060   -0.1917   -0.0880
          41    0.0236    0.0326   -0.0812   -0.0401   -0.0188   -0.0427   -0.2463   -0.1261
          42   -0.3018    0.2297   -0.1830   -0.0109    0.0628   -0.0043   -0.3689   -0.1116
          43    0.2594    0.2889    0.0591    0.1847   -0.1750   -0.3039    0.0136    0.0162
          44   -0.1026   -0.0037    0.0261   -0.2251   -0.2668    0.6123   -0.0143   -0.0297
          45    0.1228   -0.0780    0.5244   -0.1673    0.3009    0.3366   -0.0242   -0.0051
          46    0.2329    0.2638   -0.1252    0.1786   -0.3859    0.3229   -0.0010   -0.0180
          47   -0.0676    0.0654    0.1217   -0.1623   -0.0076   -0.1506    0.0073    0.0177
          48    0.1763    0.0826    0.1697    0.0184    0.4305   -0.0110   -0.0048    0.0166
          49    0.1297    0.1627    0.1994   -0.0129   -0.2721    0.0506   -0.0054    0.0042
          50    0.1085    0.1231    0.2257   -0.0340   -0.0079   -0.3732    0.0001   -0.0021
          51    0.3620    0.2249   -0.1973    0.2937    0.2831    0.2385    0.0003   -0.0222


   Root No.      17        18        19        20        21        22        23        24

                17 A      18 A      19 A      20 A      21 A      22 A      23 A      24 A   

                   0.7       0.7       1.0       1.0       1.2       1.3       1.3       1.4
  
           1    0.0305   -0.1265   -0.1246    0.0010   -0.2730   -0.0106    0.0219   -0.0735
           2    0.0415    0.1115   -0.1305   -0.0014    0.2627    0.0101   -0.0224   -0.0575
           3   -0.0481   -0.0184    0.1024   -0.0001   -0.0128    0.0014   -0.0068   -0.1438
           4    0.0230   -0.1105   -0.1304    0.0012   -0.3211   -0.0134    0.0265   -0.1221
           5    0.0794   -0.1316    0.5360    0.0025   -0.2919   -0.0176    0.0352    0.1604
           6    0.1063   -0.5457   -0.1252   -0.0015    0.1594    0.0065   -0.0051    0.4069
           7    0.0606    0.1483    0.5794    0.0040    0.0326   -0.0036    0.0083    0.2012
           8    0.0469    0.1901    0.0938   -0.0006    0.4177    0.0145   -0.0321    0.0061
           9    0.1078    0.5919   -0.1850   -0.0006   -0.1548   -0.0050    0.0175    0.3599
          10   -0.1050   -0.2281   -0.1139   -0.0011    0.4555    0.0181   -0.0306    0.3149
          11   -0.1389    0.1345   -0.2823    0.0002   -0.3621   -0.0105    0.0295    0.3521
          12   -0.1787   -0.0462    0.0416    0.0001   -0.0506    0.0017   -0.0017    0.1669
          13    0.0261   -0.0846   -0.1226    0.0007   -0.1523   -0.0027    0.0050   -0.0823
          14    0.0394    0.0720   -0.1176   -0.0006    0.1472    0.0069   -0.0146   -0.0937
          15   -0.0459   -0.0141    0.1078   -0.0001   -0.0046   -0.0007   -0.0033   -0.1681
          16    0.0452    0.1970   -0.1259   -0.0021    0.1100    0.0044   -0.0102   -0.0812
          17    0.0429   -0.1894   -0.1601    0.0016   -0.0884   -0.0011    0.0011   -0.1506
          18    0.1411    0.0035   -0.1711   -0.0030    0.0417    0.0029   -0.0111   -0.3617
          19   -0.0836    0.2057    0.0399    0.0019    0.1292    0.0098   -0.0220   -0.1624
          20   -0.0992   -0.1773    0.0620   -0.0000   -0.0894   -0.0066    0.0103   -0.2213
          21   -0.1205    0.0292    0.2152    0.0003    0.0437    0.0026   -0.0107   -0.2523
          22   -0.0455    0.0011    0.0021   -0.1175   -0.0117   -0.0219   -0.1565    0.0031
          23   -0.0392    0.0015   -0.0005    0.1729   -0.0052   -0.0282   -0.1017    0.0023
          24    0.0477   -0.0020   -0.0020   -0.0224    0.0093   -0.1946    0.0242   -0.0007
          25    0.1475   -0.0029    0.0010    0.0714    0.0057   -0.2804   -0.0621   -0.0001
          26    0.0804   -0.0024   -0.0002    0.1662    0.0037   -0.0989   -0.0094    0.0000
          27   -0.2118    0.0077   -0.0046    0.1534   -0.0066   -0.2211   -0.2491    0.0053
          28    0.1680   -0.0045    0.0015   -0.1822    0.0033   -0.1935   -0.0185   -0.0005
          29    0.1051   -0.0042    0.0002   -0.0385    0.0009   -0.2490   -0.0902    0.0019
          30   -0.1382    0.0006    0.0002   -0.1961   -0.0096   -0.2141   -0.2145    0.0052
          31   -0.1208    0.0029    0.0023   -0.0985   -0.0216    0.0775   -0.2348    0.0047
          32   -0.0830    0.0024   -0.0001    0.1377   -0.0103    0.0172   -0.1347    0.0028
          33    0.1299   -0.0038   -0.0023   -0.0184    0.0204   -0.2047    0.1645   -0.0035
          34   -0.2505    0.0118   -0.0091   -0.0777    0.0486    0.0107    0.5587   -0.0101
          35   -0.0893    0.0036   -0.0024    0.1647    0.0021   -0.0411   -0.0263    0.0009
          36   -0.0198   -0.0007    0.0070   -0.3091   -0.0308    0.4874   -0.1177    0.0033
          37    0.3001   -0.0084    0.0007    0.5108   -0.0009    0.2526    0.1028   -0.0020
          38    0.3354   -0.0101    0.0084   -0.3414   -0.0269    0.4093   -0.1233    0.0028
          39    0.4386   -0.0131    0.0013   -0.0504    0.0225   -0.0227    0.3202   -0.0072
          40   -0.1974    0.0054    0.0013   -0.1142   -0.0185    0.1520   -0.1911    0.0041
          41   -0.3101    0.0108   -0.0078   -0.2634    0.0432   -0.0095    0.4887   -0.0086
          42   -0.2441    0.0042   -0.0010    0.4540   -0.0072    0.3654    0.0730   -0.0013
          43   -0.0032    0.0052   -0.0048    0.0079    0.0071   -0.0059   -0.0036    0.0011
          44    0.0100   -0.0178    0.0093   -0.0031   -0.0094   -0.0087    0.0113    0.0007
          45    0.0007    0.0008    0.0002   -0.0025   -0.0071    0.0007   -0.0006   -0.0040
          46    0.0078   -0.0101    0.0075    0.0000   -0.0034   -0.0018    0.0067    0.0007
          47   -0.0013    0.0042   -0.0083    0.0056    0.0054   -0.0019   -0.0093    0.0005
          48    0.0176    0.0087   -0.0004   -0.0060    0.0036   -0.0017    0.0143   -0.0005
          49   -0.0026   -0.0019   -0.0046   -0.0057    0.0105    0.0086   -0.0005    0.0043
          50   -0.0199    0.0021    0.0001   -0.0024    0.0007    0.0152   -0.0122    0.0014
          51    0.0174   -0.0027    0.0158    0.0023   -0.0164   -0.0040    0.0069   -0.0043


   Root No.      25        26        27        28        29        30        31        32

                25 A      26 A      27 A      28 A      29 A      30 A      31 A      32 A   

                   2.0       2.3       2.6       3.1       3.2       4.1       4.1       5.5
  
           1    0.0021   -0.0020   -0.1550    0.0014   -0.1096   -0.0022   -0.0308   -0.0011
           2    0.0047    0.0001   -0.1507    0.0016   -0.1638    0.0014    0.0198   -0.0001
           3   -0.0070    0.0025    0.1351    0.0029   -0.2839   -0.0010   -0.0086   -0.0007
           4    0.0108   -0.0031   -0.3319    0.0031   -0.3824   -0.0173   -0.2722    0.0005
           5    0.0011   -0.0011    0.0313    0.0003    0.0316   -0.0040   -0.0768   -0.0002
           6    0.0123   -0.0004   -0.1588   -0.0005    0.0712   -0.0051   -0.0957   -0.0002
           7   -0.0026   -0.0005    0.1321   -0.0018    0.1493   -0.0008   -0.0136    0.0007
           8    0.0058    0.0008   -0.1768    0.0031   -0.3647    0.0163    0.3104   -0.0012
           9    0.0031   -0.0004   -0.1190   -0.0005    0.0667    0.0069    0.1149   -0.0004
          10   -0.0012   -0.0008   -0.0425   -0.0018    0.1721    0.0032    0.0367    0.0003
          11   -0.0001   -0.0015   -0.0815   -0.0015    0.2273    0.0009   -0.0104   -0.0001
          12   -0.0151    0.0043    0.5321    0.0025   -0.3137   -0.0052   -0.0617   -0.0007
          13   -0.0160    0.0021    0.1937    0.0002   -0.0730    0.0346    0.6069   -0.0003
          14   -0.0041    0.0006    0.1847    0.0007   -0.0550   -0.0323   -0.5596    0.0007
          15    0.0062    0.0001   -0.2078    0.0020   -0.1072    0.0055    0.0775    0.0000
          16   -0.0090    0.0006    0.2206    0.0000   -0.0310   -0.0088   -0.1701    0.0007
          17   -0.0093    0.0019    0.2706   -0.0005    0.0179    0.0084    0.1566    0.0005
          18   -0.0031   -0.0000    0.2042   -0.0031    0.4255    0.0016   -0.0097   -0.0004
          19    0.0030    0.0002   -0.0175   -0.0028    0.2702   -0.0080   -0.1529    0.0006
          20   -0.0022   -0.0023   -0.0767   -0.0025    0.3035    0.0101    0.1615   -0.0001
          21    0.0111   -0.0014   -0.3977   -0.0003    0.1462    0.0000   -0.0215   -0.0003
          22   -0.0170    0.1778   -0.0028   -0.1181   -0.0018    0.5614   -0.0330    0.2486
          23    0.0073   -0.2718    0.0003   -0.0948   -0.0017    0.3013   -0.0176    0.1988
          24   -0.0012    0.0227    0.0003   -0.1610    0.0005   -0.5509    0.0321    0.3947
          25   -0.0029   -0.1075    0.0024    0.3166    0.0039   -0.1639    0.0095   -0.2183
          26    0.0054   -0.2877    0.0022   -0.1099   -0.0011   -0.0690    0.0046    0.2985
          27    0.0084   -0.2584   -0.0003    0.2589    0.0015    0.1719   -0.0102   -0.0755
          28   -0.0087    0.2720   -0.0009    0.0197    0.0019   -0.1511    0.0078    0.1792
          29    0.0048    0.0022    0.0007    0.3674    0.0042   -0.1038    0.0053   -0.3305
          30   -0.0115    0.2781   -0.0026    0.2079    0.0021    0.1711   -0.0105   -0.0076
          31    0.0083   -0.1649    0.0002   -0.1914   -0.0016   -0.0434    0.0029    0.0731
          32   -0.0174    0.2592   -0.0028   -0.1457   -0.0005   -0.0237    0.0016    0.0599
          33   -0.0058   -0.0307    0.0007   -0.2724   -0.0030    0.0338   -0.0019    0.1023
          34    0.0025    0.0709    0.0027    0.1327    0.0013    0.0231   -0.0017    0.0246
          35   -0.0280    0.5007   -0.0057   -0.3635   -0.0002   -0.0763    0.0019   -0.3835
          36   -0.0002    0.1428   -0.0025    0.0786    0.0011   -0.0555    0.0025   -0.0612
          37   -0.0047    0.1292   -0.0009    0.1812    0.0024    0.0102   -0.0014    0.0681
          38    0.0143   -0.0832   -0.0015    0.2227    0.0024   -0.0475    0.0026    0.1202
          39    0.0041   -0.1710    0.0056   -0.2646   -0.0048    0.2961   -0.0161   -0.3541
          40    0.0197   -0.3753   -0.0005   -0.3384   -0.0014   -0.2322    0.0124   -0.3771
          41    0.0135   -0.1192    0.0026    0.1237   -0.0004    0.0140    0.0009    0.0373
          42    0.0022    0.0102   -0.0005    0.1503    0.0012   -0.0709    0.0043    0.0039
          43    0.5314    0.0241    0.0160   -0.0035   -0.0010    0.0052    0.0052   -0.0027
          44    0.0015   -0.0035    0.0122    0.0036   -0.0020    0.0227    0.0043   -0.0062
          45    0.3150    0.0174    0.0114   -0.0056    0.0010    0.0077    0.0020    0.0012
          46   -0.0271   -0.0028    0.0035   -0.0051   -0.0006   -0.0032    0.0002    0.0044
          47    0.3551    0.0194    0.0023   -0.0018    0.0017   -0.0131    0.0007    0.0034
          48   -0.3516   -0.0145   -0.0136    0.0108    0.0013   -0.0083    0.0006   -0.0053
          49   -0.4885   -0.0199   -0.0193    0.0079    0.0014   -0.0068   -0.0059   -0.0014
          50   -0.3525   -0.0147   -0.0111   -0.0027    0.0009   -0.0053   -0.0056    0.0024
          51    0.0331   -0.0012    0.0135   -0.0060   -0.0058    0.0020    0.0020    0.0044


   Root No.      33        34        35        36        37        38        39        40

                33 A      34 A      35 A      36 A      37 A      38 A      39 A      40 A   

                   5.9       7.0       8.6       8.9       9.1       9.2       9.2       9.4
  
           1   -0.1149    0.0025   -0.5440    0.0035    0.2331   -0.0041    0.5494    0.0261
           2   -0.1629    0.0073    0.5869   -0.0167    0.2087   -0.0017    0.4865    0.0287
           3   -0.2522    0.0037   -0.0546   -0.0010   -0.1037   -0.0009   -0.1600    0.0088
           4    0.3687   -0.0084    0.3304   -0.0028   -0.1255    0.0020   -0.2839   -0.0122
           5    0.0311   -0.0003   -0.0288    0.0019   -0.0048   -0.0003   -0.0122   -0.0011
           6    0.0603   -0.0033   -0.0023   -0.0014    0.0069    0.0006    0.0169    0.0013
           7   -0.0845    0.0061    0.1582   -0.0032    0.0131    0.0001    0.0221    0.0012
           8    0.3601   -0.0094   -0.4078    0.0087   -0.0670    0.0001   -0.1443   -0.0084
           9    0.0550   -0.0027    0.0207   -0.0002    0.0065    0.0000    0.0165    0.0008
          10   -0.0832    0.0028    0.0049    0.0005   -0.0586    0.0007   -0.1242   -0.0040
          11   -0.1087    0.0003   -0.0603    0.0021   -0.0708    0.0004   -0.1466   -0.0045
          12    0.3400   -0.0066    0.0614   -0.0028    0.1162   -0.0004    0.2449    0.0076
          13   -0.1488    0.0082    0.1316   -0.0020   -0.0405    0.0006   -0.0997   -0.0064
          14   -0.2114    0.0005   -0.1521    0.0028   -0.0444    0.0009   -0.1053   -0.0074
          15   -0.3535    0.0031   -0.0097    0.0054   -0.0219    0.0005   -0.1097   -0.0155
          16   -0.1887    0.0045   -0.0584    0.0050   -0.0383    0.0002   -0.1242   -0.0122
          17   -0.1599    0.0056    0.0186    0.0031   -0.0446    0.0005   -0.1420   -0.0130
          18    0.2916   -0.0082    0.0003   -0.0001   -0.0100    0.0003   -0.0043    0.0030
          19    0.2496   -0.0046   -0.0239   -0.0020    0.0161    0.0005    0.0631    0.0075
          20    0.2498   -0.0042    0.0432    0.0006    0.0230   -0.0009    0.0650    0.0048
          21   -0.1367   -0.0002   -0.0127   -0.0017    0.0009    0.0012   -0.0039   -0.0032
          22    0.0020   -0.0074    0.0008    0.0343    0.0289   -0.1912   -0.0092   -0.0687
          23    0.0015   -0.0022    0.0006    0.0050    0.0134   -0.1141   -0.0010   -0.1060
          24   -0.0008    0.0013   -0.0024   -0.1796   -0.0521   -0.2059    0.0243   -0.0986
          25   -0.0003    0.0043   -0.0000   -0.0105   -0.0100    0.0589    0.0038    0.0063
          26   -0.0005   -0.0101   -0.0011   -0.0586   -0.0230   -0.1430    0.0165   -0.1434
          27    0.0012   -0.0003    0.0010    0.0122    0.0091   -0.0274   -0.0006   -0.0761
          28    0.0005    0.0040   -0.0014   -0.0697   -0.0111   -0.1492    0.0043   -0.0171
          29   -0.0000    0.0051    0.0003    0.0144   -0.0008    0.1040   -0.0026    0.0602
          30    0.0009   -0.0024    0.0002    0.0014    0.0139   -0.1065   -0.0069    0.0087
          31   -0.0012    0.0335   -0.0059   -0.3213   -0.1827    0.7066    0.0851   -0.1216
          32   -0.0008    0.0281   -0.0060   -0.1759   -0.0175    0.0521   -0.0335    0.7962
          33   -0.0000   -0.0424    0.0094    0.6564    0.1830    0.4148   -0.0766    0.1388
          34    0.0001    0.0040   -0.0005    0.0078    0.0112   -0.0394   -0.0084    0.0691
          35    0.0012   -0.0203    0.0035    0.0651   -0.0105    0.0215    0.0283   -0.4704
          36    0.0001   -0.0014   -0.0003   -0.0301   -0.0114   -0.0168    0.0060   -0.0279
          37    0.0008   -0.0137    0.0021    0.1307    0.0421   -0.0099   -0.0156   -0.0206
          38    0.0011   -0.0211    0.0037    0.1795    0.0501    0.0261   -0.0161   -0.0729
          39   -0.0012    0.0478   -0.0070   -0.4061   -0.1156   -0.0841    0.0405    0.0768
          40    0.0002   -0.0294    0.0042    0.2316    0.1189   -0.3754   -0.0583    0.1533
          41   -0.0004    0.0049    0.0000   -0.0275   -0.0175    0.0524    0.0102   -0.0635
          42    0.0000    0.0035   -0.0006   -0.0570   -0.0228    0.0249    0.0104   -0.0233
          43   -0.0125   -0.3830    0.0054    0.0727   -0.2826   -0.0259    0.1216    0.0358
          44   -0.0138   -0.3566    0.0039    0.0818   -0.2807   -0.0247    0.1206    0.0331
          45    0.0018    0.1168   -0.0035   -0.0233    0.0905    0.0105   -0.0375   -0.0094
          46    0.0039   -0.0260   -0.0062   -0.2276    0.5895    0.0696   -0.2581   -0.0540
          47    0.0106    0.4577   -0.0047   -0.0419    0.2127    0.0145   -0.0908   -0.0299
          48   -0.0072   -0.4534   -0.0015   -0.0942    0.1481    0.0245   -0.0591   -0.0044
          49    0.0084    0.4026    0.0026    0.1530   -0.3035   -0.0440    0.1322    0.0175
          50    0.0029   -0.0853   -0.0001   -0.0444    0.0734    0.0122   -0.0327   -0.0026
          51    0.0006    0.3446    0.0014    0.1220   -0.2375   -0.0351    0.0992    0.0127


   Root No.      41        42        43        44        45

                41 A      42 A      43 A      44 A      45 A   

                   9.6      18.3      20.4      22.8      23.6
  
           1    0.0705   -0.0010   -0.0212    0.0004    0.0124
           2    0.1262   -0.0001   -0.0227    0.0002    0.0161
           3    0.7718    0.0000   -0.0563    0.0000   -0.0190
           4   -0.0121    0.0002   -0.0222   -0.0003    0.0068
           5    0.0077    0.0000   -0.0078   -0.0002    0.0021
           6   -0.0261    0.0002   -0.0078    0.0001    0.0135
           7    0.0117   -0.0002    0.0011   -0.0001   -0.0021
           8   -0.0209   -0.0001   -0.0252    0.0001    0.0023
           9   -0.0237    0.0002   -0.0088    0.0000    0.0091
          10    0.0900   -0.0001    0.0013    0.0001   -0.0080
          11    0.1197    0.0001   -0.0001   -0.0002   -0.0088
          12   -0.2396    0.0002   -0.0204   -0.0002   -0.0133
          13   -0.1235    0.0010    0.2260   -0.0036   -0.4609
          14   -0.1627    0.0010    0.3234   -0.0036   -0.4332
          15   -0.3202    0.0002    0.5177    0.0042    0.4667
          16   -0.1589   -0.0014   -0.3670    0.0023    0.2908
          17   -0.1614   -0.0011   -0.3932    0.0024    0.3102
          18    0.0996    0.0006    0.0556   -0.0005   -0.0505
          19    0.1224   -0.0002    0.1807    0.0012    0.1573
          20    0.0913   -0.0001    0.1251    0.0008    0.1099
          21   -0.2651    0.0004   -0.4794   -0.0036   -0.3999
          22    0.0028   -0.3261    0.0006   -0.4294    0.0021
          23    0.0026   -0.2757    0.0001    0.6557   -0.0062
          24   -0.0012   -0.4508    0.0009   -0.0761    0.0005
          25   -0.0002   -0.1130    0.0001    0.0917   -0.0017
          26    0.0020    0.5293   -0.0005   -0.3955    0.0039
          27    0.0019    0.1540   -0.0002   -0.1118    0.0015
          28   -0.0004    0.3962   -0.0007    0.3259   -0.0026
          29   -0.0014   -0.2893    0.0005   -0.2430    0.0021
          30   -0.0000    0.2320   -0.0003    0.1900   -0.0006
          31   -0.0067    0.0226    0.0005    0.0126    0.0059
          32   -0.0198    0.0242    0.0003   -0.0214    0.0067
          33    0.0098    0.0156   -0.0007    0.0025   -0.0066
          34   -0.0008    0.0023   -0.0001   -0.0087   -0.0005
          35    0.0101    0.0200   -0.0000   -0.0055   -0.0012
          36   -0.0002    0.0104    0.0001   -0.0118    0.0011
          37    0.0031   -0.0005   -0.0001   -0.0006   -0.0014
          38    0.0048   -0.0057   -0.0002    0.0036   -0.0013
          39   -0.0090    0.0273    0.0003    0.0045    0.0024
          40    0.0021    0.0216    0.0000    0.0072   -0.0013
          41    0.0004   -0.0003    0.0002    0.0064    0.0003
          42   -0.0007    0.0080    0.0000    0.0071    0.0007
          43   -0.0137   -0.0026   -0.0004    0.0031    0.0072
          44   -0.0120   -0.0043   -0.0009    0.0040   -0.0024
          45    0.0059    0.0013   -0.0007   -0.0069   -0.0057
          46    0.0300    0.0000    0.0009   -0.0034   -0.0142
          47    0.0096    0.0040    0.0011   -0.0040    0.0010
          48    0.0059    0.0032   -0.0005    0.0023    0.0041
          49   -0.0161    0.0013    0.0006    0.0018    0.0103
          50    0.0037   -0.0020   -0.0003    0.0002   -0.0015
          51   -0.0092   -0.0029    0.0007    0.0002   -0.0038


          FORCE CONSTANTS IN MILLIDYNES/ANGSTROM (= 10**5 DYNES/CM)

  -0.34619  -0.03439  -0.02694  -0.01454  -0.01312  -0.00689  -0.00257  -0.00117
   0.00568   0.01201   0.02592   0.03495   0.06159   0.16805   0.53605   0.64903
   0.65851   0.69813   0.98091   1.03407   1.21484   1.28895   1.30092   1.38897
   2.00589   2.34920   2.59446   3.08690   3.19872   4.08055   4.10211   5.51712
   5.92623   7.02748   8.61391   8.89607   9.10791   9.19473   9.22349   9.35679
   9.59545  18.34995  20.38330  22.78893  23.63498


           ASSOCIATED EIGENVECTORS




    ROOT NO.    1           2           3           4           5           6

            -0.34619    -0.03439    -0.02694    -0.01454    -0.01312    -0.00689
  
         1   0.03424    -0.01324     0.00432     0.00651     0.12482     0.05187
         2  -0.00813     0.02610    -0.06922    -0.03502    -0.03405    -0.09866
         3  -0.02027    -0.03232     0.05563    -0.03944    -0.08718    -0.01612
         4   0.03040    -0.01866     0.00415     0.00909     0.12871     0.05153
         5  -0.02842     0.08753    -0.17387    -0.16724    -0.42807     0.14359
         6   0.00527     0.05499     0.22750    -0.03643    -0.08413    -0.31460
         7   0.02778    -0.07722     0.09458     0.12738     0.49777    -0.18122
         8  -0.00944     0.00687    -0.03968     0.00295     0.08479    -0.17225
         9  -0.03052    -0.13133     0.11459    -0.19724    -0.21854     0.25715
        10   0.02394    -0.07238    -0.17189    -0.04304    -0.03833     0.39576
        11   0.00274     0.08341    -0.13549     0.13906     0.19681    -0.32429
        12  -0.01662    -0.02449    -0.04665     0.02983    -0.03424     0.00382
        13   0.04896     0.09449     0.12960    -0.06305    -0.09968    -0.13139
        14  -0.03023    -0.08576     0.09713    -0.15977    -0.01201    -0.00514
        15  -0.01120    -0.01138    -0.09738     0.06415    -0.00589     0.00658
        16  -0.01018    -0.28939     0.11410     0.04677    -0.24270    -0.31194
        17   0.03535     0.26718     0.07894    -0.23638     0.14100     0.16813
        18  -0.04158    -0.04246    -0.31766     0.21722     0.11394     0.03968
        19   0.15753     0.57267     0.27073    -0.22591    -0.13733    -0.10869
        20  -0.09767    -0.55201     0.25275    -0.18223    -0.15533    -0.10435
        21  -0.00061     0.04832    -0.00154    -0.00605    -0.05986    -0.01120
        22  -0.00412    -0.01014    -0.07341     0.12326    -0.11863    -0.02766
        23  -0.03861    -0.01944    -0.06788    -0.10678     0.06453    -0.04946
        24   0.01153    -0.00737    -0.02143     0.00588     0.04414     0.04378
        25   0.00934     0.08149    -0.16753     0.39386    -0.34835    -0.08517
        26  -0.03715    -0.00546    -0.09221    -0.03246    -0.00491    -0.06480
        27   0.02560     0.01458     0.00083    -0.03742     0.10595     0.05650
        28   0.04728    -0.04466    -0.04363    -0.07036     0.00384    -0.02398
        29  -0.01326    -0.09279    -0.01502    -0.31537     0.20806    -0.02678
        30  -0.02950    -0.04373    -0.00581     0.06713     0.01952     0.06616
        31  -0.02881    -0.07919    -0.00294     0.03115     0.00865     0.04051
        32  -0.04336     0.05429    -0.09128     0.06012    -0.02407    -0.05468
        33   0.03324    -0.00047    -0.05439    -0.02065     0.00434    -0.00029
        34  -0.01805    -0.13822     0.01742    -0.03773     0.03911    -0.01837
        35  -0.03705     0.04808    -0.08879     0.05642    -0.02362    -0.06675
        36   0.02886    -0.03610    -0.03912    -0.13574     0.08042     0.06273
        37  -0.02302    -0.08020     0.03916     0.00347     0.10741     0.16892
        38  -0.03492     0.06474    -0.09134     0.14074    -0.07554    -0.11792
        39   0.02799     0.00322    -0.04265     0.00881     0.00912     0.00883
        40  -0.02022    -0.06434    -0.01263     0.04782    -0.00817     0.03913
        41  -0.03392     0.11383    -0.10603     0.10900    -0.03432     0.02026
        42   0.03743     0.03030    -0.11152     0.05501    -0.12586    -0.12056
        43  -0.07143    -0.00627    -0.02530    -0.06708     0.04018     0.07258
        44   0.07445     0.09809     0.17926     0.19680     0.00070     0.21409
        45   0.24908     0.01410    -0.27525    -0.21358     0.11867    -0.07675
        46   0.06405     0.07198     0.01776    -0.09901    -0.01783     0.01434
        47  -0.33645     0.05637     0.27046     0.31697     0.05217     0.30105
        48  -0.47483     0.11581     0.20692     0.08305     0.10801     0.02996
        49  -0.26769     0.07329    -0.19449    -0.18313     0.06051     0.05380
        50   0.63607    -0.15103     0.09229     0.21317     0.04386     0.23797
        51   0.20612     0.04833     0.40794     0.15546     0.01161    -0.03566




    ROOT NO.    7           8           9          10          11          12

            -0.00257    -0.00117     0.00568     0.01201     0.02592     0.03495
  
         1  -0.05364     0.02173    -0.11637    -0.12946    -0.06639     0.07104
         2  -0.02651    -0.00451     0.08194    -0.06802    -0.07715     0.03261
         3   0.13736    -0.00694    -0.01340    -0.01957     0.09515    -0.09710
         4  -0.05616     0.02263    -0.11765    -0.12989    -0.06485     0.07099
         5  -0.08408     0.00805     0.21590    -0.11690    -0.12606     0.06316
         6   0.10434     0.05190    -0.00541    -0.00138     0.17604    -0.15732
         7  -0.01049     0.01528    -0.24889    -0.09319    -0.00326     0.02769
         8  -0.01189    -0.00717     0.03933    -0.05599    -0.05734     0.01911
         9   0.17346    -0.05380    -0.11137    -0.02881     0.09537    -0.07347
        10  -0.05099    -0.02039    -0.06136    -0.16395    -0.16931     0.14928
        11  -0.02893     0.01371     0.12564    -0.04806    -0.08615     0.02091
        12   0.13823    -0.01468     0.03089    -0.02178     0.04932    -0.07236
        13  -0.12648     0.09528    -0.03441    -0.13534    -0.00840     0.02220
        14   0.02090    -0.03858    -0.08646    -0.05763    -0.01334     0.01334
        15   0.13809    -0.01757     0.05277    -0.02379     0.03282    -0.06452
        16  -0.26417     0.20797     0.09625    -0.12973    -0.04410     0.02467
        17   0.15089    -0.14613    -0.19439    -0.06291     0.00145     0.02067
        18   0.12827    -0.02465     0.13776    -0.03189    -0.04724    -0.02316
        19  -0.04104     0.04231    -0.10007    -0.13994     0.05260    -0.00673
        20  -0.06936     0.04064    -0.10635    -0.03941     0.01619    -0.00500
        21   0.14504    -0.01580     0.02198    -0.02049     0.06877    -0.08277
        22   0.11603    -0.03226    -0.08954     0.14789    -0.01320    -0.14997
        23   0.11095     0.00135    -0.05089     0.13641     0.03867     0.08352
        24  -0.10149     0.01409    -0.02742    -0.14896    -0.12959     0.06529
        25   0.11415     0.03470    -0.26766     0.15107     0.16767     0.08156
        26   0.13146     0.01094    -0.14500     0.15562     0.14544     0.24096
        27  -0.17524     0.02736     0.16182    -0.21395    -0.38040    -0.28985
        28   0.07694    -0.05189    -0.01100     0.27628    -0.22574    -0.46167
        29   0.12623    -0.04809    -0.01203     0.23613    -0.04751    -0.01658
        30  -0.01530    -0.01217    -0.10875    -0.24271     0.12851     0.46979
        31   0.18261    -0.06968     0.04945    -0.05004     0.04770    -0.05520
        32   0.06861     0.04352     0.03055    -0.02942    -0.02838     0.00440
        33  -0.12588     0.01642    -0.16796     0.08168    -0.14213     0.04497
        34   0.12861    -0.49056     0.06050    -0.10517     0.10889    -0.01149
        35   0.05477    -0.03693     0.03658    -0.04864    -0.02118     0.00670
        36  -0.02475     0.32845    -0.23463     0.25828    -0.11476     0.10715
        37   0.29906     0.32225     0.18556    -0.19086     0.04928    -0.04118
        38  -0.02325    -0.32811     0.10336    -0.21867    -0.03691    -0.02229
        39  -0.13149    -0.03310    -0.09559    -0.04577    -0.14564     0.03944
        40   0.18054    -0.02408     0.03314    -0.02307     0.03582    -0.07163
        41   0.13528     0.50285     0.02361     0.03262    -0.08121    -0.04009
        42  -0.23682    -0.25665    -0.30184     0.22970    -0.18297    -0.01089
        43  -0.19323    -0.03546     0.25943     0.28889     0.05912     0.18468
        44  -0.11115     0.00455    -0.10263    -0.00367     0.02608    -0.22513
        45  -0.21953     0.07568     0.12285    -0.07803     0.52437    -0.16728
        46  -0.02855    -0.04707     0.23289     0.26383    -0.12518     0.17862
        47  -0.24285    -0.00535    -0.06763     0.06544     0.12171    -0.16230
        48  -0.12388    -0.00326     0.17633     0.08257     0.16969     0.01835
        49  -0.27320     0.00925     0.12972     0.16268     0.19938    -0.01287
        50  -0.20107    -0.01074     0.10848     0.12308     0.22569    -0.03397
        51   0.18960    -0.07527     0.36198     0.22489    -0.19732     0.29373




    ROOT NO.   13          14          15          16          17          18

             0.06159     0.16805     0.53605     0.64903     0.65851     0.69813
  
         1   0.09528     0.01119     0.00214    -0.07910     0.03052    -0.12652
         2   0.06196     0.01500    -0.00048    -0.07697     0.04146     0.11147
         3  -0.11317    -0.06203     0.00014     0.09090    -0.04808    -0.01837
         4   0.09988     0.01899     0.00204    -0.05906     0.02304    -0.11049
         5   0.16887    -0.02555     0.00062    -0.20776     0.07944    -0.13164
         6  -0.20414    -0.12900     0.00259    -0.28849     0.10626    -0.54567
         7  -0.00819     0.01170     0.00333    -0.13976     0.06062     0.14832
         8   0.02857     0.01615    -0.00012    -0.08633     0.04686     0.19006
         9  -0.06540    -0.02086    -0.00097    -0.20534     0.10780     0.59193
        10   0.24506     0.08799    -0.00117     0.24465    -0.10503    -0.22809
        11   0.00991     0.01151    -0.00073     0.32365    -0.13888     0.13449
        12  -0.08401    -0.03392    -0.00104     0.38902    -0.17871    -0.04624
        13   0.04837    -0.06041     0.00114    -0.07595     0.02606    -0.08458
        14   0.03449     0.02505     0.00171    -0.07642     0.03937     0.07204
        15  -0.07372    -0.03503    -0.00054     0.09295    -0.04589    -0.01409
        16   0.03975     0.01415    -0.00469    -0.08395     0.04517     0.19702
        17   0.05128    -0.02660     0.00680    -0.10992     0.04289    -0.18940
        18  -0.01931    -0.02670    -0.00142    -0.32778     0.14108     0.00350
        19   0.01223    -0.12815     0.00022     0.18546    -0.08363     0.20569
        20  -0.00488     0.10285     0.00141     0.22925    -0.09924    -0.17725
        21  -0.09990    -0.05461    -0.00087     0.25822    -0.12053     0.02918
        22   0.09623    -0.00243    -0.09337    -0.02068    -0.04555     0.00110
        23   0.02455    -0.02752     0.13058    -0.01601    -0.03921     0.00153
        24  -0.10387    -0.02955     0.00399     0.02296     0.04766    -0.00195
        25   0.08186     0.06729     0.27038     0.06569     0.14754    -0.00292
        26   0.01084    -0.00001     0.10595     0.03610     0.08045    -0.00236
        27  -0.08540    -0.07228     0.31272    -0.08949    -0.21177     0.00770
        28   0.15985    -0.03271    -0.14901     0.07428     0.16798    -0.00451
        29   0.05413    -0.05987    -0.21943     0.04589     0.10512    -0.00417
        30  -0.17341    -0.01078    -0.30932    -0.06299    -0.13822     0.00065
        31   0.01058    -0.00486    -0.10343    -0.05586    -0.12084     0.00286
        32  -0.02532    -0.01755     0.13625    -0.03532    -0.08300     0.00241
        33  -0.01799    -0.03687     0.00552     0.06029     0.12993    -0.00384
        34   0.00105    -0.01458     0.34149    -0.10374    -0.25049     0.01184
        35  -0.03062    -0.02408     0.14816    -0.03562    -0.08930     0.00356
        36   0.02974    -0.00211     0.45632    -0.01425    -0.01976    -0.00074
        37  -0.06979    -0.03174    -0.08450     0.13359     0.30007    -0.00837
        38  -0.08262    -0.03514    -0.05752     0.14971     0.33536    -0.01007
        39  -0.06672    -0.04605    -0.06956     0.19626     0.43863    -0.01306
        40   0.02089    -0.00602    -0.19171    -0.08795    -0.19744     0.00543
        41  -0.01883    -0.04271    -0.24635    -0.12613    -0.31012     0.01080
        42   0.06277    -0.00433    -0.36885    -0.11158    -0.24413     0.00420
        43  -0.17500    -0.30389     0.01361     0.01623    -0.00323     0.00517
        44  -0.26679     0.61226    -0.01427    -0.02967     0.00996    -0.01778
        45   0.30094     0.33658    -0.02417    -0.00512     0.00071     0.00079
        46  -0.38594     0.32289    -0.00104    -0.01804     0.00782    -0.01008
        47  -0.00764    -0.15058     0.00727     0.01765    -0.00128     0.00420
        48   0.43048    -0.01099    -0.00483     0.01662     0.01763     0.00875
        49  -0.27212     0.05061    -0.00543     0.00421    -0.00263    -0.00186
        50  -0.00789    -0.37321     0.00015    -0.00210    -0.01985     0.00210
        51   0.28310     0.23854     0.00027    -0.02219     0.01740    -0.00273




    ROOT NO.   19          20          21          22          23          24

             0.98091     1.03407     1.21484     1.28895     1.30092     1.38897
  
         1  -0.12457     0.00101    -0.27301    -0.01060     0.02188    -0.07346
         2  -0.13050    -0.00141     0.26271     0.01010    -0.02240    -0.05753
         3   0.10239    -0.00007    -0.01278     0.00141    -0.00680    -0.14384
         4  -0.13039     0.00119    -0.32106    -0.01338     0.02653    -0.12207
         5   0.53604     0.00249    -0.29189    -0.01762     0.03517     0.16045
         6  -0.12519    -0.00149     0.15945     0.00651    -0.00508     0.40686
         7   0.57943     0.00405     0.03257    -0.00357     0.00832     0.20120
         8   0.09383    -0.00057     0.41765     0.01450    -0.03206     0.00608
         9  -0.18497    -0.00059    -0.15485    -0.00500     0.01754     0.35989
        10  -0.11390    -0.00105     0.45550     0.01810    -0.03064     0.31486
        11  -0.28225     0.00022    -0.36206    -0.01048     0.02949     0.35214
        12   0.04156     0.00010    -0.05058     0.00172    -0.00167     0.16689
        13  -0.12256     0.00070    -0.15228    -0.00270     0.00503    -0.08226
        14  -0.11761    -0.00060     0.14722     0.00691    -0.01458    -0.09365
        15   0.10783    -0.00008    -0.00462    -0.00067    -0.00333    -0.16814
        16  -0.12585    -0.00206     0.11000     0.00442    -0.01023    -0.08125
        17  -0.16012     0.00165    -0.08843    -0.00109     0.00106    -0.15063
        18  -0.17113    -0.00298     0.04169     0.00293    -0.01107    -0.36169
        19   0.03987     0.00185     0.12918     0.00983    -0.02196    -0.16236
        20   0.06196    -0.00002    -0.08941    -0.00661     0.01031    -0.22132
        21   0.21525     0.00029     0.04371     0.00260    -0.01071    -0.25235
        22   0.00210    -0.11752    -0.01174    -0.02195    -0.15645     0.00315
        23  -0.00054     0.17289    -0.00522    -0.02818    -0.10166     0.00225
        24  -0.00199    -0.02238     0.00926    -0.19457     0.02419    -0.00066
        25   0.00104     0.07139     0.00573    -0.28039    -0.06211    -0.00014
        26  -0.00017     0.16620     0.00370    -0.09894    -0.00941     0.00003
        27  -0.00461     0.15343    -0.00660    -0.22111    -0.24907     0.00532
        28   0.00152    -0.18216     0.00329    -0.19350    -0.01849    -0.00046
        29   0.00023    -0.03852     0.00094    -0.24901    -0.09021     0.00186
        30   0.00023    -0.19615    -0.00958    -0.21413    -0.21452     0.00518
        31   0.00232    -0.09848    -0.02157     0.07751    -0.23483     0.00470
        32  -0.00009     0.13774    -0.01028     0.01717    -0.13472     0.00277
        33  -0.00228    -0.01841     0.02041    -0.20474     0.16447    -0.00347
        34  -0.00912    -0.07770     0.04860     0.01072     0.55870    -0.01009
        35  -0.00244     0.16466     0.00208    -0.04112    -0.02630     0.00085
        36   0.00698    -0.30906    -0.03083     0.48741    -0.11773     0.00327
        37   0.00067     0.51075    -0.00092     0.25261     0.10282    -0.00199
        38   0.00838    -0.34137    -0.02693     0.40926    -0.12329     0.00278
        39   0.00134    -0.05037     0.02252    -0.02272     0.32020    -0.00720
        40   0.00128    -0.11424    -0.01849     0.15200    -0.19115     0.00410
        41  -0.00779    -0.26345     0.04318    -0.00946     0.48872    -0.00865
        42  -0.00095     0.45396    -0.00724     0.36544     0.07301    -0.00130
        43  -0.00476     0.00793     0.00711    -0.00591    -0.00363     0.00106
        44   0.00933    -0.00307    -0.00942    -0.00871     0.01133     0.00066
        45   0.00019    -0.00247    -0.00712     0.00065    -0.00064    -0.00401
        46   0.00748     0.00002    -0.00342    -0.00177     0.00669     0.00070
        47  -0.00832     0.00557     0.00544    -0.00188    -0.00927     0.00047
        48  -0.00044    -0.00605     0.00358    -0.00171     0.01426    -0.00046
        49  -0.00456    -0.00567     0.01052     0.00856    -0.00049     0.00432
        50   0.00007    -0.00241     0.00071     0.01517    -0.01218     0.00144
        51   0.01580     0.00232    -0.01642    -0.00401     0.00695    -0.00430




    ROOT NO.   25          26          27          28          29          30

             2.00589     2.34920     2.59446     3.08690     3.19872     4.08055
  
         1   0.00210    -0.00201    -0.15497     0.00145    -0.10955    -0.00219
         2   0.00472     0.00010    -0.15070     0.00159    -0.16383     0.00135
         3  -0.00702     0.00249     0.13506     0.00289    -0.28388    -0.00095
         4   0.01081    -0.00312    -0.33186     0.00307    -0.38240    -0.01733
         5   0.00114    -0.00109     0.03125     0.00028     0.03156    -0.00405
         6   0.01227    -0.00044    -0.15876    -0.00046     0.07124    -0.00506
         7  -0.00258    -0.00049     0.13215    -0.00178     0.14935    -0.00078
         8   0.00583     0.00077    -0.17678     0.00306    -0.36472     0.01633
         9   0.00315    -0.00036    -0.11905    -0.00050     0.06671     0.00689
        10  -0.00120    -0.00084    -0.04248    -0.00178     0.17210     0.00317
        11  -0.00010    -0.00148    -0.08147    -0.00146     0.22728     0.00095
        12  -0.01509     0.00433     0.53213     0.00251    -0.31370    -0.00515
        13  -0.01600     0.00215     0.19365     0.00023    -0.07301     0.03463
        14  -0.00412     0.00063     0.18467     0.00068    -0.05501    -0.03231
        15   0.00624     0.00007    -0.20782     0.00198    -0.10724     0.00554
        16  -0.00903     0.00057     0.22055     0.00003    -0.03104    -0.00878
        17  -0.00926     0.00190     0.27059    -0.00046     0.01792     0.00842
        18  -0.00306    -0.00003     0.20422    -0.00313     0.42551     0.00162
        19   0.00300     0.00017    -0.01748    -0.00283     0.27017    -0.00802
        20  -0.00218    -0.00235    -0.07670    -0.00255     0.30348     0.01007
        21   0.01106    -0.00141    -0.39767    -0.00028     0.14616     0.00005
        22  -0.01705     0.17782    -0.00284    -0.11812    -0.00178     0.56145
        23   0.00728    -0.27176     0.00033    -0.09479    -0.00173     0.30132
        24  -0.00120     0.02266     0.00028    -0.16105     0.00051    -0.55089
        25  -0.00291    -0.10748     0.00243     0.31658     0.00394    -0.16387
        26   0.00545    -0.28766     0.00215    -0.10994    -0.00113    -0.06900
        27   0.00836    -0.25840    -0.00035     0.25893     0.00152     0.17191
        28  -0.00867     0.27197    -0.00090     0.01974     0.00187    -0.15114
        29   0.00478     0.00217     0.00074     0.36742     0.00417    -0.10375
        30  -0.01148     0.27808    -0.00261     0.20788     0.00212     0.17110
        31   0.00830    -0.16491     0.00020    -0.19139    -0.00164    -0.04340
        32  -0.01737     0.25923    -0.00282    -0.14574    -0.00048    -0.02370
        33  -0.00584    -0.03066     0.00071    -0.27236    -0.00297     0.03376
        34   0.00253     0.07089     0.00267     0.13269     0.00131     0.02313
        35  -0.02804     0.50071    -0.00569    -0.36349    -0.00019    -0.07629
        36  -0.00020     0.14282    -0.00247     0.07862     0.00111    -0.05554
        37  -0.00471     0.12921    -0.00087     0.18124     0.00236     0.01022
        38   0.01427    -0.08317    -0.00147     0.22265     0.00239    -0.04750
        39   0.00409    -0.17102     0.00557    -0.26455    -0.00476     0.29613
        40   0.01966    -0.37529    -0.00054    -0.33840    -0.00140    -0.23224
        41   0.01350    -0.11917     0.00258     0.12370    -0.00037     0.01396
        42   0.00221     0.01016    -0.00049     0.15031     0.00119    -0.07089
        43   0.53141     0.02408     0.01602    -0.00350    -0.00104     0.00516
        44   0.00146    -0.00350     0.01216     0.00357    -0.00198     0.02267
        45   0.31500     0.01743     0.01140    -0.00557     0.00096     0.00768
        46  -0.02711    -0.00285     0.00355    -0.00511    -0.00063    -0.00317
        47   0.35510     0.01941     0.00229    -0.00184     0.00174    -0.01315
        48  -0.35157    -0.01450    -0.01362     0.01075     0.00127    -0.00825
        49  -0.48854    -0.01989    -0.01930     0.00789     0.00140    -0.00685
        50  -0.35246    -0.01473    -0.01114    -0.00266     0.00091    -0.00532
        51   0.03308    -0.00121     0.01346    -0.00598    -0.00576     0.00205




    ROOT NO.   31          32          33          34          35          36

             4.10211     5.51712     5.92623     7.02748     8.61391     8.89607
  
         1  -0.03077    -0.00112    -0.11490     0.00245    -0.54405     0.00351
         2   0.01981    -0.00007    -0.16286     0.00731     0.58694    -0.01671
         3  -0.00858    -0.00067    -0.25216     0.00373    -0.05457    -0.00096
         4  -0.27218     0.00055     0.36865    -0.00845     0.33044    -0.00281
         5  -0.07678    -0.00018     0.03114    -0.00030    -0.02877     0.00189
         6  -0.09567    -0.00024     0.06030    -0.00332    -0.00231    -0.00138
         7  -0.01360     0.00067    -0.08454     0.00612     0.15825    -0.00319
         8   0.31039    -0.00117     0.36009    -0.00942    -0.40780     0.00871
         9   0.11490    -0.00036     0.05495    -0.00271     0.02073    -0.00025
        10   0.03666     0.00033    -0.08321     0.00277     0.00494     0.00048
        11  -0.01042    -0.00011    -0.10865     0.00029    -0.06028     0.00210
        12  -0.06172    -0.00067     0.34000    -0.00661     0.06144    -0.00284
        13   0.60694    -0.00034    -0.14875     0.00818     0.13159    -0.00204
        14  -0.55962     0.00074    -0.21144     0.00046    -0.15209     0.00281
        15   0.07752     0.00002    -0.35352     0.00315    -0.00970     0.00544
        16  -0.17009     0.00074    -0.18873     0.00451    -0.05844     0.00496
        17   0.15658     0.00047    -0.15987     0.00557     0.01861     0.00306
        18  -0.00969    -0.00036     0.29164    -0.00823     0.00031    -0.00009
        19  -0.15292     0.00059     0.24958    -0.00464    -0.02394    -0.00201
        20   0.16153    -0.00010     0.24977    -0.00419     0.04324     0.00058
        21  -0.02146    -0.00031    -0.13671    -0.00024    -0.01269    -0.00166
        22  -0.03299     0.24864     0.00196    -0.00740     0.00078     0.03425
        23  -0.01760     0.19882     0.00147    -0.00218     0.00061     0.00502
        24   0.03212     0.39466    -0.00077     0.00134    -0.00238    -0.17962
        25   0.00949    -0.21828    -0.00026     0.00433    -0.00000    -0.01051
        26   0.00459     0.29847    -0.00047    -0.01009    -0.00107    -0.05861
        27  -0.01024    -0.07554     0.00117    -0.00030     0.00103     0.01223
        28   0.00776     0.17916     0.00049     0.00401    -0.00140    -0.06967
        29   0.00529    -0.33049    -0.00001     0.00515     0.00034     0.01445
        30  -0.01053    -0.00758     0.00090    -0.00240     0.00017     0.00139
        31   0.00291     0.07311    -0.00116     0.03352    -0.00588    -0.32130
        32   0.00157     0.05988    -0.00084     0.02806    -0.00603    -0.17588
        33  -0.00195     0.10231    -0.00003    -0.04235     0.00938     0.65641
        34  -0.00172     0.02464     0.00014     0.00401    -0.00052     0.00782
        35   0.00188    -0.38353     0.00123    -0.02026     0.00347     0.06511
        36   0.00246    -0.06122     0.00014    -0.00136    -0.00027    -0.03011
        37  -0.00142     0.06811     0.00082    -0.01366     0.00211     0.13075
        38   0.00256     0.12025     0.00110    -0.02110     0.00373     0.17948
        39  -0.01605    -0.35413    -0.00119     0.04775    -0.00702    -0.40608
        40   0.01240    -0.37707     0.00015    -0.02937     0.00421     0.23160
        41   0.00087     0.03729    -0.00040     0.00489     0.00005    -0.02754
        42   0.00432     0.00385     0.00003     0.00350    -0.00063    -0.05697
        43   0.00518    -0.00270    -0.01248    -0.38297     0.00544     0.07274
        44   0.00429    -0.00616    -0.01376    -0.35659     0.00391     0.08179
        45   0.00195     0.00116     0.00182     0.11682    -0.00347    -0.02333
        46   0.00025     0.00435     0.00386    -0.02599    -0.00616    -0.22755
        47   0.00066     0.00345     0.01064     0.45768    -0.00472    -0.04186
        48   0.00062    -0.00530    -0.00716    -0.45338    -0.00146    -0.09423
        49  -0.00589    -0.00137     0.00836     0.40259     0.00263     0.15295
        50  -0.00560     0.00243     0.00287    -0.08527    -0.00013    -0.04439
        51   0.00199     0.00438     0.00060     0.34459     0.00143     0.12203




    ROOT NO.   37          38          39          40          41          42

             9.10791     9.19473     9.22349     9.35679     9.59545    18.34995
  
         1   0.23311    -0.00405     0.54942     0.02610     0.07052    -0.00100
         2   0.20871    -0.00167     0.48653     0.02868     0.12615    -0.00006
         3  -0.10372    -0.00087    -0.16004     0.00877     0.77184     0.00003
         4  -0.12550     0.00201    -0.28388    -0.01216    -0.01211     0.00016
         5  -0.00475    -0.00033    -0.01224    -0.00111     0.00774     0.00003
         6   0.00693     0.00057     0.01685     0.00127    -0.02609     0.00022
         7   0.01305     0.00012     0.02213     0.00124     0.01168    -0.00019
         8  -0.06704     0.00009    -0.14431    -0.00841    -0.02086    -0.00015
         9   0.00651     0.00001     0.01648     0.00079    -0.02374     0.00017
        10  -0.05858     0.00066    -0.12418    -0.00403     0.08998    -0.00011
        11  -0.07077     0.00037    -0.14659    -0.00447     0.11971     0.00013
        12   0.11622    -0.00042     0.24493     0.00756    -0.23959     0.00023
        13  -0.04053     0.00061    -0.09974    -0.00643    -0.12354     0.00096
        14  -0.04439     0.00085    -0.10528    -0.00742    -0.16265     0.00101
        15  -0.02194     0.00047    -0.10974    -0.01552    -0.32016     0.00025
        16  -0.03827     0.00017    -0.12415    -0.01224    -0.15890    -0.00140
        17  -0.04458     0.00047    -0.14204    -0.01296    -0.16137    -0.00108
        18  -0.01000     0.00027    -0.00429     0.00296     0.09961     0.00062
        19   0.01609     0.00046     0.06312     0.00751     0.12240    -0.00024
        20   0.02305    -0.00087     0.06503     0.00485     0.09127    -0.00006
        21   0.00085     0.00118    -0.00391    -0.00316    -0.26506     0.00045
        22   0.02893    -0.19124    -0.00918    -0.06869     0.00279    -0.32612
        23   0.01344    -0.11413    -0.00099    -0.10603     0.00261    -0.27570
        24  -0.05210    -0.20593     0.02426    -0.09861    -0.00120    -0.45083
        25  -0.01003     0.05890     0.00378     0.00634    -0.00025    -0.11304
        26  -0.02297    -0.14300     0.01651    -0.14337     0.00199     0.52925
        27   0.00911    -0.02737    -0.00057    -0.07608     0.00187     0.15402
        28  -0.01110    -0.14923     0.00433    -0.01714    -0.00037     0.39624
        29  -0.00077     0.10403    -0.00260     0.06025    -0.00141    -0.28932
        30   0.01389    -0.10653    -0.00690     0.00870    -0.00003     0.23203
        31  -0.18273     0.70662     0.08505    -0.12159    -0.00669     0.02259
        32  -0.01746     0.05214    -0.03352     0.79618    -0.01977     0.02423
        33   0.18304     0.41477    -0.07664     0.13884     0.00981     0.01558
        34   0.01124    -0.03941    -0.00843     0.06911    -0.00084     0.00231
        35  -0.01046     0.02148     0.02827    -0.47042     0.01008     0.01999
        36  -0.01144    -0.01681     0.00604    -0.02790    -0.00020     0.01037
        37   0.04206    -0.00989    -0.01563    -0.02060     0.00315    -0.00049
        38   0.05009     0.02608    -0.01612    -0.07295     0.00480    -0.00569
        39  -0.11557    -0.08415     0.04049     0.07677    -0.00901     0.02727
        40   0.11886    -0.37537    -0.05833     0.15327     0.00207     0.02159
        41  -0.01750     0.05243     0.01021    -0.06348     0.00038    -0.00033
        42  -0.02281     0.02493     0.01040    -0.02333    -0.00067     0.00798
        43  -0.28264    -0.02593     0.12157     0.03582    -0.01371    -0.00260
        44  -0.28074    -0.02467     0.12061     0.03311    -0.01199    -0.00426
        45   0.09051     0.01047    -0.03745    -0.00938     0.00592     0.00135
        46   0.58953     0.06960    -0.25811    -0.05402     0.02996     0.00004
        47   0.21273     0.01452    -0.09079    -0.02987     0.00959     0.00396
        48   0.14805     0.02453    -0.05908    -0.00437     0.00593     0.00315
        49  -0.30349    -0.04402     0.13222     0.01751    -0.01613     0.00130
        50   0.07341     0.01221    -0.03268    -0.00258     0.00373    -0.00196
        51  -0.23752    -0.03513     0.09917     0.01268    -0.00923    -0.00288




    ROOT NO.   43          44          45

            20.38330    22.78893    23.63498
  
         1  -0.02118     0.00037     0.01238
         2  -0.02268     0.00024     0.01611
         3  -0.05629     0.00002    -0.01903
         4  -0.02222    -0.00034     0.00676
         5  -0.00776    -0.00015     0.00206
         6  -0.00783     0.00009     0.01347
         7   0.00111    -0.00008    -0.00211
         8  -0.02515     0.00009     0.00233
         9  -0.00884     0.00004     0.00907
        10   0.00126     0.00007    -0.00800
        11  -0.00015    -0.00016    -0.00883
        12  -0.02045    -0.00021    -0.01334
        13   0.22596    -0.00355    -0.46089
        14   0.32343    -0.00358    -0.43324
        15   0.51768     0.00416     0.46666
        16  -0.36698     0.00227     0.29075
        17  -0.39318     0.00238     0.31022
        18   0.05564    -0.00045    -0.05050
        19   0.18074     0.00116     0.15728
        20   0.12509     0.00077     0.10989
        21  -0.47937    -0.00364    -0.39988
        22   0.00057    -0.42941     0.00210
        23   0.00010     0.65567    -0.00621
        24   0.00091    -0.07607     0.00054
        25   0.00009     0.09168    -0.00169
        26  -0.00048    -0.39549     0.00389
        27  -0.00021    -0.11185     0.00151
        28  -0.00068     0.32587    -0.00257
        29   0.00050    -0.24303     0.00208
        30  -0.00035     0.19003    -0.00058
        31   0.00047     0.01261     0.00586
        32   0.00035    -0.02141     0.00673
        33  -0.00069     0.00247    -0.00662
        34  -0.00007    -0.00871    -0.00051
        35  -0.00001    -0.00549    -0.00117
        36   0.00007    -0.01178     0.00109
        37  -0.00014    -0.00061    -0.00138
        38  -0.00015     0.00365    -0.00126
        39   0.00029     0.00453     0.00241
        40   0.00002     0.00718    -0.00129
        41   0.00017     0.00640     0.00034
        42   0.00004     0.00711     0.00072
        43  -0.00042     0.00313     0.00724
        44  -0.00093     0.00400    -0.00240
        45  -0.00075    -0.00692    -0.00573
        46   0.00087    -0.00343    -0.01417
        47   0.00114    -0.00404     0.00100
        48  -0.00053     0.00232     0.00407
        49   0.00062     0.00179     0.01025
        50  -0.00031     0.00016    -0.00154
        51   0.00066     0.00017    -0.00385

          ZERO POINT ENERGY      66.188 KCAL/MOL

         NOTE: SYSTEM IS NOT A GROUND STATE, THEREFORE ZERO POINT
         ENERGY IS NOT MEANINGFULL. ZERO POINT ENERGY PRINTED
         DOES NOT INCLUDE THE  6 IMAGINARY FREQUENCIES


           FREQUENCIES, REDUCED MASSES AND VIBRATIONAL DIPOLES



   I         1         2         3         4         5         6
 FREQ(I) -611.2312 -129.1965  -87.2515  -45.4722  -43.0926  -19.5693

 MASS(I)   0.70722   0.44497   1.02555   0.46416   2.18870   2.93260

 DIPX(I)  -0.65262   0.14578  -0.56314  -0.38044  -0.36239  -0.32635
 DIPY(I)   1.09427   0.17811  -0.43103   0.25578   0.20250  -0.15676
 DIPZ(I)   1.07855   0.11473   0.03433  -0.01417  -0.08520   0.07562

 DIPT(I)   1.66931   0.25718   0.70999   0.45865   0.42378   0.36986


   I         7         8         9        10        11        12
 FREQ(I)    4.8306   15.2902   42.5822   63.7434   76.2323  105.3365

 MASS(I)   3.54661   3.47373   3.73030   3.47534   2.41484   5.02903

 DIPX(I)   0.78544   0.14939  -0.55617  -0.01375   0.13373   0.77490
 DIPY(I)  -0.01345   0.43564   0.32028  -0.22970   0.48904   0.41077
 DIPZ(I)  -0.50601  -0.29518  -0.05807   0.40818  -0.25311   0.04138

 DIPT(I)   0.93442   0.54702   0.64442   0.46857   0.56666   0.87802


   I        13        14        15        16        17        18
 FREQ(I)  175.0539  430.9257  448.1441  476.2277  539.8284  600.1692

 MASS(I)   0.44537   2.39997   1.96860   0.63773   4.08900   3.53500

 DIPX(I)   0.61086   0.08720  -0.54080  -1.09946  -0.15674   0.54851
 DIPY(I)   0.33562   0.08382   0.00462   0.36588   0.24267   0.64952
 DIPZ(I)   0.11372   0.03094   0.39780   0.80261  -0.34003   0.01641

 DIPT(I)   0.70621   0.12485   0.67136   1.40956   0.44618   0.85030


   I        19        20        21        22        23        24
 FREQ(I)  604.4110  643.4648  905.1986  996.9093 1015.1400 1025.0750

 MASS(I)   3.32002   3.86709   1.39977   1.09358   2.20218   1.57098

 DIPX(I)  -0.87352  -0.58773  -0.27953  -0.04211  -0.53946   0.10713
 DIPY(I)  -0.61284  -1.05732   0.46913   1.06855   0.08079  -0.36752
 DIPZ(I)  -1.52509  -1.77882  -0.02588  -0.16909  -0.62158  -0.46561

 DIPT(I)   1.86132   2.15118   0.54670   1.08267   0.82699   0.60278


   I        25        26        27        28        29        30
 FREQ(I) 1049.0678 1067.8339 1122.1763 1166.0747 1235.1041 1254.8010

 MASS(I)   1.13289   3.69064   0.51946   0.55752   0.39853   0.37258

 DIPX(I)   0.69032  -0.28495   0.52665   0.84766   0.61116   0.23676
 DIPY(I)   0.60231  -0.57886   0.06853  -0.23785  -0.57177   0.29830
 DIPZ(I)  -0.74198  -1.31681  -0.00063  -0.03004   0.14210  -0.68230

 DIPT(I)   1.17892   1.46637   0.53109   0.88091   0.84890   0.78139


   I        31        32        33        34        35        36
 FREQ(I) 1280.7743 1340.2411 1379.9894 1500.2744 1519.5722 1661.6739

 MASS(I)   0.50969   0.61661   0.52853   4.37422   5.02852   6.64342

 DIPX(I)   0.08897   0.82402  -0.26699   1.80424   1.66646  -6.33878
 DIPY(I)   0.32485   0.75479  -0.52929   1.65384   2.15748  -6.16630
 DIPZ(I)   0.88368   1.12743   0.81300   2.78746   2.65926   5.99185

 DIPT(I)   0.94569   1.58739   1.00619   3.70950   3.80834  10.68202


   I        37        38        39        40        41        42
 FREQ(I) 1715.3596 1923.5770 2598.7857 2662.0245 2668.0238 2692.9162

 MASS(I)   6.34314   1.68917   0.53182   0.50978   0.49559   0.34288

[...]
 FREQUENCY            76.23         C  8 -- C 11         +21.9% (536.6%)      0.0%
 TRANSITION DIPOLE   0.5667         C 11 -- H 14         +17.5% (478.7%)     86.0%
 TRAVEL (Ang.)       0.6052         C 11 -- H 12         +16.9% (471.0%)      3.3%
 REDUCED MASS        2.4148         C 11 -- H 13         +14.4% (435.4%)     93.1%
 EFFECTIVE MASS    323.4329
 FORCE CONSTANT      0.0083

 VIBRATION         12   12A           ATOM PAIR      ENERGY CONTRIBUTION    RADIAL
 FREQUENCY           105.34         O 16 -- H 17         +24.6% (388.7%)      1.0%
 TRANSITION DIPOLE   0.8780         C  8 -- C 11         +16.2% (315.2%)      0.1%
 TRAVEL (Ang.)       0.3568         C 11 -- H 12         +15.1% (304.7%)      0.1%
 REDUCED MASS        5.0290         C 11 -- H 14         +13.1% (283.1%)     62.7%
 EFFECTIVE MASS    174.2212         C 11 -- H 13         +11.2% (262.1%)     87.4%
 FORCE CONSTANT      0.0329

 VIBRATION         13   13A           ATOM PAIR      ENERGY CONTRIBUTION    RADIAL
 FREQUENCY           175.05         H 15 -- O 16         +21.5% (245.3%)      6.9%
 TRANSITION DIPOLE   0.7062         O 16 -- H 17         +15.8% (210.6%)      8.3%
 TRAVEL (Ang.)       0.9300         C  1 -- H  3         +10.8% (173.7%)      1.0%
 REDUCED MASS        0.4454         C  1 -- N  5          +9.9% (166.3%)      0.0%
 EFFECTIVE MASS     32.3699
 FORCE CONSTANT      0.0080

 VIBRATION         14   14A           ATOM PAIR      ENERGY CONTRIBUTION    RADIAL
 FREQUENCY           430.93         C  8 -- C 11         +32.7% (145.7%)      0.0%
 TRANSITION DIPOLE   0.1249         C  8 -- O  9         +14.8% ( 97.9%)      0.6%
 TRAVEL (Ang.)       0.2553         C  8 -- O 10         +14.2% ( 96.0%)      0.6%
 REDUCED MASS        2.4000         C 11 -- H 12         +13.7% ( 94.4%)     70.2%
 EFFECTIVE MASS     17.9652         C 11 -- H 14         +13.2% ( 92.4%)     55.8%
 FORCE CONSTANT      0.2626         C 11 -- H 13         +11.3% ( 85.8%)     15.6%

 VIBRATION         15   15A           ATOM PAIR      ENERGY CONTRIBUTION    RADIAL
 FREQUENCY           448.14         C  1 -- N  5         +26.9% (131.1%)      0.0%
 TRANSITION DIPOLE   0.6714         O  6 -- O  7         +16.9% (103.9%)      0.0%
 TRAVEL (Ang.)       0.2765         N  5 -- O  7         +13.1% ( 91.7%)      0.0%
 REDUCED MASS        1.9686         N  5 -- O  6         +13.1% ( 91.6%)      0.0%
 EFFECTIVE MASS     15.5441         C  1 -- H  2         +10.8% ( 83.2%)     11.1%
 FORCE CONSTANT      0.2329

 VIBRATION         16   16A           ATOM PAIR      ENERGY CONTRIBUTION    RADIAL
 FREQUENCY           476.23         H 15 -- O 16         +59.3% (103.0%)      0.0%
 TRANSITION DIPOLE   1.4096         O 16 -- H 17         +17.5% ( 56.0%)     14.8%
 TRAVEL (Ang.)       0.4712         O  6 -- O  7          +5.5% ( 31.2%)      0.3%
 REDUCED MASS        0.6377         N  5 -- O  6          +3.2% ( 23.7%)      5.2%
 EFFECTIVE MASS      2.7833
 FORCE CONSTANT      0.0852

 VIBRATION         17   17A           ATOM PAIR      ENERGY CONTRIBUTION    RADIAL
 FREQUENCY           539.83         N  5 -- O  6         +25.7% ( 92.6%)      0.0%
 TRANSITION DIPOLE   0.4462         N  5 -- O  7         +25.6% ( 92.5%)      0.0%
 TRAVEL (Ang.)       0.1748         C  1 -- N  5         +20.3% ( 82.4%)      0.0%
 REDUCED MASS        4.0890         C  1 -- H  3         +11.7% ( 62.6%)      0.8%
 EFFECTIVE MASS     12.9412         C  1 -- H  2         +10.6% ( 59.4%)      2.7%
 FORCE CONSTANT      0.7021

 VIBRATION         18   18A           ATOM PAIR      ENERGY CONTRIBUTION    RADIAL
 FREQUENCY           600.17         C  8 -- O 10         +25.7% ( 91.0%)      0.0%
 TRANSITION DIPOLE   0.8503         C  8 -- O  9         +25.4% ( 90.5%)      0.0%
 TRAVEL (Ang.)       0.1783         C  8 -- C 11         +21.1% ( 82.6%)      0.1%
 REDUCED MASS        3.5350         C 11 -- H 13         +12.7% ( 64.0%)      0.0%
 EFFECTIVE MASS     11.7357         C 11 -- H 14         +10.0% ( 56.9%)      7.9%
 FORCE CONSTANT      0.7502

 VIBRATION         19   19A           ATOM PAIR      ENERGY CONTRIBUTION    RADIAL
 FREQUENCY           604.41         C  8 -- C 11         +20.4% ( 80.6%)     15.6%
 TRANSITION DIPOLE   1.8613         C  8 -- O 10         +18.5% ( 76.8%)      0.1%
 TRAVEL (Ang.)       0.1833         C  8 -- O  9         +18.4% ( 76.6%)      0.1%
 REDUCED MASS        3.3200         C 11 -- H 13         +15.9% ( 71.2%)     50.3%
 EFFECTIVE MASS     15.0441         C 11 -- H 14         +13.5% ( 65.6%)      6.4%
 FORCE CONSTANT      0.7146         C 11 -- H 12         +13.3% ( 65.2%)      8.9%

 VIBRATION         20   20A           ATOM PAIR      ENERGY CONTRIBUTION    RADIAL
 FREQUENCY           643.46         O  6 -- O  7         +18.9% ( 80.4%)     99.7%
 TRANSITION DIPOLE   2.1512         N  5 -- O  6         +15.6% ( 73.1%)      0.0%
 TRAVEL (Ang.)       0.1646         C  1 -- N  5         +15.3% ( 72.4%)     44.5%
 REDUCED MASS        3.8671         N  5 -- O  7         +14.5% ( 70.5%)      0.0%
 EFFECTIVE MASS     15.3548         C  1 -- H  3         +12.2% ( 64.5%)     16.6%
 FORCE CONSTANT      0.9434         C  1 -- H  2         +11.8% ( 63.5%)     16.1%
                            C  1 -- H  4         +11.7% ( 63.3%)      7.1%

 VIBRATION         21   21A           ATOM PAIR      ENERGY CONTRIBUTION    RADIAL
 FREQUENCY           905.20         C  1 -- H  2         +40.8% ( 81.2%)      5.9%
 TRANSITION DIPOLE   0.5467         C  1 -- N  5         +19.3% ( 55.8%)      0.5%
 TRAVEL (Ang.)       0.2307         C  1 -- H  4         +10.9% ( 41.9%)     19.1%
 REDUCED MASS        1.3998         C  1 -- H  3          +8.3% ( 36.5%)     36.4%
 EFFECTIVE MASS      6.4023
 FORCE CONSTANT      0.6758

 VIBRATION         22   22A           ATOM PAIR      ENERGY CONTRIBUTION    RADIAL
 FREQUENCY           996.91         C  1 -- H  2         +30.3% ( 68.3%)      0.4%
 TRANSITION DIPOLE   1.0827         C  1 -- H  3         +23.8% ( 60.5%)     18.8%
 TRAVEL (Ang.)       0.2487         C  1 -- H  4         +23.2% ( 59.7%)     16.4%
 REDUCED MASS        1.0936         C  1 -- N  5         +17.4% ( 51.7%)     12.0%
 EFFECTIVE MASS      4.8629
 FORCE CONSTANT      0.6403

 VIBRATION         23   23A           ATOM PAIR      ENERGY CONTRIBUTION    RADIAL
 FREQUENCY          1015.14         C  8 -- C 11         +27.2% ( 75.3%)     88.0%
 TRANSITION DIPOLE   0.8270         C 11 -- H 12         +21.9% ( 67.5%)      0.7%
 TRAVEL (Ang.)       0.1737         C 11 -- H 14         +18.9% ( 62.7%)     48.6%
 REDUCED MASS        2.2022         C 11 -- H 13         +15.6% ( 57.0%)     20.3%
 EFFECTIVE MASS     10.0015
 FORCE CONSTANT      1.3371

 VIBRATION         24   24A           ATOM PAIR      ENERGY CONTRIBUTION    RADIAL
 FREQUENCY          1025.07         C 11 -- H 12         +28.0% ( 74.0%)     45.3%
 TRANSITION DIPOLE   0.6028         C 11 -- H 14         +25.4% ( 70.4%)      2.5%
 TRAVEL (Ang.)       0.2046         C  8 -- C 11         +20.7% ( 63.5%)     66.7%
 REDUCED MASS        1.5710         C 11 -- H 13         +15.5% ( 54.9%)      1.6%
 EFFECTIVE MASS      7.4384
 FORCE CONSTANT      0.9726

 VIBRATION         25   25A           ATOM PAIR      ENERGY CONTRIBUTION    RADIAL
 FREQUENCY          1049.07         C 11 -- H 13         +32.7% ( 72.0%)     13.4%
 TRANSITION DIPOLE   1.1789         C 11 -- H 14         +19.5% ( 55.7%)     13.0%
 TRAVEL (Ang.)       0.2382         C  8 -- C 11         +18.9% ( 54.7%)      1.6%
 REDUCED MASS        1.1329         C 11 -- H 12         +16.1% ( 50.6%)      5.5%
 EFFECTIVE MASS      5.1779
 FORCE CONSTANT      0.7346

 VIBRATION         26   26A           ATOM PAIR      ENERGY CONTRIBUTION    RADIAL
 FREQUENCY          1067.83         C  1 -- N  5         +27.6% ( 86.9%)     98.3%
 TRANSITION DIPOLE   1.4664         O  6 -- O  7         +15.4% ( 64.8%)     99.6%
 TRAVEL (Ang.)       0.1308         C  1 -- H  2         +14.7% ( 63.4%)      1.8%
 REDUCED MASS        3.6906         C  1 -- H  3         +14.0% ( 61.8%)     11.2%
 EFFECTIVE MASS     12.9922         C  1 -- H  4         +13.0% ( 59.7%)     27.7%
 FORCE CONSTANT      2.4795

 VIBRATION         27   27A           ATOM PAIR      ENERGY CONTRIBUTION    RADIAL
 FREQUENCY          1122.18         C  1 -- H  3         +49.9% ( 77.3%)      5.2%
 TRANSITION DIPOLE   0.5311         C  1 -- H  4         +29.4% ( 59.4%)      8.5%
 TRAVEL (Ang.)       0.3401         C  1 -- N  5          +8.5% ( 32.0%)      3.7%
 REDUCED MASS        0.5195         C  1 -- H  2          +4.5% ( 23.3%)     34.2%
 EFFECTIVE MASS      2.9230
 FORCE CONSTANT      0.3854

 VIBRATION         28   28A           ATOM PAIR      ENERGY CONTRIBUTION    RADIAL
 FREQUENCY          1166.07         C  1 -- H  4         +50.5% ( 70.4%)      2.2%
 TRANSITION DIPOLE   0.8809         C  1 -- H  3         +33.2% ( 57.1%)      0.7%
 TRAVEL (Ang.)       0.3221         C  1 -- N  5          +8.7% ( 29.2%)      6.8%
 REDUCED MASS        0.5575         C  1 -- H  2          +5.7% ( 23.7%)     81.6%
 EFFECTIVE MASS      2.3018
 FORCE CONSTANT      0.4466

 VIBRATION         29   29A           ATOM PAIR      ENERGY CONTRIBUTION    RADIAL
 FREQUENCY          1235.10         C 11 -- H 13         +48.9% ( 60.3%)      0.1%
 TRANSITION DIPOLE   0.8489         C 11 -- H 14         +28.3% ( 45.9%)      6.6%
 TRAVEL (Ang.)       0.3701         C 11 -- H 12         +17.7% ( 36.3%)     12.7%
 REDUCED MASS        0.3985         C  8 -- C 11          +4.8% ( 18.9%)      3.0%
 EFFECTIVE MASS      1.5251
 FORCE CONSTANT      0.3582

 VIBRATION         30   30A           ATOM PAIR      ENERGY CONTRIBUTION    RADIAL
 FREQUENCY          1254.80         C 11 -- H 12         +42.6% ( 56.1%)      0.6%
 TRANSITION DIPOLE   0.7814         C 11 -- H 14         +35.9% ( 51.4%)      1.2%
 TRAVEL (Ang.)       0.3798         C 11 -- H 13         +16.7% ( 35.1%)     22.9%
 REDUCED MASS        0.3726         C  8 -- C 11          +4.0% ( 17.1%)     11.2%
 EFFECTIVE MASS      1.4963
 FORCE CONSTANT      0.3456

 VIBRATION         31   31A           ATOM PAIR      ENERGY CONTRIBUTION    RADIAL
 FREQUENCY          1280.77         C  1 -- H  4         +49.1% ( 71.9%)      0.4%
 TRANSITION DIPOLE   0.9457         C  1 -- H  3         +31.5% ( 57.5%)      0.9%
 TRAVEL (Ang.)       0.3214         C  1 -- H  2          +7.2% ( 27.6%)      3.1%
 REDUCED MASS        0.5097         C  1 -- N  5          +6.9% ( 27.0%)     95.8%
 EFFECTIVE MASS      2.3889
 FORCE CONSTANT      0.4926

 VIBRATION         32   32A           ATOM PAIR      ENERGY CONTRIBUTION    RADIAL
 FREQUENCY          1340.24         C 11 -- H 12         +31.1% ( 60.4%)      2.2%
 TRANSITION DIPOLE   1.5874         C 11 -- H 14         +27.0% ( 56.3%)      2.0%
 TRAVEL (Ang.)       0.2856         C 11 -- H 13         +23.1% ( 52.1%)      1.5%
 REDUCED MASS        0.6166         C  8 -- C 11         +12.1% ( 37.7%)     99.8%
 EFFECTIVE MASS      3.3509
 FORCE CONSTANT      0.6526

 VIBRATION         33   33A           ATOM PAIR      ENERGY CONTRIBUTION    RADIAL
 FREQUENCY          1379.99         H 15 -- O 16         +48.8% ( 55.7%)      8.2%
 TRANSITION DIPOLE   1.0062         O 16 -- H 17         +48.8% ( 55.7%)      8.3%
 TRAVEL (Ang.)       0.3041         C  8 -- O  9          +0.3% (  4.6%)     89.2%
 REDUCED MASS        0.5285         C  8 -- O 10          +0.3% (  4.6%)     82.5%
 EFFECTIVE MASS      1.7299
 FORCE CONSTANT      0.5930

 VIBRATION         34   34A           ATOM PAIR      ENERGY CONTRIBUTION    RADIAL
 FREQUENCY          1500.27         C  8 -- O  9         +38.4% ( 76.7%)     62.4%
 TRANSITION DIPOLE   3.7095         C  8 -- O 10         +37.7% ( 76.0%)     59.9%
 TRAVEL (Ang.)       0.1014         C  8 -- C 11         +20.9% ( 56.6%)     99.7%
 REDUCED MASS        4.3742         C 11 -- H 12          +1.1% ( 12.9%)     15.4%
 EFFECTIVE MASS     12.6606
 FORCE CONSTANT      5.8009

 VIBRATION         35   35A           ATOM PAIR      ENERGY CONTRIBUTION    RADIAL
 FREQUENCY          1519.57         N  5 -- O  6         +33.5% ( 78.8%)     67.5%
 TRANSITION DIPOLE   3.8083         N  5 -- O  7         +30.3% ( 74.9%)     59.3%
 TRAVEL (Ang.)       0.0939         C  1 -- N  5         +17.6% ( 57.1%)     99.8%
 REDUCED MASS        5.0285         O  6 -- O  7         +16.4% ( 55.1%)     99.9%
 EFFECTIVE MASS     14.3957
 FORCE CONSTANT      6.8412

 VIBRATION         36   36A           ATOM PAIR      ENERGY CONTRIBUTION    RADIAL
 FREQUENCY          1661.67         N  5 -- O  7         +36.5% ( 84.9%)     90.7%
 TRANSITION DIPOLE  10.6820         N  5 -- O  6         +34.4% ( 82.5%)     86.8%
 TRAVEL (Ang.)       0.0782         C  1 -- N  5         +21.8% ( 65.6%)      0.1%
 REDUCED MASS        6.6434         O  6 -- O  7          +6.2% ( 34.9%)      0.5%
 EFFECTIVE MASS     14.1982
 FORCE CONSTANT     10.8077

 VIBRATION         37   37A           ATOM PAIR      ENERGY CONTRIBUTION    RADIAL
 FREQUENCY          1715.36         C  8 -- O 10         +38.0% ( 86.3%)     89.3%
 TRANSITION DIPOLE  10.0620         C  8 -- O  9         +36.9% ( 85.1%)     87.6%
 TRAVEL (Ang.)       0.0787         C  8 -- C 11         +24.6% ( 69.4%)      0.0%
 REDUCED MASS        6.3431         C 11 -- H 12          +0.3% (  7.5%)     23.9%
 EFFECTIVE MASS     12.9269
 FORCE CONSTANT     10.9968

 VIBRATION         38   38A           ATOM PAIR      ENERGY CONTRIBUTION    RADIAL
 FREQUENCY          1923.58         C  1 -- H  2         +90.9% ( 99.1%)     99.9%
 TRANSITION DIPOLE   1.2675         C  1 -- H  3          +2.9% ( 17.6%)     18.3%
 TRAVEL (Ang.)       0.1441         C  1 -- H  4          +2.7% ( 17.1%)     16.9%
 REDUCED MASS        1.6892         C  1 -- N  5          +2.7% ( 16.9%)      1.5%
 EFFECTIVE MASS      2.9104
 FORCE CONSTANT      3.6825

 VIBRATION         39   39A           ATOM PAIR      ENERGY CONTRIBUTION    RADIAL
 FREQUENCY          2598.79         C  1 -- H  3         +61.6% ( 81.2%)     98.7%
 TRANSITION DIPOLE   1.2835         C  1 -- H  4         +36.6% ( 62.6%)     96.8%
 TRAVEL (Ang.)       0.2209         C  1 -- N  5          +0.9% (  9.9%)      0.0%
 REDUCED MASS        0.5318         C  1 -- H  2          +0.9% (  9.8%)      0.1%
 EFFECTIVE MASS      1.4504
 FORCE CONSTANT      2.1162

 VIBRATION         40   40A           ATOM PAIR      ENERGY CONTRIBUTION    RADIAL
 FREQUENCY          2662.02         C 11 -- H 13         +66.5% ( 84.1%)     99.7%
 TRANSITION DIPOLE   0.9786         C 11 -- H 12         +17.4% ( 43.1%)     87.2%
 TRAVEL (Ang.)       0.2229         C 11 -- H 14         +15.2% ( 40.2%)     84.8%
 REDUCED MASS        0.5098         C  8 -- C 11          +0.8% (  9.4%)      0.0%
 EFFECTIVE MASS      1.4400
 FORCE CONSTANT      2.1284

 VIBRATION         41   41A           ATOM PAIR      ENERGY CONTRIBUTION    RADIAL
 FREQUENCY          2668.02         C 11 -- H 14         +49.2% ( 72.4%)     98.1%
 TRANSITION DIPOLE   0.8386         C 11 -- H 12         +48.6% ( 72.0%)     97.9%
 TRAVEL (Ang.)       0.2258         C 11 -- H 13          +0.9% (  9.9%)      1.5%
 REDUCED MASS        0.4956         C  8 -- C 11          +0.9% (  9.9%)      0.0%
 EFFECTIVE MASS      1.4549
 FORCE CONSTANT      2.0785

 VIBRATION         42   42A           ATOM PAIR      ENERGY CONTRIBUTION    RADIAL
 FREQUENCY          2692.92         H 15 -- O 16         +44.3% ( 67.6%)     96.9%
 TRANSITION DIPOLE   1.8012         O 16 -- H 17         +35.0% ( 60.1%)     95.8%
 TRAVEL (Ang.)       0.2702         C  1 -- H  4         +13.1% ( 36.8%)     98.1%
 REDUCED MASS        0.3429         C  1 -- H  3          +7.1% ( 27.1%)     94.6%
 EFFECTIVE MASS      1.4464
 FORCE CONSTANT      1.4650

 VIBRATION         43   43A           ATOM PAIR      ENERGY CONTRIBUTION    RADIAL
 FREQUENCY          2695.81         C  1 -- H  4         +48.3% ( 68.7%)     98.1%
 TRANSITION DIPOLE   1.1206         C  1 -- H  3         +27.1% ( 51.4%)     94.3%
 TRAVEL (Ang.)       0.2735         H 15 -- O 16         +13.0% ( 35.6%)     96.8%
 REDUCED MASS        0.3345         O 16 -- H 17         +10.8% ( 32.5%)     95.5%
 EFFECTIVE MASS      1.2950
 FORCE CONSTANT      1.4322

 VIBRATION         44   44A           ATOM PAIR      ENERGY CONTRIBUTION    RADIAL
 FREQUENCY          2782.04         C 11 -- H 14         +35.1% ( 56.6%)     96.1%
 TRANSITION DIPOLE   0.6294         C 11 -- H 12         +32.8% ( 54.8%)     95.7%
 TRAVEL (Ang.)       0.2729         C 11 -- H 13         +31.6% ( 53.8%)     95.5%
 REDUCED MASS        0.3255         C  8 -- C 11          +0.3% (  4.8%)     99.8%
 EFFECTIVE MASS      1.1408
 FORCE CONSTANT      1.4843

 VIBRATION         45   45A           ATOM PAIR      ENERGY CONTRIBUTION    RADIAL
 FREQUENCY          2814.85         O 16 -- H 17         +56.1% ( 72.1%)     99.7%
 TRANSITION DIPOLE   0.8780         H 15 -- O 16         +43.8% ( 63.6%)     99.7%
 TRAVEL (Ang.)       0.2202
 REDUCED MASS        0.4941
 EFFECTIVE MASS      1.1724
 FORCE CONSTANT      2.3068

      SYMMETRY NUMBER FOR POINT-GROUP C1  =  1


          SYSTEM IS A GROUND STATE



 Title: ASE calculation


          MOLECULE IS NOT LINEAR

          THERE ARE 45 GENUINE VIBRATIONS IN THIS SYSTEM
          THIS THERMODYNAMICS CALCULATION IS LIMITED TO
          MOLECULES WHICH HAVE NO INTERNAL ROTATIONS




                    CALCULATED THERMODYNAMIC PROPERTIES
                                          *
   TEMP. (K)   PARTITION FUNCTION   H.O.F.    ENTHALPY  HEAT CAPACITY ENTROPY
                                   KCAL/MOL   CAL/MOLE    CAL/K/MOL  CAL/K/MOL


 298.00  VIB.     0.6800D+09                  7251.7254    36.4677    64.7497
         ROT.     0.1190D+07                   888.2803     2.9808    30.7801
         INT.     0.8090D+15                  8140.0057    39.4485    95.5299
         TRA.     0.1586D+28                  1480.4672     4.9680    40.6996
         TOT.                     -297.728    9620.4729    44.4165   136.2295

   *: NOTE: HEATS OF FORMATION ARE RELATIVE TO THE
            ELEMENTS IN THEIR STANDARD STATE AT 298K
              (=  Standard Enthalpy of Formation).

            Hvib:  Zero-point energy is not included.
                   frequencies of less than zero cm-1 are not included.
            Hrot = (3/2)RT
            Htra = (3/2)RT + pV = (5/2)RT

            Heat capacity is Cp, not Cv

          For more information, see: HTTP://OpenMOPAC.net/Manual/thermochemistry.html


           FORCE CONSTANT IN CARTESIAN COORDINATES (Millidynes/A)

    ATOM   CHEMICAL       X               Y               Z
   NUMBER   SYMBOL  FORCE CONSTANT  FORCE CONSTANT  FORCE CONSTANT

      1       C        6.232135        6.168594        6.909966
      2       H        3.892262        0.514012        0.712934
      3       H        0.787991        3.599959        0.655539
      4       H        0.887133        1.163316        3.182198
      5       N        8.193135        8.814145       12.641685
      6       O        5.718381        6.434751        1.722663
      7       O        2.298566        1.680992        9.923140
      8       C        8.364762       12.258066        6.937867
      9       O        1.340194        9.906708        1.542138
     10       O        6.112621        4.228115        2.573618
     11       C        6.353057        6.591029        6.355415
     12       H        0.663229        4.012638        0.665851
     13       H        0.786416        1.071791        3.384330
     14       H        4.001340        0.652699        0.661656
     15       H        2.601076        1.881215        0.405939
     16       O        4.330124        2.239428        1.920078
     17       H        2.809769        0.248031        1.604441

 **********************
 *                    *
 * JOB ENDED NORMALLY *
 *                    *
 **********************



 TOTAL JOB TIME:             5.00 SECONDS

 == MOPAC DONE ==
