 *******************************************************************************
 **                                                                           **
 **                              MOPAC v22.1.0                                **
 **                                                                           **
 *******************************************************************************
 **          Digital Object Identifier (DOI): 10.5281/zenodo.6511958          **
 **    Visit the DOI location for information on how to cite this program.    **
 *******************************************************************************

                              PM7 CALCULATION RESULTS

 *******************************************************************************
 *  CALCULATION DONE:                                Sun Mar 24 01:49:28 2024  *
 *  PM7        - The PM7 Hamiltonian to be used
 *  SINGLET    - SPIN STATE DEFINED AS A SINGLET
 *
 *
 *
 *                 CHARGE ON SYSTEM = 0
 *
 *
 *
 *  EPS=78.4   - USE ANDREAS KLAMT'S COSMO IMPLICIT SOLVATION MODEL
 *  THREADS    - USE A MAXIMUM OF 40 THREADS
 *  T=         - A TIME OF 14.0 DAYS REQUESTED
 *  DUMP=N     - RESTART FILE WRITTEN EVERY 30.0 MINUTES REQUESTED
 *  ITRY=      - DO A MAXIMUM OF 15000 ITERATIONS FOR SCF
 *  AUX        - OUTPUT AUXILIARY INFORMATION
 *  PL         - MONITOR CONVERGENCE IN DENSITY MATRIX
 *******************************************************************************
PM7 CHARGE=0 SINGLET AUX DUMP=30M ITRY=15000 eps=78.4 T=14D PL THREADS=40

 Mopac file generated by Gabedit
   ATOM   CHEMICAL          X               Y               Z
  NUMBER   SYMBOL      (ANGSTROMS)     (ANGSTROMS)     (ANGSTROMS)

     1       C         -1.15225000  *  -0.24110000  *   0.10970000  *
     2       H         -2.24034000  *  -0.16786000  *   0.17470000  *
     3       N         -1.54834000  *  -2.63194000  *   0.62254000  *
     4       O         -2.71942000  *  -2.35628000  *   0.84259000  *
     5       O         -1.17291000  *  -3.78735000  *   0.51262000  *
     6       H          0.68115000  *   0.75316000  *  -0.36588000  *
     7       C         -0.55084000  *  -1.54943000  *   0.50801000  *
     8       H          0.24971000  *  -1.87400000  *  -0.21590000  *
     9       H         -0.03205000  *  -1.45829000  *   1.50475000  *
    10       C         -0.39718000  *   0.78014000  *  -0.29025000  *
    11       H         -0.80498000  *   1.74136000  *  -0.57425000  *
    12       C          5.75164600  *  -2.96081600  *   0.89268400  *
    13       C          7.08147600  *  -3.13188600  *   0.48536400  *
    14       C          7.75406600  *  -2.02637600  *  -0.05972600  *
    15       C          7.03944600  *  -0.83950600  *  -0.24760600  *
    16       C          5.69876600  *  -0.77333600  *   0.14309400  *
    17       N          5.06778600  *  -1.81230600  *   0.72415400  *
    18       H          5.20497600  *  -3.78088600  *   1.38167400  *
    19       H          7.51693600  *   0.03151400  *  -0.69509600  *
    20       H          5.10031600  *   0.13572400  *  -0.00082600  *
    21       C          7.68994600  *  -4.47917600  *   0.61908400  *
    22       H          8.78762600  *  -4.45979600  *   0.66616400  *
    23       H          7.42126600  *  -5.11425600  *  -0.24376600  *
    24       H          7.34342600  *  -5.00998600  *   1.51932400  *
    25       C          9.19814600  *  -2.08978600  *  -0.40001600  *
    26       H          9.59742600  *  -1.13620600  *  -0.77635600  *
    27       H          9.41519600  *  -2.85144600  *  -1.16648600  *
    28       H          9.80299600  *  -2.35734600  *   0.48492400  *
    29       H          3.16065600  *  -3.26093600  *   0.91697400  *
    30       O          2.91367600  *  -3.70463600  *   0.09669400  *
    31       H          3.48501600  *  -3.29634600  *  -0.56558600  *



          CARTESIAN COORDINATES 

    NO.       ATOM           X           Y           Z

     1         C         -1.1522     -0.2411      0.1097
     2         H         -2.2403     -0.1679      0.1747
     3         N         -1.5483     -2.6319      0.6225
     4         O         -2.7194     -2.3563      0.8426
     5         O         -1.1729     -3.7873      0.5126
     6         H          0.6812      0.7532     -0.3659
     7         C         -0.5508     -1.5494      0.5080
     8         H          0.2497     -1.8740     -0.2159
     9         H         -0.0321     -1.4583      1.5048
    10         C         -0.3972      0.7801     -0.2903
    11         H         -0.8050      1.7414     -0.5743
    12         C          5.7516     -2.9608      0.8927
    13         C          7.0815     -3.1319      0.4854
    14         C          7.7541     -2.0264     -0.0597
    15         C          7.0394     -0.8395     -0.2476
    16         C          5.6988     -0.7733      0.1431
    17         N          5.0678     -1.8123      0.7242
    18         H          5.2050     -3.7809      1.3817
    19         H          7.5169      0.0315     -0.6951
    20         H          5.1003      0.1357     -0.0008
    21         C          7.6899     -4.4792      0.6191
    22         H          8.7876     -4.4598      0.6662
    23         H          7.4213     -5.1143     -0.2438
    24         H          7.3434     -5.0100      1.5193
    25         C          9.1981     -2.0898     -0.4000
    26         H          9.5974     -1.1362     -0.7764
    27         H          9.4152     -2.8514     -1.1665
    28         H          9.8030     -2.3573      0.4849
    29         H          3.1607     -3.2609      0.9170
    30         O          2.9137     -3.7046      0.0967
    31         H          3.4850     -3.2963     -0.5656

 General Reference for PM7:
 "Optimization of Parameters for Semiempirical Methods VI: More Modifications to the 
 NDDO Approximations and Re-optimization of Parameters", J. J. P. Stewart, J. Mol. Mod., 1:32, 19 (2013)
 https://link.springer.com/article/10.1007/s00894-012-1667-x

           Empirical Formula: C10 H16 N2 O3  =    31 atoms



      MOLECULAR POINT GROUP   :   C1  


 SINGLET STATE CALCULATION


      RHF CALCULATION, NO. OF DOUBLY OCCUPIED LEVELS = 42


          Geometry optimization using EF
 ITERATION   1 PLS= 0.100E+01 0.000E+00 ENERGY    14018.175163 DELTAE    0.0000000
 ITERATION   2 PLS= 0.118E+01 0.000E+00 ENERGY      102.429923 DELTAE    0.0000000
 ITERATION   3 PLS= 0.900E-01 0.000E+00 ENERGY       21.121879 DELTAE  -81.3080438
 ITERATION   4 PLS= 0.578E-01 0.000E+00 ENERGY     -137.090861 DELTAE -158.2127407
 ITERATION   5 PLS= 0.252E-01 0.000E+00 ENERGY      -43.763723 DELTAE   93.3271379
 ITERATION   6 PLS= 0.355E-01 0.000E+00 ENERGY      -47.203034 DELTAE   -3.4393104
 ITERATION   7 PLS= 0.225E-01 0.000E+00 ENERGY      -50.202026 DELTAE   -2.9989919
 ITERATION   8 PLS= 0.563E-02 0.000E+00 ENERGY      -48.423508 DELTAE    1.7785175
 ITERATION   9 PLS= 0.248E-02 0.000E+00 ENERGY      -48.433985 DELTAE   -0.0104772
 ITERATION  10 PLS= 0.103E-02 0.000E+00 ENERGY      -48.438575 DELTAE   -0.0045897
 ITERATION  11 PLS= 0.154E-03 0.000E+00 ENERGY      -48.436659 DELTAE    0.0019159
 ITERATION  12 PLS= 0.904E-04 0.000E+00 ENERGY      -48.436681 DELTAE   -0.0000218
 ITERATION   1 PLS= 0.546E-04 0.000E+00 ENERGY      -63.708525 DELTAE -163.7085251
 ITERATION   2 PLS= 0.256E-01 0.000E+00 ENERGY      -65.246425 DELTAE   -1.5378997
 ITERATION   3 PLS= 0.104E-01 0.000E+00 ENERGY      -65.602952 DELTAE   -0.3565275
 ITERATION   4 PLS= 0.566E-02 0.000E+00 ENERGY      -65.894423 DELTAE   -0.2914702
 ITERATION   5 PLS= 0.937E-03 0.000E+00 ENERGY      -65.751514 DELTAE    0.1429081
 ITERATION   6 PLS= 0.611E-03 0.000E+00 ENERGY      -65.752551 DELTAE   -0.0010370
 ITERATION   7 PLS= 0.405E-03 0.000E+00 ENERGY      -65.754222 DELTAE   -0.0016709
 ITERATION   8 PLS= 0.582E-04 0.000E+00 ENERGY      -65.753184 DELTAE    0.0010380

          DIAGONAL MATRIX USED AS START HESSIAN

 CYCLE:     1 TIME:   0.207 TIME LEFT:  2.00W  GRAD.:    10.369 HEAT: -65.75319
 ITERATION   1 PLS= 0.340E-04 0.000E+00 ENERGY      -65.157631 DELTAE -165.1576314
 ITERATION   2 PLS= 0.100E-01 0.000E+00 ENERGY      -65.489078 DELTAE   -0.3314471
 ITERATION   3 PLS= 0.331E-02 0.000E+00 ENERGY      -65.521329 DELTAE   -0.0322503
 ITERATION   4 PLS= 0.150E-02 0.000E+00 ENERGY      -65.535305 DELTAE   -0.0139761
 ITERATION   1 PLS= 0.219E-03 0.000E+00 ENERGY      -65.644438 DELTAE -165.6444375
 ITERATION   2 PLS= 0.346E-02 0.000E+00 ENERGY      -65.718938 DELTAE   -0.0745007
 ITERATION   3 PLS= 0.107E-02 0.000E+00 ENERGY      -65.727792 DELTAE   -0.0088533
 ITERATION   4 PLS= 0.458E-03 0.000E+00 ENERGY      -65.731564 DELTAE   -0.0037729
 ITERATION   1 PLS= 0.781E-04 0.000E+00 ENERGY      -65.742015 DELTAE -165.7420148
 ITERATION   2 PLS= 0.298E-02 0.000E+00 ENERGY      -65.766789 DELTAE   -0.0247747
 ITERATION   3 PLS= 0.102E-02 0.000E+00 ENERGY      -65.769085 DELTAE   -0.0022951
 ITERATION   4 PLS= 0.470E-03 0.000E+00 ENERGY      -65.770122 DELTAE   -0.0010375
 CYCLE:     2 TIME:   0.315 TIME LEFT:  2.00W  GRAD.:     7.699 HEAT: -65.76968
 ITERATION   1 PLS= 0.673E-04 0.000E+00 ENERGY      -65.781011 DELTAE -165.7810114
 ITERATION   2 PLS= 0.148E-02 0.000E+00 ENERGY      -65.789374 DELTAE   -0.0083622
 ITERATION   3 PLS= 0.757E-03 0.000E+00 ENERGY      -65.790655 DELTAE   -0.0012814
 ITERATION   4 PLS= 0.395E-03 0.000E+00 ENERGY      -65.791489 DELTAE   -0.0008344
 CYCLE:     3 TIME:   0.124 TIME LEFT:  2.00W  GRAD.:     4.926 HEAT: -65.79108
 ITERATION   1 PLS= 0.402E-04 0.000E+00 ENERGY      -65.706206 DELTAE -165.7062059
 ITERATION   2 PLS= 0.240E-02 0.000E+00 ENERGY      -65.718100 DELTAE   -0.0118938
 ITERATION   3 PLS= 0.123E-02 0.000E+00 ENERGY      -65.720380 DELTAE   -0.0022801
 ITERATION   4 PLS= 0.641E-03 0.000E+00 ENERGY      -65.721833 DELTAE   -0.0014530
 ITERATION   1 PLS= 0.443E-04 0.000E+00 ENERGY      -65.774793 DELTAE -165.7747929
 ITERATION   2 PLS= 0.135E-02 0.000E+00 ENERGY      -65.778317 DELTAE   -0.0035244
 ITERATION   3 PLS= 0.643E-03 0.000E+00 ENERGY      -65.779043 DELTAE   -0.0007255
 ITERATION   4 PLS= 0.323E-03 0.000E+00 ENERGY      -65.779506 DELTAE   -0.0004633
 ITERATION   1 PLS= 0.236E-04 0.000E+00 ENERGY      -65.773102 DELTAE -165.7731018
 ITERATION   2 PLS= 0.615E-03 0.000E+00 ENERGY      -65.773809 DELTAE   -0.0007070
 ITERATION   3 PLS= 0.317E-03 0.000E+00 ENERGY      -65.773942 DELTAE   -0.0001332
 ITERATION   4 PLS= 0.165E-03 0.000E+00 ENERGY      -65.774030 DELTAE   -0.0000877
 ITERATION   1 PLS= 0.119E-04 0.000E+00 ENERGY      -65.794539 DELTAE -165.7945393
 ITERATION   2 PLS= 0.287E-03 0.000E+00 ENERGY      -65.794779 DELTAE   -0.0002396
 ITERATION   3 PLS= 0.148E-03 0.000E+00 ENERGY      -65.794820 DELTAE   -0.0000411
 ITERATION   4 PLS= 0.769E-04 0.000E+00 ENERGY      -65.794843 DELTAE   -0.0000232
 CYCLE:     4 TIME:   0.424 TIME LEFT:  2.00W  GRAD.:     4.373 HEAT: -65.79483
 ITERATION   1 PLS= 0.712E-05 0.000E+00 ENERGY      -65.503814 DELTAE -165.5038144
 ITERATION   2 PLS= 0.104E-01 0.000E+00 ENERGY      -65.669173 DELTAE   -0.1653587
 ITERATION   3 PLS= 0.539E-02 0.000E+00 ENERGY      -65.704712 DELTAE   -0.0355392
 ITERATION   4 PLS= 0.281E-02 0.000E+00 ENERGY      -65.729266 DELTAE   -0.0245534
 ITERATION   5 PLS= 0.182E-03 0.000E+00 ENERGY      -65.716706 DELTAE    0.0125600
 ITERATION   1 PLS= 0.856E-04 0.000E+00 ENERGY      -65.688779 DELTAE -165.6887793
 ITERATION   2 PLS= 0.522E-02 0.000E+00 ENERGY      -65.730807 DELTAE   -0.0420276
 ITERATION   3 PLS= 0.266E-02 0.000E+00 ENERGY      -65.739634 DELTAE   -0.0088274
 ITERATION   4 PLS= 0.138E-02 0.000E+00 ENERGY      -65.745623 DELTAE   -0.0059885
 ITERATION   1 PLS= 0.894E-04 0.000E+00 ENERGY      -65.718478 DELTAE -165.7184776
 ITERATION   2 PLS= 0.267E-02 0.000E+00 ENERGY      -65.728833 DELTAE   -0.0103549
 ITERATION   3 PLS= 0.137E-02 0.000E+00 ENERGY      -65.731101 DELTAE   -0.0022683
 ITERATION   4 PLS= 0.714E-03 0.000E+00 ENERGY      -65.732707 DELTAE   -0.0016060
 ITERATION   1 PLS= 0.461E-04 0.000E+00 ENERGY      -65.708084 DELTAE -165.7080839
 ITERATION   2 PLS= 0.133E-02 0.000E+00 ENERGY      -65.710669 DELTAE   -0.0025850
 ITERATION   3 PLS= 0.681E-03 0.000E+00 ENERGY      -65.711243 DELTAE   -0.0005745
 ITERATION   4 PLS= 0.353E-03 0.000E+00 ENERGY      -65.711646 DELTAE   -0.0004026
 ITERATION   1 PLS= 0.213E-04 0.000E+00 ENERGY      -65.702069 DELTAE -165.7020694
 ITERATION   2 PLS= 0.653E-03 0.000E+00 ENERGY      -65.702694 DELTAE   -0.0006243
 ITERATION   3 PLS= 0.336E-03 0.000E+00 ENERGY      -65.702834 DELTAE   -0.0001402
 ITERATION   4 PLS= 0.174E-03 0.000E+00 ENERGY      -65.702933 DELTAE   -0.0000992
 ITERATION   1 PLS= 0.979E-05 0.000E+00 ENERGY      -65.773360 DELTAE -165.7733602
 ITERATION   2 PLS= 0.131E-02 0.000E+00 ENERGY      -65.774290 DELTAE   -0.0009303
 ITERATION   3 PLS= 0.624E-03 0.000E+00 ENERGY      -65.774504 DELTAE   -0.0002130
 ITERATION   4 PLS= 0.302E-03 0.000E+00 ENERGY      -65.774644 DELTAE   -0.0001401
 ITERATION   1 PLS= 0.176E-04 0.000E+00 ENERGY      -65.772693 DELTAE -165.7726933
 ITERATION   2 PLS= 0.159E-03 0.000E+00 ENERGY      -65.772733 DELTAE   -0.0000399
 ITERATION   3 PLS= 0.818E-04 0.000E+00 ENERGY      -65.772742 DELTAE   -0.0000087
 ITERATION   4 PLS= 0.424E-04 0.000E+00 ENERGY      -65.772748 DELTAE   -0.0000063
 ITERATION   1 PLS= 0.301E-05 0.000E+00 ENERGY      -65.771792 DELTAE -165.7717920
 ITERATION   2 PLS= 0.769E-04 0.000E+00 ENERGY      -65.771802 DELTAE   -0.0000102
 ITERATION   3 PLS= 0.394E-04 0.000E+00 ENERGY      -65.771804 DELTAE   -0.0000021
 ITERATION   4 PLS= 0.204E-04 0.000E+00 ENERGY      -65.771806 DELTAE   -0.0000014
 ITERATION   1 PLS= 0.903E-06 0.000E+00 ENERGY      -65.795275 DELTAE -165.7952751
 ITERATION   2 PLS= 0.231E-03 0.000E+00 ENERGY      -65.795311 DELTAE   -0.0000357
 ITERATION   3 PLS= 0.832E-04 0.000E+00 ENERGY      -65.795316 DELTAE   -0.0000050
 ITERATION   4 PLS= 0.327E-04 0.000E+00 ENERGY      -65.795318 DELTAE   -0.0000020
 CYCLE:     5 TIME:   0.805 TIME LEFT:  2.00W  GRAD.:     4.333 HEAT: -65.79532
 ITERATION   1 PLS= 0.245E-05 0.000E+00 ENERGY      -65.511140 DELTAE -165.5111400
 ITERATION   2 PLS= 0.113E-01 0.000E+00 ENERGY      -65.696420 DELTAE   -0.1852802
 ITERATION   3 PLS= 0.585E-02 0.000E+00 ENERGY      -65.737950 DELTAE   -0.0415297
 ITERATION   4 PLS= 0.305E-02 0.000E+00 ENERGY      -65.766980 DELTAE   -0.0290299
 ITERATION   5 PLS= 0.167E-03 0.000E+00 ENERGY      -65.752080 DELTAE    0.0149001
 ITERATION   1 PLS= 0.784E-04 0.000E+00 ENERGY      -65.698285 DELTAE -165.6982852
 ITERATION   2 PLS= 0.567E-02 0.000E+00 ENERGY      -65.744460 DELTAE   -0.0461753
 ITERATION   3 PLS= 0.289E-02 0.000E+00 ENERGY      -65.754705 DELTAE   -0.0102448
 ITERATION   4 PLS= 0.150E-02 0.000E+00 ENERGY      -65.761795 DELTAE   -0.0070896
 ITERATION   1 PLS= 0.805E-04 0.000E+00 ENERGY      -65.719622 DELTAE -165.7196220
 ITERATION   2 PLS= 0.287E-02 0.000E+00 ENERGY      -65.731106 DELTAE   -0.0114838
 ITERATION   3 PLS= 0.147E-02 0.000E+00 ENERGY      -65.733721 DELTAE   -0.0026152
 ITERATION   4 PLS= 0.765E-03 0.000E+00 ENERGY      -65.735581 DELTAE   -0.0018602
 ITERATION   1 PLS= 0.402E-04 0.000E+00 ENERGY      -65.710051 DELTAE -165.7100508
 ITERATION   2 PLS= 0.144E-02 0.000E+00 ENERGY      -65.712969 DELTAE   -0.0029183
 ITERATION   3 PLS= 0.736E-03 0.000E+00 ENERGY      -65.713639 DELTAE   -0.0006702
 ITERATION   4 PLS= 0.381E-03 0.000E+00 ENERGY      -65.714114 DELTAE   -0.0004746
 ITERATION   1 PLS= 0.191E-04 0.000E+00 ENERGY      -65.703172 DELTAE -165.7031720
 ITERATION   2 PLS= 0.711E-03 0.000E+00 ENERGY      -65.703896 DELTAE   -0.0007239
 ITERATION   3 PLS= 0.365E-03 0.000E+00 ENERGY      -65.704062 DELTAE   -0.0001664
 ITERATION   4 PLS= 0.189E-03 0.000E+00 ENERGY      -65.704181 DELTAE   -0.0001184
 ITERATION   1 PLS= 0.893E-05 0.000E+00 ENERGY      -65.773551 DELTAE -165.7735509
 ITERATION   2 PLS= 0.131E-02 0.000E+00 ENERGY      -65.774511 DELTAE   -0.0009597
 ITERATION   3 PLS= 0.624E-03 0.000E+00 ENERGY      -65.774730 DELTAE   -0.0002197
 ITERATION   4 PLS= 0.302E-03 0.000E+00 ENERGY      -65.774874 DELTAE   -0.0001438
 ITERATION   1 PLS= 0.174E-04 0.000E+00 ENERGY      -65.773383 DELTAE -165.7733834
 ITERATION   2 PLS= 0.178E-03 0.000E+00 ENERGY      -65.773431 DELTAE   -0.0000479
 ITERATION   3 PLS= 0.911E-04 0.000E+00 ENERGY      -65.773442 DELTAE   -0.0000107
 ITERATION   4 PLS= 0.472E-04 0.000E+00 ENERGY      -65.773450 DELTAE   -0.0000076
 ITERATION   1 PLS= 0.270E-05 0.000E+00 ENERGY      -65.772381 DELTAE -165.7723814
 ITERATION   2 PLS= 0.862E-04 0.000E+00 ENERGY      -65.772394 DELTAE   -0.0000123
 ITERATION   3 PLS= 0.441E-04 0.000E+00 ENERGY      -65.772396 DELTAE   -0.0000026
 ITERATION   4 PLS= 0.228E-04 0.000E+00 ENERGY      -65.772398 DELTAE   -0.0000018
 ITERATION   1 PLS= 0.945E-06 0.000E+00 ENERGY      -65.771861 DELTAE -165.7718611
 ITERATION   2 PLS= 0.428E-04 0.000E+00 ENERGY      -65.771864 DELTAE   -0.0000032
 ITERATION   3 PLS= 0.219E-04 0.000E+00 ENERGY      -65.771865 DELTAE   -0.0000007
 ITERATION   4 PLS= 0.113E-04 0.000E+00 ENERGY      -65.771865 DELTAE   -0.0000004

     TRUST RADIUS NOW LESS THAN  0.00010 OPTIMIZATION TERMINATING
      THE GEOMETRY MAY NOT BE COMPLETELY OPTIMIZED
      (TO CONTINUE, ADD 'LET DDMIN=0.0' TO THE KEYWORD LINE)
 ITERATION   1 PLS= 0.466E-06 0.000E+00 ENERGY      -65.795274 DELTAE -165.7952740
 ITERATION   2 PLS= 0.231E-03 0.000E+00 ENERGY      -65.795311 DELTAE   -0.0000365
 ITERATION   3 PLS= 0.834E-04 0.000E+00 ENERGY      -65.795316 DELTAE   -0.0000052
 ITERATION   4 PLS= 0.328E-04 0.000E+00 ENERGY      -65.795318 DELTAE   -0.0000021

 -------------------------------------------------------------------------------
 PM7 CHARGE=0 SINGLET AUX DUMP=30M ITRY=15000 eps=78.4 T=14D PL THREADS=40

 Mopac file generated by Gabedit


     GEOMETRY OPTIMISED USING EIGENVECTOR FOLLOWING (EF).     
     SCF FIELD WAS ACHIEVED                                   


                              PM7 CALCULATION
                                                       MOPAC v22.1.0 Linux
                                                       Sun Mar 24 01:49:30 2024




          FINAL HEAT OF FORMATION =        -65.79532 KCAL/MOL =    -275.28761 KJ/MOL
          VAN DER WAALS AREA      =        290.66 SQUARE ANGSTROMS



          DIELECTRIC ENERGY       =         -0.85454 EV
          COSMO AREA              =        290.66 SQUARE ANGSTROMS
          COSMO VOLUME            =        290.88 CUBIC ANGSTROMS

          GRADIENT NORM           =          4.33314          =       0.77826 PER ATOM
          IONIZATION POTENTIAL    =          9.923784 EV
          HOMO LUMO ENERGIES (EV) =         -9.924 -0.469
          NO. OF FILLED LEVELS    =         42
          MOLECULAR WEIGHT        =        212.2480         POINT GROUP:  C1  

          MOLECULAR DIMENSIONS (Angstroms)

            Atom       Atom       Distance
            H    28    O     4    12.52809
            H    24    H    11     7.14084
            H     9    H    27     2.72308


          SCF CALCULATIONS        =         29

          WALL-CLOCK TIME         =      2.655 SECONDS
          COMPUTATION TIME        =          1 MINUTE AND 59.892 SECONDS



       FINAL  POINT  AND  DERIVATIVES

   PARAMETER     ATOM    TYPE            VALUE        GRADIENT
      1          1  C    CARTESIAN X    -1.152212     -0.221965  KCAL/ANGSTROM
      2          1  C    CARTESIAN Y    -0.241027      0.378858  KCAL/ANGSTROM
      3          1  C    CARTESIAN Z     0.109119      0.182730  KCAL/ANGSTROM
      4          2  H    CARTESIAN X    -2.240644     -0.043711  KCAL/ANGSTROM
      5          2  H    CARTESIAN Y    -0.167350     -0.117331  KCAL/ANGSTROM
      6          2  H    CARTESIAN Z     0.175062     -0.103776  KCAL/ANGSTROM
      7          3  N    CARTESIAN X    -1.551105     -0.227768  KCAL/ANGSTROM
      8          3  N    CARTESIAN Y    -2.630503     -0.474841  KCAL/ANGSTROM
      9          3  N    CARTESIAN Z     0.623266      0.220078  KCAL/ANGSTROM
     10          4  O    CARTESIAN X    -2.719405      0.825645  KCAL/ANGSTROM
     11          4  O    CARTESIAN Y    -2.356224      0.150909  KCAL/ANGSTROM
     12          4  O    CARTESIAN Z     0.843245     -0.242874  KCAL/ANGSTROM
     13          5  O    CARTESIAN X    -1.170631     -0.948284  KCAL/ANGSTROM
     14          5  O    CARTESIAN Y    -3.786681      0.093423  KCAL/ANGSTROM
     15          5  O    CARTESIAN Z     0.512423      0.139886  KCAL/ANGSTROM
     16          6  H    CARTESIAN X     0.681540     -0.113521  KCAL/ANGSTROM
     17          6  H    CARTESIAN Y     0.752815      0.170467  KCAL/ANGSTROM
     18          6  H    CARTESIAN Z    -0.366107      0.058892  KCAL/ANGSTROM
     19          7  C    CARTESIAN X    -0.549920      0.544080  KCAL/ANGSTROM
     20          7  C    CARTESIAN Y    -1.551288     -0.419064  KCAL/ANGSTROM
     21          7  C    CARTESIAN Z     0.506037     -0.516882  KCAL/ANGSTROM
     22          8  H    CARTESIAN X     0.249540     -0.505780  KCAL/ANGSTROM
     23          8  H    CARTESIAN Y    -1.873825      0.414348  KCAL/ANGSTROM
     24          8  H    CARTESIAN Z    -0.213996     -0.010892  KCAL/ANGSTROM
     25          9  H    CARTESIAN X    -0.031529     -0.042853  KCAL/ANGSTROM
     26          9  H    CARTESIAN Y    -1.458129      0.099377  KCAL/ANGSTROM
     27          9  H    CARTESIAN Z     1.505218      0.396631  KCAL/ANGSTROM
     28         10  C    CARTESIAN X    -0.397213     -0.141111  KCAL/ANGSTROM
     29         10  C    CARTESIAN Y     0.780566      0.227609  KCAL/ANGSTROM
     30         10  C    CARTESIAN Z    -0.289815     -0.059300  KCAL/ANGSTROM
     31         11  H    CARTESIAN X    -0.804836     -0.103563  KCAL/ANGSTROM
     32         11  H    CARTESIAN Y     1.741492     -0.108279  KCAL/ANGSTROM
     33         11  H    CARTESIAN Z    -0.574225     -0.061957  KCAL/ANGSTROM
     34         12  C    CARTESIAN X     5.751764     -0.088950  KCAL/ANGSTROM
     35         12  C    CARTESIAN Y    -2.960923      0.131110  KCAL/ANGSTROM
     36         12  C    CARTESIAN Z     0.893198     -0.094951  KCAL/ANGSTROM
     37         13  C    CARTESIAN X     7.081245     -0.147521  KCAL/ANGSTROM
     38         13  C    CARTESIAN Y    -3.132011      0.089561  KCAL/ANGSTROM
     39         13  C    CARTESIAN Z     0.485302     -0.220388  KCAL/ANGSTROM
     40         14  C    CARTESIAN X     7.754008     -0.028212  KCAL/ANGSTROM
     41         14  C    CARTESIAN Y    -2.026118      0.038219  KCAL/ANGSTROM
     42         14  C    CARTESIAN Z    -0.058898     -0.196740  KCAL/ANGSTROM
     43         15  C    CARTESIAN X     7.039264     -0.145423  KCAL/ANGSTROM
     44         15  C    CARTESIAN Y    -0.839445      0.004061  KCAL/ANGSTROM
     45         15  C    CARTESIAN Z    -0.247408     -0.281508  KCAL/ANGSTROM
     46         16  C    CARTESIAN X     5.698899     -0.030737  KCAL/ANGSTROM
     47         16  C    CARTESIAN Y    -0.773347      0.007889  KCAL/ANGSTROM
     48         16  C    CARTESIAN Z     0.143535     -0.228864  KCAL/ANGSTROM
     49         17  N    CARTESIAN X     5.068140     -0.094598  KCAL/ANGSTROM
     50         17  N    CARTESIAN Y    -1.812286      0.067134  KCAL/ANGSTROM
     51         17  N    CARTESIAN Z     0.724588     -0.265558  KCAL/ANGSTROM
     52         18  H    CARTESIAN X     5.204878      0.131221  KCAL/ANGSTROM
     53         18  H    CARTESIAN Y    -3.780989      0.191475  KCAL/ANGSTROM
     54         18  H    CARTESIAN Z     1.381054      0.148412  KCAL/ANGSTROM
     55         19  H    CARTESIAN X     7.517442     -0.311761  KCAL/ANGSTROM
     56         19  H    CARTESIAN Y     0.031548      0.010264  KCAL/ANGSTROM
     57         19  H    CARTESIAN Z    -0.694436     -0.298666  KCAL/ANGSTROM
     58         20  H    CARTESIAN X     5.100741     -0.273062  KCAL/ANGSTROM
     59         20  H    CARTESIAN Y     0.136009     -0.063853  KCAL/ANGSTROM
     60         20  H    CARTESIAN Z    -0.000822     -0.070021  KCAL/ANGSTROM
     61         21  C    CARTESIAN X     7.690668     -0.477544  KCAL/ANGSTROM
     62         21  C    CARTESIAN Y    -4.478635      0.101370  KCAL/ANGSTROM
     63         21  C    CARTESIAN Z     0.619436     -0.232335  KCAL/ANGSTROM
     64         22  H    CARTESIAN X     8.788485     -0.528808  KCAL/ANGSTROM
     65         22  H    CARTESIAN Y    -4.459422     -0.229666  KCAL/ANGSTROM
     66         22  H    CARTESIAN Z     0.666660     -0.238251  KCAL/ANGSTROM
     67         23  H    CARTESIAN X     7.422328     -0.808578  KCAL/ANGSTROM
     68         23  H    CARTESIAN Y    -5.114104     -0.111856  KCAL/ANGSTROM
     69         23  H    CARTESIAN Z    -0.243687     -0.137002  KCAL/ANGSTROM
     70         24  H    CARTESIAN X     7.343959     -0.455266  KCAL/ANGSTROM
     71         24  H    CARTESIAN Y    -5.010167     -0.002395  KCAL/ANGSTROM
     72         24  H    CARTESIAN Z     1.519877     -0.066040  KCAL/ANGSTROM
     73         25  C    CARTESIAN X     9.197770      0.159007  KCAL/ANGSTROM
     74         25  C    CARTESIAN Y    -2.089712      0.062218  KCAL/ANGSTROM
     75         25  C    CARTESIAN Z    -0.400573      0.098880  KCAL/ANGSTROM
     76         26  H    CARTESIAN X     9.597169      0.205403  KCAL/ANGSTROM
     77         26  H    CARTESIAN Y    -1.136327      0.088036  KCAL/ANGSTROM
     78         26  H    CARTESIAN Z    -0.777383      0.380473  KCAL/ANGSTROM
     79         27  H    CARTESIAN X     9.414214      0.714234  KCAL/ANGSTROM
     80         27  H    CARTESIAN Y    -2.851662      0.077171  KCAL/ANGSTROM
     81         27  H    CARTESIAN Z    -1.167194      0.211344  KCAL/ANGSTROM
     82         28  H    CARTESIAN X     9.803528     -0.391582  KCAL/ANGSTROM
     83         28  H    CARTESIAN Y    -2.357219     -0.033448  KCAL/ANGSTROM
     84         28  H    CARTESIAN Z     0.483690      0.442346  KCAL/ANGSTROM
     85         29  H    CARTESIAN X     3.158391      1.896023  KCAL/ANGSTROM
     86         29  H    CARTESIAN Y    -3.257249     -1.539346  KCAL/ANGSTROM
     87         29  H    CARTESIAN Z     0.914536      1.110100  KCAL/ANGSTROM
     88         30  O    CARTESIAN X     2.913094      0.157004  KCAL/ANGSTROM
     89         30  O    CARTESIAN Y    -3.707627      1.291662  KCAL/ANGSTROM
     90         30  O    CARTESIAN Z     0.095654     -0.224933  KCAL/ANGSTROM
     91         31  H    CARTESIAN X     3.482663      1.498005  KCAL/ANGSTROM
     92         31  H    CARTESIAN Y    -3.295113     -0.595041  KCAL/ANGSTROM
     93         31  H    CARTESIAN Z    -0.564493      0.161133  KCAL/ANGSTROM




   ATOM   CHEMICAL          X               Y               Z
  NUMBER   SYMBOL      (ANGSTROMS)     (ANGSTROMS)     (ANGSTROMS)

     1       C         -1.15221175  *  -0.24102669  *   0.10911884  *
     2       H         -2.24064442  *  -0.16735043  *   0.17506166  *
     3       N         -1.55110534  *  -2.63050301  *   0.62326591  *
     4       O         -2.71940474  *  -2.35622374  *   0.84324544  *
     5       O         -1.17063064  *  -3.78668097  *   0.51242269  *
     6       H          0.68154024  *   0.75281512  *  -0.36610667  *
     7       C         -0.54992033  *  -1.55128821  *   0.50603662  *
     8       H          0.24953955  *  -1.87382515  *  -0.21399617  *
     9       H         -0.03152931  *  -1.45812852  *   1.50521751  *
    10       C         -0.39721349  *   0.78056561  *  -0.28981494  *
    11       H         -0.80483606  *   1.74149152  *  -0.57422468  *
    12       C          5.75176427  *  -2.96092256  *   0.89319812  *
    13       C          7.08124471  *  -3.13201091  *   0.48530244  *
    14       C          7.75400812  *  -2.02611839  *  -0.05889770  *
    15       C          7.03926425  *  -0.83944464  *  -0.24740773  *
    16       C          5.69889884  *  -0.77334735  *   0.14353473  *
    17       N          5.06813977  *  -1.81228582  *   0.72458779  *
    18       H          5.20487809  *  -3.78098903  *   1.38105369  *
    19       H          7.51744154  *   0.03154770  *  -0.69443582  *
    20       H          5.10074053  *   0.13600872  *  -0.00082238  *
    21       C          7.69066753  *  -4.47863460  *   0.61943637  *
    22       H          8.78848504  *  -4.45942236  *   0.66665990  *
    23       H          7.42232835  *  -5.11410360  *  -0.24368726  *
    24       H          7.34395919  *  -5.01016700  *   1.51987698  *
    25       C          9.19776985  *  -2.08971213  *  -0.40057279  *
    26       H          9.59716888  *  -1.13632726  *  -0.77738288  *
    27       H          9.41421419  *  -2.85166241  *  -1.16719388  *
    28       H          9.80352783  *  -2.35721937  *   0.48369038  *
    29       H          3.15839071  *  -3.25724918  *   0.91453621  *
    30       O          2.91309419  *  -3.70762724  *   0.09565414  *
    31       H          3.48266275  *  -3.29511326  *  -0.56449323  *

                             CARTESIAN COORDINATES

   1    C       -1.152211749    -0.241026689     0.109118841
   2    H       -2.240644417    -0.167350431     0.175061665
   3    N       -1.551105344    -2.630503005     0.623265910
   4    O       -2.719404737    -2.356223740     0.843245436
   5    O       -1.170630639    -3.786680973     0.512422693
   6    H        0.681540236     0.752815119    -0.366106669
   7    C       -0.549920325    -1.551288210     0.506036617
   8    H        0.249539546    -1.873825155    -0.213996167
   9    H       -0.031529314    -1.458128520     1.505217515
  10    C       -0.397213492     0.780565611    -0.289814943
  11    H       -0.804836064     1.741491518    -0.574224683
  12    C        5.751764267    -2.960922564     0.893198116
  13    C        7.081244712    -3.132010914     0.485302440
  14    C        7.754008124    -2.026118390    -0.058897700
  15    C        7.039264247    -0.839444644    -0.247407734
  16    C        5.698898838    -0.773347347     0.143534728
  17    N        5.068139773    -1.812285822     0.724587791
  18    H        5.204878092    -3.780989033     1.381053685
  19    H        7.517441538     0.031547698    -0.694435821
  20    H        5.100740530     0.136008725    -0.000822376
  21    C        7.690667535    -4.478634599     0.619436373
  22    H        8.788485044    -4.459422357     0.666659900
  23    H        7.422328345    -5.114103605    -0.243687261
  24    H        7.343959190    -5.010167000     1.519876983
  25    C        9.197769849    -2.089712131    -0.400572791
  26    H        9.597168882    -1.136327264    -0.777382881
  27    H        9.414214186    -2.851662406    -1.167193877
  28    H        9.803527827    -2.357219370     0.483690375
  29    H        3.158390710    -3.257249177     0.914536205
  30    O        2.913094187    -3.707627241     0.095654142
  31    H        3.482662745    -3.295113260    -0.564493229


           Empirical Formula: C10 H16 N2 O3  =    31 atoms



      MOLECULAR POINT GROUP   :   C1  


                  EIGENVALUES  
 -37.50909 -36.11557 -30.90847 -29.60802 -29.16395 -29.03638 -27.29676 -26.48645
 -25.29799 -24.32702 -22.93225 -21.61867 -20.57377 -20.07271 -18.67791 -18.30559
 -17.94902 -17.52807 -17.23993 -17.09056 -15.72115 -15.52157 -15.36969 -14.96099
 -14.47490 -14.37259 -14.27194 -13.99133 -13.77094 -13.70119 -13.58208 -13.18447
 -12.56607 -12.32898 -12.17388 -12.04782 -11.94588 -11.72921 -10.75031 -10.71511
 -10.47979  -9.92378  -0.46914  -0.27918  -0.21869   0.31900   0.60687   2.14317
   3.10977   3.23554   3.75982   3.78127   3.86635   4.27614   4.35042   4.45095
   4.56664   4.60838   4.63955   5.06260   5.08095   5.15970   5.28530   5.52953
   5.54214   5.58635   5.59880   5.65970   5.71645   5.85936   6.06957   6.08866
   6.25553   6.65073   6.69606   6.88265


              NET ATOMIC CHARGES AND DIPOLE CONTRIBUTIONS

  ATOM NO.   TYPE          CHARGE      No. of ELECS.   s-Pop       p-Pop       
    1          C          -0.151841        4.1518     1.08808     3.06376
    2          H           0.177772        0.8222     0.82223
    3          N           0.667527        4.3325     1.45993     2.87254
    4          O          -0.458987        6.4590     1.93932     4.51967
    5          O          -0.466276        6.4663     1.94006     4.52622
    6          H           0.163432        0.8366     0.83657
    7          C          -0.244974        4.2450     1.09136     3.15361
    8          H           0.220087        0.7799     0.77991
    9          H           0.233108        0.7669     0.76689
   10          C          -0.299339        4.2993     1.10029     3.19905
   11          H           0.159481        0.8405     0.84052
   12          C           0.003711        3.9963     1.10155     2.89474
   13          C          -0.076569        4.0766     1.07301     3.00356
   14          C           0.088449        3.9116     1.07626     2.83529
   15          C          -0.271026        4.2710     1.09235     3.17868
   16          C           0.040890        3.9591     1.09783     2.86128
   17          N          -0.457714        5.4577     1.74150     3.71621
   18          H           0.189480        0.8105     0.81052
   19          H           0.183783        0.8162     0.81622
   20          H           0.184694        0.8153     0.81531
   21          C          -0.454388        4.4544     1.04738     3.40701
   22          H           0.170810        0.8292     0.82919
   23          H           0.175687        0.8243     0.82431
   24          H           0.170231        0.8298     0.82977
   25          C          -0.475109        4.4751     1.05070     3.42441
   26          H           0.170957        0.8290     0.82904
   27          H           0.180558        0.8194     0.81944
   28          H           0.180870        0.8191     0.81913
   29          H           0.368083        0.6319     0.63192
   30          O          -0.736356        6.7364     1.81720     4.91915
   31          H           0.362970        0.6370     0.63703
 DIPOLE           X         Y         Z       TOTAL
 POINT-CHG.     9.058     4.788    -0.962    10.291
 HYBRID         0.650    -0.273    -0.088     0.710
 SUM            9.708     4.516    -1.050    10.758


          ATOMIC ORBITAL ELECTRON POPULATIONS

     Atom    s        px        py        pz   
    1  C   1.08808   1.09560   0.95404   1.01412
    2  H   0.82223
    3  N   1.45993   0.98201   0.99202   0.89852
    4  O   1.93932   1.09560   1.87409   1.54997
    5  O   1.94006   1.81712   1.13143   1.57767
    6  H   0.83657
    7  C   1.09136   0.99998   0.93989   1.21373
    8  H   0.77991
    9  H   0.76689
   10  C   1.10029   1.12697   1.07427   0.99781
   11  H   0.84052
   12  C   1.10155   0.96595   0.96209   0.96670
   13  C   1.07301   0.99258   0.99187   1.01911
   14  C   1.07626   0.97132   0.96036   0.90362
   15  C   1.09235   1.02714   1.07458   1.07695
   16  C   1.09783   0.96815   0.98359   0.90954
   17  N   1.74150   1.41480   1.08962   1.21179
   18  H   0.81052
   19  H   0.81622
   20  H   0.81531
   21  C   1.04738   1.17370   1.03985   1.19346
   22  H   0.82919
   23  H   0.82431
   24  H   0.82977
   25  C   1.05070   1.02729   1.20525   1.19186
   26  H   0.82904
   27  H   0.81944
   28  H   0.81913
   29  H   0.63192
   30  O   1.81720   1.74936   1.74899   1.42080
   31  H   0.63703

 **********************
 *                    *
 * JOB ENDED NORMALLY *
 *                    *
 **********************



 TOTAL JOB TIME:             2.66 SECONDS

 == MOPAC DONE ==
