 *******************************************************************************
 **                                                                           **
 **                              MOPAC v22.0.6                                **
 **                                                                           **
 *******************************************************************************
 **          Digital Object Identifier (DOI): 10.5281/zenodo.6511958          **
 **    Visit the DOI location for information on how to cite this program.    **
 *******************************************************************************

                              PM7 CALCULATION RESULTS

 *******************************************************************************
 *  CALCULATION DONE:                                Mon Mar 25 22:33:31 2024  *
 *  PM7        - The PM7 Hamiltonian to be used
 *  SINGLET    - SPIN STATE DEFINED AS A SINGLET
 *
 *
 *
 *                 CHARGE ON SYSTEM = -1
 *
 *
 *
 *  EPS=78.4   - USE ANDREAS KLAMT'S COSMO IMPLICIT SOLVATION MODEL
 *  SADDLE     - TRANSITION STATE TO BE OPTIMIZED
 *  T=         - A TIME OF 14.0 DAYS REQUESTED
 *  DUMP=N     - RESTART FILE WRITTEN EVERY 30.0 MINUTES REQUESTED
 *  RELSCF     - DEFAULT SCF CRITERION MULTIPLIED BY 1.0000
 *              (DEFAULT SCF CRITERION = 0.00010)
 *  ITRY=      - DO A MAXIMUM OF 15000 ITERATIONS FOR SCF
 *  AUX        - OUTPUT AUXILIARY INFORMATION
 *  BONDS      - FINAL BOND-ORDER MATRIX TO BE PRINTED
 *******************************************************************************
SADDLE PM7 BONDS AUX DUMP=30M ITRY=15000 T=14D CHARGE=-1 SINGLET eps=78.4 RELSCF=1


   ATOM   CHEMICAL          X               Y               Z
  NUMBER   SYMBOL      (ANGSTROMS)     (ANGSTROMS)     (ANGSTROMS)

     1       C         -0.77463000  *   1.15981000  *  -0.03181000  *
     2       C          0.57960000  *   1.17834000  *   0.32139000  *
     3       C          1.31750000  *  -0.01022000  *   0.30630000  *
     4       C          0.69150000  *  -1.20409000  *  -0.04863000  *
     5       C         -0.67107000  *  -1.20107000  *  -0.38372000  *
     6       C         -1.42389000  *  -0.02537000  *  -0.38728000  *
     7       H          1.05198000  *   2.13250000  *   0.60762000  *
     8       H          1.24662000  *  -2.15508000  *  -0.06567000  *
     9       H         -2.49401000  *  -0.02996000  *  -0.65583000  *
    10       N         -1.31123000  *  -2.45023000  *  -0.73645000  *
    11       O         -2.49482000  *  -2.44517000  *  -1.04224000  *
    12       O         -0.64787000  *  -3.47722000  *  -0.71843000  *
    13       C          2.77024000  *   0.04019000  *   0.70776000  *
    14       H          2.84763000  *   0.52252000  *   1.73199000  *
    15       C          3.49427000  *  -1.29826000  *   0.74480000  *
    16       H          4.55145000  *  -1.18730000  *   1.04584000  *
    17       H          3.50459000  *  -1.80825000  *  -0.23040000  *
    18       H          3.04441000  *  -1.99109000  *   1.47332000  *
    19       N          3.54254000  *   0.93088000  *  -0.23578000  *
    20       O          4.73738000  *   1.07220000  *  -0.03253000  *
    21       O          2.95902000  *   1.47957000  *  -1.15142000  *
    22       O          2.58941000  *   3.45965000  *   7.41931000  *
    23       H          2.89024000  *   2.66993000  *   7.71263000  *
    24       N         -1.52429000  *   2.39881000  *  -0.02955000  *
    25       O         -2.70108000  *   2.37641000  *  -0.35677000  *
    26       O         -0.95515000  *   3.42987000  *   0.29670000  *
    27       H          2.39957000  *   1.76825000  *   4.27873000  *
    28       H          2.91304000  *   2.35123000  *   5.58678000  *
    29       O          3.20087000  *   1.84688000  *   4.80336000  *



          CARTESIAN COORDINATES 

    NO.       ATOM           X           Y           Z

     1         C         -0.7746      1.1598     -0.0318
     2         C          0.5796      1.1783      0.3214
     3         C          1.3175     -0.0102      0.3063
     4         C          0.6915     -1.2041     -0.0486
     5         C         -0.6711     -1.2011     -0.3837
     6         C         -1.4239     -0.0254     -0.3873
     7         H          1.0520      2.1325      0.6076
     8         H          1.2466     -2.1551     -0.0657
     9         H         -2.4940     -0.0300     -0.6558
    10         N         -1.3112     -2.4502     -0.7365
    11         O         -2.4948     -2.4452     -1.0422
    12         O         -0.6479     -3.4772     -0.7184
    13         C          2.7702      0.0402      0.7078
    14         H          2.8476      0.5225      1.7320
    15         C          3.4943     -1.2983      0.7448
    16         H          4.5514     -1.1873      1.0458
    17         H          3.5046     -1.8083     -0.2304
    18         H          3.0444     -1.9911      1.4733
    19         N          3.5425      0.9309     -0.2358
    20         O          4.7374      1.0722     -0.0325
    21         O          2.9590      1.4796     -1.1514
    22         O          2.5894      3.4596      7.4193
    23         H          2.8902      2.6699      7.7126
    24         N         -1.5243      2.3988     -0.0296
    25         O         -2.7011      2.3764     -0.3568
    26         O         -0.9552      3.4299      0.2967
    27         H          2.3996      1.7683      4.2787
    28         H          2.9130      2.3512      5.5868
    29         O          3.2009      1.8469      4.8034

 General Reference for PM7:
 "Optimization of Parameters for Semiempirical Methods VI: More Modifications to the 
 NDDO Approximations and Re-optimization of Parameters", J. J. P. Stewart, J. Mol. Mod., 1:32, 19 (2013)
 https://link.springer.com/article/10.1007/s00894-012-1667-x

           Empirical Formula: C8 H10 N3 O8  =    29 atoms



      MOLECULAR POINT GROUP   :   C1  


 SINGLET STATE CALCULATION


      RHF CALCULATION, NO. OF DOUBLY OCCUPIED LEVELS = 53



  CARTESIAN GEOMETRY OF FIRST SYSTEM


   1    C          0.46123       1.28873       0.32933
   2    C          0.90628       0.68811      -0.85134
   3    C          0.50197      -0.61683      -1.17308
   4    C         -0.34894      -1.29465      -0.28467
   5    C         -0.77135      -0.67285       0.89293
   6    C         -0.38069       0.62662       1.22323
   7    H          1.58117       1.23482      -1.52613
   8    H         -0.69074      -2.31242      -0.51928
   9    H         -0.72313       1.10639       2.15132
  10    N         -1.64220      -1.39170       1.79701
  11    O         -2.07399      -0.81766       2.78715
  12    O         -1.92537      -2.55709       1.55260
  13    C          0.96149      -1.28736      -2.36784
  14    H          4.34193      -1.21648      -2.33721
  15    C          1.13664      -2.76772      -2.33347
  16    H          1.79838      -3.13326      -3.13242
  17    H          0.17835      -3.29580      -2.45231
  18    H          1.58008      -3.09922      -1.38184
  19    N          1.22547      -0.62116      -3.50173
  20    O          1.64638      -1.21029      -4.53055
  21    O          1.03727       0.62104      -3.59603
  22    O          8.02275      -0.69739      -2.92469
  23    H          8.48162      -1.08728      -2.17043
  24    N          0.89388       2.63472       0.64033
  25    O          0.51841       3.15169       1.68307
  26    O          1.62271       3.22197      -0.14648
  27    H          5.54484      -1.33208      -1.39936
  28    H          7.09624      -0.88869      -2.77981
  29    O          5.30170      -1.25077      -2.33304


  CARTESIAN GEOMETRY OF SECOND SYSTEM


   1    C          0.66971       1.27867       0.25046
   2    C          1.14789       0.62919      -0.89346
   3    C          0.77971      -0.69711      -1.14399
   4    C         -0.05051      -1.36241      -0.24327
   5    C         -0.50497      -0.69618       0.90498
   6    C         -0.16032       0.63067       1.16899
   7    H          1.81080       1.17177      -1.58747
   8    H         -0.35346      -2.40751      -0.41306
   9    H         -0.52476       1.14948       2.07194
  10    N         -1.35481      -1.40389       1.83854
  11    O         -1.76230      -0.81878       2.83153
  12    O         -1.64146      -2.56965       1.60636
  13    C          1.32467      -1.37410      -2.37641
  14    H          2.45620      -1.28909      -2.36735
  15    C          0.94862      -2.83899      -2.54879
  16    H          1.38048      -3.27023      -3.46970
  17    H         -0.13827      -2.99855      -2.61538
  18    H          1.32209      -3.46144      -1.72041
  19    N          0.85882      -0.65242      -3.61827
  20    O          1.22598      -1.08619      -4.69807
  21    O          0.14932       0.32960      -3.50778
  22    O          8.76018      -0.30824      -1.78700
  23    H          8.77594      -1.19918      -1.70848
  24    N          1.04315       2.65706       0.49068
  25    O          0.60655       3.22193       1.48200
  26    O          1.78144       3.21405      -0.30816
  27    H          5.21824      -0.77167      -1.78263
  28    H          6.69560      -0.86378      -2.13397
  29    O          5.81784      -1.18964      -2.40656


   "DISTANCE":     3.266867


  REACTION COORDINATE VECTOR


   1    C         -0.20848       0.01006       0.07887
   2    C         -0.24161       0.05892       0.04212
   3    C         -0.27773       0.08028      -0.02909
   4    C         -0.29843       0.06776      -0.04139
   5    C         -0.26638       0.02332      -0.01204
   6    C         -0.22037      -0.00405       0.05424
   7    H         -0.22963       0.06305       0.06134
   8    H         -0.33728       0.09509      -0.10622
   9    H         -0.19837      -0.04309       0.07938
  10    N         -0.28739       0.01219      -0.04153
  11    O         -0.31169       0.00112      -0.04437
  12    O         -0.28391       0.01256      -0.05375
  13    C         -0.36318       0.08674       0.00857
  14    H          1.88572       0.07261       0.03014
  15    C          0.18802       0.07127       0.21532
  16    H          0.41790       0.13697       0.33728
  17    H          0.31662      -0.29725       0.16307
  18    H          0.25800       0.36222       0.33858
  19    N          0.36665       0.03126       0.11654
  20    O          0.42040      -0.12410       0.16751
  21    O          0.88794       0.29144      -0.08825
  22    O         -0.73743      -0.38915      -1.13768
  23    H         -0.29432       0.11190      -0.46195
  24    N         -0.14927      -0.02234       0.14966
  25    O         -0.08814      -0.07024       0.20107
  26    O         -0.15873       0.00792       0.16167
  27    H          0.32660      -0.56041       0.38327
  28    H          0.40064      -0.02491      -0.64585
  29    O         -0.51614      -0.06113       0.07352
 *+*+*+*+*+*+*+*+*+*+*+*+*+*+*+*+*+*+*+*+*+*+*+*+*+*+*+*+*+*+*+*+*+*+*+*+*+*+*+*+
            BAR SHORTENED BY       0.000 PERCENT
 GRADIENT CRITERION IN FLEPO =     1.000
  SCF CRITERION =    0.1000E-03
 

                    SINCE COS WAS JUST RESET,THE SEARCH IS BEING ENDED


          FOR POINT    1 SECOND STRUCTURE
 DISTANCE A - B      3.266867
 HEAT             -251.359821
 GRADIENT NORM       7.592622
 DIRECTION COSINE   -0.000011
* ===============================
* Input file for Mopac
* ===============================
 PM7 BONDS AUX DUMP=30M ITRY=15000 T=14D CHARGE=-1 SINGLET eps=78.4 RELSCF=1


  C     0.00000000 +0    0.0000000 +0    0.0000000 +0     0     0     0
  C     1.39741793 +1    0.0000000 +0    0.0000000 +0     1     0     0
  C     1.40351589 +1  120.1030207 +1    0.0000000 +0     2     1     0
  C     1.40455440 +1  118.5689220 +1   -0.1566556 +1     3     2     1
  C     1.39706852 +1  120.1020575 +1   -0.2599742 +1     4     3     2
  C     1.39509405 +1  121.9767391 +1    0.3599786 +1     1     2     3
  H     1.09987116 +1  120.0092050 +1 -179.4897141 +1     2     1     3
  H     1.09896632 +1  120.0211763 +1  179.2067070 +1     4     3     2
  H     1.09944709 +1  121.4489769 +1  179.8078396 +1     6     1     2
  N     1.44654108 +1  119.1869347 +1 -179.6911273 +1     5     4     3
  O     1.22325012 +1  119.0254353 +1 -175.7177955 +1    10     5     4
  O     1.22395266 +1  119.1854892 +1    4.3999719 +1    10     5     4
  C     1.44506658 +1  121.9617324 +1 -178.5879782 +1     3     2     1
  H     3.38132385 +1  107.4989736 +1   54.5995338 +1    13     3     2
  C     1.49108600 +1  118.6181935 +1  147.8304470 +1    13     3     2
  H     1.09992569 +1  112.5735602 +1 -160.1050615 +1    15    13     3
  H     1.10059383 +1  111.8141276 +1   79.8984680 +1    15    13     3
  H     1.10097315 +1  111.4795847 +1  -40.3825231 +1    15    13     3
  N     1.34134239 +1  122.0757586 +1  -32.5752173 +1    13     3     2
  O     1.25806330 +1  121.6396927 +1  178.8001728 +1    19    13     3
  O     1.25991048 +1  121.5708407 +1   -2.6990161 +1    19    13     3
  O     3.76338338 +1  168.3175563 +1 -114.9989558 +1    14    13     3
  H     0.96513120 +1  106.6962805 +1  173.1980463 +1    22    14    13
  N     1.44761686 +1  119.0755984 +1  179.8963598 +1     1     2     3
  O     1.22291822 +1  118.9785333 +1 -178.9876595 +1    24     1     2
  O     1.22275778 +1  119.1074644 +1    1.0602938 +1    24     1     2
  H     1.52967974 +1  142.1991247 +1   38.2009138 +1    14    13     3
  H     0.95708303 +1    3.6060231 +1 -121.8580007 +1    22    14    13
  O     0.96039174 +1  176.7419036 +1  124.3057682 +1    14    13     3

 TIME=     2.43
  REACTANTS AND PRODUCTS SWAPPED AROUND
 *+*+*+*+*+*+*+*+*+*+*+*+*+*+*+*+*+*+*+*+*+*+*+*+*+*+*+*+*+*+*+*+*+*+*+*+*+*+*+*+
            BAR SHORTENED BY       1.000 PERCENT
 GRADIENT CRITERION IN FLEPO =     4.593
           THERE HAVE BEEN 3 ATTEMPTS TO REDUCE THE GRADIENT.
           DURING THESE ATTEMPTS THE ENERGY DROPPED BY LESS THAN 0.3 KCAL/MOLE
           FURTHER CALCULATION IS NOT JUSTIFIED AT THIS TIME.
           TO CONTINUE, START AGAIN WITH THE WORD "PRECISE"


          FOR POINT    2 FIRST  STRUCTURE
 DISTANCE A - B      3.234198
 HEAT             -216.480533
 GRADIENT NORM      13.676489
 DIRECTION COSINE   -0.005817
* ===============================
* Input file for Mopac
* ===============================
 PM7 BONDS AUX DUMP=30M ITRY=15000 T=14D CHARGE=-1 SINGLET eps=78.4 RELSCF=1


  C     0.00000000 +0    0.0000000 +0    0.0000000 +0     0     0     0
  C     1.40060175 +1    0.0000000 +0    0.0000000 +0     1     0     0
  C     1.39603710 +1  119.5719622 +1    0.0000000 +0     2     1     0
  C     1.39298732 +1  119.4086132 +1   -0.7974792 +1     3     2     1
  C     1.40244965 +1  119.9375783 +1   -0.0435864 +1     4     3     2
  C     1.39444003 +1  121.8458424 +1    0.6042344 +1     5     4     3
  H     1.10351559 +1  119.6746478 +1  179.9950950 +1     2     1     3
  H     1.10089446 +1  120.8302686 +1 -179.7782754 +1     4     3     2
  H     1.10281814 +1  121.7183615 +1  179.9267261 +1     6     5     4
  N     1.44326435 +1  119.2579676 +1 -179.2134120 +1     5     4     3
  O     1.22330212 +1  118.7709746 +1 -179.6415829 +1    10     5     4
  O     1.22237691 +1  118.9640679 +1    0.3508608 +1    10     5     4
  C     1.50467554 +1  118.8038127 +1 -179.7423770 +1     3     2     1
  H     1.13967461 +1  108.7245296 +1   54.4781388 +1    13     3     2
  C     1.52444766 +1  116.0901318 +1  176.8358608 +1    13     3     2
  H     1.10086780 +1  111.9070877 +1 -179.3308567 +1    15    13     3
  H     1.10018010 +1  113.8068994 +1   60.2687319 +1    15    13     3
  H     1.09981133 +1  111.4267834 +1  -60.9640832 +1    15    13     3
  N     1.50803100 +1  110.5079192 +1  -61.4063790 +1    13     3     2
  O     1.22134220 +1  117.9121721 +1  179.4328141 +1    19    13     3
  O     1.21709926 +1  119.4666653 +1    0.3265428 +1    19    13     3
  O     6.36320410 +1  173.1902844 +1  -15.0138392 +1    14    13     3
  H     0.89124901 +1   84.4950550 +1  129.4871876 +1    22    14    13
  N     1.44634864 +1  119.0184420 +1 -179.2530034 +1     1     2     3
  O     1.22173406 +1  118.7930854 +1  179.3391935 +1    24     1     2
  O     1.22181327 +1  118.8029621 +1   -0.6144504 +1    24     1     2
  H     2.86646733 +1  166.4941062 +1    0.6557230 +1    14    13     3
  H     1.53204459 +1  150.2216013 +1 -179.1779055 +1    27    14    13
  O     0.96302581 +1  112.2304908 +1  174.0799100 +1    27    14    13

 TIME=     5.81
  REACTANTS AND PRODUCTS SWAPPED AROUND
 *+*+*+*+*+*+*+*+*+*+*+*+*+*+*+*+*+*+*+*+*+*+*+*+*+*+*+*+*+*+*+*+*+*+*+*+*+*+*+*+
            BAR SHORTENED BY       1.000 PERCENT
 GRADIENT CRITERION IN FLEPO =    10.000


          FOR POINT    3 SECOND STRUCTURE
 DISTANCE A - B      3.201856
 HEAT             -251.148408
 GRADIENT NORM      23.258344
 DIRECTION COSINE    0.050745
* ===============================
* Input file for Mopac
* ===============================
 PM7 BONDS AUX DUMP=30M ITRY=15000 T=14D CHARGE=-1 SINGLET eps=78.4 RELSCF=1


  C     0.00000000 +0    0.0000000 +0    0.0000000 +0     0     0     0
  C     1.39939061 +1    0.0000000 +0    0.0000000 +0     1     0     0
  C     1.40281406 +1  120.0844350 +1    0.0000000 +0     2     1     0
  C     1.40531057 +1  118.5669607 +1    0.2698231 +1     3     2     1
  C     1.39700365 +1  120.1525936 +1   -0.6472052 +1     4     3     2
  C     1.39463524 +1  121.9280927 +1    0.0156494 +1     1     2     3
  H     1.09907367 +1  120.0036581 +1 -179.2466084 +1     2     1     3
  H     1.09863716 +1  119.9351019 +1  179.2268748 +1     4     3     2
  H     1.09866124 +1  121.4988024 +1  179.7050077 +1     6     1     2
  N     1.44873420 +1  119.0122697 +1 -179.4218303 +1     5     4     3
  O     1.22647293 +1  118.6594180 +1 -175.7456353 +1    10     5     4
  O     1.21780220 +1  119.4484973 +1    4.2455749 +1    10     5     4
  C     1.44423268 +1  122.0065015 +1 -178.7133983 +1     3     2     1
  H     3.36647702 +1  107.2602561 +1   54.8393285 +1    13     3     2
  C     1.48964055 +1  118.5309865 +1  148.0959252 +1    13     3     2
  H     1.10060820 +1  112.5344925 +1 -160.4216843 +1    15    13     3
  H     1.10186119 +1  111.3759297 +1   80.2056555 +1    15    13     3
  H     1.09616510 +1  111.7967305 +1  -40.1403363 +1    15    13     3
  N     1.33857913 +1  121.8975003 +1  -32.4400359 +1    13     3     2
  O     1.25867137 +1  121.7489970 +1  178.7621490 +1    19    13     3
  O     1.26223052 +1  121.7760919 +1   -2.8391216 +1    19    13     3
  O     3.77890098 +1  168.5659603 +1 -114.8410304 +1    14    13     3
  H     0.95995817 +1  107.0882143 +1  173.9519081 +1    22    14    13
  N     1.44887782 +1  118.9878724 +1  179.5448724 +1     1     2     3
  O     1.22335272 +1  119.0650045 +1 -179.1313072 +1    24     1     2
  O     1.22435023 +1  119.3223427 +1    1.2257726 +1    24     1     2
  H     1.53376215 +1  142.5376327 +1   38.1509296 +1    14    13     3
  H     0.96192200 +1    3.7675528 +1 -117.2869380 +1    22    14    13
  O     0.96668626 +1   38.1073125 +1  173.8545102 +1    27    14    13

 *+*+*+*+*+*+*+*+*+*+*+*+*+*+*+*+*+*+*+*+*+*+*+*+*+*+*+*+*+*+*+*+*+*+*+*+*+*+*+*+
            BAR SHORTENED BY       1.000 PERCENT
 GRADIENT CRITERION IN FLEPO =    10.000


          FOR POINT    4 SECOND STRUCTURE
 DISTANCE A - B      3.169838
 HEAT             -251.353981
 GRADIENT NORM      25.052569
 DIRECTION COSINE    0.520616
* ===============================
* Input file for Mopac
* ===============================
 PM7 BONDS AUX DUMP=30M ITRY=15000 T=14D CHARGE=-1 SINGLET eps=78.4 RELSCF=1


  C     0.00000000 +0    0.0000000 +0    0.0000000 +0     0     0     0
  C     1.39982563 +1    0.0000000 +0    0.0000000 +0     1     0     0
  C     1.40425304 +1  120.2268659 +1    0.0000000 +0     2     1     0
  C     1.40888129 +1  118.6620343 +1    0.0594461 +1     3     2     1
  C     1.39482562 +1  119.7309800 +1    0.1582888 +1     4     3     2
  C     1.39090163 +1  121.6104659 +1   -0.4548275 +1     1     2     3
  H     1.10875231 +1  120.6873915 +1 -179.4568338 +1     2     1     3
  H     1.10310597 +1  119.8691866 +1  179.2354914 +1     4     3     2
  H     1.09125325 +1  121.4970591 +1 -179.2895345 +1     6     1     2
  N     1.45075027 +1  119.1783480 +1 -179.5289881 +1     5     4     3
  O     1.22225726 +1  119.2169523 +1 -176.1436412 +1    10     5     4
  O     1.22353867 +1  118.9467693 +1    3.3163244 +1    10     5     4
  C     1.44244188 +1  121.9521725 +1 -178.5133649 +1     3     2     1
  H     3.36646094 +1  107.0110518 +1   54.4317915 +1    13     3     2
  C     1.48969906 +1  118.4199255 +1  148.2353448 +1    13     3     2
  H     1.09952587 +1  112.4741123 +1 -160.7731270 +1    15    13     3
  H     1.10230919 +1  111.0456562 +1   79.9501442 +1    15    13     3
  H     1.10095835 +1  111.7979241 +1  -40.4099587 +1    15    13     3
  N     1.33834000 +1  121.7254988 +1  -32.7093342 +1    13     3     2
  O     1.25909675 +1  121.6683437 +1  179.0468104 +1    19    13     3
  O     1.26289587 +1  121.3181683 +1   -3.9766556 +1    19    13     3
  O     3.77509787 +1  169.1045139 +1 -117.6246549 +1    14    13     3
  H     0.95947800 +1  107.6575940 +1  177.8309548 +1    22    14    13
  N     1.45244820 +1  119.0827144 +1  179.6380921 +1     1     2     3
  O     1.22349378 +1  118.9399891 +1 -179.2134925 +1    24     1     2
  O     1.22728026 +1  118.9622779 +1    1.2466255 +1    24     1     2
  H     1.52590525 +1  142.2854114 +1   39.6825909 +1    14    13     3
  H     0.96150945 +1    4.2737167 +1 -118.9026509 +1    22    14    13
  O     0.96668642 +1   38.3695916 +1  169.8006295 +1    27    14    13

 *+*+*+*+*+*+*+*+*+*+*+*+*+*+*+*+*+*+*+*+*+*+*+*+*+*+*+*+*+*+*+*+*+*+*+*+*+*+*+*+
            BAR SHORTENED BY       1.000 PERCENT
 GRADIENT CRITERION IN FLEPO =    10.000


          FOR POINT    5 SECOND STRUCTURE
 DISTANCE A - B      3.138139
 HEAT             -251.398668
 GRADIENT NORM      25.755012
 DIRECTION COSINE    0.310415
* ===============================
* Input file for Mopac
* ===============================
 PM7 BONDS AUX DUMP=30M ITRY=15000 T=14D CHARGE=-1 SINGLET eps=78.4 RELSCF=1


  C     0.00000000 +0    0.0000000 +0    0.0000000 +0     0     0     0
  C     1.39608835 +1    0.0000000 +0    0.0000000 +0     1     0     0
  C     1.40420635 +1  120.1930022 +1    0.0000000 +0     2     1     0
  C     1.40552601 +1  119.0751354 +1   -0.2621892 +1     3     2     1
  C     1.39757082 +1  119.6818525 +1    0.2598961 +1     4     3     2
  C     1.39804350 +1  121.4057122 +1   -0.1887837 +1     1     2     3
  H     1.10161522 +1  120.4154193 +1 -179.7748836 +1     2     1     3
  H     1.09913839 +1  119.9339130 +1  179.3836779 +1     4     3     2
  H     1.09826946 +1  121.4075973 +1 -179.5830791 +1     6     1     2
  N     1.44319110 +1  118.9689826 +1 -179.9091614 +1     5     4     3
  O     1.22987394 +1  118.8401397 +1 -176.5769830 +1    10     5     4
  O     1.21890909 +1  119.4041157 +1    3.8737239 +1    10     5     4
  C     1.44435505 +1  121.6081444 +1 -178.6477460 +1     3     2     1
  H     3.36195456 +1  107.1611493 +1   54.1444301 +1    13     3     2
  C     1.49086866 +1  118.5178438 +1  148.6008169 +1    13     3     2
  H     1.10017249 +1  112.5552035 +1 -161.2000518 +1    15    13     3
  H     1.10282559 +1  110.7924232 +1   79.9152574 +1    15    13     3
  H     1.09983648 +1  112.6479904 +1  -40.6201408 +1    15    13     3
  N     1.33669185 +1  121.7458805 +1  -33.8337397 +1    13     3     2
  O     1.25949079 +1  122.0275319 +1  178.6972890 +1    19    13     3
  O     1.26200689 +1  121.4074249 +1   -2.5230571 +1    19    13     3
  O     3.77374448 +1  169.5917307 +1 -116.9908776 +1    14    13     3
  H     0.96009678 +1  108.1204416 +1  178.3748823 +1    22    14    13
  N     1.44729470 +1  119.5083555 +1  179.4402101 +1     1     2     3
  O     1.22365856 +1  119.3251888 +1 -178.9779188 +1    24     1     2
  O     1.22449027 +1  118.9752678 +1    1.7876055 +1    24     1     2
  H     1.51580440 +1  141.5640607 +1   39.6144459 +1    14    13     3
  H     0.96212846 +1    4.5492172 +1 -124.1335650 +1    22    14    13
  O     0.96506735 +1   38.7227008 +1  168.3130358 +1    27    14    13

 TIME=     1.05
  REACTANTS AND PRODUCTS SWAPPED AROUND
 *+*+*+*+*+*+*+*+*+*+*+*+*+*+*+*+*+*+*+*+*+*+*+*+*+*+*+*+*+*+*+*+*+*+*+*+*+*+*+*+
            BAR SHORTENED BY       0.000 PERCENT
 GRADIENT CRITERION IN FLEPO =    10.000


          FOR POINT    6 FIRST  STRUCTURE
 DISTANCE A - B      3.138139
 HEAT             -216.627783
 GRADIENT NORM      16.357570
 DIRECTION COSINE   -0.219724
* ===============================
* Input file for Mopac
* ===============================
 PM7 BONDS AUX DUMP=30M ITRY=15000 T=14D CHARGE=-1 SINGLET eps=78.4 RELSCF=1


  C     0.00000000 +0    0.0000000 +0    0.0000000 +0     0     0     0
  C     1.40031842 +1    0.0000000 +0    0.0000000 +0     1     0     0
  C     1.39645550 +1  119.5964157 +1    0.0000000 +0     2     1     0
  C     1.39335075 +1  119.4423651 +1   -0.8202433 +1     3     2     1
  C     1.40277767 +1  119.8616937 +1    0.0048885 +1     4     3     2
  C     1.39459864 +1  121.8766427 +1    0.5816940 +1     5     4     3
  H     1.10325502 +1  119.6529510 +1 -179.9968651 +1     2     1     3
  H     1.09979960 +1  120.8891170 +1 -179.7510196 +1     4     3     2
  H     1.10327030 +1  121.6846327 +1  179.9377412 +1     6     5     4
  N     1.44360581 +1  119.2218748 +1 -179.2463915 +1     5     4     3
  O     1.22305658 +1  118.7721259 +1 -179.6499615 +1    10     5     4
  O     1.22231132 +1  118.9528986 +1    0.3569586 +1    10     5     4
  C     1.50546584 +1  118.7774766 +1 -179.6938553 +1     3     2     1
  H     1.13793885 +1  108.7178029 +1   54.4524745 +1    13     3     2
  C     1.52434174 +1  116.0206497 +1  176.8421905 +1    13     3     2
  H     1.10151144 +1  111.8635510 +1 -179.3654786 +1    15    13     3
  H     1.09991857 +1  113.7976820 +1   60.2238265 +1    15    13     3
  H     1.10011110 +1  111.4402680 +1  -61.0437453 +1    15    13     3
  N     1.50814686 +1  110.4654685 +1  -61.4734767 +1    13     3     2
  O     1.22104507 +1  117.8887440 +1  179.4758270 +1    19    13     3
  O     1.21746103 +1  119.4670513 +1    0.3603233 +1    19    13     3
  O     6.34679155 +1  173.2107879 +1  -15.2722478 +1    14    13     3
  H     0.89329932 +1   85.6780098 +1  129.7200603 +1    22    14    13
  N     1.44631298 +1  119.0510933 +1 -179.2180371 +1     1     2     3
  O     1.22238256 +1  118.8227292 +1  179.2882192 +1    24     1     2
  O     1.22140748 +1  118.7793010 +1   -0.6377192 +1    24     1     2
  H     2.86718767 +1  166.5509975 +1    0.5877743 +1    14    13     3
  H     1.53164456 +1  150.2539138 +1 -179.1686686 +1    27    14    13
  O     0.96553132 +1   37.8789278 +1  -10.2133533 +1    28    27    14

 TIME=     0.29
  REACTANTS AND PRODUCTS SWAPPED AROUND
 *+*+*+*+*+*+*+*+*+*+*+*+*+*+*+*+*+*+*+*+*+*+*+*+*+*+*+*+*+*+*+*+*+*+*+*+*+*+*+*+
            BAR SHORTENED BY       1.000 PERCENT
 GRADIENT CRITERION IN FLEPO =    10.000


          FOR POINT    7 SECOND STRUCTURE
 DISTANCE A - B      3.106758
 HEAT             -251.360254
 GRADIENT NORM      23.040253
 DIRECTION COSINE   -0.310831
* ===============================
* Input file for Mopac
* ===============================
 PM7 BONDS AUX DUMP=30M ITRY=15000 T=14D CHARGE=-1 SINGLET eps=78.4 RELSCF=1


  C     0.00000000 +0    0.0000000 +0    0.0000000 +0     0     0     0
  C     1.39883898 +1    0.0000000 +0    0.0000000 +0     1     0     0
  C     1.40291886 +1  120.0212859 +1    0.0000000 +0     2     1     0
  C     1.40415484 +1  119.0409422 +1    0.2145366 +1     3     2     1
  C     1.39529897 +1  119.6933488 +1   -0.1787417 +1     4     3     2
  C     1.39548718 +1  121.5557581 +1   -0.5045733 +1     1     2     3
  H     1.09960103 +1  120.6794294 +1 -179.7542588 +1     2     1     3
  H     1.10051438 +1  119.7646433 +1  179.4647463 +1     4     3     2
  H     1.09335539 +1  121.5183105 +1 -179.5130684 +1     6     1     2
  N     1.44885824 +1  119.1065893 +1 -179.6070640 +1     5     4     3
  O     1.22329368 +1  119.0526363 +1 -176.7546260 +1    10     5     4
  O     1.22394623 +1  119.0572828 +1    3.6513418 +1    10     5     4
  C     1.44240766 +1  121.7196624 +1 -178.9275130 +1     3     2     1
  H     3.35744059 +1  106.9797082 +1   54.3429064 +1    13     3     2
  C     1.48952141 +1  118.9677248 +1  149.2822032 +1    13     3     2
  H     1.09583550 +1  112.9321517 +1 -160.9446587 +1    15    13     3
  H     1.10049160 +1  110.7928184 +1   79.2526914 +1    15    13     3
  H     1.10880958 +1  113.0740129 +1  -40.2957492 +1    15    13     3
  N     1.34149382 +1  121.6480218 +1  -33.4253121 +1    13     3     2
  O     1.25894029 +1  122.0022749 +1  178.7079038 +1    19    13     3
  O     1.26020742 +1  121.2987119 +1   -3.3197241 +1    19    13     3
  O     3.77644743 +1  170.0066258 +1 -115.7207382 +1    14    13     3
  H     0.96162975 +1  108.4622580 +1  178.2797556 +1    22    14    13
  N     1.44894931 +1  118.9641177 +1  179.6237391 +1     1     2     3
  O     1.22919920 +1  118.8163449 +1 -178.4911455 +1    24     1     2
  O     1.22112326 +1  119.3754356 +1    1.1329429 +1    24     1     2
  H     1.51351757 +1  141.0748344 +1   39.3027490 +1    14    13     3
  H     0.96367205 +1    4.8384026 +1 -129.3037282 +1    22    14    13
  O     0.96569957 +1   38.8939470 +1  167.5819375 +1    27    14    13

 TIME=     0.27
  REACTANTS AND PRODUCTS SWAPPED AROUND
 *+*+*+*+*+*+*+*+*+*+*+*+*+*+*+*+*+*+*+*+*+*+*+*+*+*+*+*+*+*+*+*+*+*+*+*+*+*+*+*+
            BAR SHORTENED BY       1.000 PERCENT
 GRADIENT CRITERION IN FLEPO =    10.000


          FOR POINT    8 FIRST  STRUCTURE
 DISTANCE A - B      3.075690
 HEAT             -216.907549
 GRADIENT NORM      16.901674
 DIRECTION COSINE    0.124327
* ===============================
* Input file for Mopac
* ===============================
 PM7 BONDS AUX DUMP=30M ITRY=15000 T=14D CHARGE=-1 SINGLET eps=78.4 RELSCF=1


  C     0.00000000 +0    0.0000000 +0    0.0000000 +0     0     0     0
  C     1.39974486 +1    0.0000000 +0    0.0000000 +0     1     0     0
  C     1.39819111 +1  119.7296937 +1    0.0000000 +0     2     1     0
  C     1.39612077 +1  119.1826411 +1   -0.2466031 +1     3     2     1
  C     1.40163715 +1  120.1133092 +1   -0.1860100 +1     4     3     2
  C     1.39509584 +1  121.5854396 +1    0.6441104 +1     5     4     3
  H     1.09527607 +1  120.0576828 +1 -179.2931605 +1     2     1     3
  H     1.10183783 +1  120.6056866 +1 -179.7905479 +1     4     3     2
  H     1.10436617 +1  121.5444007 +1 -179.2320072 +1     6     5     4
  N     1.44495702 +1  119.3708209 +1 -179.2078551 +1     5     4     3
  O     1.22191454 +1  118.9060680 +1  179.8976524 +1    10     5     4
  O     1.22306767 +1  118.7828249 +1    0.7679569 +1    10     5     4
  C     1.50770112 +1  118.7468515 +1 -179.6341109 +1     3     2     1
  H     1.13765709 +1  108.5418703 +1   54.8604686 +1    13     3     2
  C     1.52064035 +1  115.5535688 +1  176.7544578 +1    13     3     2
  H     1.10722765 +1  111.4582734 +1 -179.3346070 +1    15    13     3
  H     1.09950437 +1  113.8986347 +1   60.5682970 +1    15    13     3
  H     1.09948946 +1  111.8928532 +1  -61.0981680 +1    15    13     3
  N     1.50883896 +1  110.5395421 +1  -61.0777902 +1    13     3     2
  O     1.21822427 +1  117.6472128 +1  179.7205510 +1    19    13     3
  O     1.21802693 +1  119.2135043 +1   -0.0199986 +1    19    13     3
  O     6.26636056 +1  173.2561144 +1  -18.0467774 +1    14    13     3
  H     0.90071038 +1   91.4509335 +1  132.4038818 +1    22    14    13
  N     1.44431786 +1  119.4224890 +1 -178.8174743 +1     1     2     3
  O     1.22023279 +1  118.7639482 +1  178.6871280 +1    24     1     2
  O     1.22171176 +1  118.4436679 +1   -1.0359860 +1    24     1     2
  H     2.87005958 +1  166.6445685 +1   -0.1726903 +1    14    13     3
  H     1.54104140 +1  150.4593803 +1 -177.1243396 +1    27    14    13
  O     0.96427428 +1  113.1357224 +1  174.8220929 +1    27    14    13

 TIME=     0.73
  REACTANTS AND PRODUCTS SWAPPED AROUND
 *+*+*+*+*+*+*+*+*+*+*+*+*+*+*+*+*+*+*+*+*+*+*+*+*+*+*+*+*+*+*+*+*+*+*+*+*+*+*+*+
            BAR SHORTENED BY       1.000 PERCENT
 GRADIENT CRITERION IN FLEPO =    10.000


          FOR POINT    9 SECOND STRUCTURE
 DISTANCE A - B      3.044933
 HEAT             -251.133746
 GRADIENT NORM      23.125949
 DIRECTION COSINE   -0.147348
* ===============================
* Input file for Mopac
* ===============================
 PM7 BONDS AUX DUMP=30M ITRY=15000 T=14D CHARGE=-1 SINGLET eps=78.4 RELSCF=1


  C     0.00000000 +0    0.0000000 +0    0.0000000 +0     0     0     0
  C     1.39648083 +1    0.0000000 +0    0.0000000 +0     1     0     0
  C     1.40121847 +1  120.2332290 +1    0.0000000 +0     2     1     0
  C     1.40710475 +1  119.0284614 +1    0.2429985 +1     3     2     1
  C     1.39704712 +1  119.6146235 +1    0.0761948 +1     4     3     2
  C     1.39698112 +1  122.0354414 +1   -0.1909540 +1     5     4     3
  H     1.09924618 +1  120.5788727 +1 -179.1802393 +1     2     1     3
  H     1.09741184 +1  119.7955357 +1  179.1750811 +1     4     3     2
  H     1.09936129 +1  120.9242867 +1  179.5749269 +1     6     5     4
  N     1.44816287 +1  119.0206458 +1 -179.7056792 +1     5     4     3
  O     1.22051214 +1  119.0099562 +1 -176.7621868 +1    10     5     4
  O     1.22158755 +1  118.9820225 +1    2.9568221 +1    10     5     4
  C     1.44286117 +1  121.6783057 +1 -178.7044082 +1     3     2     1
  H     3.35099070 +1  107.1022350 +1   54.3906064 +1    13     3     2
  C     1.48923558 +1  118.6835440 +1  149.8580149 +1    13     3     2
  H     1.09886090 +1  112.5349035 +1 -161.6006380 +1    15    13     3
  H     1.10188670 +1  110.5775400 +1   79.2548966 +1    15    13     3
  H     1.10106761 +1  113.0174514 +1  -40.8684790 +1    15    13     3
  N     1.33834917 +1  121.3587369 +1  -34.0574420 +1    13     3     2
  O     1.25937537 +1  121.9356064 +1  178.8314359 +1    19    13     3
  O     1.26069319 +1  121.4350058 +1   -2.5583675 +1    19    13     3
  O     3.77854741 +1  170.3388101 +1 -114.3413962 +1    14    13     3
  H     0.96029805 +1  108.8249130 +1  178.1734751 +1    22    14    13
  N     1.45356387 +1  119.5244095 +1  179.2468513 +1     1     2     3
  O     1.22316522 +1  119.2152456 +1 -178.4904640 +1    24     1     2
  O     1.22266141 +1  118.6695005 +1    1.0451901 +1    24     1     2
  H     1.50883526 +1  140.8005474 +1   38.7446261 +1    14    13     3
  H     0.96926758 +1    5.0250176 +1 -135.0537595 +1    22    14    13
  O     0.96512400 +1   38.9194796 +1  167.1227877 +1    27    14    13

 TIME=     0.27
  REACTANTS AND PRODUCTS SWAPPED AROUND
 *+*+*+*+*+*+*+*+*+*+*+*+*+*+*+*+*+*+*+*+*+*+*+*+*+*+*+*+*+*+*+*+*+*+*+*+*+*+*+*+
            BAR SHORTENED BY       1.000 PERCENT
 GRADIENT CRITERION IN FLEPO =    10.000
           THERE HAVE BEEN 3 ATTEMPTS TO REDUCE THE GRADIENT.
           DURING THESE ATTEMPTS THE ENERGY DROPPED BY LESS THAN 0.3 KCAL/MOLE
           FURTHER CALCULATION IS NOT JUSTIFIED AT THIS TIME.
           TO CONTINUE, START AGAIN WITH THE WORD "PRECISE"


          FOR POINT   10 FIRST  STRUCTURE
 DISTANCE A - B      3.014484
 HEAT             -223.958040
 GRADIENT NORM      32.687472
 DIRECTION COSINE   -0.129556
* ===============================
* Input file for Mopac
* ===============================
 PM7 BONDS AUX DUMP=30M ITRY=15000 T=14D CHARGE=-1 SINGLET eps=78.4 RELSCF=1


  C     0.00000000 +0    0.0000000 +0    0.0000000 +0     0     0     0
  C     1.40498369 +1    0.0000000 +0    0.0000000 +0     1     0     0
  C     1.39908313 +1  120.0326856 +1    0.0000000 +0     2     1     0
  C     1.39506829 +1  119.5180858 +1   -1.1753519 +1     3     2     1
  C     1.40233858 +1  119.6821776 +1    0.0639483 +1     4     3     2
  C     1.39713600 +1  121.8229276 +1    0.8417143 +1     5     4     3
  H     1.10129295 +1  119.5457946 +1  179.9359928 +1     2     1     3
  H     1.10021341 +1  121.1168193 +1 -179.6385177 +1     4     3     2
  H     1.10238313 +1  121.1414263 +1  179.6684387 +1     6     5     4
  N     1.44616784 +1  119.3182031 +1 -179.2811913 +1     5     4     3
  O     1.22268021 +1  118.9406534 +1 -179.3059718 +1    10     5     4
  O     1.22222290 +1  118.7834956 +1    0.6910885 +1    10     5     4
  C     1.50841415 +1  118.6510975 +1 -179.9076594 +1     3     2     1
  H     1.13764649 +1  108.7404771 +1   54.1489318 +1    13     3     2
  C     1.52141706 +1  115.3914610 +1  176.5438821 +1    13     3     2
  H     1.11842396 +1  111.7567470 +1  179.9255886 +1    15    13     3
  H     1.10021716 +1  113.1712867 +1   60.9241189 +1    15    13     3
  H     1.09551360 +1  112.4432921 +1  -61.3246139 +1    15    13     3
  N     1.51199407 +1  110.0014166 +1  -61.9406841 +1    13     3     2
  O     1.22419850 +1  117.5334804 +1  179.7623614 +1    19    13     3
  O     1.21468685 +1  119.5101922 +1   -0.3653530 +1    19    13     3
  O     5.92208112 +1  173.2806603 +1  -13.9125714 +1    14    13     3
  H     0.90053783 +1  111.5982943 +1  127.3309057 +1    22    14    13
  N     1.43544499 +1  119.7093332 +1 -178.5762020 +1     1     2     3
  O     1.22424697 +1  118.9698910 +1  179.0539645 +1    24     1     2
  O     1.22254116 +1  118.8405393 +1   -0.2791533 +1    24     1     2
  H     2.91135488 +1  166.3564437 +1   -2.5562138 +1    14    13     3
  H     1.54879875 +1    8.4004401 +1  169.1970611 +1    22    14    13
  O     0.93886705 +1  114.4068577 +1  174.0523902 +1    27    14    13

 TIME=     5.77
  REACTANTS AND PRODUCTS SWAPPED AROUND
 *+*+*+*+*+*+*+*+*+*+*+*+*+*+*+*+*+*+*+*+*+*+*+*+*+*+*+*+*+*+*+*+*+*+*+*+*+*+*+*+
            BAR SHORTENED BY       1.000 PERCENT
 GRADIENT CRITERION IN FLEPO =    10.000


          FOR POINT   11 SECOND STRUCTURE
 DISTANCE A - B      2.984339
 HEAT             -251.149004
 GRADIENT NORM      18.869867
 DIRECTION COSINE   -0.004185
* ===============================
* Input file for Mopac
* ===============================
 PM7 BONDS AUX DUMP=30M ITRY=15000 T=14D CHARGE=-1 SINGLET eps=78.4 RELSCF=1


  C     0.00000000 +0    0.0000000 +0    0.0000000 +0     0     0     0
  C     1.39839400 +1    0.0000000 +0    0.0000000 +0     1     0     0
  C     1.40350842 +1  120.0149114 +1    0.0000000 +0     2     1     0
  C     1.40284656 +1  119.0862247 +1    0.1458111 +1     3     2     1
  C     1.39649755 +1  119.6755200 +1   -0.0638844 +1     4     3     2
  C     1.39571119 +1  121.5830386 +1   -0.3645871 +1     1     2     3
  H     1.09729683 +1  121.0071110 +1 -179.2976627 +1     2     1     3
  H     1.10064434 +1  119.8537914 +1  179.2976357 +1     4     3     2
  H     1.09637126 +1  121.5771240 +1 -179.4661040 +1     6     1     2
  N     1.44798188 +1  119.0372113 +1 -179.8165910 +1     5     4     3
  O     1.22365660 +1  119.0966844 +1 -176.6502200 +1    10     5     4
  O     1.22321101 +1  119.0525823 +1    3.2172722 +1    10     5     4
  C     1.44564597 +1  121.7685870 +1 -179.5152447 +1     3     2     1
  H     3.36345622 +1  106.6050794 +1   54.4827171 +1    13     3     2
  C     1.49094114 +1  119.0302728 +1  149.7391829 +1    13     3     2
  H     1.09150217 +1  113.0965280 +1 -160.6939423 +1    15    13     3
  H     1.10778279 +1  109.8409630 +1   80.1227406 +1    15    13     3
  H     1.10915551 +1  112.2756013 +1  -39.7685247 +1    15    13     3
  N     1.33854013 +1  121.4875204 +1  -32.7873933 +1    13     3     2
  O     1.25857920 +1  121.9490830 +1  178.5015427 +1    19    13     3
  O     1.26069071 +1  121.2204210 +1   -4.1411360 +1    19    13     3
  O     3.76914848 +1  171.2523358 +1 -111.7195980 +1    14    13     3
  H     0.95587117 +1  110.0080139 +1  177.0716989 +1    22    14    13
  N     1.44376065 +1  119.1483171 +1  179.3536686 +1     1     2     3
  O     1.22422421 +1  119.1472111 +1 -178.7331250 +1    24     1     2
  O     1.22418996 +1  119.1924409 +1    1.3127707 +1    24     1     2
  H     1.51160627 +1  139.5310826 +1   38.3411824 +1    14    13     3
  H     0.95861012 +1    5.1843809 +1 -138.5038967 +1    22    14    13
  O     0.96576875 +1  171.0498947 +1  110.4090529 +1    14    13     3

 TIME=     2.37
  REACTANTS AND PRODUCTS SWAPPED AROUND
 *+*+*+*+*+*+*+*+*+*+*+*+*+*+*+*+*+*+*+*+*+*+*+*+*+*+*+*+*+*+*+*+*+*+*+*+*+*+*+*+
            BAR SHORTENED BY       1.000 PERCENT
 GRADIENT CRITERION IN FLEPO =    10.000


          FOR POINT   12 FIRST  STRUCTURE
 DISTANCE A - B      2.954496
 HEAT             -225.054448
 GRADIENT NORM      24.295164
 DIRECTION COSINE   -0.103892
* ===============================
* Input file for Mopac
* ===============================
 PM7 BONDS AUX DUMP=30M ITRY=15000 T=14D CHARGE=-1 SINGLET eps=78.4 RELSCF=1


  C     0.00000000 +0    0.0000000 +0    0.0000000 +0     0     0     0
  C     1.39999618 +1    0.0000000 +0    0.0000000 +0     1     0     0
  C     1.40018363 +1  119.7805768 +1    0.0000000 +0     2     1     0
  C     1.39397888 +1  119.4253375 +1   -0.6629487 +1     3     2     1
  C     1.40252222 +1  119.7525035 +1   -0.4633217 +1     4     3     2
  C     1.39575626 +1  121.7927808 +1    1.1573295 +1     5     4     3
  H     1.10054697 +1  119.6189770 +1 -179.6594849 +1     2     1     3
  H     1.09950111 +1  121.1102970 +1 -179.9781786 +1     4     3     2
  H     1.10267205 +1  121.2841930 +1  179.8158531 +1     6     5     4
  N     1.44667074 +1  119.3546279 +1 -179.1580686 +1     5     4     3
  O     1.22612847 +1  118.7131255 +1 -179.1297375 +1    10     5     4
  O     1.22389567 +1  118.9587528 +1    0.8944820 +1    10     5     4
  C     1.51177950 +1  118.5157793 +1 -179.5290451 +1     3     2     1
  H     1.12722432 +1  109.7887244 +1   54.4835838 +1    13     3     2
  C     1.52736658 +1  115.2159488 +1  177.1580586 +1    13     3     2
  H     1.10217120 +1  111.7726498 +1  179.7301603 +1    15    13     3
  H     1.09876568 +1  114.0947320 +1   59.5578321 +1    15    13     3
  H     1.10415027 +1  111.5676345 +1  -61.6972670 +1    15    13     3
  N     1.51205689 +1  109.9067463 +1  -62.2533926 +1    13     3     2
  O     1.22063026 +1  117.6523495 +1 -179.9073266 +1    19    13     3
  O     1.21872468 +1  119.1225597 +1    0.6557788 +1    19    13     3
  O     5.88326933 +1  172.5730226 +1  -15.7910459 +1    14    13     3
  H     0.91522007 +1  113.2468307 +1  128.4398869 +1    22    14    13
  N     1.44454638 +1  119.3339338 +1 -178.9437608 +1     1     2     3
  O     1.22398230 +1  118.7085807 +1  179.0351415 +1    24     1     2
  O     1.22395492 +1  119.0261783 +1   -0.0429909 +1    24     1     2
  H     2.92050438 +1  165.2825863 +1   -3.2925380 +1    14    13     3
  H     1.47977450 +1    9.0211192 +1  168.7452261 +1    22    14    13
  O     0.95188003 +1  113.8337570 +1  175.0941976 +1    27    14    13

 TIME=     0.78
  REACTANTS AND PRODUCTS SWAPPED AROUND
 *+*+*+*+*+*+*+*+*+*+*+*+*+*+*+*+*+*+*+*+*+*+*+*+*+*+*+*+*+*+*+*+*+*+*+*+*+*+*+*+
            BAR SHORTENED BY       1.000 PERCENT
 GRADIENT CRITERION IN FLEPO =    10.000


          FOR POINT   13 SECOND STRUCTURE
 DISTANCE A - B      2.924951
 HEAT             -251.075301
 GRADIENT NORM      21.994555
 DIRECTION COSINE   -0.081563
* ===============================
* Input file for Mopac
* ===============================
 PM7 BONDS AUX DUMP=30M ITRY=15000 T=14D CHARGE=-1 SINGLET eps=78.4 RELSCF=1


  C     0.00000000 +0    0.0000000 +0    0.0000000 +0     0     0     0
  C     1.39155800 +1    0.0000000 +0    0.0000000 +0     1     0     0
  C     1.40403181 +1  120.0340026 +1    0.0000000 +0     2     1     0
  C     1.40249163 +1  119.1170983 +1   -0.2159230 +1     3     2     1
  C     1.39662085 +1  119.6812850 +1    0.0836637 +1     4     3     2
  C     1.39623786 +1  122.0153017 +1    0.1943286 +1     5     4     3
  H     1.09978820 +1  120.6760281 +1 -179.4869487 +1     2     1     3
  H     1.09946290 +1  119.9630197 +1  179.6352615 +1     4     3     2
  H     1.09510223 +1  120.9267440 +1  179.5302277 +1     6     5     4
  N     1.44626919 +1  119.0322674 +1 -179.7807502 +1     5     4     3
  O     1.22187604 +1  119.0983809 +1 -176.7487189 +1    10     5     4
  O     1.22513352 +1  119.0021143 +1    3.0573143 +1    10     5     4
  C     1.44389035 +1  121.5625884 +1 -179.3724530 +1     3     2     1
  H     3.34718798 +1  107.0123462 +1   54.0897926 +1    13     3     2
  C     1.48900025 +1  118.9626098 +1  150.2630135 +1    13     3     2
  H     1.09778795 +1  112.7893515 +1 -161.3371980 +1    15    13     3
  H     1.10186325 +1  110.0944162 +1   79.4041789 +1    15    13     3
  H     1.10270512 +1  112.1356620 +1  -40.7302529 +1    15    13     3
  N     1.33989244 +1  121.2540251 +1  -34.2017988 +1    13     3     2
  O     1.25913897 +1  121.9775872 +1  178.7991669 +1    19    13     3
  O     1.26065031 +1  121.3091084 +1   -2.7497530 +1    19    13     3
  O     3.77636426 +1  171.5369433 +1 -110.3985182 +1    14    13     3
  H     0.96098586 +1  110.2338207 +1  176.5516754 +1    22    14    13
  N     1.45120212 +1  119.4888957 +1  179.1463027 +1     1     2     3
  O     1.22270545 +1  119.3005664 +1 -178.4844094 +1    24     1     2
  O     1.22499771 +1  118.6177852 +1    1.9961320 +1    24     1     2
  H     1.51444114 +1  139.4548857 +1   37.8617841 +1    14    13     3
  H     0.96146977 +1    5.4676824 +1 -144.1859545 +1    22    14    13
  O     0.96527576 +1   38.8524730 +1  165.8609905 +1    27    14    13

 TIME=     0.27
  REACTANTS AND PRODUCTS SWAPPED AROUND
 *+*+*+*+*+*+*+*+*+*+*+*+*+*+*+*+*+*+*+*+*+*+*+*+*+*+*+*+*+*+*+*+*+*+*+*+*+*+*+*+
            BAR SHORTENED BY       1.000 PERCENT
 GRADIENT CRITERION IN FLEPO =    10.000


          FOR POINT   14 FIRST  STRUCTURE
 DISTANCE A - B      2.895701
 HEAT             -225.482903
 GRADIENT NORM      20.393841
 DIRECTION COSINE    0.194400
* ===============================
* Input file for Mopac
* ===============================
 PM7 BONDS AUX DUMP=30M ITRY=15000 T=14D CHARGE=-1 SINGLET eps=78.4 RELSCF=1


  C     0.00000000 +0    0.0000000 +0    0.0000000 +0     0     0     0
  C     1.40009893 +1    0.0000000 +0    0.0000000 +0     1     0     0
  C     1.39964948 +1  119.6459567 +1    0.0000000 +0     2     1     0
  C     1.39488575 +1  119.3686138 +1   -1.3245113 +1     3     2     1
  C     1.40452092 +1  119.8834743 +1    0.0974578 +1     4     3     2
  C     1.39495050 +1  121.7048001 +1    0.7334971 +1     5     4     3
  H     1.09999923 +1  119.6340273 +1  179.2945563 +1     2     1     3
  H     1.10207435 +1  121.0509486 +1 -179.4734373 +1     4     3     2
  H     1.10683070 +1  121.6672446 +1  179.8567819 +1     6     5     4
  N     1.44806293 +1  119.3188890 +1 -179.2018943 +1     5     4     3
  O     1.22100443 +1  118.6557854 +1 -179.3546553 +1    10     5     4
  O     1.22210562 +1  118.9724427 +1    0.9034769 +1    10     5     4
  C     1.51002710 +1  118.5623170 +1 -179.5513376 +1     3     2     1
  H     1.14694438 +1  109.7647743 +1   53.7949111 +1    13     3     2
  C     1.52392531 +1  115.3270299 +1  176.6840322 +1    13     3     2
  H     1.10537140 +1  111.8210305 +1  179.6519198 +1    15    13     3
  H     1.10083497 +1  114.0513891 +1   59.6001254 +1    15    13     3
  H     1.10028686 +1  111.5534110 +1  -61.7459265 +1    15    13     3
  N     1.50577053 +1  109.7440918 +1  -62.5442698 +1    13     3     2
  O     1.22235082 +1  117.9509795 +1 -179.7330867 +1    19    13     3
  O     1.21843839 +1  119.5966026 +1    0.8519397 +1    19    13     3
  O     5.82501800 +1  172.8902372 +1  -15.6499219 +1    14    13     3
  H     0.92345050 +1  115.0377394 +1  127.9393969 +1    22    14    13
  N     1.44706266 +1  119.2769387 +1 -178.5590675 +1     1     2     3
  O     1.22158709 +1  118.6381930 +1  179.4338453 +1    24     1     2
  O     1.21951863 +1  118.9400334 +1    0.1751592 +1    24     1     2
  H     2.90817947 +1  165.4611209 +1   -2.1054694 +1    14    13     3
  H     1.40982698 +1    7.4601505 +1  162.8144647 +1    22    14    13
  O     0.94502080 +1  113.5532020 +1  174.4127511 +1    27    14    13

 TIME=     0.40
  REACTANTS AND PRODUCTS SWAPPED AROUND
 *+*+*+*+*+*+*+*+*+*+*+*+*+*+*+*+*+*+*+*+*+*+*+*+*+*+*+*+*+*+*+*+*+*+*+*+*+*+*+*+
            BAR SHORTENED BY       1.000 PERCENT
 GRADIENT CRITERION IN FLEPO =    10.000


          FOR POINT   15 SECOND STRUCTURE
 DISTANCE A - B      2.866744
 HEAT             -251.181787
 GRADIENT NORM      20.678579
 DIRECTION COSINE    0.146864
* ===============================
* Input file for Mopac
* ===============================
 PM7 BONDS AUX DUMP=30M ITRY=15000 T=14D CHARGE=-1 SINGLET eps=78.4 RELSCF=1


  C     0.00000000 +0    0.0000000 +0    0.0000000 +0     0     0     0
  C     1.39787861 +1    0.0000000 +0    0.0000000 +0     1     0     0
  C     1.40252778 +1  119.9894720 +1    0.0000000 +0     2     1     0
  C     1.40497425 +1  119.2244182 +1   -0.5582201 +1     3     2     1
  C     1.39919349 +1  119.5018500 +1    0.4333220 +1     4     3     2
  C     1.39705739 +1  122.0156560 +1   -0.0272188 +1     5     4     3
  H     1.09947548 +1  120.6854100 +1 -179.7242909 +1     2     1     3
  H     1.10042502 +1  119.9417107 +1  179.5922016 +1     4     3     2
  H     1.09607865 +1  121.0990591 +1  179.3033204 +1     6     5     4
  N     1.44498213 +1  119.1072841 +1  179.9078770 +1     5     4     3
  O     1.22120672 +1  119.5239440 +1 -177.0309705 +1    10     5     4
  O     1.22331715 +1  118.6945424 +1    3.0510546 +1    10     5     4
  C     1.44155087 +1  121.7146077 +1 -179.6940908 +1     3     2     1
  H     3.34802117 +1  106.7623415 +1   53.9872776 +1    13     3     2
  C     1.49176833 +1  118.8673800 +1  150.2561554 +1    13     3     2
  H     1.09824539 +1  112.4355640 +1 -161.3358595 +1    15    13     3
  H     1.10108947 +1  109.9096297 +1   79.5382644 +1    15    13     3
  H     1.09906935 +1  112.2419532 +1  -40.7186258 +1    15    13     3
  N     1.33980202 +1  121.0394257 +1  -34.3079765 +1    13     3     2
  O     1.25762863 +1  121.8342653 +1  178.2356241 +1    19    13     3
  O     1.26016741 +1  121.4100802 +1   -2.7577868 +1    19    13     3
  O     3.77621853 +1  171.9057968 +1 -108.4198092 +1    14    13     3
  H     0.96113132 +1  110.6767537 +1  175.8698602 +1    22    14    13
  N     1.44397567 +1  119.2358772 +1  179.1524880 +1     1     2     3
  O     1.22561402 +1  119.4490709 +1 -178.5431316 +1    24     1     2
  O     1.22646254 +1  119.2640626 +1    2.3494500 +1    24     1     2
  H     1.50590978 +1  138.8369728 +1   37.3582748 +1    14    13     3
  H     0.96244388 +1    5.9637856 +1 -152.3366555 +1    22    14    13
  O     0.96455057 +1   39.1131611 +1  165.8279729 +1    27    14    13

 *+*+*+*+*+*+*+*+*+*+*+*+*+*+*+*+*+*+*+*+*+*+*+*+*+*+*+*+*+*+*+*+*+*+*+*+*+*+*+*+
            BAR SHORTENED BY       1.000 PERCENT
 GRADIENT CRITERION IN FLEPO =    10.000


          FOR POINT   16 SECOND STRUCTURE
 DISTANCE A - B      2.838077
 HEAT             -250.821089
 GRADIENT NORM      27.195923
 DIRECTION COSINE    0.585710
* ===============================
* Input file for Mopac
* ===============================
 PM7 BONDS AUX DUMP=30M ITRY=15000 T=14D CHARGE=-1 SINGLET eps=78.4 RELSCF=1


  C     0.00000000 +0    0.0000000 +0    0.0000000 +0     0     0     0
  C     1.39829034 +1    0.0000000 +0    0.0000000 +0     1     0     0
  C     1.40572316 +1  119.7375437 +1    0.0000000 +0     2     1     0
  C     1.40203255 +1  119.1759373 +1   -0.2622997 +1     3     2     1
  C     1.39831888 +1  119.6765632 +1    0.2335560 +1     4     3     2
  C     1.39166561 +1  121.7597253 +1   -0.1669175 +1     1     2     3
  H     1.09837767 +1  120.7554139 +1 -179.4266980 +1     2     1     3
  H     1.10045943 +1  119.8021751 +1  179.5571729 +1     4     3     2
  H     1.09832647 +1  121.6068373 +1 -179.6376893 +1     6     1     2
  N     1.44578744 +1  119.0800926 +1  179.9929503 +1     5     4     3
  O     1.22262075 +1  119.4179804 +1 -177.0222648 +1    10     5     4
  O     1.22299510 +1  118.7605640 +1    2.9648614 +1    10     5     4
  C     1.44241882 +1  121.4062054 +1 -179.7285055 +1     3     2     1
  H     3.33990623 +1  106.9374246 +1   54.1662080 +1    13     3     2
  C     1.48935663 +1  118.8674597 +1  150.9653024 +1    13     3     2
  H     1.09123993 +1  112.7887748 +1 -161.5347469 +1    15    13     3
  H     1.09886335 +1  110.3767471 +1   78.6992470 +1    15    13     3
  H     1.10396126 +1  111.9757405 +1  -40.7543858 +1    15    13     3
  N     1.33845454 +1  121.1282636 +1  -34.4133202 +1    13     3     2
  O     1.26445845 +1  121.3816387 +1  178.6040840 +1    19    13     3
  O     1.25914419 +1  121.3569321 +1   -2.7718876 +1    19    13     3
  O     3.77979577 +1  172.2904523 +1 -105.1533068 +1    14    13     3
  H     0.95923301 +1  111.1169296 +1  173.3061989 +1    22    14    13
  N     1.44872948 +1  119.0876921 +1  179.1502806 +1     1     2     3
  O     1.22400407 +1  119.3300133 +1 -178.6290554 +1    24     1     2
  O     1.22490336 +1  119.2409009 +1    2.0821593 +1    24     1     2
  H     1.51361413 +1  138.5154906 +1   36.3890755 +1    14    13     3
  H     0.96490952 +1    6.1016547 +1 -159.0449606 +1    22    14    13
  O     0.96251928 +1   39.0545354 +1  166.2057140 +1    27    14    13

 *+*+*+*+*+*+*+*+*+*+*+*+*+*+*+*+*+*+*+*+*+*+*+*+*+*+*+*+*+*+*+*+*+*+*+*+*+*+*+*+
            BAR SHORTENED BY       1.000 PERCENT
 GRADIENT CRITERION IN FLEPO =    10.000


          FOR POINT   17 SECOND STRUCTURE
 DISTANCE A - B      2.809696
 HEAT             -250.859423
 GRADIENT NORM      20.778710
 DIRECTION COSINE   -0.004928
* ===============================
* Input file for Mopac
* ===============================
 PM7 BONDS AUX DUMP=30M ITRY=15000 T=14D CHARGE=-1 SINGLET eps=78.4 RELSCF=1


  C     0.00000000 +0    0.0000000 +0    0.0000000 +0     0     0     0
  C     1.39729797 +1    0.0000000 +0    0.0000000 +0     1     0     0
  C     1.40386115 +1  119.7810222 +1    0.0000000 +0     2     1     0
  C     1.40125850 +1  119.3175317 +1   -0.3782345 +1     3     2     1
  C     1.39657349 +1  119.6866642 +1    0.3151254 +1     4     3     2
  C     1.39513881 +1  121.6992813 +1   -0.0617905 +1     1     2     3
  H     1.09822603 +1  120.8165686 +1 -179.4989234 +1     2     1     3
  H     1.10141024 +1  120.0514584 +1  179.9027962 +1     4     3     2
  H     1.09834070 +1  121.5037755 +1 -179.5820606 +1     6     1     2
  N     1.44367872 +1  118.8968742 +1  179.9230296 +1     5     4     3
  O     1.22130475 +1  119.2066820 +1 -177.2771092 +1    10     5     4
  O     1.22633276 +1  118.8507451 +1    2.5089587 +1    10     5     4
  C     1.44224790 +1  121.5940598 +1  179.7019615 +1     3     2     1
  H     3.35728833 +1  106.5643091 +1   54.2791118 +1    13     3     2
  C     1.48861385 +1  118.8169191 +1  150.7351340 +1    13     3     2
  H     1.10042765 +1  112.8265034 +1 -161.0119044 +1    15    13     3
  H     1.10632544 +1  110.4929014 +1   80.1633277 +1    15    13     3
  H     1.09792066 +1  112.8431827 +1  -40.1779004 +1    15    13     3
  N     1.33930299 +1  121.3582429 +1  -33.5057477 +1    13     3     2
  O     1.25603161 +1  121.8661473 +1  178.1232281 +1    19    13     3
  O     1.26211906 +1  121.2112968 +1   -4.4145083 +1    19    13     3
  O     3.76691171 +1  172.7496958 +1 -100.1412955 +1    14    13     3
  H     0.96220103 +1  111.7578003 +1  170.1911615 +1    22    14    13
  N     1.44715711 +1  119.1364097 +1  179.6513555 +1     1     2     3
  O     1.22429139 +1  119.1004489 +1 -178.1608306 +1    24     1     2
  O     1.22793795 +1  119.0586699 +1    1.3502717 +1    24     1     2
  H     1.50088614 +1  137.1299940 +1   34.9627364 +1    14    13     3
  H     0.96314318 +1    7.6809226 +1  178.6178438 +1    22    14    13
  O     0.95115311 +1  169.8979608 +1   97.6435440 +1    14    13     3

 TIME=     1.12
  REACTANTS AND PRODUCTS SWAPPED AROUND
 *+*+*+*+*+*+*+*+*+*+*+*+*+*+*+*+*+*+*+*+*+*+*+*+*+*+*+*+*+*+*+*+*+*+*+*+*+*+*+*+
            BAR SHORTENED BY       0.000 PERCENT
 GRADIENT CRITERION IN FLEPO =    10.000


          FOR POINT   18 FIRST  STRUCTURE
 DISTANCE A - B      2.809696
 HEAT             -226.197682
 GRADIENT NORM      31.793296
 DIRECTION COSINE    0.462489
* ===============================
* Input file for Mopac
* ===============================
 PM7 BONDS AUX DUMP=30M ITRY=15000 T=14D CHARGE=-1 SINGLET eps=78.4 RELSCF=1


  C     0.00000000 +0    0.0000000 +0    0.0000000 +0     0     0     0
  C     1.39520661 +1    0.0000000 +0    0.0000000 +0     1     0     0
  C     1.39289269 +1  119.7380402 +1    0.0000000 +0     2     1     0
  C     1.39374592 +1  119.5398955 +1    0.3425618 +1     3     2     1
  C     1.40851034 +1  119.7051421 +1   -1.1299070 +1     4     3     2
  C     1.39278038 +1  121.6020878 +1    1.0141978 +1     5     4     3
  H     1.10058020 +1  119.5743933 +1 -179.4637792 +1     2     1     3
  H     1.10253565 +1  120.9117167 +1  178.8061937 +1     4     3     2
  H     1.10765810 +1  121.4622243 +1 -179.8641472 +1     6     5     4
  N     1.45050599 +1  119.3000721 +1 -178.6398904 +1     5     4     3
  O     1.22304784 +1  118.4453706 +1 -179.4927956 +1    10     5     4
  O     1.21673084 +1  119.6307895 +1    0.3326591 +1    10     5     4
  C     1.51408528 +1  118.9747919 +1  179.8787907 +1     3     2     1
  H     1.12606649 +1  108.7120060 +1   55.2657217 +1    13     3     2
  C     1.52075516 +1  115.5569307 +1  177.7114656 +1    13     3     2
  H     1.10350586 +1  111.9354025 +1 -179.5868768 +1    15    13     3
  H     1.10369011 +1  113.7333444 +1   60.4067363 +1    15    13     3
  H     1.09935836 +1  111.6895733 +1  -60.7645180 +1    15    13     3
  N     1.50871534 +1  110.0346166 +1  -60.9956996 +1    13     3     2
  O     1.22434667 +1  117.6343553 +1  179.7010827 +1    19    13     3
  O     1.21793980 +1  119.6508323 +1    0.3803554 +1    19    13     3
  O     5.79152450 +1  173.1650007 +1  -16.7164304 +1    14    13     3
  H     0.91799510 +1  116.9796265 +1  131.4778287 +1    22    14    13
  N     1.45066698 +1  119.3634864 +1 -179.4332313 +1     1     2     3
  O     1.22071258 +1  118.6744017 +1  179.4201317 +1    24     1     2
  O     1.21668902 +1  118.7601462 +1   -0.1148738 +1    24     1     2
  H     2.90504932 +1    7.4742853 +1   26.1248595 +1    22    14    13
  H     1.31056368 +1   10.1850521 +1  169.7288105 +1    22    14    13
  O     0.92899752 +1   52.3878386 +1   20.4894295 +1    27    22    14

 TIME=     0.43
  REACTANTS AND PRODUCTS SWAPPED AROUND
 *+*+*+*+*+*+*+*+*+*+*+*+*+*+*+*+*+*+*+*+*+*+*+*+*+*+*+*+*+*+*+*+*+*+*+*+*+*+*+*+
            BAR SHORTENED BY       1.000 PERCENT
 GRADIENT CRITERION IN FLEPO =    10.000


          FOR POINT   19 SECOND STRUCTURE
 DISTANCE A - B      2.781599
 HEAT             -250.700102
 GRADIENT NORM      17.706293
 DIRECTION COSINE   -0.065606
* ===============================
* Input file for Mopac
* ===============================
 PM7 BONDS AUX DUMP=30M ITRY=15000 T=14D CHARGE=-1 SINGLET eps=78.4 RELSCF=1


  C     0.00000000 +0    0.0000000 +0    0.0000000 +0     0     0     0
  C     1.39747655 +1    0.0000000 +0    0.0000000 +0     1     0     0
  C     1.40316441 +1  119.8249272 +1    0.0000000 +0     2     1     0
  C     1.40306678 +1  119.2785310 +1   -0.5630827 +1     3     2     1
  C     1.39627291 +1  119.6027891 +1    0.4342849 +1     4     3     2
  C     1.39671156 +1  121.9686156 +1    0.1419682 +1     5     4     3
  H     1.10223399 +1  120.5398629 +1 -179.5945410 +1     2     1     3
  H     1.09895921 +1  120.0625912 +1 -179.9402564 +1     4     3     2
  H     1.09865933 +1  121.0967663 +1  179.5137590 +1     6     5     4
  N     1.44603053 +1  118.7310998 +1  179.8505549 +1     5     4     3
  O     1.22260071 +1  119.0939923 +1 -177.3671844 +1    10     5     4
  O     1.22351085 +1  118.9897572 +1    2.6650133 +1    10     5     4
  C     1.44235642 +1  121.6266279 +1  179.7004487 +1     3     2     1
  H     3.33984579 +1  106.7552039 +1   53.9535253 +1    13     3     2
  C     1.49472082 +1  119.4355206 +1  151.2791037 +1    13     3     2
  H     1.11655073 +1  112.5041775 +1 -162.0414498 +1    15    13     3
  H     1.09922649 +1  110.7329851 +1   78.7921595 +1    15    13     3
  H     1.10873081 +1  111.6733699 +1  -40.4095492 +1    15    13     3
  N     1.33999616 +1  121.1778929 +1  -34.0979440 +1    13     3     2
  O     1.25856500 +1  121.7356609 +1  178.4382743 +1    19    13     3
  O     1.26024192 +1  121.4222093 +1   -3.9415873 +1    19    13     3
  O     3.77730813 +1  173.2224701 +1  -96.6221757 +1    14    13     3
  H     0.96278686 +1  112.3100163 +1  167.6483770 +1    22    14    13
  N     1.44809235 +1  119.1003496 +1  179.7187009 +1     1     2     3
  O     1.22364507 +1  118.9404285 +1 -178.1022589 +1    24     1     2
  O     1.22314459 +1  119.1105083 +1    1.4506194 +1    24     1     2
  H     1.52023795 +1  136.7760274 +1   34.8296619 +1    14    13     3
  H     0.95897517 +1    7.4114877 +1  178.5943166 +1    22    14    13
  O     0.96506763 +1  168.8242461 +1   92.4727556 +1    14    13     3

 TIME=     0.25
  REACTANTS AND PRODUCTS SWAPPED AROUND
 *+*+*+*+*+*+*+*+*+*+*+*+*+*+*+*+*+*+*+*+*+*+*+*+*+*+*+*+*+*+*+*+*+*+*+*+*+*+*+*+
            BAR SHORTENED BY       1.000 PERCENT
 GRADIENT CRITERION IN FLEPO =    10.000


          FOR POINT   20 FIRST  STRUCTURE
 DISTANCE A - B      2.753783
 HEAT             -226.336706
 GRADIENT NORM      11.735811
 DIRECTION COSINE    0.009227
* ===============================
* Input file for Mopac
* ===============================
 PM7 BONDS AUX DUMP=30M ITRY=15000 T=14D CHARGE=-1 SINGLET eps=78.4 RELSCF=1


  C     0.00000000 +0    0.0000000 +0    0.0000000 +0     0     0     0
  C     1.39954052 +1    0.0000000 +0    0.0000000 +0     1     0     0
  C     1.39835415 +1  119.5939346 +1    0.0000000 +0     2     1     0
  C     1.39475127 +1  119.3583605 +1    0.0125042 +1     3     2     1
  C     1.40263999 +1  119.9619247 +1   -0.9437274 +1     4     3     2
  C     1.39641582 +1  121.7328377 +1    1.0958173 +1     5     4     3
  H     1.10323990 +1  119.7161294 +1 -179.7473360 +1     2     1     3
  H     1.10075215 +1  120.7309610 +1  179.2269948 +1     4     3     2
  H     1.10251663 +1  121.5706236 +1 -179.8685491 +1     6     5     4
  N     1.44991775 +1  119.5328404 +1 -178.7345104 +1     5     4     3
  O     1.22272482 +1  118.6527808 +1 -179.4210500 +1    10     5     4
  O     1.22209440 +1  119.3338103 +1    0.2699368 +1    10     5     4
  C     1.50927070 +1  118.7750828 +1 -179.9237537 +1     3     2     1
  H     1.14321439 +1  109.2330648 +1   55.0018561 +1    13     3     2
  C     1.52449127 +1  115.4992443 +1  177.4358854 +1    13     3     2
  H     1.10441558 +1  111.8829744 +1 -179.5360463 +1    15    13     3
  H     1.09923358 +1  113.6762559 +1   60.0958614 +1    15    13     3
  H     1.10243485 +1  111.3903684 +1  -60.9685624 +1    15    13     3
  N     1.50728726 +1  110.2126411 +1  -61.2691274 +1    13     3     2
  O     1.21940305 +1  117.9449362 +1 -179.9618778 +1    19    13     3
  O     1.21803186 +1  119.4858599 +1    0.9790531 +1    19    13     3
  O     5.77499335 +1  172.9296087 +1  -17.1853590 +1    14    13     3
  H     0.91618175 +1  116.0791856 +1  131.4615713 +1    22    14    13
  N     1.44646941 +1  119.2549368 +1 -179.2975563 +1     1     2     3
  O     1.22225311 +1  118.7888900 +1  179.4614030 +1    24     1     2
  O     1.22255289 +1  118.8200485 +1   -0.0296272 +1    24     1     2
  H     2.89998907 +1    7.9095099 +1   25.4839812 +1    22    14    13
  H     1.30233227 +1   10.1573769 +1  167.8193082 +1    22    14    13
  O     0.93867930 +1   53.4720933 +1   19.9195719 +1    27    22    14

 TIME=     0.28
  REACTANTS AND PRODUCTS SWAPPED AROUND
 *+*+*+*+*+*+*+*+*+*+*+*+*+*+*+*+*+*+*+*+*+*+*+*+*+*+*+*+*+*+*+*+*+*+*+*+*+*+*+*+
            BAR SHORTENED BY       1.000 PERCENT
 GRADIENT CRITERION IN FLEPO =     8.736


          FOR POINT   21 SECOND STRUCTURE
 DISTANCE A - B      2.726245
 HEAT             -250.649296
 GRADIENT NORM      23.014196
 DIRECTION COSINE   -0.073225
* ===============================
* Input file for Mopac
* ===============================
 PM7 BONDS AUX DUMP=30M ITRY=15000 T=14D CHARGE=-1 SINGLET eps=78.4 RELSCF=1


  C     0.00000000 +0    0.0000000 +0    0.0000000 +0     0     0     0
  C     1.39452827 +1    0.0000000 +0    0.0000000 +0     1     0     0
  C     1.40302160 +1  119.8127881 +1    0.0000000 +0     2     1     0
  C     1.40227232 +1  119.1740277 +1   -0.8044474 +1     3     2     1
  C     1.39440112 +1  119.7585195 +1    0.6323506 +1     4     3     2
  C     1.39789722 +1  121.9671461 +1   -0.0262339 +1     5     4     3
  H     1.09919665 +1  120.3751803 +1 -179.9552261 +1     2     1     3
  H     1.10344138 +1  119.8078313 +1  179.9931844 +1     4     3     2
  H     1.09443343 +1  121.0683218 +1  179.7074792 +1     6     5     4
  N     1.44687701 +1  118.8455091 +1 -179.9474445 +1     5     4     3
  O     1.22201879 +1  119.1373405 +1 -177.3731840 +1    10     5     4
  O     1.22214233 +1  119.0359522 +1    2.0851816 +1    10     5     4
  C     1.44589983 +1  121.5968202 +1  179.1985481 +1     3     2     1
  H     3.32748431 +1  106.4219194 +1   54.1495390 +1    13     3     2
  C     1.49022631 +1  119.1227432 +1  151.2838159 +1    13     3     2
  H     1.10833615 +1  112.4370163 +1 -162.0321369 +1    15    13     3
  H     1.10199740 +1  110.3896886 +1   79.0918393 +1    15    13     3
  H     1.10353445 +1  111.9554448 +1  -40.0721154 +1    15    13     3
  N     1.33550154 +1  121.0799943 +1  -34.2700988 +1    13     3     2
  O     1.25908216 +1  121.7199300 +1  178.1569897 +1    19    13     3
  O     1.26075695 +1  121.3182803 +1   -3.5958732 +1    19    13     3
  O     3.78740535 +1  173.2835906 +1  -96.8470595 +1    14    13     3
  H     0.96285066 +1  112.6241840 +1  168.5425156 +1    22    14    13
  N     1.45068768 +1  119.1606218 +1  179.5378731 +1     1     2     3
  O     1.22165067 +1  119.3331346 +1 -178.0492058 +1    24     1     2
  O     1.22553602 +1  118.9609754 +1    2.1522139 +1    24     1     2
  H     1.52121054 +1  137.1892711 +1   34.4200605 +1    14    13     3
  H     0.96026210 +1    7.7772913 +1  176.9047636 +1    22    14    13
  O     0.96753410 +1   38.6905080 +1  164.2978871 +1    27    14    13

 TIME=     0.28
  REACTANTS AND PRODUCTS SWAPPED AROUND
 *+*+*+*+*+*+*+*+*+*+*+*+*+*+*+*+*+*+*+*+*+*+*+*+*+*+*+*+*+*+*+*+*+*+*+*+*+*+*+*+
            BAR SHORTENED BY       1.000 PERCENT
 GRADIENT CRITERION IN FLEPO =    10.000


          FOR POINT   22 FIRST  STRUCTURE
 DISTANCE A - B      2.698983
 HEAT             -226.291180
 GRADIENT NORM      20.253395
 DIRECTION COSINE    0.417253
* ===============================
* Input file for Mopac
* ===============================
 PM7 BONDS AUX DUMP=30M ITRY=15000 T=14D CHARGE=-1 SINGLET eps=78.4 RELSCF=1


  C     0.00000000 +0    0.0000000 +0    0.0000000 +0     0     0     0
  C     1.39957905 +1    0.0000000 +0    0.0000000 +0     1     0     0
  C     1.39899511 +1  119.6357591 +1    0.0000000 +0     2     1     0
  C     1.39553271 +1  119.2744832 +1   -0.4931592 +1     3     2     1
  C     1.40212165 +1  120.2003163 +1   -0.3526483 +1     4     3     2
  C     1.39659804 +1  121.3263514 +1    0.7066567 +1     5     4     3
  H     1.10288411 +1  119.6970681 +1  179.9920808 +1     2     1     3
  H     1.09360683 +1  120.8023079 +1  179.1481187 +1     4     3     2
  H     1.10837243 +1  121.3646938 +1 -179.9264044 +1     6     5     4
  N     1.44515185 +1  119.8119034 +1 -179.1689189 +1     5     4     3
  O     1.22242832 +1  118.6881833 +1 -179.9234810 +1    10     5     4
  O     1.22277139 +1  119.0951617 +1    0.5612196 +1    10     5     4
  C     1.50764644 +1  118.8317245 +1 -179.6893431 +1     3     2     1
  H     1.15738148 +1  109.6522391 +1   54.6457628 +1    13     3     2
  C     1.52695456 +1  115.5550977 +1  176.9218540 +1    13     3     2
  H     1.10447721 +1  111.9152900 +1 -179.6075573 +1    15    13     3
  H     1.10275484 +1  113.6494069 +1   60.2364780 +1    15    13     3
  H     1.10051648 +1  111.2584480 +1  -60.9706750 +1    15    13     3
  N     1.50600200 +1  110.3060779 +1  -61.6057786 +1    13     3     2
  O     1.22027509 +1  118.1080476 +1 -179.8046671 +1    19    13     3
  O     1.21946762 +1  119.3421516 +1    1.4159060 +1    19    13     3
  O     5.75699138 +1  172.6694204 +1  -17.5508572 +1    14    13     3
  H     0.91829421 +1  115.9432414 +1  131.6890935 +1    22    14    13
  N     1.44467452 +1  119.2178388 +1 -178.7990778 +1     1     2     3
  O     1.21912505 +1  118.7096187 +1  179.7258154 +1    24     1     2
  O     1.21883537 +1  118.8068405 +1   -0.4404635 +1    24     1     2
  H     2.89346757 +1    8.0336860 +1   27.1410979 +1    22    14    13
  H     1.29460139 +1   10.2926047 +1  167.4982063 +1    22    14    13
  O     0.93066334 +1   53.8394634 +1   21.0995979 +1    27    22    14

 TIME=     0.28
  REACTANTS AND PRODUCTS SWAPPED AROUND
 *+*+*+*+*+*+*+*+*+*+*+*+*+*+*+*+*+*+*+*+*+*+*+*+*+*+*+*+*+*+*+*+*+*+*+*+*+*+*+*+
            BAR SHORTENED BY       1.000 PERCENT
 GRADIENT CRITERION IN FLEPO =    10.000


          FOR POINT   23 SECOND STRUCTURE
 DISTANCE A - B      2.671993
 HEAT             -250.719784
 GRADIENT NORM      15.985273
 DIRECTION COSINE    0.271398
* ===============================
* Input file for Mopac
* ===============================
 PM7 BONDS AUX DUMP=30M ITRY=15000 T=14D CHARGE=-1 SINGLET eps=78.4 RELSCF=1


  C     0.00000000 +0    0.0000000 +0    0.0000000 +0     0     0     0
  C     1.39682231 +1    0.0000000 +0    0.0000000 +0     1     0     0
  C     1.40515084 +1  119.9425204 +1    0.0000000 +0     2     1     0
  C     1.40228410 +1  118.9799636 +1   -0.7243682 +1     3     2     1
  C     1.39560222 +1  119.7831887 +1    0.4627289 +1     4     3     2
  C     1.39579991 +1  122.0540457 +1    0.2476777 +1     5     4     3
  H     1.09846180 +1  120.8190389 +1 -179.6791513 +1     2     1     3
  H     1.10027040 +1  119.7869288 +1  179.9641358 +1     4     3     2
  H     1.09854626 +1  120.9853310 +1  179.2937356 +1     6     5     4
  N     1.44736183 +1  118.7070965 +1  179.8753147 +1     5     4     3
  O     1.22126751 +1  119.1701109 +1 -177.6716499 +1    10     5     4
  O     1.22271592 +1  119.0718214 +1    2.4015086 +1    10     5     4
  C     1.44153246 +1  121.7081789 +1  179.1480252 +1     3     2     1
  H     3.32791881 +1  106.3858311 +1   54.2230166 +1    13     3     2
  C     1.48833471 +1  119.2749801 +1  151.4565067 +1    13     3     2
  H     1.10097221 +1  112.5611753 +1 -162.0206013 +1    15    13     3
  H     1.10272014 +1  110.1698059 +1   79.2076636 +1    15    13     3
  H     1.09318088 +1  112.9383810 +1  -40.6110393 +1    15    13     3
  N     1.33877410 +1  120.8144695 +1  -34.7642105 +1    13     3     2
  O     1.25825640 +1  121.6718934 +1  179.7038890 +1    19    13     3
  O     1.26007376 +1  121.5240306 +1   -2.8628923 +1    19    13     3
  O     3.78656141 +1  173.3565735 +1  -93.6755789 +1    14    13     3
  H     0.96035715 +1  112.9024562 +1  166.7395781 +1    22    14    13
  N     1.44669545 +1  119.1278341 +1  179.4588341 +1     1     2     3
  O     1.22448483 +1  119.1847530 +1 -178.2426400 +1    24     1     2
  O     1.22509842 +1  119.1833963 +1    2.1978616 +1    24     1     2
  H     1.50952360 +1  136.9114872 +1   33.6041294 +1    14    13     3
  H     0.96278104 +1    8.0548444 +1  173.9741361 +1    22    14    13
  O     0.96310595 +1  169.0869876 +1   93.8906183 +1    14    13     3

 *+*+*+*+*+*+*+*+*+*+*+*+*+*+*+*+*+*+*+*+*+*+*+*+*+*+*+*+*+*+*+*+*+*+*+*+*+*+*+*+
            BAR SHORTENED BY       1.000 PERCENT
 GRADIENT CRITERION IN FLEPO =    10.000


          FOR POINT   24 SECOND STRUCTURE
 DISTANCE A - B      2.645273
 HEAT             -250.754738
 GRADIENT NORM      23.433849
 DIRECTION COSINE    0.367909
* ===============================
* Input file for Mopac
* ===============================
 PM7 BONDS AUX DUMP=30M ITRY=15000 T=14D CHARGE=-1 SINGLET eps=78.4 RELSCF=1


  C     0.00000000 +0    0.0000000 +0    0.0000000 +0     0     0     0
  C     1.39785431 +1    0.0000000 +0    0.0000000 +0     1     0     0
  C     1.40447052 +1  119.5274100 +1    0.0000000 +0     2     1     0
  C     1.40202630 +1  119.2480911 +1   -0.9916304 +1     3     2     1
  C     1.39471288 +1  119.9284832 +1    0.6390470 +1     4     3     2
  C     1.39195617 +1  122.0137926 +1    0.2784579 +1     1     2     3
  H     1.09727810 +1  120.8691485 +1  179.9005444 +1     2     1     3
  H     1.10042784 +1  119.9523090 +1 -179.7318371 +1     4     3     2
  H     1.09976278 +1  121.5096191 +1 -179.8887344 +1     6     1     2
  N     1.44272958 +1  119.1473931 +1  179.7665676 +1     5     4     3
  O     1.22279151 +1  119.3684039 +1 -177.6539912 +1    10     5     4
  O     1.22608628 +1  118.8265066 +1    2.5342244 +1    10     5     4
  C     1.44143917 +1  121.6435040 +1  178.8714401 +1     3     2     1
  H     3.32121096 +1  106.2731832 +1   54.0808251 +1    13     3     2
  C     1.49237954 +1  119.4587969 +1  151.6048012 +1    13     3     2
  H     1.09894238 +1  112.7400638 +1 -161.9128563 +1    15    13     3
  H     1.10197044 +1  110.1723822 +1   79.1414880 +1    15    13     3
  H     1.09971708 +1  112.4917900 +1  -40.8102880 +1    15    13     3
  N     1.34096576 +1  120.7570579 +1  -35.2515470 +1    13     3     2
  O     1.26458242 +1  121.8496048 +1  179.2408183 +1    19    13     3
  O     1.25810288 +1  121.1428137 +1   -2.2012313 +1    19    13     3
  O     3.79350880 +1  173.5741451 +1  -89.8729043 +1    14    13     3
  H     0.96334057 +1  113.1847217 +1  164.0815770 +1    22    14    13
  N     1.45166114 +1  118.8894490 +1  179.7685957 +1     1     2     3
  O     1.22284816 +1  119.0847223 +1 -178.1255479 +1    24     1     2
  O     1.22320008 +1  119.1581549 +1    2.0677025 +1    24     1     2
  H     1.51082826 +1  136.5871467 +1   33.1034228 +1    14    13     3
  H     0.96192115 +1    8.1622355 +1  172.2162444 +1    22    14    13
  O     0.96617729 +1   38.5862032 +1  164.2531974 +1    27    14    13

 *+*+*+*+*+*+*+*+*+*+*+*+*+*+*+*+*+*+*+*+*+*+*+*+*+*+*+*+*+*+*+*+*+*+*+*+*+*+*+*+
            BAR SHORTENED BY       1.000 PERCENT
 GRADIENT CRITERION IN FLEPO =    10.000


          FOR POINT   25 SECOND STRUCTURE
 DISTANCE A - B      2.618820
 HEAT             -250.863931
 GRADIENT NORM      21.440377
 DIRECTION COSINE    0.217297
* ===============================
* Input file for Mopac
* ===============================
 PM7 BONDS AUX DUMP=30M ITRY=15000 T=14D CHARGE=-1 SINGLET eps=78.4 RELSCF=1


  C     0.00000000 +0    0.0000000 +0    0.0000000 +0     0     0     0
  C     1.39764185 +1    0.0000000 +0    0.0000000 +0     1     0     0
  C     1.40213636 +1  119.7528046 +1    0.0000000 +0     2     1     0
  C     1.39959625 +1  119.2366690 +1   -1.3385296 +1     3     2     1
  C     1.39881283 +1  119.8544395 +1    1.4663279 +1     4     3     2
  C     1.39658148 +1  121.7338354 +1   -0.4868233 +1     5     4     3
  H     1.10012148 +1  120.5978839 +1 -179.9174474 +1     2     1     3
  H     1.09978018 +1  120.1031448 +1  179.8956976 +1     4     3     2
  H     1.09726587 +1  121.0814525 +1  179.9860716 +1     6     5     4
  N     1.44539810 +1  119.0082523 +1  179.3049183 +1     5     4     3
  O     1.22309002 +1  119.1618510 +1 -178.2044978 +1    10     5     4
  O     1.22308186 +1  119.0189813 +1    2.1935551 +1    10     5     4
  C     1.44579127 +1  121.9079023 +1  178.4012452 +1     3     2     1
  H     3.32259777 +1  105.8741049 +1   54.4052732 +1    13     3     2
  C     1.48909343 +1  119.3687561 +1  151.7607528 +1    13     3     2
  H     1.09719815 +1  112.8368612 +1 -161.4024347 +1    15    13     3
  H     1.09993852 +1  110.5851589 +1   79.5391748 +1    15    13     3
  H     1.09868792 +1  112.7308100 +1  -40.4340270 +1    15    13     3
  N     1.33714529 +1  120.7822562 +1  -34.2805395 +1    13     3     2
  O     1.25740963 +1  121.9309699 +1  178.8526226 +1    19    13     3
  O     1.26091428 +1  121.1210048 +1   -3.4209837 +1    19    13     3
  O     3.79773499 +1  173.7196193 +1  -82.9455223 +1    14    13     3
  H     0.95622974 +1  113.6091996 +1  159.3729236 +1    22    14    13
  N     1.44638042 +1  118.8765893 +1  179.9431916 +1     1     2     3
  O     1.21975980 +1  118.8346758 +1 -178.3957156 +1    24     1     2
  O     1.21838259 +1  119.3304672 +1    1.4224636 +1    24     1     2
  H     1.51609678 +1  136.0811927 +1   32.3402594 +1    14    13     3
  H     0.96014310 +1    8.0600252 +1  172.6094663 +1    22    14    13
  O     0.96697438 +1  168.4349764 +1   88.6208326 +1    14    13     3

 TIME=     1.04
  REACTANTS AND PRODUCTS SWAPPED AROUND
 *+*+*+*+*+*+*+*+*+*+*+*+*+*+*+*+*+*+*+*+*+*+*+*+*+*+*+*+*+*+*+*+*+*+*+*+*+*+*+*+
            BAR SHORTENED BY       0.000 PERCENT
 GRADIENT CRITERION IN FLEPO =    10.000


          FOR POINT   26 FIRST  STRUCTURE
 DISTANCE A - B      2.618820
 HEAT             -226.568448
 GRADIENT NORM      13.451476
 DIRECTION COSINE   -0.091238
* ===============================
* Input file for Mopac
* ===============================
 PM7 BONDS AUX DUMP=30M ITRY=15000 T=14D CHARGE=-1 SINGLET eps=78.4 RELSCF=1


  C     0.00000000 +0    0.0000000 +0    0.0000000 +0     0     0     0
  C     1.39962370 +1    0.0000000 +0    0.0000000 +0     1     0     0
  C     1.39818047 +1  119.5830138 +1    0.0000000 +0     2     1     0
  C     1.39452375 +1  119.2401314 +1   -0.2923868 +1     3     2     1
  C     1.40235966 +1  120.2135314 +1   -0.6785587 +1     4     3     2
  C     1.39576287 +1  121.4813458 +1    1.0259203 +1     5     4     3
  H     1.10183475 +1  119.6238330 +1 -179.9702459 +1     2     1     3
  H     1.09936731 +1  120.8565740 +1  179.1921056 +1     4     3     2
  H     1.10357065 +1  121.4818456 +1 -179.9809690 +1     6     5     4
  N     1.44912598 +1  119.7957833 +1 -178.9199743 +1     5     4     3
  O     1.22057672 +1  118.6511109 +1 -179.6685435 +1    10     5     4
  O     1.22252875 +1  118.9779448 +1    0.5032040 +1    10     5     4
  C     1.51106860 +1  118.7761839 +1 -179.5268435 +1     3     2     1
  H     1.13626700 +1  109.6916831 +1   54.5145436 +1    13     3     2
  C     1.52649451 +1  115.3291813 +1  177.2502241 +1    13     3     2
  H     1.10407826 +1  111.8428604 +1 -179.6994492 +1    15    13     3
  H     1.10031456 +1  114.1061401 +1   59.9744088 +1    15    13     3
  H     1.10367548 +1  111.1734075 +1  -61.3697090 +1    15    13     3
  N     1.50900710 +1  110.0144228 +1  -61.8209511 +1    13     3     2
  O     1.22090323 +1  117.8220673 +1 -179.4814637 +1    19    13     3
  O     1.21836831 +1  119.5487937 +1    1.5407869 +1    19    13     3
  O     5.76738068 +1  172.8346111 +1  -17.5573827 +1    14    13     3
  H     0.91269656 +1  115.3001744 +1  138.3516873 +1    22    14    13
  N     1.44499668 +1  119.1625688 +1 -178.8286945 +1     1     2     3
  O     1.22342208 +1  118.7439744 +1  179.6191752 +1    24     1     2
  O     1.22110154 +1  118.8468417 +1   -0.4231441 +1    24     1     2
[...]




          FINAL HEAT OF FORMATION =       -227.19673 KCAL/MOL =    -950.59112 KJ/MOL
          VAN DER WAALS AREA      =        282.81 SQUARE ANGSTROMS



          DIELECTRIC ENERGY       =         -3.34820 EV
          COSMO AREA              =        282.81 SQUARE ANGSTROMS
          COSMO VOLUME            =        294.40 CUBIC ANGSTROMS

          GRADIENT NORM           =          6.32591          =       1.17469 PER ATOM
          IONIZATION POTENTIAL    =         10.082610 EV
          HOMO LUMO ENERGIES (EV) =        -10.083 -1.844
          NO. OF FILLED LEVELS    =         53
          MOLECULAR WEIGHT        =        276.1823         POINT GROUP:  C1  

          MOLECULAR DIMENSIONS (Angstroms)

            Atom       Atom       Distance
            H    23    O    11    10.04890
            O    25    H    16     7.31805
            O    21    O    12     4.62950


          SCF CALCULATIONS        =          1

          WALL-CLOCK TIME         =          4 MINUTES AND 15.547 SECONDS
          COMPUTATION TIME        =          5 HOURS 7 MINUTES AND 54.479 SECONDS



       FINAL  POINT  AND  DERIVATIVES

   PARAMETER     ATOM    TYPE            VALUE        GRADIENT
      1          1  C    CARTESIAN X     0.945012      0.074464  KCAL/ANGSTROM
      2          1  C    CARTESIAN Y     1.441458      0.246673  KCAL/ANGSTROM
      3          1  C    CARTESIAN Z     0.379905      0.133083  KCAL/ANGSTROM
      4          2  C    CARTESIAN X     1.512446      0.241723  KCAL/ANGSTROM
      5          2  C    CARTESIAN Y     0.787657      0.255094  KCAL/ANGSTROM
      6          2  C    CARTESIAN Z    -0.720084     -0.116221  KCAL/ANGSTROM
      7          3  C    CARTESIAN X     1.200752     -0.071689  KCAL/ANGSTROM
      8          3  C    CARTESIAN Y    -0.554449     -0.043630  KCAL/ANGSTROM
      9          3  C    CARTESIAN Z    -0.968057      0.198897  KCAL/ANGSTROM
     10          4  C    CARTESIAN X     0.348326     -0.605433  KCAL/ANGSTROM
     11          4  C    CARTESIAN Y    -1.232819      0.041095  KCAL/ANGSTROM
     12          4  C    CARTESIAN Z    -0.096700      0.511974  KCAL/ANGSTROM
     13          5  C    CARTESIAN X    -0.187197      0.449092  KCAL/ANGSTROM
     14          5  C    CARTESIAN Y    -0.564341      0.510803  KCAL/ANGSTROM
     15          5  C    CARTESIAN Z     1.013165     -0.317278  KCAL/ANGSTROM
     16          6  C    CARTESIAN X     0.092299     -0.559418  KCAL/ANGSTROM
     17          6  C    CARTESIAN Y     0.778634     -1.216833  KCAL/ANGSTROM
     18          6  C    CARTESIAN Z     1.266810      0.127149  KCAL/ANGSTROM
     19          7  H    CARTESIAN X     2.194630     -0.125497  KCAL/ANGSTROM
     20          7  H    CARTESIAN Y     1.333260      0.134903  KCAL/ANGSTROM
     21          7  H    CARTESIAN Z    -1.390545      0.205913  KCAL/ANGSTROM
     22          8  H    CARTESIAN X     0.086573      0.116983  KCAL/ANGSTROM
     23          8  H    CARTESIAN Y    -2.287712      0.225527  KCAL/ANGSTROM
     24          8  H    CARTESIAN Z    -0.268628     -0.001764  KCAL/ANGSTROM
     25          9  H    CARTESIAN X    -0.345120     -0.161139  KCAL/ANGSTROM
     26          9  H    CARTESIAN Y     1.299443      0.244010  KCAL/ANGSTROM
     27          9  H    CARTESIAN Z     2.134490      0.336408  KCAL/ANGSTROM
     28         10  N    CARTESIAN X    -1.064265     -0.825340  KCAL/ANGSTROM
     29         10  N    CARTESIAN Y    -1.278330      0.723881  KCAL/ANGSTROM
     30         10  N    CARTESIAN Z     1.916336      1.270236  KCAL/ANGSTROM
     31         11  O    CARTESIAN X    -1.533588      0.481286  KCAL/ANGSTROM
     32         11  O    CARTESIAN Y    -0.684757     -0.237858  KCAL/ANGSTROM
     33         11  O    CARTESIAN Z     2.875692     -0.605608  KCAL/ANGSTROM
     34         12  O    CARTESIAN X    -1.310958     -0.029710  KCAL/ANGSTROM
     35         12  O    CARTESIAN Y    -2.455387     -0.153251  KCAL/ANGSTROM
     36         12  O    CARTESIAN Z     1.694515     -0.160870  KCAL/ANGSTROM
     37         13  C    CARTESIAN X     1.793165     -0.940997  KCAL/ANGSTROM
     38         13  C    CARTESIAN Y    -1.219120      0.103235  KCAL/ANGSTROM
     39         13  C    CARTESIAN Z    -2.174970     -0.117455  KCAL/ANGSTROM
     40         14  H    CARTESIAN X     3.008398      0.459402  KCAL/ANGSTROM
     41         14  H    CARTESIAN Y    -1.063648      0.127122  KCAL/ANGSTROM
     42         14  H    CARTESIAN Z    -2.152892     -0.089863  KCAL/ANGSTROM
     43         15  C    CARTESIAN X     1.537358     -0.213781  KCAL/ANGSTROM
     44         15  C    CARTESIAN Y    -2.711576     -0.158838  KCAL/ANGSTROM
     45         15  C    CARTESIAN Z    -2.282642      0.263805  KCAL/ANGSTROM
     46         16  H    CARTESIAN X     2.021046     -0.435538  KCAL/ANGSTROM
     47         16  H    CARTESIAN Y    -3.151377     -0.182816  KCAL/ANGSTROM
     48         16  H    CARTESIAN Z    -3.169323     -0.359313  KCAL/ANGSTROM
     49         17  H    CARTESIAN X     0.468279     -0.108625  KCAL/ANGSTROM
     50         17  H    CARTESIAN Y    -2.958767      0.233156  KCAL/ANGSTROM
     51         17  H    CARTESIAN Z    -2.357918     -0.103731  KCAL/ANGSTROM
     52         18  H    CARTESIAN X     1.940103     -0.236400  KCAL/ANGSTROM
     53         18  H    CARTESIAN Y    -3.249105      0.082111  KCAL/ANGSTROM
     54         18  H    CARTESIAN Z    -1.410511     -0.139641  KCAL/ANGSTROM
     55         19  N    CARTESIAN X     1.334967      1.003111  KCAL/ANGSTROM
     56         19  N    CARTESIAN Y    -0.550413     -1.621393  KCAL/ANGSTROM
     57         19  N    CARTESIAN Z    -3.413165     -0.436506  KCAL/ANGSTROM
     58         20  O    CARTESIAN X     1.607896     -0.143831  KCAL/ANGSTROM
     59         20  O    CARTESIAN Y    -1.050304      0.368112  KCAL/ANGSTROM
     60         20  O    CARTESIAN Z    -4.495192      0.402943  KCAL/ANGSTROM
     61         21  O    CARTESIAN X     0.721668     -1.884040  KCAL/ANGSTROM
     62         21  O    CARTESIAN Y     0.507824      1.191339  KCAL/ANGSTROM
     63         21  O    CARTESIAN Z    -3.339361      0.274191  KCAL/ANGSTROM
     64         22  O    CARTESIAN X     6.990099      3.353264  KCAL/ANGSTROM
     65         22  O    CARTESIAN Y    -0.619880     -0.089051  KCAL/ANGSTROM
     66         22  O    CARTESIAN Z    -2.405423      1.265101  KCAL/ANGSTROM
     67         23  H    CARTESIAN X     7.351151      0.066102  KCAL/ANGSTROM
     68         23  H    CARTESIAN Y    -1.230945      0.861773  KCAL/ANGSTROM
     69         23  H    CARTESIAN Z    -1.787291     -1.122662  KCAL/ANGSTROM
     70         24  N    CARTESIAN X     1.234826     -0.183478  KCAL/ANGSTROM
     71         24  N    CARTESIAN Y     2.842257      0.324786  KCAL/ANGSTROM
     72         24  N    CARTESIAN Z     0.600144     -0.314992  KCAL/ANGSTROM
     73         25  O    CARTESIAN X     0.770240     -0.092112  KCAL/ANGSTROM
     74         25  O    CARTESIAN Y     3.392450     -0.110137  KCAL/ANGSTROM
     75         25  O    CARTESIAN Z     1.587674     -0.114219  KCAL/ANGSTROM
     76         26  O    CARTESIAN X     1.929385     -0.397822  KCAL/ANGSTROM
     77         26  O    CARTESIAN Y     3.436094     -0.017662  KCAL/ANGSTROM
     78         26  O    CARTESIAN Z    -0.211408      0.274219  KCAL/ANGSTROM
     79         27  H    CARTESIAN X     4.497101      0.000893  KCAL/ANGSTROM
     80         27  H    CARTESIAN Y    -0.303123      0.085927  KCAL/ANGSTROM
     81         27  H    CARTESIAN Z    -1.196357     -0.314751  KCAL/ANGSTROM
     82         28  H    CARTESIAN X     5.915257      1.127570  KCAL/ANGSTROM
     83         28  H    CARTESIAN Y    -0.689817     -0.387767  KCAL/ANGSTROM
     84         28  H    CARTESIAN Z    -2.250043      0.538916  KCAL/ANGSTROM
     85         29  O    CARTESIAN X     4.538432     -0.357894  KCAL/ANGSTROM
     86         29  O    CARTESIAN Y    -0.760999     -1.539971  KCAL/ANGSTROM
     87         29  O    CARTESIAN Z    -1.998859     -1.487607  KCAL/ANGSTROM




   ATOM   CHEMICAL          X               Y               Z
  NUMBER   SYMBOL      (ANGSTROMS)     (ANGSTROMS)     (ANGSTROMS)

     1       C          0.94501176  *   1.44145822  *   0.37990514  *
     2       C          1.51244592  *   0.78765718  *  -0.72008415  *
     3       C          1.20075216  *  -0.55444896  *  -0.96805711  *
     4       C          0.34832590  *  -1.23281903  *  -0.09669971  *
     5       C         -0.18719676  *  -0.56434127  *   1.01316537  *
     6       C          0.09229870  *   0.77863436  *   1.26680990  *
     7       H          2.19463036  *   1.33326008  *  -1.39054544  *
     8       H          0.08657253  *  -2.28771208  *  -0.26862830  *
     9       H         -0.34512006  *   1.29944304  *   2.13448985  *
    10       N         -1.06426463  *  -1.27833045  *   1.91633626  *
    11       O         -1.53358849  *  -0.68475672  *   2.87569185  *
    12       O         -1.31095775  *  -2.45538665  *   1.69451483  *
    13       C          1.79316499  *  -1.21912002  *  -2.17496988  *
    14       H          3.00839796  *  -1.06364762  *  -2.15289178  *
    15       C          1.53735768  *  -2.71157582  *  -2.28264192  *
    16       H          2.02104594  *  -3.15137665  *  -3.16932318  *
    17       H          0.46827928  *  -2.95876662  *  -2.35791801  *
    18       H          1.94010266  *  -3.24910454  *  -1.41051078  *
    19       N          1.33496720  *  -0.55041283  *  -3.41316494  *
    20       O          1.60789628  *  -1.05030420  *  -4.49519176  *
    21       O          0.72166848  *   0.50782443  *  -3.33936139  *
    22       O          6.99009928  *  -0.61988015  *  -2.40542308  *
    23       H          7.35115051  *  -1.23094474  *  -1.78729105  *
    24       N          1.23482586  *   2.84225721  *   0.60014370  *
    25       O          0.77024035  *   3.39244963  *   1.58767390  *
    26       O          1.92938479  *   3.43609433  *  -0.21140763  *
    27       H          4.49710100  *  -0.30312296  *  -1.19635683  *
    28       H          5.91525656  *  -0.68981722  *  -2.25004258  *
    29       O          4.53843171  *  -0.76099870  *  -1.99885902  *

                             CARTESIAN COORDINATES

   1    C        0.945011762     1.441458219     0.379905138
   2    C        1.512445915     0.787657177    -0.720084153
   3    C        1.200752156    -0.554448960    -0.968057106
   4    C        0.348325899    -1.232819031    -0.096699708
   5    C       -0.187196761    -0.564341274     1.013165369
   6    C        0.092298696     0.778634355     1.266809900
   7    H        2.194630358     1.333260079    -1.390545445
   8    H        0.086572530    -2.287712079    -0.268628303
   9    H       -0.345120062     1.299443045     2.134489847
  10    N       -1.064264634    -1.278330450     1.916336264
  11    O       -1.533588494    -0.684756718     2.875691850
  12    O       -1.310957749    -2.455386645     1.694514831
  13    C        1.793164992    -1.219120017    -2.174969885
  14    H        3.008397956    -1.063647616    -2.152891783
  15    C        1.537357675    -2.711575823    -2.282641921
  16    H        2.021045943    -3.151376651    -3.169323180
  17    H        0.468279277    -2.958766622    -2.357918008
  18    H        1.940102665    -3.249104545    -1.410510775
  19    N        1.334967200    -0.550412835    -3.413164937
  20    O        1.607896283    -1.050304196    -4.495191762
  21    O        0.721668483     0.507824431    -3.339361390
  22    O        6.990099278    -0.619880150    -2.405423078
  23    H        7.351150512    -1.230944741    -1.787291047
  24    N        1.234825862     2.842257211     0.600143701
  25    O        0.770240346     3.392449630     1.587673901
  26    O        1.929384787     3.436094330    -0.211407633
  27    H        4.497100996    -0.303122957    -1.196356829
  28    H        5.915256559    -0.689817220    -2.250042579
  29    O        4.538431708    -0.760998699    -1.998859022


           Empirical Formula: C8 H10 N3 O8  =    29 atoms



      MOLECULAR POINT GROUP   :   C1  


                  EIGENVALUES  
 -37.69403 -37.63108 -37.25165 -32.11393 -31.10075 -31.01261 -30.63456 -29.33587
 -28.41475 -27.66443 -26.98154 -25.56522 -25.49909 -25.39262 -24.49913 -22.63588
 -21.69550 -20.79572 -19.77378 -18.78413 -18.34427 -18.22250 -17.99281 -17.88302
 -17.66017 -17.63775 -17.44261 -17.12953 -16.71288 -16.27364 -15.49750 -14.40948
 -14.27966 -14.24241 -13.98088 -13.88066 -13.65634 -13.30817 -12.68305 -12.03107
 -12.02436 -11.96531 -11.95631 -11.90372 -11.89880 -11.82630 -11.74663 -11.73819
 -11.55465 -11.19889 -11.02851 -10.87719 -10.08261  -1.84419  -1.53942  -0.39895
  -0.31528   0.15849   0.19538   0.32287   0.66811   1.44699   2.37135   2.82846
   3.06840   3.20745   3.24650   3.50780   3.75674   3.87733   4.05172   4.11011
   4.12472   4.45637   4.47746   4.53876   4.64410   5.00846   5.10991   5.15507
   5.43872   5.45755   5.67560   6.65570   7.08700   7.76971


              NET ATOMIC CHARGES AND DIPOLE CONTRIBUTIONS

  ATOM NO.   TYPE          CHARGE      No. of ELECS.   s-Pop       p-Pop       
    1          C          -0.095999        4.0960     1.06606     3.02994
    2          C           0.001360        3.9986     1.10550     2.89314
    3          C          -0.053966        4.0540     1.06465     2.98931
    4          C          -0.006645        4.0066     1.10453     2.90211
    5          C          -0.096887        4.0969     1.06717     3.02972
    6          C           0.004449        3.9956     1.10240     2.89315
    7          H           0.211568        0.7884     0.78843
    8          H           0.207466        0.7925     0.79253
    9          H           0.218147        0.7819     0.78185
   10          N           0.676666        4.3233     1.44459     2.87874
   11          O          -0.445695        6.4457     1.94065     4.50504
   12          O          -0.450855        6.4509     1.94088     4.50998
   13          C          -0.138800        4.1388     1.10926     3.02954
   14          H           0.342399        0.6576     0.65760
   15          C          -0.465805        4.4658     1.05521     3.41059
   16          H           0.178544        0.8215     0.82146
   17          H           0.169667        0.8303     0.83033
   18          H           0.181874        0.8181     0.81813
   19          N           0.649588        4.3504     1.47195     2.87846
   20          O          -0.470905        6.4709     1.93966     4.53125
   21          O          -0.480075        6.4801     1.94053     4.53954
   22          O          -0.929390        6.9294     1.83851     5.09088
   23          H           0.355237        0.6448     0.64476
   24          N           0.682108        4.3179     1.44292     2.87497
   25          O          -0.448335        6.4483     1.94087     4.50746
   26          O          -0.442552        6.4426     1.94062     4.50193
   27          H           0.339709        0.6603     0.66029
   28          H           0.432437        0.5676     0.56756
   29          O          -1.125310        7.1253     1.86734     5.25797
 DIPOLE           X         Y         Z       TOTAL
 POINT-CHG.   -12.165    -3.073     8.854    15.357
 HYBRID        -0.950     0.421     0.604     1.202
 SUM          -13.116    -2.652     9.458    16.386


          ATOMIC ORBITAL ELECTRON POPULATIONS

     Atom    s        px        py        pz   
    1  C   1.06606   1.10077   0.87509   1.05408
    2  C   1.10550   0.94451   0.99182   0.95680
    3  C   1.06465   1.00983   0.97743   1.00206
    4  C   1.10453   0.89147   1.08984   0.92080
    5  C   1.06717   1.05144   0.97858   0.99970
    6  C   1.10240   0.90717   0.97124   1.01474
    7  H   0.78843
    8  H   0.79253
    9  H   0.78185
   10  N   1.44459   0.94899   0.96545   0.96431
   11  O   1.94065   1.57545   1.67010   1.25950
   12  O   1.94088   1.67381   1.05141   1.78475
   13  C   1.10926   1.23060   0.97124   0.82770
   14  H   0.65760
   15  C   1.05521   1.20295   0.99540   1.21224
   16  H   0.82146
   17  H   0.83033
   18  H   0.81813
   19  N   1.47195   0.91395   0.95369   1.01083
   20  O   1.93966   1.61907   1.67416   1.23802
   21  O   1.94053   1.44093   1.17224   1.92637
   22  O   1.83851   1.58609   1.76086   1.74393
   23  H   0.64476
   24  N   1.44292   0.92792   1.00306   0.94399
   25  O   1.94087   1.54988   1.73509   1.22249
   26  O   1.94062   1.38860   1.70311   1.41023
   27  H   0.66029
   28  H   0.56756
   29  O   1.86734   1.81070   1.86234   1.58493

          BONDING CONTRIBUTION OF EACH M.O.

  1.3514  1.3494  1.3244  1.8601  1.0294  0.9923  0.9932  1.6794  1.4339  1.0672
  1.3418  1.2520  1.0345  1.1546  1.2023  1.5380  1.2853  1.3197  1.4432  1.2505
  1.3648  1.2355  1.3627  1.5792  1.6378  1.5186  1.8020  1.6868  1.4772  1.8446
  1.8293  1.7301  1.1846  1.4149  1.8868  1.1939  1.6816  1.8640  1.5197  0.8617
  0.8616  0.3220  0.2840  0.5802  0.8362  0.4287  0.6545  0.0017  0.8031  1.7308
  1.5796  0.0016  0.9980 -2.0526 -2.0646 -2.2323 -2.3045 -2.1814 -2.2235 -2.1058
 -2.0835 -1.9981 -1.9550 -1.9623 -1.9772 -1.9779 -1.9662 -1.9883 -2.0050 -2.0282
 -1.9821 -1.9904 -1.9872 -1.9515 -1.9383 -1.8996 -1.9198 -1.9151 -1.9309 -1.9360
 -1.9417 -1.9451 -1.8475 -1.8896 -1.7641 -1.7147





            (VALENCIES)   BOND ORDERS

     1  C     (3.938)     6  C 1.395     2  C 1.382    24  N 0.900     4  C 0.094    26  O 0.071    25  O 0.070

     2  C     (3.926)     3  C 1.415     1  C 1.382     7  H 0.939     5  C 0.095    25  O 0.017     4  C 0.017
                         26  O 0.011

     3  C     (3.991)     4  C 1.435     2  C 1.415    13  C 1.000     6  C 0.097

     4  C     (3.929)     3  C 1.435     5  C 1.366     8  H 0.939     1  C 0.094     2  C 0.017    11  O 0.017
                         12  O 0.010

     5  C     (3.935)     6  C 1.409     4  C 1.366    10  N 0.899     2  C 0.095    11  O 0.070    12  O 0.070

     6  C     (3.925)     5  C 1.409     1  C 1.395     9  H 0.936     3  C 0.097    12  O 0.018    26  O 0.018
                         11  O 0.012    25  O 0.011

     7  H     (0.955)     2  C 0.939

     8  H     (0.957)     4  C 0.939

     9  H     (0.952)     6  C 0.936

    10  N     (3.786)    11  O 1.432    12  O 1.427     5  C 0.899

    11  O     (1.829)    10  N 1.432    12  O 0.289     5  C 0.070     4  C 0.017     6  C 0.012

    12  O     (1.824)    10  N 1.427    11  O 0.289     5  C 0.070     6  C 0.018     4  C 0.010

    13  C     (3.814)     3  C 1.000    15  C 0.996    19  N 0.852    14  H 0.747    21  O 0.074    20  O 0.071
                         29  O 0.035

    14  H     (0.883)    13  C 0.747    29  O 0.099

    15  C     (3.900)    13  C 0.996    17  H 0.961    16  H 0.957    18  H 0.952    21  O 0.010

    16  H     (0.968)    15  C 0.957

    17  H     (0.971)    15  C 0.961

    18  H     (0.967)    15  C 0.952

    19  N     (3.748)    20  O 1.432    21  O 1.424    13  C 0.852

    20  O     (1.814)    19  N 1.432    21  O 0.283    13  C 0.071

    21  O     (1.808)    19  N 1.424    20  O 0.283    13  C 0.074    15  C 0.010

    22  O     (1.544)    23  H 0.870    28  H 0.607    29  O 0.060

    23  H     (0.874)    22  O 0.870

    24  N     (3.788)    25  O 1.430    26  O 1.430     1  C 0.900

    25  O     (1.827)    24  N 1.430    26  O 0.289     1  C 0.070     2  C 0.017     6  C 0.011

    26  O     (1.828)    24  N 1.430    25  O 0.289     1  C 0.071     6  C 0.018     2  C 0.011

    27  H     (0.885)    29  O 0.878

    28  H     (0.813)    22  O 0.607    29  O 0.199

    29  O     (1.280)    27  H 0.878    28  H 0.199    14  H 0.099    22  O 0.060    13  C 0.035


 **********************
 *                    *
 * JOB ENDED NORMALLY *
 *                    *
 **********************



 TOTAL JOB TIME:           255.56 SECONDS

 == MOPAC DONE ==
