
                                 *****************
                                 * O   R   C   A *
                                 *****************

                                            #,                                       
                                            ###                                      
                                            ####                                     
                                            #####                                    
                                            ######                                   
                                           ########,                                 
                                     ,,################,,,,,                         
                               ,,#################################,,                 
                          ,,##########################################,,             
                       ,#########################################, ''#####,          
                    ,#############################################,,   '####,        
                  ,##################################################,,,,####,       
                ,###########''''           ''''###############################       
              ,#####''   ,,,,##########,,,,          '''####'''          '####       
            ,##' ,,,,###########################,,,                        '##       
           ' ,,###''''                  '''############,,,                           
         ,,##''                                '''############,,,,        ,,,,,,###''
      ,#''                                            '''#######################'''  
     '                                                          ''''####''''         
             ,#######,   #######,   ,#######,      ##                                
            ,#'     '#,  ##    ##  ,#'     '#,    #''#        ######   ,####,        
            ##       ##  ##   ,#'  ##            #'  '#       #        #'  '#        
            ##       ##  #######   ##           ,######,      #####,   #    #        
            '#,     ,#'  ##    ##  '#,     ,#' ,#      #,         ##   #,  ,#        
             '#######'   ##     ##  '#######'  #'      '#     #####' # '####'        



                  #######################################################
                  #                        -***-                        #
                  #          Department of theory and spectroscopy      #
                  #    Directorship and core code : Frank Neese         #
                  #        Max Planck Institute fuer Kohlenforschung    #
                  #                Kaiser Wilhelm Platz 1               #
                  #                 D-45470 Muelheim/Ruhr               #
                  #                      Germany                        #
                  #                                                     #
                  #                  All rights reserved                #
                  #                        -***-                        #
                  #######################################################


                         Program Version 5.0.4 -  RELEASE  -


 With contributions from (in alphabetic order):
   Daniel Aravena         : Magnetic Suceptibility
   Michael Atanasov       : Ab Initio Ligand Field Theory (pilot matlab implementation)
   Alexander A. Auer      : GIAO ZORA, VPT2 properties, NMR spectrum
   Ute Becker             : Parallelization
   Giovanni Bistoni       : ED, misc. LED, open-shell LED, HFLD
   Martin Brehm           : Molecular dynamics
   Dmytro Bykov           : SCF Hessian
   Vijay G. Chilkuri      : MRCI spin determinant printing, contributions to CSF-ICE
   Dipayan Datta          : RHF DLPNO-CCSD density
   Achintya Kumar Dutta   : EOM-CC, STEOM-CC
   Dmitry Ganyushin       : Spin-Orbit,Spin-Spin,Magnetic field MRCI
   Miquel Garcia          : C-PCM and meta-GGA Hessian, CC/C-PCM, Gaussian charge scheme
   Yang Guo               : DLPNO-NEVPT2, F12-NEVPT2, CIM, IAO-localization
   Andreas Hansen         : Spin unrestricted coupled pair/coupled cluster methods
   Benjamin Helmich-Paris : MC-RPA, TRAH-SCF, COSX integrals
   Lee Huntington         : MR-EOM, pCC
   Robert Izsak           : Overlap fitted RIJCOSX, COSX-SCS-MP3, EOM
   Marcus Kettner         : VPT2
   Christian Kollmar      : KDIIS, OOCD, Brueckner-CCSD(T), CCSD density, CASPT2, CASPT2-K
   Simone Kossmann        : Meta GGA functionals, TD-DFT gradient, OOMP2, MP2 Hessian
   Martin Krupicka        : Initial AUTO-CI
   Lucas Lang             : DCDCAS
   Marvin Lechner         : AUTO-CI (C++ implementation), FIC-MRCC
   Dagmar Lenk            : GEPOL surface, SMD
   Dimitrios Liakos       : Extrapolation schemes; Compound Job, initial MDCI parallelization
   Dimitrios Manganas     : Further ROCIS development; embedding schemes
   Dimitrios Pantazis     : SARC Basis sets
   Anastasios Papadopoulos: AUTO-CI, single reference methods and gradients
   Taras Petrenko         : DFT Hessian,TD-DFT gradient, ASA, ECA, R-Raman, ABS, FL, XAS/XES, NRVS
   Peter Pinski           : DLPNO-MP2, DLPNO-MP2 Gradient
   Christoph Reimann      : Effective Core Potentials
   Marius Retegan         : Local ZFS, SOC
   Christoph Riplinger    : Optimizer, TS searches, QM/MM, DLPNO-CCSD(T), (RO)-DLPNO pert. Triples
   Tobias Risthaus        : Range-separated hybrids, TD-DFT gradient, RPA, STAB
   Michael Roemelt        : Original ROCIS implementation
   Masaaki Saitow         : Open-shell DLPNO-CCSD energy and density
   Barbara Sandhoefer     : DKH picture change effects
   Avijit Sen             : IP-ROCIS
   Kantharuban Sivalingam : CASSCF convergence, NEVPT2, FIC-MRCI
   Bernardo de Souza      : ESD, SOC TD-DFT
   Georgi Stoychev        : AutoAux, RI-MP2 NMR, DLPNO-MP2 response
   Willem Van den Heuvel  : Paramagnetic NMR
   Boris Wezisla          : Elementary symmetry handling
   Frank Wennmohs         : Technical directorship


 We gratefully acknowledge several colleagues who have allowed us to
 interface, adapt or use parts of their codes:
   Stefan Grimme, W. Hujo, H. Kruse, P. Pracht,  : VdW corrections, initial TS optimization,
                  C. Bannwarth, S. Ehlert          DFT functionals, gCP, sTDA/sTD-DF
   Ed Valeev, F. Pavosevic, A. Kumar             : LibInt (2-el integral package), F12 methods
   Garnet Chan, S. Sharma, J. Yang, R. Olivares  : DMRG
   Ulf Ekstrom                                   : XCFun DFT Library
   Mihaly Kallay                                 : mrcc  (arbitrary order and MRCC methods)
   Jiri Pittner, Ondrej Demel                    : Mk-CCSD
   Frank Weinhold                                : gennbo (NPA and NBO analysis)
   Christopher J. Cramer and Donald G. Truhlar   : smd solvation model
   Lars Goerigk                                  : TD-DFT with DH, B97 family of functionals
   V. Asgeirsson, H. Jonsson                     : NEB implementation
   FAccTs GmbH                                   : IRC, NEB, NEB-TS, DLPNO-Multilevel, CI-OPT
                                                   MM, QMMM, 2- and 3-layer-ONIOM, Crystal-QMMM,
                                                   LR-CPCM, SF, NACMEs, symmetry and pop. for TD-DFT,
                                                   nearIR, NL-DFT gradient (VV10), updates on ESD,
                                                   ML-optimized integration grids
   S Lehtola, MJT Oliveira, MAL Marques          : LibXC Library
   Liviu Ungur et al                             : ANISO software


 Your calculation uses the libint2 library for the computation of 2-el integrals
 For citations please refer to: http://libint.valeyev.net

 Your ORCA version has been built with support for libXC version: 5.1.0
 For citations please refer to: https://tddft.org/programs/libxc/

 This ORCA versions uses:
   CBLAS   interface :  Fast vector & matrix operations
   LAPACKE interface :  Fast linear algebra routines
   SCALAPACK package :  Parallel linear algebra routines
   Shared memory     :  Shared parallel matrices
   BLAS/LAPACK       :  OpenBLAS 0.3.15  USE64BITINT DYNAMIC_ARCH NO_AFFINITY Prescott SINGLE_THREADED
        Core in use  :  Prescott
   Copyright (c) 2011-2014, The OpenBLAS Project


Your calculation utilizes the atom-pairwise dispersion correction
with the Becke-Johnson damping scheme (D3BJ)
Cite in your paper:
S.Grimme, S.Ehrlich, L.Goerigk, J Comput Chem, (2011), 32, 1456–1465 
S.Grimme, J.Antony, S.Ehrlich and H.Krieg, J.Chem.Phys., 132, (2010), 154104 
   

================================================================================

----- Orbital basis set information -----
Your calculation utilizes the basis: def2-TZVP
   F. Weigend and R. Ahlrichs, Phys. Chem. Chem. Phys. 7, 3297 (2005).

----- AuxJ basis set information -----
Your calculation utilizes the auxiliary basis: def2/J
   F. Weigend, Phys. Chem. Chem. Phys. 8, 1057 (2006).

================================================================================
                                        WARNINGS
                       Please study these warnings very carefully!
================================================================================


WARNING: Geometry Optimization
  ===> : Switching off AutoStart
         For restart on a previous wavefunction, please use MOREAD

INFO   : the flag for use of the SHARK integral package has been found!

================================================================================
                                       INPUT FILE
================================================================================
NAME = /home/rudenko/mop_saddle_orca_4_serv/for_orca/CH2CHCH2NO2_picoline_from_lutidine/orca/orca_end/end.inp
|  1> !  opt B3LYP def2-TZVP CPCM D3 
|  2> %pal nprocs 102 end
|  3> %cpcm epsilon 78.4 end 
|  4> *xyz 0 1 
|  5> C   0.60892177 0.24294888 0.27192344
|  6> H   0.21285484 -0.01921318 1.26000176
|  7> N   0.82951196 -2.12598072 -0.21564397
|  8> O   0.57958203 -2.44157941 0.97500738
|  9> O   1.06986073 -3.0665164 -1.02037215
| 10> H   1.2481524 1.83194817 -1.00699221
| 11> C   0.86320055 -0.85638004 -0.62635847
| 12> H   1.08765014 -0.65448663 -1.66981672
| 13> H   3.01710459 -0.31394005 -0.73659171
| 14> C   0.84284375 1.518234 -0.06023569
| 15> H   0.65256424 2.34737283 0.59941491
| 16> C   6.86564596 1.37220403 -0.18213856
| 17> C   7.87416135 2.333479 -0.05291529
| 18> C   7.5122095 3.68560172 -0.03265011
| 19> C   6.1705151 4.04351902 -0.13559629
| 20> C   5.20019827 3.05142234 -0.26449378
| 21> N   5.56294351 1.74217915 -0.28873816
| 22> H   7.09342348 0.291086 -0.19994661
| 23> H   5.86988685 5.09780718 -0.11825336
| 24> H   4.12561187 3.29001231 -0.34978271
| 25> C   9.28816106 1.90439755 0.0446052
| 26> H   9.96710696 2.72153397 0.33588628
| 27> H   9.66293148 1.51611079 -0.92030559
| 28> H   9.43753578 1.09670789 0.78240966
| 29> H   8.28234044 4.4588941 0.06354666
| 30> H   4.27678763 -1.02230335 -0.22313313
| 31> O   3.98162617 -0.34853317 -0.86060971
| 32> H   4.81986608 0.99378559 -0.40893859
| 33> *
| 34> 
| 35>                          ****END OF INPUT****
================================================================================

                       *****************************
                       * Geometry Optimization Run *
                       *****************************

Geometry optimization settings:
Update method            Update   .... BFGS
Choice of coordinates    CoordSys .... Z-matrix Internals
Initial Hessian          InHess   .... Almoef's Model

Convergence Tolerances:
Energy Change            TolE     ....  5.0000e-06 Eh
Max. Gradient            TolMAXG  ....  3.0000e-04 Eh/bohr
RMS Gradient             TolRMSG  ....  1.0000e-04 Eh/bohr
Max. Displacement        TolMAXD  ....  4.0000e-03 bohr
RMS Displacement         TolRMSD  ....  2.0000e-03 bohr
Strict Convergence                ....  False
------------------------------------------------------------------------------
                        ORCA OPTIMIZATION COORDINATE SETUP
------------------------------------------------------------------------------

The optimization will be done in new redundant internal coordinates
Making redundant internal coordinates   ...  (new redundants) done
Evaluating the initial hessian          ...  (Almloef) done
Evaluating the coordinates              ...  done
Calculating the B-matrix                .... done
Calculating the G-matrix                .... done
Diagonalizing the G-matrix              .... done
Small eigenvalue found = 6.365e-03
Small eigenvalue found = 1.475e-02
Small eigenvalue found = 2.158e-02
The first mode is                       ....  114
The number of degrees of freedom        ....   78

    -----------------------------------------------------------------
                    Redundant Internal Coordinates


    -----------------------------------------------------------------
         Definition                    Initial Value    Approx d2E/dq
    -----------------------------------------------------------------
      1. B(H   1,C   0)                  1.0963         0.351848   
      2. B(O   3,N   2)                  1.2569         0.817364   
      3. B(O   4,N   2)                  1.2609         0.805238   
      4. B(C   6,N   2)                  1.3348         0.685384   
      5. B(C   6,C   0)                  1.4423         0.515671   
      6. B(H   7,C   6)                  1.0863         0.365092   
      7. B(H   8,H   5)                  2.7941         0.000132   
      8. B(H   8,H   7)                  2.1702         0.001304   
      9. B(H   8,C   0)                  2.6696         0.001087   
     10. B(H   8,C   6)                  2.2239         0.005589   
     11. B(C   9,H   5)                  1.0766         0.378288   
     12. B(C   9,C   0)                  1.3384         0.755112   
     13. B(H  10,C   9)                  1.0765         0.378432   
     14. B(C  12,C  11)                  1.3992         0.603961   
     15. B(C  13,C  12)                  1.3999         0.602532   
     16. B(C  14,C  13)                  1.3924         0.619256   
     17. B(C  15,C  14)                  1.3937         0.616373   
     18. B(N  16,C  15)                  1.3588         0.627597   
     19. B(N  16,C  11)                  1.3584         0.628456   
     20. B(H  17,C  11)                  1.1050         0.340799   
     21. B(H  18,C  14)                  1.0964         0.351668   
     22. B(H  19,C  15)                  1.1041         0.341980   
     23. B(C  20,C  12)                  1.4809         0.447445   
     24. B(H  21,C  20)                  1.1016         0.345076   
     25. B(H  22,C  20)                  1.1056         0.340088   
     26. B(H  23,C  20)                  1.1041         0.341926   
     27. B(H  24,C  13)                  1.0956         0.352769   
     28. B(O  26,H  25)                  0.9734         0.495022   
     29. B(O  26,H   8)                  0.9731         0.495568   
     30. B(H  27,H  25)                  2.0962         0.001711   
     31. B(H  27,N  16)                  1.0615         0.358169   
     32. B(H  27,O  26)                  1.6457         0.041870   
     33. A(H   8,C   0,C   9)           86.9819         0.163206   
     34. A(H   1,C   0,H   8)          128.0611         0.142993   
     35. A(C   6,C   0,H   8)           56.4031         0.157069   
     36. A(H   1,C   0,C   9)          120.9747         0.363508   
     37. A(C   6,C   0,C   9)          122.7440         0.435075   
     38. A(H   1,C   0,C   6)          116.2805         0.340805   
     39. A(O   3,N   2,C   6)          122.3668         0.455510   
     40. A(O   4,N   2,C   6)          120.5495         0.454272   
     41. A(O   3,N   2,O   4)          117.0767         0.465936   
     42. A(H   8,H   5,C   9)           85.9543         0.116218   
     43. A(N   2,C   6,H   8)          105.7652         0.193295   
     44. A(C   0,C   6,H   8)           90.9002         0.187602   
     45. A(C   0,C   6,H   7)          119.5416         0.342920   
     46. A(H   7,C   6,H   8)           72.9579         0.167868   
     47. A(C   0,C   6,N   2)          121.9313         0.424782   
     48. A(N   2,C   6,H   7)          118.5269         0.357580   
     49. A(C   6,H   7,H   8)           78.4509         0.134360   
     50. A(C   0,H   8,H   7)           52.6389         0.101160   
     51. A(H   5,H   8,H   7)           61.0549         0.095030   
     52. A(H   7,H   8,O  26)          145.1725         0.137042   
     53. A(H   5,H   8,C   6)           65.0992         0.099485   
     54. A(C   6,H   8,O  26)          163.2676         0.172531   
     55. A(C   0,H   8,H   5)           45.9920         0.096238   
     56. A(H   5,H   8,O  26)          129.9784         0.117596   
     57. A(C   0,H   8,O  26)          161.7540         0.146665   
     58. A(C   0,H   8,C   6)           32.6966         0.110143   
     59. A(C   6,H   8,H   7)           28.5912         0.106614   
     60. A(H   5,C   9,H  10)          112.3949         0.295410   
     61. A(C   0,C   9,H  10)          123.4303         0.368071   
     62. A(C   0,C   9,H   5)          124.1727         0.368046   
     63. A(N  16,C  11,H  17)          117.5737         0.348288   
     64. A(C  12,C  11,H  17)          121.6730         0.348097   
     65. A(C  12,C  11,N  16)          120.7532         0.430247   
     66. A(C  11,C  12,C  13)          118.5902         0.429813   
     67. A(C  13,C  12,C  20)          121.7215         0.407443   
     68. A(C  11,C  12,C  20)          119.6853         0.407614   
     69. A(C  12,C  13,C  14)          119.7586         0.431748   
     70. A(C  14,C  13,H  24)          120.1580         0.351612   
     71. A(C  12,C  13,H  24)          120.0834         0.349990   
     72. A(C  13,C  14,C  15)          119.6509         0.433514   
     73. A(C  15,C  14,H  18)          119.6727         0.351149   
     74. A(C  13,C  14,H  18)          120.6763         0.351426   
     75. A(N  16,C  15,H  19)          117.8193         0.348411   
     76. A(C  14,C  15,H  19)          122.0696         0.349497   
     77. A(C  14,C  15,N  16)          120.1111         0.431716   
     78. A(C  15,N  16,H  27)          119.6358         0.348086   
     79. A(C  11,N  16,H  27)          119.2222         0.348166   
     80. A(C  11,N  16,C  15)          121.1342         0.430393   
     81. A(H  21,C  20,H  23)          106.4129         0.286572   
     82. A(C  12,C  20,H  23)          112.6529         0.331271   
     83. A(H  21,C  20,H  22)          106.4017         0.286332   
     84. A(C  12,C  20,H  22)          111.5900         0.330976   
     85. A(C  12,C  20,H  21)          113.0153         0.331775   
     86. A(H  22,C  20,H  23)          106.2865         0.285922   
     87. A(O  26,H  25,H  27)           49.8169         0.140077   
     88. A(H  25,O  26,H  27)          103.3200         0.219193   
     89. A(H   8,O  26,H  27)          116.1604         0.219226   
     90. A(H   8,O  26,H  25)          103.9874         0.316768   
     91. A(H  25,H  27,O  26)           26.8631         0.118203   
     92. A(N  16,H  27,O  26)          164.3033         0.209998   
     93. A(N  16,H  27,H  25)          148.1509         0.136470   
     94. D(C   0,C   6,N   2,O   3)     -0.2374         0.042129   
     95. D(N   2,C   6,C   0,H   8)    109.2670         0.021092   
     96. D(H   8,C   6,N   2,O   4)    -77.9935         0.042129   
     97. D(H   8,C   6,N   2,O   3)    101.0176         0.042129   
     98. D(H   8,C   6,C   0,H   1)   -119.8293         0.021092   
     99. D(C   0,C   6,N   2,O   4)   -179.2485         0.042129   
    100. D(N   2,C   6,C   0,H   1)    -10.5624         0.021092   
    101. D(H   8,C   6,C   0,C   9)     59.8439         0.021092   
    102. D(H   7,C   6,C   0,C   9)    -11.0084         0.021092   
    103. D(H   7,C   6,N   2,O   4)      0.8696         0.042129   
    104. D(H   7,C   6,N   2,O   3)    179.8807         0.042129   
    105. D(H   7,C   6,C   0,H   1)    169.3184         0.021092   
    106. D(N   2,C   6,C   0,C   9)    169.1108         0.021092   
    107. D(H   7,C   6,C   0,H   8)    -70.8523         0.021092   
    108. D(H   8,H   7,C   6,C   0)     81.0928         0.125614   
    109. D(H   8,H   7,C   6,N   2)    -99.0224         0.125614   
    110. D(C   6,H   8,H   5,C   9)     55.7664         0.001500   
    111. D(C   0,H   8,H   5,C   9)     23.0712         0.001500   
    112. D(O  26,H   8,H   5,C   9)   -132.8885         0.001500   
    113. D(H   7,H   8,C   0,C   9)   -102.0893         0.001501   
    114. D(H   7,H   8,C   0,C   6)     31.1690         0.001501   
    115. D(H   7,H   8,C   0,H   1)    130.0834         0.001501   
    116. D(C   6,H   8,C   0,H   1)     98.9145         0.001501   
    117. D(H   5,H   8,H   7,C   6)    -90.5343         0.001518   
    118. D(C   6,H   8,C   0,C   9)   -133.2583         0.001501   
    119. D(O  26,H   8,H   7,C   6)    150.0813         0.001518   
    120. D(H   5,H   8,C   0,C   6)    114.9058         0.001501   
    121. D(H   7,H   8,C   6,C   0)   -120.7269         0.001519   
    122. D(H   5,H   8,C   0,C   9)    -18.3525         0.001501   
    123. D(H   7,H   8,H   5,C   9)     87.6086         0.001500   
    124. D(O  26,H   8,C   0,C   6)   -159.5074         0.001501   
    125. D(C   0,H   8,C   6,H   7)    120.7269         0.001519   
    126. D(H   7,H   8,C   6,N   2)    115.6257         0.001519   
    127. D(H   5,H   8,C   0,H   1)   -146.1797         0.001501   
    128. D(O  26,H   8,C   0,H   1)    -60.5930         0.001501   
    129. D(H   5,H   8,C   6,C   0)    -45.9896         0.001519   
    130. D(O  26,H   8,C   0,C   9)     67.2343         0.001501   
    131. D(H   5,H   8,C   6,H   7)     74.7374         0.001519   
    132. D(O  26,H   8,C   6,H   7)    -81.6515         0.001519   
    133. D(O  26,H   8,C   6,N   2)     33.9742         0.001519   
    134. D(O  26,H   8,C   6,C   0)    157.6216         0.001519   
    135. D(C   0,H   8,H   7,C   6)    -35.7480         0.001518   
    136. D(C   0,H   8,C   6,N   2)   -123.6474         0.001519   
    137. D(H   5,H   8,C   6,N   2)   -169.6369         0.001519   
    138. D(H  10,C   9,H   5,H   8)    136.6830         0.123629   
    139. D(C   0,C   9,H   5,H   8)    -42.8033         0.123629   
    140. D(H  10,C   9,C   0,H   8)   -134.1633         0.044319   
    141. D(H  10,C   9,C   0,C   6)    179.6814         0.044319   
    142. D(H  10,C   9,C   0,H   1)     -0.6603         0.044319   
    143. D(H   5,C   9,C   0,H   8)     45.2676         0.044319   
    144. D(H   5,C   9,C   0,C   6)     -0.8877         0.044319   
    145. D(H   5,C   9,C   0,H   1)    178.7705         0.044319   
    146. D(C  20,C  12,C  11,H  17)      0.8570         0.025164   
    147. D(C  20,C  12,C  11,N  16)   -179.2396         0.025164   
    148. D(C  13,C  12,C  11,H  17)   -179.7584         0.025164   
    149. D(C  13,C  12,C  11,N  16)      0.1450         0.025164   
    150. D(H  24,C  13,C  12,C  20)     -0.3866         0.025039   
    151. D(H  24,C  13,C  12,C  11)   -179.7581         0.025039   
    152. D(C  14,C  13,C  12,C  20)    179.5930         0.025039   
    153. D(C  14,C  13,C  12,C  11)      0.2215         0.025039   
    154. D(H  18,C  14,C  13,C  12)    179.8100         0.026532   
    155. D(C  15,C  14,C  13,H  24)    179.6694         0.026532   
    156. D(C  15,C  14,C  13,C  12)     -0.3102         0.026532   
    157. D(H  18,C  14,C  13,H  24)     -0.2105         0.026532   
    158. D(H  19,C  15,C  14,H  18)     -0.0735         0.026271   
    159. D(H  19,C  15,C  14,C  13)   -179.9546         0.026271   
    160. D(N  16,C  15,C  14,H  18)    179.9148         0.026271   
    161. D(N  16,C  15,C  14,C  13)      0.0337         0.026271   
    162. D(H  27,N  16,C  15,H  19)      1.3473         0.031956   
    163. D(H  27,N  16,C  15,C  14)   -178.6415         0.031956   
    164. D(C  11,N  16,C  15,H  19)   -179.6719         0.031956   
    165. D(C  11,N  16,C  15,C  14)      0.3393         0.031956   
    166. D(H  27,N  16,C  11,H  17)     -1.5384         0.032050   
    167. D(H  27,N  16,C  11,C  12)    178.5544         0.032050   
    168. D(C  15,N  16,C  11,H  17)    179.4767         0.032050   
    169. D(C  15,N  16,C  11,C  12)     -0.4306         0.032050   
    170. D(H  23,C  20,C  12,C  13)    132.4060         0.014766   
    171. D(H  23,C  20,C  12,C  11)    -48.2292         0.014766   
    172. D(H  22,C  20,C  12,C  13)   -108.1241         0.014766   
    173. D(H  22,C  20,C  12,C  11)     71.2406         0.014766   
    174. D(H  21,C  20,C  12,C  13)     11.7462         0.014766   
    175. D(H  21,C  20,C  12,C  11)   -168.8890         0.014766   
    176. D(H  27,O  26,H   8,H   7)    131.0944         0.398872   
    177. D(H  27,O  26,H   8,C   6)   -172.9028         0.398872   
    178. D(H  27,O  26,H   8,H   5)     35.3978         0.398872   
    179. D(H  27,O  26,H   8,C   0)    -33.9640         0.398872   
    180. D(H  25,O  26,H   8,H   7)   -116.1449         0.398872   
    181. D(H  25,O  26,H   8,C   6)    -60.1421         0.398872   
    182. D(H  25,O  26,H   8,H   5)    148.1585         0.398872   
    183. D(H   8,O  26,H  25,H  27)   -121.7285         0.304618   
    184. D(H  25,O  26,H   8,C   0)     78.7967         0.398872   
    185. D(H  25,H  27,O  26,H   8)    113.1435         0.002601   
    186. D(N  16,H  27,O  26,H  25)     85.5995         0.002601   
    187. D(N  16,H  27,O  26,H   8)   -161.2570         0.002601   
    188. D(N  16,H  27,H  25,O  26)   -149.2568         0.001526   
    189. D(O  26,H  27,N  16,C  15)    139.4846         0.149484   
    190. D(O  26,H  27,N  16,C  11)    -39.5158         0.149484   
    191. D(H  25,H  27,N  16,C  15)   -161.8897         0.149484   
    192. D(H  25,H  27,N  16,C  11)     19.1099         0.149484   
    -----------------------------------------------------------------

Number of atoms                         .... 28
Number of degrees of freedom            .... 192

         *************************************************************
         *                GEOMETRY OPTIMIZATION CYCLE   1            *
         *************************************************************
---------------------------------
CARTESIAN COORDINATES (ANGSTROEM)
---------------------------------
  C      0.608922    0.242949    0.271923
  H      0.212855   -0.019213    1.260002
  N      0.829512   -2.125981   -0.215644
  O      0.579582   -2.441579    0.975007
  O      1.069861   -3.066516   -1.020372
  H      1.248152    1.831948   -1.006992
  C      0.863201   -0.856380   -0.626358
  H      1.087650   -0.654487   -1.669817
  H      3.017105   -0.313940   -0.736592
  C      0.842844    1.518234   -0.060236
  H      0.652564    2.347373    0.599415
  C      6.865646    1.372204   -0.182139
  C      7.874161    2.333479   -0.052915
  C      7.512209    3.685602   -0.032650
  C      6.170515    4.043519   -0.135596
  C      5.200198    3.051422   -0.264494
  N      5.562944    1.742179   -0.288738
  H      7.093423    0.291086   -0.199947
  H      5.869887    5.097807   -0.118253
  H      4.125612    3.290012   -0.349783
  C      9.288161    1.904398    0.044605
  H      9.967107    2.721534    0.335886
  H      9.662931    1.516111   -0.920306
  H      9.437536    1.096708    0.782410
  H      8.282340    4.458894    0.063547
  H      4.276788   -1.022303   -0.223133
  O      3.981626   -0.348533   -0.860610
  H      4.819866    0.993786   -0.408939

----------------------------
CARTESIAN COORDINATES (A.U.)
----------------------------
  NO LB      ZA    FRAG     MASS         X           Y           Z
   0 C     6.0000    0    12.011    1.150695    0.459107    0.513861
   1 H     1.0000    0     1.008    0.402237   -0.036308    2.381058
   2 N     7.0000    0    14.007    1.567550   -4.017521   -0.407508
   3 O     8.0000    0    15.999    1.095251   -4.613916    1.842497
   4 O     8.0000    0    15.999    2.021744   -5.794876   -1.928224
   5 H     1.0000    0     1.008    2.358666    3.461880   -1.902939
   6 C     6.0000    0    12.011    1.631213   -1.618324   -1.183646
   7 H     1.0000    0     1.008    2.055361   -1.236800   -3.155496
   8 H     1.0000    0     1.008    5.701501   -0.593261   -1.391957
   9 C     6.0000    0    12.011    1.592744    2.869046   -0.113829
  10 H     1.0000    0     1.008    1.233168    4.435892    1.132730
  11 C     6.0000    0    12.011   12.974191    2.593090   -0.344192
  12 C     6.0000    0    12.011   14.880008    4.409636   -0.099995
  13 C     6.0000    0    12.011   14.196019    6.964778   -0.061700
  14 C     6.0000    0    12.011   11.660584    7.641144   -0.256240
  15 C     6.0000    0    12.011    9.826951    5.766353   -0.499821
  16 N     7.0000    0    14.007   10.512440    3.292241   -0.545636
  17 H     1.0000    0     1.008   13.404628    0.550073   -0.377844
  18 H     1.0000    0     1.008   11.092479    9.633459   -0.223466
  19 H     1.0000    0     1.008    7.796277    6.217222   -0.660994
  20 C     6.0000    0    12.011   17.552081    3.598790    0.084292
  21 H     1.0000    0     1.008   18.835103    5.142954    0.634733
  22 H     1.0000    0     1.008   18.260294    2.865034   -1.739126
  23 H     1.0000    0     1.008   17.834358    2.072478    1.478540
  24 H     1.0000    0     1.008   15.651355    8.426089    0.120086
  25 H     1.0000    0     1.008    8.081957   -1.931873   -0.421661
  26 O     8.0000    0    15.999    7.524183   -0.658632   -1.626317
  27 H     1.0000    0     1.008    9.108227    1.877983   -0.772782

--------------------------------
INTERNAL COORDINATES (ANGSTROEM)
--------------------------------
 C      0   0   0     0.000000000000     0.00000000     0.00000000
 H      1   0   0     1.096310505832     0.00000000     0.00000000
 N      1   2   0     2.428622955704    88.88264077     0.00000000
 O      3   1   2     1.256868386227    92.10230578   350.33756457
 O      3   1   2     1.260937088153   150.80981055   171.86524532
 H      1   2   3     2.137559304853   145.59253974   186.13306660
 C      3   1   2     1.334806056423    30.26467595   170.53821242
 H      7   3   1     1.086252128627   118.52694688   180.11811196
 H      8   7   3     2.170178648652    78.45089235   260.97759456
 C      6   1   2     1.076587010133    31.20114722   358.13428480
 H     10   6   1     1.076483351204   112.39490470   179.48624676
 C      9   8   7     4.238132941599   157.82516477   209.67053653
 C     12   9   8     1.399232472938   160.03695751    50.44493738
 C     13  12   9     1.399877019305   118.59024385     5.49228730
 C     14  13  12     1.392424709852   119.75859530     0.22147080
 C     15  14  13     1.393694778629   119.65089850   359.68983254
 N     12   9   8     1.358410371491    39.39914400    57.69373684
 H     12   9   8     1.104995891419    78.21869935   235.00814958
 H     15  14  13     1.096449563927   120.67625850   179.80997982
 H     16  15  14     1.104054032387   122.06958160   180.04541876
 C     13  12   9     1.480883626955   119.68526223   186.10766039
 H     21  13  12     1.101600713318   113.01529412   191.11095108
 H     21  13  12     1.105564248860   111.59004122    71.24063701
 H     21  13  12     1.104097285135   112.65290143   311.77075583
 H     14  13  12     1.095598735062   120.08344394   180.24193111
 H      9   8   7     1.533694767360   143.29479785    82.42280011
 O      9   8   7     0.973077091787   145.17245603   150.08134786
 H     17  12   9     1.061463673894   119.22224733     1.42771615

---------------------------
INTERNAL COORDINATES (A.U.)
---------------------------
 C      0   0   0     0.000000000000     0.00000000     0.00000000
 H      1   0   0     2.071726613763     0.00000000     0.00000000
 N      1   2   0     4.589432268836    88.88264077     0.00000000
 O      3   1   2     2.375137036352    92.10230578   350.33756457
 O      3   1   2     2.382825768713   150.80981055   171.86524532
 H      1   2   3     4.039401681188   145.59253974   186.13306660
 C      3   1   2     2.522417888538    30.26467595   170.53821242
 H      7   3   1     2.052719035493   118.52694688   180.11811196
 H      8   7   3     4.101043307635    78.45089235   260.97759456
 C      6   1   2     2.034454608488    31.20114722   358.13428480
 H     10   6   1     2.034258721502   112.39490470   179.48624676
 C      9   8   7     8.008910578772   157.82516477   209.67053653
 C     12   9   8     2.644166171543   160.03695751    50.44493738
 C     13  12   9     2.645384187657   118.59024385     5.49228730
 C     14  13  12     2.631301363726   119.75859530     0.22147080
 C     15  14  13     2.633701445884   119.65089850   359.68983254
 N     12   9   8     2.567023579597    39.39914400    57.69373684
 H     12   9   8     2.088139613890    78.21869935   235.00814958
 H     15  14  13     2.071989395479   120.67625850   179.80997982
 H     16  15  14     2.086359758263   122.06958160   180.04541876
 C     13  12   9     2.798464491153   119.68526223   186.10766039
 H     21  13  12     2.081723657104   113.01529412   191.11095108
 H     21  13  12     2.089213653799   111.59004122    71.24063701
 H     21  13  12     2.086441494111   112.65290143   311.77075583
 H     14  13  12     2.070381561938   120.08344394   180.24193111
 H      9   8   7     2.898263083338   143.29479785    82.42280011
 O      9   8   7     1.838849210670   145.17245603   150.08134786
 H     17  12   9     2.005875644766   119.22224733     1.42771615

---------------------
BASIS SET INFORMATION
---------------------
There are 4 groups of distinct atoms

 Group   1 Type C   : 11s6p2d1f contracted to 5s3p2d1f pattern {62111/411/11/1}
 Group   2 Type H   : 5s1p contracted to 3s1p pattern {311/1}
 Group   3 Type N   : 11s6p2d1f contracted to 5s3p2d1f pattern {62111/411/11/1}
 Group   4 Type O   : 11s6p2d1f contracted to 5s3p2d1f pattern {62111/411/11/1}

Atom   0C    basis set group =>   1
Atom   1H    basis set group =>   2
Atom   2N    basis set group =>   3
Atom   3O    basis set group =>   4
Atom   4O    basis set group =>   4
Atom   5H    basis set group =>   2
Atom   6C    basis set group =>   1
Atom   7H    basis set group =>   2
Atom   8H    basis set group =>   2
Atom   9C    basis set group =>   1
Atom  10H    basis set group =>   2
Atom  11C    basis set group =>   1
Atom  12C    basis set group =>   1
Atom  13C    basis set group =>   1
Atom  14C    basis set group =>   1
Atom  15C    basis set group =>   1
Atom  16N    basis set group =>   3
Atom  17H    basis set group =>   2
Atom  18H    basis set group =>   2
Atom  19H    basis set group =>   2
Atom  20C    basis set group =>   1
Atom  21H    basis set group =>   2
Atom  22H    basis set group =>   2
Atom  23H    basis set group =>   2
Atom  24H    basis set group =>   2
Atom  25H    basis set group =>   2
Atom  26O    basis set group =>   4
Atom  27H    basis set group =>   2
---------------------------------
AUXILIARY/J BASIS SET INFORMATION
---------------------------------
There are 4 groups of distinct atoms

 Group   1 Type C   : 12s5p4d2f1g contracted to 6s4p3d1f1g pattern {711111/2111/211/2/1}
 Group   2 Type H   : 5s2p1d contracted to 3s1p1d pattern {311/2/1}
 Group   3 Type N   : 12s5p4d2f1g contracted to 6s4p3d1f1g pattern {711111/2111/211/2/1}
 Group   4 Type O   : 12s5p4d2f1g contracted to 6s4p3d1f1g pattern {711111/2111/211/2/1}

Atom   0C    basis set group =>   1
Atom   1H    basis set group =>   2
Atom   2N    basis set group =>   3
Atom   3O    basis set group =>   4
Atom   4O    basis set group =>   4
Atom   5H    basis set group =>   2
Atom   6C    basis set group =>   1
Atom   7H    basis set group =>   2
Atom   8H    basis set group =>   2
Atom   9C    basis set group =>   1
Atom  10H    basis set group =>   2
Atom  11C    basis set group =>   1
Atom  12C    basis set group =>   1
Atom  13C    basis set group =>   1
Atom  14C    basis set group =>   1
Atom  15C    basis set group =>   1
Atom  16N    basis set group =>   3
Atom  17H    basis set group =>   2
Atom  18H    basis set group =>   2
Atom  19H    basis set group =>   2
Atom  20C    basis set group =>   1
Atom  21H    basis set group =>   2
Atom  22H    basis set group =>   2
Atom  23H    basis set group =>   2
Atom  24H    basis set group =>   2
Atom  25H    basis set group =>   2
Atom  26O    basis set group =>   4
Atom  27H    basis set group =>   2


           ************************************************************
           *        Program running with 102 parallel MPI-processes   *
           *              working on a common directory               *
           ************************************************************
------------------------------------------------------------------------------
                           ORCA GTO INTEGRAL CALCULATION
                           -- RI-GTO INTEGRALS CHOSEN --
------------------------------------------------------------------------------
------------------------------------------------------------------------------
                   ___                                                        
                  /   \      - P O W E R E D   B Y -                         
                 /     \                                                     
                 |  |  |   _    _      __       _____    __    __             
                 |  |  |  | |  | |    /  \     |  _  \  |  |  /  |          
                  \  \/   | |  | |   /    \    | | | |  |  | /  /          
                 / \  \   | |__| |  /  /\  \   | |_| |  |  |/  /          
                |  |  |   |  __  | /  /__\  \  |    /   |      \           
                |  |  |   | |  | | |   __   |  |    \   |  |\   \          
                \     /   | |  | | |  |  |  |  | |\  \  |  | \   \       
                 \___/    |_|  |_| |__|  |__|  |_| \__\ |__|  \__/        
                                                                              
                      - O R C A' S   B I G   F R I E N D -                    
                                      &                                       
                       - I N T E G R A L  F E E D E R -                       
                                                                              
 v1 FN, 2020, v2 2021                                                         
------------------------------------------------------------------------------


Reading SHARK input file /home/rudenko/mop_saddle_orca_4_serv/for_orca/CH2CHCH2NO2_picoline_from_lutidine/orca/orca_end/end.SHARKINP.tmp ... ok
----------------------
SHARK INTEGRAL PACKAGE
----------------------

Number of atoms                             ...     28
Number of basis functions                   ...    518
Number of shells                            ...    210
Maximum angular momentum                    ...      3
Integral batch strategy                     ... SHARK/LIBINT Hybrid
RI-J (if used) integral strategy            ... SPLIT-RIJ (Revised 2003 algorithm where possible)
Printlevel                                  ...      1
Contraction scheme used                     ... SEGMENTED contraction
Coulomb Range Separation                    ... NOT USED
Exchange Range Separation                   ... NOT USED
Finite Nucleus Model                        ... NOT USED
Auxiliary Coulomb fitting basis             ... AVAILABLE
   # of basis functions in Aux-J            ...    840
   # of shells in Aux-J                     ...    280
   Maximum angular momentum in Aux-J        ...      4
Auxiliary J/K fitting basis                 ... NOT available
Auxiliary Correlation fitting basis         ... NOT available
Auxiliary 'external' fitting basis          ... NOT available
Integral threshold                          ...     2.500000e-11
Primitive cut-off                           ...     2.500000e-12
Primitive pair pre-selection threshold      ...     2.500000e-12

Calculating pre-screening integrals         ... done (  0.1 sec) Dimension = 210
Organizing shell pair data                  ... done (  0.4 sec)
Shell pair information
Total number of shell pairs                 ...     22155
Shell pairs after pre-screening             ...     15042
Total number of primitive shell pairs       ...     66780
Primitive shell pairs kept                  ...     31179
          la=0 lb=0:   4256 shell pairs
          la=1 lb=0:   4450 shell pairs
          la=1 lb=1:   1201 shell pairs
          la=2 lb=0:   2028 shell pairs
          la=2 lb=1:   1084 shell pairs
          la=2 lb=2:    251 shell pairs
          la=3 lb=0:    968 shell pairs
          la=3 lb=1:    519 shell pairs
          la=3 lb=2:    227 shell pairs
          la=3 lb=3:     58 shell pairs

Calculating one electron integrals          ... done (  0.1 sec)
Calculating RI/J V-Matrix + Cholesky decomp.... done (  0.1 sec)
Calculating Nuclear repulsion               ... done (  0.0 sec) ENN=    808.939603406149 Eh

SHARK setup successfully completed in   1.0 seconds

Maximum memory used throughout the entire GTOINT-calculation: 27.3 MB


           ************************************************************
           *        Program running with 102 parallel MPI-processes   *
           *              working on a common directory               *
           ************************************************************
-------------------------------------------------------------------------------
                                 ORCA SCF
-------------------------------------------------------------------------------

------------
SCF SETTINGS
------------
Hamiltonian:
 Density Functional     Method          .... DFT(GTOs)
 Exchange Functional    Exchange        .... B88
   X-Alpha parameter    XAlpha          ....  0.666667
   Becke's b parameter  XBeta           ....  0.004200
 Correlation Functional Correlation     .... LYP
 LDA part of GGA corr.  LDAOpt          .... VWN-5
 Gradients option       PostSCFGGA      .... off
 Hybrid DFT is turned on
   Fraction HF Exchange ScalHFX         ....  0.200000
   Scaling of DF-GGA-X  ScalDFX         ....  0.720000
   Scaling of DF-GGA-C  ScalDFC         ....  0.810000
   Scaling of DF-LDA-C  ScalLDAC        ....  1.000000
   Perturbative correction              ....  0.000000
   Density functional embedding theory  .... OFF
   NL short-range parameter             ....  4.800000
 RI-approximation to the Coulomb term is turned on
   Number of AuxJ basis functions       .... 840
   RIJ-COSX (HFX calculated with COS-X)).... on


General Settings:
 Integral files         IntName         .... /home/rudenko/mop_saddle_orca_4_serv/for_orca/CH2CHCH2NO2_picoline_from_lutidine/orca/orca_end/end
 Hartree-Fock type      HFTyp           .... RHF
 Total Charge           Charge          ....    0
 Multiplicity           Mult            ....    1
 Number of Electrons    NEL             ....  106
 Basis Dimension        Dim             ....  518
 Nuclear Repulsion      ENuc            ....    808.9396034061 Eh

Convergence Acceleration:
 DIIS                   CNVDIIS         .... on
   Start iteration      DIISMaxIt       ....    12
   Startup error        DIISStart       ....  0.200000
   # of expansion vecs  DIISMaxEq       ....     5
   Bias factor          DIISBfac        ....   1.050
   Max. coefficient     DIISMaxC        ....  10.000
 Trust-Rad. Augm. Hess. CNVTRAH         .... auto
   Auto Start mean grad. ratio tolernc. ....  1.125000
   Auto Start start iteration           ....    20
   Auto Start num. interpolation iter.  ....    10
   Max. Number of Micro iterations      ....    16
   Max. Number of Macro iterations      .... Maxiter - #DIIS iter
   Number of Davidson start vectors     ....     2
   Converg. threshold I  (grad. norm)   ....   1.000e-05
   Converg. threshold II (energy diff.) ....   1.000e-08
   Grad. Scal. Fac. for Micro threshold ....   0.100
   Minimum threshold for Micro iter.    ....   0.010
   NR start threshold (gradient norm)   ....   0.001
   Initial trust radius                 ....   0.400
   Minimum AH scaling param. (alpha)    ....   1.000
   Maximum AH scaling param. (alpha)    .... 1000.000
   Orbital update algorithm             .... Taylor
   White noise on init. David. guess    .... on
   Maximum white noise                  ....   0.010
   Quad. conv. algorithm                .... NR
 SOSCF                  CNVSOSCF        .... on
   Start iteration      SOSCFMaxIt      ....   150
   Startup grad/error   SOSCFStart      ....  0.003300
 Level Shifting         CNVShift        .... on
   Level shift para.    LevelShift      ....    0.2500
   Turn off err/grad.   ShiftErr        ....    0.0010
 Zerner damping         CNVZerner       .... off
 Static damping         CNVDamp         .... on
   Fraction old density DampFac         ....    0.7000
   Max. Damping (<1)    DampMax         ....    0.9800
   Min. Damping (>=0)   DampMin         ....    0.0000
   Turn off err/grad.   DampErr         ....    0.1000
 Fernandez-Rico         CNVRico         .... off

SCF Procedure:
 Maximum # iterations   MaxIter         ....   125
 SCF integral mode      SCFMode         .... Direct
   Integral package                     .... SHARK and LIBINT hybrid scheme
 Reset frequency        DirectResetFreq ....    20
 Integral Threshold     Thresh          ....  2.500e-11 Eh
 Primitive CutOff       TCut            ....  2.500e-12 Eh

Convergence Tolerance:
 Convergence Check Mode ConvCheckMode   .... Total+1el-Energy
 Convergence forced     ConvForced      .... 0
 Energy Change          TolE            ....  1.000e-08 Eh
 1-El. energy change                    ....  1.000e-05 Eh
 Orbital Gradient       TolG            ....  1.000e-05
 Orbital Rotation angle TolX            ....  1.000e-05
 DIIS Error             TolErr          ....  5.000e-07


Diagonalization of the overlap matrix:
Smallest eigenvalue                        ... 4.966e-05
Time for diagonalization                   ...    0.086 sec
Threshold for overlap eigenvalues          ... 1.000e-08
Number of eigenvalues below threshold      ... 0
Time for construction of square roots      ...    0.189 sec
Total time needed                          ...    0.277 sec

Time for model grid setup =    0.192 sec

------------------------------
INITIAL GUESS: MODEL POTENTIAL
------------------------------
Loading Hartree-Fock densities                     ... done
Calculating cut-offs                               ... done
Initializing the effective Hamiltonian             ... done
Setting up the integral package (SHARK)            ... done
Starting the Coulomb interaction                   ... done (   0.0 sec)
Reading the grid                                   ... done
Mapping shells                                     ... done
Starting the XC term evaluation                    ... done (   0.0 sec)
  promolecular density results
     # of electrons  =    105.999277027
     EX              =    -88.127253471
     EC              =     -3.588298484
     EX+EC           =    -91.715551955
Transforming the Hamiltonian                       ... done (   0.2 sec)
Diagonalizing the Hamiltonian                      ... done (   0.1 sec)
Back transforming the eigenvectors                 ... done (   0.0 sec)
Now organizing SCF variables                       ... done
                      ------------------
                      INITIAL GUESS DONE (   0.7 sec)
                      ------------------
-------------------
DFT GRID GENERATION
-------------------

General Integration Accuracy     IntAcc      ... 4.388
Radial Grid Type                 RadialGrid  ... OptM3 with GC (2021)
Angular Grid (max. ang.)         AngularGrid ... 4 (Lebedev-302)
Angular grid pruning method      GridPruning ... 4 (adaptive)
Weight generation scheme         WeightScheme... Becke
Basis function cutoff            BFCut       ... 1.0000e-11
Integration weight cutoff        WCut        ... 1.0000e-14
Angular grids for H and He will be reduced by one unit
Partially contracted basis set               ... off
Rotationally invariant grid construction     ... off

Total number of grid points                  ...   129484
Total number of batches                      ...     2037
Average number of points per batch           ...       63
Average number of grid points per atom       ...     4624
Time for grid setup =    1.088 sec

--------------------
COSX GRID GENERATION
--------------------

GRIDX 1
-------
General Integration Accuracy     IntAcc      ... 3.816
Radial Grid Type                 RadialGrid  ... OptM3 with GC (2021)
Angular Grid (max. ang.)         AngularGrid ... 1 (Lebedev-50)
Angular grid pruning method      GridPruning ... 4 (adaptive)
Weight generation scheme         WeightScheme... Becke
Basis function cutoff            BFCut       ... 1.0000e-11
Integration weight cutoff        WCut        ... 1.0000e-14
Angular grids for H and He will be reduced by one unit
Partially contracted basis set               ... on
Rotationally invariant grid construction     ... off

Total number of grid points                  ...    16544
Total number of batches                      ...      274
Average number of points per batch           ...       60
Average number of grid points per atom       ...      591
UseSFitting                                  ... on

GRIDX 2
-------
General Integration Accuracy     IntAcc      ... 4.020
Radial Grid Type                 RadialGrid  ... OptM3 with GC (2021)
Angular Grid (max. ang.)         AngularGrid ... 2 (Lebedev-110)
Angular grid pruning method      GridPruning ... 4 (adaptive)
Weight generation scheme         WeightScheme... Becke
Basis function cutoff            BFCut       ... 1.0000e-11
Integration weight cutoff        WCut        ... 1.0000e-14
Angular grids for H and He will be reduced by one unit
Partially contracted basis set               ... on
Rotationally invariant grid construction     ... off

Total number of grid points                  ...    35701
Total number of batches                      ...      571
Average number of points per batch           ...       62
Average number of grid points per atom       ...     1275
UseSFitting                                  ... on

GRIDX 3
-------
General Integration Accuracy     IntAcc      ... 4.338
Radial Grid Type                 RadialGrid  ... OptM3 with GC (2021)
Angular Grid (max. ang.)         AngularGrid ... 3 (Lebedev-194)
Angular grid pruning method      GridPruning ... 4 (adaptive)
Weight generation scheme         WeightScheme... Becke
Basis function cutoff            BFCut       ... 1.0000e-11
Integration weight cutoff        WCut        ... 1.0000e-14
Angular grids for H and He will be reduced by one unit
Partially contracted basis set               ... on
Rotationally invariant grid construction     ... off

Total number of grid points                  ...    78258
Total number of batches                      ...     1238
Average number of points per batch           ...       63
Average number of grid points per atom       ...     2795
UseSFitting                                  ... on

Time for X-Grid setup             =    1.606 sec


--------------------
CPCM SOLVATION MODEL
--------------------
CPCM parameters:
  Epsilon                                         ...      78.4000
  Refrac                                          ...       1.3300
  Rsolv                                           ...       1.3000
  Surface type                                    ... GAUSSIAN VDW
  Epsilon function type                           ...         CPCM
Radii:
 Radius for C  used is    3.8550 Bohr (=   2.0400 Ang.)
 Radius for H  used is    2.4944 Bohr (=   1.3200 Ang.)
 Radius for N  used is    3.5149 Bohr (=   1.8600 Ang.)
 Radius for O  used is    3.4469 Bohr (=   1.8240 Ang.)
Calculating surface                               ...        done! (  0.0s)
GEPOL surface points                              ...         1656
GEPOL Volume                                      ...    1759.5099
GEPOL Surface-area                                ...    1029.8698
Calculating surface distance matrix               ...        done! (  0.1s)
Performing Cholesky decomposition & store         ...        done! (  0.5s)
Overall time for CPCM initialization              ...                 0.6s
--------------
SCF ITERATIONS
--------------
ITER       Energy         Delta-E        Max-DP      RMS-DP      [F,P]     Damp
               ***  Starting incremental Fock matrix formation  ***
  0   -685.8765707244   0.000000000000 0.05524562  0.00081816  0.3059754 0.7000
  1   -686.0966733273  -0.220102602929 0.05715243  0.00059792  0.1223979 0.7000
                               ***Turning on DIIS***
  2   -686.1797683319  -0.083095004613 0.08550651  0.00095700  0.0393894 0.0000
  3   -686.3136845232  -0.133916191262 0.04899787  0.00042236  0.0678982 0.0000
  4   -686.3416630540  -0.027978530786 0.01591593  0.00014392  0.0161868 0.0000
  5   -686.3434283191  -0.001765265139 0.00707599  0.00006075  0.0057569 0.0000
                      *** Initiating the SOSCF procedure ***
                           *** Shutting down DIIS ***
                      *** Re-Reading the Fockian *** 
                      *** Removing any level shift *** 
ITER      Energy       Delta-E        Grad      Rot      Max-DP    RMS-DP
  6   -686.34357320  -0.0001448805  0.000346  0.000346  0.002224  0.000023
               *** Restarting incremental Fock matrix formation ***
  7   -686.34356037   0.0000128295  0.000160  0.000720  0.001898  0.000020
  8   -686.34355967   0.0000007010  0.000236  0.000507  0.000298  0.000005
  9   -686.34356265  -0.0000029823  0.000042  0.000205  0.000158  0.000002
 10   -686.34356256   0.0000000901  0.000057  0.000119  0.000097  0.000001
 11   -686.34356272  -0.0000001558  0.000006  0.000021  0.000054  0.000000
 12   -686.34356272  -0.0000000033  0.000009  0.000015  0.000030  0.000000
                  ***Gradient check signals convergence***
              ***Rediagonalizing the Fockian in SOSCF/NRSCF***

               *****************************************************
               *                     SUCCESS                       *
               *           SCF CONVERGED AFTER  13 CYCLES          *
               *****************************************************

Old exchange energy                            =    -17.873443590 Eh
New exchange energy                            =    -17.873457623 Eh
Exchange energy change after final integration =     -0.000014033 Eh
Total energy after final integration           =   -686.343576758 Eh
Final COS-X integration done in                =     2.858 sec

----------------
TOTAL SCF ENERGY
----------------

Total Energy       :         -686.34357676 Eh          -18676.35821 eV

Components:
Nuclear Repulsion  :          808.93960341 Eh           22012.36570 eV
Electronic Energy  :        -1495.28318016 Eh          -40688.72391 eV
One Electron Energy:        -2537.41330069 Eh          -69046.52617 eV
Two Electron Energy:         1042.13012053 Eh           28357.80226 eV
Max COSX asymmetry :            0.00000120 Eh               0.00003 eV
CPCM Dielectric    :           -0.09355306 Eh              -2.54571 eV

Virial components:
Potential Energy   :        -1369.53551848 Eh          -37266.95607 eV
Kinetic Energy     :          683.19194173 Eh           18590.59786 eV
Virial Ratio       :            2.00461310


DFT components:
N(Alpha)           :       53.000020592842 electrons
N(Beta)            :       53.000020592842 electrons
N(Total)           :      106.000041185684 electrons
E(X)               :      -71.138845787325 Eh       
E(C)               :       -4.242275624378 Eh       
E(XC)              :      -75.381121411703 Eh       
DFET-embed. en.    :        0.000000000000 Eh       
CPCM Solvation Model Properties:
Surface-charge          :           -0.02982900
Charge-correction       :           -0.00048177 Eh              -0.01311 eV
Free-energy (cav+disp)  :  This term is not implemented in the current solvation scheme

---------------
SCF CONVERGENCE
---------------

  Last Energy change         ...   -4.0250e-09  Tolerance :   1.0000e-08
  Last MAX-Density change    ...    1.6653e-15  Tolerance :   1.0000e-07
  Last RMS-Density change    ...    1.5062e-17  Tolerance :   5.0000e-09
  Last Orbital Gradient      ...    2.1166e-06  Tolerance :   1.0000e-05
  Last Orbital Rotation      ...    7.0766e-06  Tolerance :   1.0000e-05

             **** THE GBW FILE WAS UPDATED (/home/rudenko/mop_saddle_orca_4_serv/for_orca/CH2CHCH2NO2_picoline_from_lutidine/orca/orca_end/end.gbw) ****
             **** DENSITY /home/rudenko/mop_saddle_orca_4_serv/for_orca/CH2CHCH2NO2_picoline_from_lutidine/orca/orca_end/end.scfp WAS UPDATED ****
             **** ENERGY FILE WAS UPDATED (/home/rudenko/mop_saddle_orca_4_serv/for_orca/CH2CHCH2NO2_picoline_from_lutidine/orca/orca_end/end.en.tmp) ****
             **** THE GBW FILE WAS UPDATED (/home/rudenko/mop_saddle_orca_4_serv/for_orca/CH2CHCH2NO2_picoline_from_lutidine/orca/orca_end/end.gbw) ****
             **** DENSITY /home/rudenko/mop_saddle_orca_4_serv/for_orca/CH2CHCH2NO2_picoline_from_lutidine/orca/orca_end/end.scfp WAS UPDATED ****
----------------
ORBITAL ENERGIES
----------------

  NO   OCC          E(Eh)            E(eV) 
   0   2.0000     -19.147204      -521.0219 
   1   2.0000     -19.084678      -519.3205 
   2   2.0000     -19.082703      -519.2668 
   3   2.0000     -14.481651      -394.0657 
   4   2.0000     -14.414353      -392.2345 
   5   2.0000     -10.255700      -279.0718 
   6   2.0000     -10.255642      -279.0702 
   7   2.0000     -10.222170      -278.1594 
   8   2.0000     -10.219170      -278.0778 
   9   2.0000     -10.213023      -277.9105 
  10   2.0000     -10.176745      -276.9233 
  11   2.0000     -10.170896      -276.7641 
  12   2.0000     -10.170408      -276.7509 
  13   2.0000     -10.144809      -276.0543 
  14   2.0000      -1.155411       -31.4403 
  15   2.0000      -1.031578       -28.0707 
  16   2.0000      -1.010993       -27.5105 
  17   2.0000      -0.969050       -26.3692 
  18   2.0000      -0.853125       -23.2147 
  19   2.0000      -0.813254       -22.1298 
  20   2.0000      -0.811243       -22.0751 
  21   2.0000      -0.740481       -20.1495 
  22   2.0000      -0.725360       -19.7380 
  23   2.0000      -0.677924       -18.4473 
  24   2.0000      -0.645939       -17.5769 
  25   2.0000      -0.593960       -16.1625 
  26   2.0000      -0.584129       -15.8950 
  27   2.0000      -0.547775       -14.9057 
  28   2.0000      -0.531691       -14.4681 
  29   2.0000      -0.530093       -14.4246 
  30   2.0000      -0.515016       -14.0143 
  31   2.0000      -0.500763       -13.6264 
  32   2.0000      -0.480578       -13.0772 
  33   2.0000      -0.476442       -12.9647 
  34   2.0000      -0.471123       -12.8199 
  35   2.0000      -0.458849       -12.4859 
  36   2.0000      -0.451769       -12.2932 
  37   2.0000      -0.422052       -11.4846 
  38   2.0000      -0.415613       -11.3094 
  39   2.0000      -0.415493       -11.3062 
  40   2.0000      -0.410596       -11.1729 
  41   2.0000      -0.406552       -11.0628 
  42   2.0000      -0.389864       -10.6087 
  43   2.0000      -0.377957       -10.2847 
  44   2.0000      -0.346018        -9.4156 
  45   2.0000      -0.338279        -9.2050 
  46   2.0000      -0.326491        -8.8843 
  47   2.0000      -0.298925        -8.1342 
  48   2.0000      -0.287839        -7.8325 
  49   2.0000      -0.277046        -7.5388 
  50   2.0000      -0.263291        -7.1645 
  51   2.0000      -0.235503        -6.4084 
  52   2.0000      -0.182677        -4.9709 
  53   0.0000      -0.082007        -2.2315 
  54   0.0000      -0.049680        -1.3519 
  55   0.0000      -0.022465        -0.6113 
  56   0.0000       0.020699         0.5632 
  57   0.0000       0.051481         1.4009 
  58   0.0000       0.057079         1.5532 
  59   0.0000       0.063073         1.7163 
  60   0.0000       0.072300         1.9674 
  61   0.0000       0.080184         2.1819 
  62   0.0000       0.086720         2.3598 
  63   0.0000       0.089795         2.4435 
  64   0.0000       0.095478         2.5981 
  65   0.0000       0.107042         2.9128 
  66   0.0000       0.109095         2.9686 
  67   0.0000       0.125993         3.4285 
  68   0.0000       0.129251         3.5171 
  69   0.0000       0.137807         3.7499 
  70   0.0000       0.141653         3.8546 
  71   0.0000       0.147671         4.0183 
  72   0.0000       0.157127         4.2756 
  73   0.0000       0.159016         4.3270 
  74   0.0000       0.178533         4.8581 
  75   0.0000       0.180481         4.9111 
  76   0.0000       0.185809         5.0561 
  77   0.0000       0.207810         5.6548 
  78   0.0000       0.209588         5.7032 
  79   0.0000       0.217883         5.9289 
  80   0.0000       0.218997         5.9592 
  81   0.0000       0.226079         6.1519 
  82   0.0000       0.226932         6.1751 
  83   0.0000       0.229357         6.2411 
  84   0.0000       0.240452         6.5430 
  85   0.0000       0.243813         6.6345 
  86   0.0000       0.248937         6.7739 
  87   0.0000       0.251735         6.8501 
  88   0.0000       0.258763         7.0413 
  89   0.0000       0.270420         7.3585 
  90   0.0000       0.277334         7.5466 
  91   0.0000       0.284462         7.7406 
  92   0.0000       0.289822         7.8865 
  93   0.0000       0.294699         8.0192 
  94   0.0000       0.296738         8.0747 
  95   0.0000       0.327199         8.9035 
  96   0.0000       0.330994         9.0068 
  97   0.0000       0.335208         9.1215 
  98   0.0000       0.344712         9.3801 
  99   0.0000       0.346798         9.4369 
 100   0.0000       0.353754         9.6261 
 101   0.0000       0.361081         9.8255 
 102   0.0000       0.367932        10.0119 
 103   0.0000       0.373764        10.1706 
 104   0.0000       0.379107        10.3160 
 105   0.0000       0.395323        10.7573 
 106   0.0000       0.397000        10.8029 
 107   0.0000       0.409623        11.1464 
 108   0.0000       0.413737        11.2584 
 109   0.0000       0.419055        11.4031 
 110   0.0000       0.420652        11.4465 
 111   0.0000       0.424146        11.5416 
 112   0.0000       0.425091        11.5673 
 113   0.0000       0.438318        11.9272 
 114   0.0000       0.443099        12.0573 
 115   0.0000       0.450323        12.2539 
 116   0.0000       0.454835        12.3767 
 117   0.0000       0.458295        12.4708 
 118   0.0000       0.463468        12.6116 
 119   0.0000       0.469320        12.7708 
 120   0.0000       0.475059        12.9270 
 121   0.0000       0.480516        13.0755 
 122   0.0000       0.493348        13.4247 
 123   0.0000       0.499421        13.5899 
 124   0.0000       0.504388        13.7251 
 125   0.0000       0.511021        13.9056 
 126   0.0000       0.519988        14.1496 
 127   0.0000       0.526212        14.3190 
 128   0.0000       0.531838        14.4720 
 129   0.0000       0.539261        14.6740 
 130   0.0000       0.551032        14.9943 
 131   0.0000       0.553507        15.0617 
 132   0.0000       0.560265        15.2456 
 133   0.0000       0.569264        15.4905 
 134   0.0000       0.579207        15.7610 
 135   0.0000       0.583160        15.8686 
 136   0.0000       0.598620        16.2893 
 137   0.0000       0.605803        16.4847 
 138   0.0000       0.613236        16.6870 
 139   0.0000       0.620873        16.8948 
 140   0.0000       0.621822        16.9206 
 141   0.0000       0.630181        17.1481 
 142   0.0000       0.635406        17.2903 
 143   0.0000       0.651899        17.7391 
 144   0.0000       0.660179        17.9644 
 145   0.0000       0.668923        18.2023 
 146   0.0000       0.672793        18.3076 
 147   0.0000       0.677292        18.4301 
 148   0.0000       0.693985        18.8843 
 149   0.0000       0.699105        19.0236 
 150   0.0000       0.700661        19.0660 
 151   0.0000       0.735249        20.0071 
 152   0.0000       0.743227        20.2242 
 153   0.0000       0.754866        20.5409 
 154   0.0000       0.762602        20.7515 
 155   0.0000       0.772545        21.0220 
 156   0.0000       0.798441        21.7267 
 157   0.0000       0.803016        21.8512 
 158   0.0000       0.805796        21.9268 
 159   0.0000       0.818569        22.2744 
 160   0.0000       0.826365        22.4865 
 161   0.0000       0.848734        23.0952 
 162   0.0000       0.863210        23.4891 
 163   0.0000       0.874580        23.7985 
 164   0.0000       0.907874        24.7045 
 165   0.0000       0.924313        25.1518 
 166   0.0000       0.932673        25.3793 
 167   0.0000       0.937175        25.5018 
 168   0.0000       0.946515        25.7560 
 169   0.0000       0.957252        26.0481 
 170   0.0000       0.989572        26.9276 
 171   0.0000       0.999432        27.1959 
 172   0.0000       1.008976        27.4556 
 173   0.0000       1.017271        27.6814 
 174   0.0000       1.020181        27.7605 
 175   0.0000       1.056312        28.7437 
 176   0.0000       1.063067        28.9275 
 177   0.0000       1.072083        29.1729 
 178   0.0000       1.089239        29.6397 
 179   0.0000       1.090613        29.6771 
 180   0.0000       1.102689        30.0057 
 181   0.0000       1.115285        30.3485 
 182   0.0000       1.156704        31.4755 
 183   0.0000       1.158561        31.5260 
 184   0.0000       1.174109        31.9491 
 185   0.0000       1.180231        32.1157 
 186   0.0000       1.186639        32.2901 
 187   0.0000       1.203412        32.7465 
 188   0.0000       1.209724        32.9183 
 189   0.0000       1.230248        33.4768 
 190   0.0000       1.234399        33.5897 
 191   0.0000       1.240556        33.7572 
 192   0.0000       1.249746        34.0073 
 193   0.0000       1.255747        34.1706 
 194   0.0000       1.262350        34.3503 
 195   0.0000       1.268028        34.5048 
 196   0.0000       1.290709        35.1220 
 197   0.0000       1.300676        35.3932 
 198   0.0000       1.307494        35.5787 
 199   0.0000       1.331262        36.2255 
 200   0.0000       1.336648        36.3721 
 201   0.0000       1.359234        36.9866 
 202   0.0000       1.377017        37.4705 
 203   0.0000       1.399440        38.0807 
 204   0.0000       1.409656        38.3587 
 205   0.0000       1.418695        38.6047 
 206   0.0000       1.435627        39.0654 
 207   0.0000       1.444025        39.2939 
 208   0.0000       1.463912        39.8351 
 209   0.0000       1.477553        40.2063 
 210   0.0000       1.489854        40.5410 
 211   0.0000       1.503177        40.9035 
 212   0.0000       1.505817        40.9754 
 213   0.0000       1.512711        41.1630 
 214   0.0000       1.519164        41.3385 
 215   0.0000       1.538900        41.8756 
 216   0.0000       1.540476        41.9185 
 217   0.0000       1.551455        42.2172 
 218   0.0000       1.561027        42.4777 
 219   0.0000       1.562205        42.5098 
 220   0.0000       1.572754        42.7968 
 221   0.0000       1.577060        42.9140 
 222   0.0000       1.586307        43.1656 
 223   0.0000       1.610901        43.8348 
 224   0.0000       1.615974        43.9729 
 225   0.0000       1.618028        44.0288 
 226   0.0000       1.645409        44.7739 
 227   0.0000       1.649220        44.8775 
 228   0.0000       1.656896        45.0864 
 229   0.0000       1.666480        45.3472 
 230   0.0000       1.675666        45.5972 
 231   0.0000       1.678789        45.6822 
 232   0.0000       1.694894        46.1204 
 233   0.0000       1.704662        46.3862 
 234   0.0000       1.705626        46.4124 
 235   0.0000       1.720498        46.8171 
 236   0.0000       1.729120        47.0517 
 237   0.0000       1.735526        47.2261 
 238   0.0000       1.756881        47.8072 
 239   0.0000       1.769646        48.1545 
 240   0.0000       1.776309        48.3358 
 241   0.0000       1.799123        48.9566 
 242   0.0000       1.813003        49.3343 
 243   0.0000       1.847056        50.2609 
 244   0.0000       1.855441        50.4891 
 245   0.0000       1.869920        50.8831 
 246   0.0000       1.875204        51.0269 
 247   0.0000       1.879351        51.1397 
 248   0.0000       1.896512        51.6067 
 249   0.0000       1.909316        51.9551 
 250   0.0000       1.920327        52.2548 
 251   0.0000       1.929878        52.5147 
 252   0.0000       1.938356        52.7454 
 253   0.0000       1.962362        53.3986 
 254   0.0000       1.976542        53.7844 
 255   0.0000       1.993202        54.2378 
 256   0.0000       2.026289        55.1381 
 257   0.0000       2.032196        55.2989 
 258   0.0000       2.037144        55.4335 
 259   0.0000       2.040845        55.5342 
 260   0.0000       2.048690        55.7477 
 261   0.0000       2.057648        55.9914 
 262   0.0000       2.071961        56.3809 
 263   0.0000       2.103153        57.2297 
 264   0.0000       2.116721        57.5989 
 265   0.0000       2.122531        57.7570 
 266   0.0000       2.136297        58.1316 
 267   0.0000       2.145899        58.3929 
 268   0.0000       2.170075        59.0508 
 269   0.0000       2.175516        59.1988 
 270   0.0000       2.190485        59.6061 
 271   0.0000       2.197899        59.8079 
 272   0.0000       2.200707        59.8843 
 273   0.0000       2.214597        60.2622 
 274   0.0000       2.223071        60.4928 
 275   0.0000       2.233349        60.7725 
 276   0.0000       2.266504        61.6747 
 277   0.0000       2.269621        61.7595 
 278   0.0000       2.290671        62.3323 
 279   0.0000       2.296550        62.4923 
 280   0.0000       2.317429        63.0605 
 281   0.0000       2.333478        63.4972 
 282   0.0000       2.339627        63.6645 
 283   0.0000       2.361542        64.2608 
 284   0.0000       2.378198        64.7140 
 285   0.0000       2.382841        64.8404 
 286   0.0000       2.397730        65.2455 
 287   0.0000       2.410531        65.5939 
 288   0.0000       2.428627        66.0863 
 289   0.0000       2.465939        67.1016 
 290   0.0000       2.475482        67.3613 
 291   0.0000       2.488384        67.7124 
 292   0.0000       2.503261        68.1172 
 293   0.0000       2.509732        68.2933 
 294   0.0000       2.515370        68.4467 
 295   0.0000       2.521680        68.6184 
 296   0.0000       2.524325        68.6904 
 297   0.0000       2.541852        69.1673 
 298   0.0000       2.558105        69.6096 
 299   0.0000       2.575872        70.0930 
 300   0.0000       2.580737        70.2254 
 301   0.0000       2.590277        70.4850 
 302   0.0000       2.606864        70.9364 
 303   0.0000       2.611283        71.0566 
 304   0.0000       2.612020        71.0767 
 305   0.0000       2.629333        71.5478 
 306   0.0000       2.636876        71.7531 
 307   0.0000       2.643092        71.9222 
 308   0.0000       2.653014        72.1922 
 309   0.0000       2.665669        72.5365 
 310   0.0000       2.677196        72.8502 
 311   0.0000       2.686347        73.0992 
 312   0.0000       2.688791        73.1657 
 313   0.0000       2.700979        73.4974 
 314   0.0000       2.720545        74.0298 
 315   0.0000       2.728943        74.2583 
 316   0.0000       2.739567        74.5474 
 317   0.0000       2.756619        75.0114 
 318   0.0000       2.760291        75.1113 
 319   0.0000       2.765840        75.2623 
 320   0.0000       2.776123        75.5422 
 321   0.0000       2.782054        75.7035 
 322   0.0000       2.790545        75.9346 
 323   0.0000       2.803500        76.2871 
 324   0.0000       2.824654        76.8627 
 325   0.0000       2.825559        76.8874 
 326   0.0000       2.833594        77.1060 
 327   0.0000       2.841717        77.3270 
 328   0.0000       2.881861        78.4194 
 329   0.0000       2.885013        78.5052 
 330   0.0000       2.897124        78.8348 
 331   0.0000       2.922224        79.5178 
 332   0.0000       2.928487        79.6882 
 333   0.0000       2.953915        80.3801 
 334   0.0000       2.966819        80.7312 
 335   0.0000       2.983125        81.1750 
 336   0.0000       2.990519        81.3761 
 337   0.0000       2.995614        81.5148 
 338   0.0000       2.997675        81.5709 
 339   0.0000       3.003709        81.7351 
 340   0.0000       3.016926        82.0947 
 341   0.0000       3.027459        82.3813 
 342   0.0000       3.031536        82.4923 
 343   0.0000       3.047908        82.9378 
 344   0.0000       3.062959        83.3474 
 345   0.0000       3.074080        83.6500 
 346   0.0000       3.079294        83.7919 
 347   0.0000       3.091922        84.1355 
 348   0.0000       3.095538        84.2339 
 349   0.0000       3.101559        84.3977 
 350   0.0000       3.110587        84.6434 
 351   0.0000       3.131351        85.2084 
 352   0.0000       3.145469        85.5926 
 353   0.0000       3.156826        85.9016 
 354   0.0000       3.160101        85.9907 
 355   0.0000       3.166411        86.1624 
 356   0.0000       3.171404        86.2983 
 357   0.0000       3.173905        86.3663 
 358   0.0000       3.184286        86.6488 
 359   0.0000       3.203426        87.1696 
 360   0.0000       3.211991        87.4027 
 361   0.0000       3.232636        87.9645 
 362   0.0000       3.235069        88.0307 
 363   0.0000       3.242241        88.2259 
 364   0.0000       3.250109        88.4400 
 365   0.0000       3.275608        89.1338 
 366   0.0000       3.281274        89.2880 
 367   0.0000       3.284409        89.3733 
 368   0.0000       3.295128        89.6650 
 369   0.0000       3.307414        89.9993 
 370   0.0000       3.321100        90.3717 
 371   0.0000       3.326279        90.5127 
 372   0.0000       3.334173        90.7275 
 373   0.0000       3.338246        90.8383 
 374   0.0000       3.367098        91.6234 
 375   0.0000       3.378486        91.9333 
 376   0.0000       3.387696        92.1839 
 377   0.0000       3.407069        92.7111 
 378   0.0000       3.409720        92.7832 
 379   0.0000       3.425374        93.2092 
 380   0.0000       3.432002        93.3895 
 381   0.0000       3.447488        93.8109 
 382   0.0000       3.477869        94.6376 
 383   0.0000       3.480308        94.7040 
 384   0.0000       3.497121        95.1615 
 385   0.0000       3.561861        96.9232 
 386   0.0000       3.569372        97.1276 
 387   0.0000       3.581441        97.4560 
 388   0.0000       3.617004        98.4237 
 389   0.0000       3.621873        98.5562 
 390   0.0000       3.643782        99.1523 
 391   0.0000       3.656889        99.5090 
 392   0.0000       3.690803       100.4319 
 393   0.0000       3.715832       101.1129 
 394   0.0000       3.719570       101.2146 
 395   0.0000       3.733712       101.5995 
 396   0.0000       3.738121       101.7194 
 397   0.0000       3.771540       102.6288 
 398   0.0000       3.774150       102.6999 
 399   0.0000       3.804088       103.5145 
 400   0.0000       3.814695       103.8031 
 401   0.0000       3.817622       103.8828 
 402   0.0000       3.827550       104.1529 
 403   0.0000       3.876386       105.4818 
 404   0.0000       3.902505       106.1926 
 405   0.0000       3.966918       107.9453 
 406   0.0000       3.976445       108.2046 
 407   0.0000       4.003073       108.9292 
 408   0.0000       4.023093       109.4739 
 409   0.0000       4.042483       110.0016 
 410   0.0000       4.046071       110.0992 
 411   0.0000       4.058351       110.4334 
 412   0.0000       4.065499       110.6278 
 413   0.0000       4.119987       112.1105 
 414   0.0000       4.132359       112.4472 
 415   0.0000       4.134589       112.5079 
 416   0.0000       4.155889       113.0875 
 417   0.0000       4.177898       113.6864 
 418   0.0000       4.216866       114.7468 
 419   0.0000       4.224800       114.9626 
 420   0.0000       4.255974       115.8109 
 421   0.0000       4.294275       116.8532 
 422   0.0000       4.311248       117.3150 
 423   0.0000       4.330081       117.8275 
 424   0.0000       4.335684       117.9800 
 425   0.0000       4.355877       118.5295 
 426   0.0000       4.401445       119.7694 
 427   0.0000       4.421461       120.3141 
 428   0.0000       4.431213       120.5794 
 429   0.0000       4.438644       120.7816 
 430   0.0000       4.497800       122.3913 
 431   0.0000       4.515970       122.8858 
 432   0.0000       4.555092       123.9504 
 433   0.0000       4.563861       124.1890 
 434   0.0000       4.587228       124.8248 
 435   0.0000       4.589401       124.8839 
 436   0.0000       4.691495       127.6621 
 437   0.0000       4.705872       128.0533 
 438   0.0000       4.733867       128.8151 
 439   0.0000       4.735899       128.8704 
 440   0.0000       4.749551       129.2418 
 441   0.0000       4.756121       129.4206 
 442   0.0000       4.778889       130.0402 
 443   0.0000       4.783671       130.1703 
 444   0.0000       4.804920       130.7485 
 445   0.0000       4.864282       132.3639 
 446   0.0000       4.886814       132.9770 
 447   0.0000       4.930568       134.1676 
 448   0.0000       4.941610       134.4680 
 449   0.0000       5.000755       136.0775 
 450   0.0000       5.011178       136.3611 
 451   0.0000       5.029544       136.8609 
 452   0.0000       5.052595       137.4881 
 453   0.0000       5.094497       138.6283 
 454   0.0000       5.097777       138.7176 
 455   0.0000       5.130827       139.6169 
 456   0.0000       5.151981       140.1925 
 457   0.0000       5.158361       140.3661 
 458   0.0000       5.161354       140.4476 
 459   0.0000       5.186352       141.1278 
 460   0.0000       5.188025       141.1733 
 461   0.0000       5.199410       141.4831 
 462   0.0000       5.203103       141.5836 
 463   0.0000       5.208832       141.7395 
 464   0.0000       5.258655       143.0953 
 465   0.0000       5.302847       144.2978 
 466   0.0000       5.320584       144.7804 
 467   0.0000       5.343881       145.4144 
 468   0.0000       5.375453       146.2735 
 469   0.0000       5.416641       147.3943 
 470   0.0000       5.427804       147.6981 
 471   0.0000       5.467488       148.7779 
 472   0.0000       5.483877       149.2239 
 473   0.0000       5.542599       150.8218 
 474   0.0000       5.615448       152.8041 
 475   0.0000       5.680046       154.5619 
 476   0.0000       5.682812       154.6372 
 477   0.0000       5.714724       155.5055 
 478   0.0000       5.779376       157.2648 
 479   0.0000       5.873375       159.8227 
 480   0.0000       5.933330       161.4541 
 481   0.0000       5.994646       163.1226 
 482   0.0000       6.011326       163.5765 
 483   0.0000       6.234088       169.6382 
 484   0.0000       6.248555       170.0318 
 485   0.0000       6.297492       171.3635 
 486   0.0000       6.345665       172.6743 
 487   0.0000       6.376314       173.5083 
 488   0.0000       6.382054       173.6645 
 489   0.0000       6.421815       174.7465 
 490   0.0000       6.423286       174.7865 
 491   0.0000       6.451951       175.5665 
 492   0.0000       6.551007       178.2620 
 493   0.0000       6.746934       183.5934 
[...]
      py      :     0.010333
 25 H s       :     0.581553  s :     0.581553
      pz      :     0.014028  p :     0.044952
      px      :     0.012173
      py      :     0.018751
 26 O s       :     3.791348  s :     3.791348
      pz      :     1.616203  p :     4.880984
      px      :     1.724910
      py      :     1.539871
      dz2     :     0.000861  d :     0.017984
      dxz     :     0.005447
      dyz     :     0.003433
      dx2y2   :     0.006716
      dxy     :     0.001527
      f0      :     0.000176  f :     0.001193
      f+1     :     0.000243
      f-1     :     0.000024
      f+2     :     0.000550
      f-2     :     0.000031
      f+3     :     0.000015
      f-3     :     0.000155
 27 H s       :     0.648815  s :     0.648815
      pz      :     0.018081  p :     0.049910
      px      :     0.006127
      py      :     0.025703


                     *******************************
                     * LOEWDIN POPULATION ANALYSIS *
                     *******************************

----------------------
LOEWDIN ATOMIC CHARGES
----------------------
   0 C :   -0.251224
   1 H :    0.145093
   2 N :   -0.069174
   3 O :   -0.273555
   4 O :   -0.286752
   5 H :    0.118421
   6 C :   -0.320659
   7 H :    0.135417
   8 H :    0.164183
   9 C :   -0.270635
  10 H :    0.118749
  11 C :   -0.078464
  12 C :   -0.145470
  13 C :   -0.030546
  14 C :   -0.099996
  15 C :   -0.109219
  16 N :    0.274082
  17 H :    0.168124
  18 H :    0.167693
  19 H :    0.158905
  20 C :   -0.230413
  21 H :    0.139798
  22 H :    0.142893
  23 H :    0.137954
  24 H :    0.169279
  25 H :    0.182750
  26 O :   -0.266587
  27 H :    0.209356

-------------------------------
LOEWDIN REDUCED ORBITAL CHARGES
-------------------------------
  0 C s       :     2.788725  s :     2.788725
      pz      :     0.942439  p :     2.984856
      px      :     0.952333
      py      :     1.090084
      dz2     :     0.052093  d :     0.433061
      dxz     :     0.042431
      dyz     :     0.125229
      dx2y2   :     0.094783
      dxy     :     0.118525
      f0      :     0.005489  f :     0.044583
      f+1     :     0.004669
      f-1     :     0.005224
      f+2     :     0.007206
      f-2     :     0.004990
      f+3     :     0.010415
      f-3     :     0.006590
  1 H s       :     0.795011  s :     0.795011
      pz      :     0.021369  p :     0.059897
      px      :     0.018088
      py      :     0.020439
  2 N s       :     2.930867  s :     2.930867
      pz      :     1.080159  p :     3.345983
      px      :     1.081626
      py      :     1.184198
      dz2     :     0.137665  d :     0.727031
      dxz     :     0.117797
      dyz     :     0.162789
      dx2y2   :     0.151004
      dxy     :     0.157777
      f0      :     0.008731  f :     0.065293
      f+1     :     0.007963
      f-1     :     0.008275
      f+2     :     0.012422
      f-2     :     0.008663
      f+3     :     0.011657
      f-3     :     0.007582
  3 O s       :     3.533932  s :     3.533932
      pz      :     1.492344  p :     4.642973
      px      :     1.555560
      py      :     1.595069
      dz2     :     0.014751  d :     0.087486
      dxz     :     0.019606
      dyz     :     0.023638
      dx2y2   :     0.010834
      dxy     :     0.018656
      f0      :     0.000923  f :     0.009165
      f+1     :     0.001128
      f-1     :     0.001477
      f+2     :     0.001281
      f-2     :     0.002649
      f+3     :     0.000867
      f-3     :     0.000840
  4 O s       :     3.539076  s :     3.539076
      pz      :     1.504265  p :     4.651923
      px      :     1.458676
      py      :     1.688982
      dz2     :     0.013987  d :     0.086737
      dxz     :     0.026521
      dyz     :     0.015515
      dx2y2   :     0.013414
      dxy     :     0.017300
      f0      :     0.000906  f :     0.009016
      f+1     :     0.001674
      f-1     :     0.000774
      f+2     :     0.001488
      f-2     :     0.002367
      f+3     :     0.000718
      f-3     :     0.001088
  5 H s       :     0.818119  s :     0.818119
      pz      :     0.023744  p :     0.063460
      px      :     0.020343
      py      :     0.019372
  6 C s       :     2.793993  s :     2.793993
      pz      :     1.066338  p :     3.049079
      px      :     1.071251
      py      :     0.911490
      dz2     :     0.056630  d :     0.422377
      dxz     :     0.051845
      dyz     :     0.100050
      dx2y2   :     0.109754
      dxy     :     0.104098
      f0      :     0.005495  f :     0.055210
      f+1     :     0.004924
      f-1     :     0.007273
      f+2     :     0.009853
      f-2     :     0.004395
      f+3     :     0.012543
      f-3     :     0.010727
  7 H s       :     0.799229  s :     0.799229
      pz      :     0.027906  p :     0.065354
      px      :     0.022884
      py      :     0.014565
  8 H s       :     0.664920  s :     0.664920
      pz      :     0.066430  p :     0.170897
      px      :     0.074674
      py      :     0.029793
  9 C s       :     2.857567  s :     2.857567
      pz      :     1.028357  p :     3.151658
      px      :     1.028365
      py      :     1.094936
      dz2     :     0.014070  d :     0.234581
      dxz     :     0.015498
      dyz     :     0.080761
      dx2y2   :     0.048209
      dxy     :     0.076044
      f0      :     0.003300  f :     0.026830
      f+1     :     0.001606
      f-1     :     0.002875
      f+2     :     0.004684
      f-2     :     0.003003
      f+3     :     0.005892
      f-3     :     0.005471
 10 H s       :     0.817038  s :     0.817038
      pz      :     0.023338  p :     0.064213
      px      :     0.026563
      py      :     0.014312
 11 C s       :     2.765281  s :     2.765281
      pz      :     0.912364  p :     2.805991
      px      :     0.921841
      py      :     0.971787
      dz2     :     0.119648  d :     0.445407
      dxz     :     0.085800
      dyz     :     0.083209
      dx2y2   :     0.054951
      dxy     :     0.101799
      f0      :     0.008057  f :     0.061784
      f+1     :     0.010997
      f-1     :     0.008913
      f+2     :     0.010574
      f-2     :     0.011104
      f+3     :     0.006197
      f-3     :     0.005941
 12 C s       :     2.716870  s :     2.716870
      pz      :     0.933074  p :     2.857534
      px      :     0.966024
      py      :     0.958436
      dz2     :     0.104045  d :     0.513117
      dxz     :     0.103648
      dyz     :     0.093318
      dx2y2   :     0.100293
      dxy     :     0.111813
      f0      :     0.007892  f :     0.057950
      f+1     :     0.006020
      f-1     :     0.008665
      f+2     :     0.008073
      f-2     :     0.010537
      f+3     :     0.009671
      f-3     :     0.007092
 13 C s       :     2.764121  s :     2.764121
      pz      :     0.941594  p :     2.847119
      px      :     0.980412
      py      :     0.925113
      dz2     :     0.056750  d :     0.376347
      dxz     :     0.086016
      dyz     :     0.077820
      dx2y2   :     0.087544
      dxy     :     0.068218
      f0      :     0.006740  f :     0.042959
      f+1     :     0.005684
      f-1     :     0.004359
      f+2     :     0.005928
      f-2     :     0.007393
      f+3     :     0.007616
      f-3     :     0.005239
 14 C s       :     2.765655  s :     2.765655
      pz      :     0.984746  p :     2.926289
      px      :     0.969843
      py      :     0.971700
      dz2     :     0.085327  d :     0.364319
      dxz     :     0.061345
      dyz     :     0.082605
      dx2y2   :     0.056705
      dxy     :     0.078338
      f0      :     0.005086  f :     0.043733
      f+1     :     0.005740
      f-1     :     0.007543
      f+2     :     0.007935
      f-2     :     0.007724
      f+3     :     0.004955
      f-3     :     0.004751
 15 C s       :     2.773720  s :     2.773720
      pz      :     0.962989  p :     2.823503
      px      :     0.903734
      py      :     0.956780
      dz2     :     0.066813  d :     0.448890
      dxz     :     0.094069
      dyz     :     0.068551
      dx2y2   :     0.105309
      dxy     :     0.114149
      f0      :     0.007025  f :     0.063107
      f+1     :     0.005946
      f-1     :     0.008738
      f+2     :     0.006729
      f-2     :     0.010681
      f+3     :     0.014880
      f-3     :     0.009107
 16 N s       :     2.907828  s :     2.907828
      pz      :     1.177609  p :     3.542866
      px      :     1.193197
      py      :     1.172060
      dz2     :     0.040986  d :     0.257730
      dxz     :     0.058471
      dyz     :     0.048941
      dx2y2   :     0.061572
      dxy     :     0.047760
      f0      :     0.003113  f :     0.017495
      f+1     :     0.001959
      f-1     :     0.001854
      f+2     :     0.002431
      f-2     :     0.002741
      f+3     :     0.003193
      f-3     :     0.002204
 17 H s       :     0.769956  s :     0.769956
      pz      :     0.009994  p :     0.061920
      px      :     0.029773
      py      :     0.022153
 18 H s       :     0.771890  s :     0.771890
      pz      :     0.011598  p :     0.060417
      px      :     0.029479
      py      :     0.019341
 19 H s       :     0.775551  s :     0.775551
      pz      :     0.030893  p :     0.065544
      px      :     0.021947
      py      :     0.012704
 20 C s       :     2.816864  s :     2.816864
      pz      :     1.036261  p :     3.148340
      px      :     1.043033
      py      :     1.069045
      dz2     :     0.061918  d :     0.240004
      dxz     :     0.057271
      dyz     :     0.033777
      dx2y2   :     0.017931
      dxy     :     0.069107
      f0      :     0.003224  f :     0.025205
      f+1     :     0.005143
      f-1     :     0.003200
      f+2     :     0.004328
      f-2     :     0.003701
      f+3     :     0.004152
      f-3     :     0.001457
 21 H s       :     0.798821  s :     0.798821
      pz      :     0.028296  p :     0.061381
      px      :     0.017954
      py      :     0.015131
 22 H s       :     0.795717  s :     0.795717
      pz      :     0.014396  p :     0.061390
      px      :     0.020711
      py      :     0.026283
 23 H s       :     0.800726  s :     0.800726
      pz      :     0.013148  p :     0.061320
      px      :     0.020151
      py      :     0.028021
 24 H s       :     0.771292  s :     0.771292
      pz      :     0.020835  p :     0.059429
      px      :     0.011452
      py      :     0.027142
 25 H s       :     0.657663  s :     0.657663
      pz      :     0.044549  p :     0.159587
      px      :     0.036617
      py      :     0.078421
 26 O s       :     3.442724  s :     3.442724
      pz      :     1.580015  p :     4.792859
      px      :     1.688263
      py      :     1.524581
      dz2     :     0.001105  d :     0.028741
      dxz     :     0.009165
      dyz     :     0.006793
      dx2y2   :     0.011012
      dxy     :     0.000666
      f0      :     0.000356  f :     0.002264
      f+1     :     0.000380
      f-1     :     0.000015
      f+2     :     0.000986
      f-2     :     0.000007
      f+3     :     0.000121
      f-3     :     0.000399
 27 H s       :     0.654682  s :     0.654682
      pz      :     0.049232  p :     0.135962
      px      :     0.016850
      py      :     0.069880


                      *****************************
                      * MAYER POPULATION ANALYSIS *
                      *****************************

  NA   - Mulliken gross atomic population
  ZA   - Total nuclear charge
  QA   - Mulliken gross atomic charge
  VA   - Mayer's total valence
  BVA  - Mayer's bonded valence
  FA   - Mayer's free valence

  ATOM       NA         ZA         QA         VA         BVA        FA
  0 C      6.0758     6.0000    -0.0758     3.7785     3.7785     0.0000
  1 H      0.8752     1.0000     0.1248     1.0081     1.0081    -0.0000
  2 N      6.5830     7.0000     0.4170     4.0968     4.0968     0.0000
  3 O      8.5608     8.0000    -0.5608     1.6571     1.6571     0.0000
  4 O      8.5704     8.0000    -0.5704     1.6136     1.6136    -0.0000
  5 H      0.8704     1.0000     0.1296     0.9762     0.9762    -0.0000
  6 C      6.3338     6.0000    -0.3338     3.8201     3.8201    -0.0000
  7 H      0.8524     1.0000     0.1476     0.9959     0.9959     0.0000
  8 H      0.6152     1.0000     0.3848     0.8785     0.8785    -0.0000
  9 C      6.4141     6.0000    -0.4141     3.8372     3.8372    -0.0000
 10 H      0.8594     1.0000     0.1406     0.9699     0.9699    -0.0000
 11 C      6.0243     6.0000    -0.0243     3.9150     3.9150     0.0000
 12 C      5.8947     6.0000     0.1053     3.7620     3.7620    -0.0000
 13 C      6.1220     6.0000    -0.1220     3.9174     3.9174    -0.0000
 14 C      6.1159     6.0000    -0.1159     3.9207     3.9207    -0.0000
 15 C      6.0016     6.0000    -0.0016     3.8725     3.8725     0.0000
 16 N      7.0866     7.0000    -0.0866     3.4939     3.4939    -0.0000
 17 H      0.7995     1.0000     0.2005     0.9575     0.9575    -0.0000
 18 H      0.8210     1.0000     0.1790     0.9613     0.9613     0.0000
 19 H      0.7628     1.0000     0.2372     0.9255     0.9255     0.0000
 20 C      6.3653     6.0000    -0.3653     3.8527     3.8527    -0.0000
 21 H      0.8518     1.0000     0.1482     0.9620     0.9620     0.0000
 22 H      0.8493     1.0000     0.1507     0.9581     0.9581    -0.0000
 23 H      0.8543     1.0000     0.1457     0.9669     0.9669    -0.0000
 24 H      0.8238     1.0000     0.1762     0.9594     0.9594     0.0000
 25 H      0.6265     1.0000     0.3735     0.8746     0.8746     0.0000
 26 O      8.6915     8.0000    -0.6915     1.8296     1.8296    -0.0000
 27 H      0.6987     1.0000     0.3013     0.9413     0.9413    -0.0000

  Mayer bond orders larger than 0.100000
B(  0-C ,  1-H ) :   0.9426 B(  0-C ,  6-C ) :   1.1537 B(  0-C ,  9-C ) :   1.7074 
B(  2-N ,  3-O ) :   1.3667 B(  2-N ,  4-O ) :   1.3107 B(  2-N ,  6-C ) :   1.3816 
B(  4-O ,  6-C ) :   0.1372 B(  5-H ,  9-C ) :   0.9721 B(  6-C ,  7-H ) :   0.9566 
B(  8-H , 26-O ) :   0.8314 B(  9-C , 10-H ) :   0.9759 B( 11-C , 12-C ) :   1.4338 
B( 11-C , 16-N ) :   1.3174 B( 11-C , 17-H ) :   0.9318 B( 12-C , 13-C ) :   1.3448 
B( 12-C , 20-C ) :   0.9318 B( 13-C , 14-C ) :   1.4195 B( 13-C , 24-H ) :   0.9524 
B( 14-C , 15-C ) :   1.4410 B( 14-C , 18-H ) :   0.9538 B( 15-C , 16-N ) :   1.3149 
B( 15-C , 19-H ) :   0.9051 B( 16-N , 27-H ) :   0.8021 B( 20-C , 21-H ) :   0.9702 
B( 20-C , 22-H ) :   0.9453 B( 20-C , 23-H ) :   0.9793 B( 25-H , 26-O ) :   0.8662 
B( 26-O , 27-H ) :   0.1236 

-------
TIMINGS
-------

Total SCF time: 0 days 0 hours 0 min 29 sec 

Total time                  ....      29.235 sec
Sum of individual times     ....      26.458 sec  ( 90.5%)

Fock matrix formation       ....      19.611 sec  ( 67.1%)
  Split-RI-J                ....       3.404 sec  ( 17.4% of F)
  Chain of spheres X        ....       7.761 sec  ( 39.6% of F)
  XC integration            ....       2.481 sec  ( 12.7% of F)
    Basis function eval.    ....       0.214 sec  (  8.6% of XC)
    Density eval.           ....       0.554 sec  ( 22.3% of XC)
    XC-Functional eval.     ....       0.016 sec  (  0.6% of XC)
    XC-Potential eval.      ....       0.185 sec  (  7.5% of XC)
Diagonalization             ....       0.228 sec  (  0.8%)
Density matrix formation    ....       0.248 sec  (  0.8%)
Population analysis         ....       0.425 sec  (  1.5%)
Initial guess               ....       0.458 sec  (  1.6%)
Orbital Transformation      ....       0.000 sec  (  0.0%)
Orbital Orthonormalization  ....       0.382 sec  (  1.3%)
DIIS solution               ....       0.129 sec  (  0.4%)
SOSCF solution              ....       2.907 sec  (  9.9%)
Grid generation             ....       2.453 sec  (  8.4%)

Maximum memory used throughout the entire SCF-calculation: 104.9 MB


-------------------------------------------------------------------------------
                          DFT DISPERSION CORRECTION                            
                                                                               
                              DFTD3 V3.1  Rev 1                                
                          USING Becke-Johnson damping                          
-------------------------------------------------------------------------------
The B3LYP functional is recognized
Active option DFTDOPT                   ...         4   

molecular C6(AA) [au] = 7581.418349 


            DFT-D V3
 parameters
 s6 scaling factor         :     1.0000 
 a1 scaling factor         :     0.3981 
 s8 scaling factor         :     1.9889 
 a2 scaling factor         :     4.4211 
 ad hoc parameters k1-k3   :    16.0000     1.3333    -4.0000 

 Edisp/kcal,au: -27.724811464329  -0.044182294695 
 E6   /kcal   : -13.515875302 
 E8   /kcal   : -14.208936162 
 % E8         :  51.249892828 

-------------------------   ----------------
Dispersion correction           -0.044182295
-------------------------   ----------------


-------------------------   --------------------
FINAL SINGLE POINT ENERGY      -686.396861463142
-------------------------   --------------------

                                *** OPTIMIZATION RUN DONE ***

                            ***************************************
                            *     ORCA property calculations      *
                            ***************************************

                                    ---------------------
                                    Active property flags
                                    ---------------------
   (+) Dipole Moment


------------------------------------------------------------------------------
                       ORCA ELECTRIC PROPERTIES CALCULATION
------------------------------------------------------------------------------

Dipole Moment Calculation                       ... on
Quadrupole Moment Calculation                   ... off
Polarizability Calculation                      ... off
GBWName                                         ... /home/rudenko/mop_saddle_orca_4_serv/for_orca/CH2CHCH2NO2_picoline_from_lutidine/orca/orca_end/end.gbw
Electron density                                ... /home/rudenko/mop_saddle_orca_4_serv/for_orca/CH2CHCH2NO2_picoline_from_lutidine/orca/orca_end/end.scfp
The origin for moment calculation is the CENTER OF MASS  = ( 8.337082,  1.154544 -1.200378)

-------------
DIPOLE MOMENT
-------------
                                X             Y             Z
Electronic contribution:     -0.99472      -5.14494      -3.31518
Nuclear contribution   :      3.45606      12.77275      10.73173
                        -----------------------------------------
Total Dipole Moment    :      2.46135       7.62781       7.41654
                        -----------------------------------------
Magnitude (a.u.)       :     10.92002
Magnitude (Debye)      :     27.75649



--------------------
Rotational spectrum 
--------------------
 
Rotational constants in cm-1:     0.045733     0.007452     0.006680 
Rotational constants in MHz :  1371.036817   223.404657   200.250686 

 Dipole components along the rotational axes: 
x,y,z [a.u.] :    10.871029     1.007188    -0.230557 
x,y,z [Debye]:    27.631961     2.560067    -0.586029 

 

Timings for individual modules:

Sum of individual times         ...     3662.788 sec (=  61.046 min)
GTO integral calculation        ...      287.983 sec (=   4.800 min)   7.9 %
SCF iterations                  ...     2750.732 sec (=  45.846 min)  75.1 %
SCF Gradient evaluation         ...      618.616 sec (=  10.310 min)  16.9 %
Geometry relaxation             ...        5.457 sec (=   0.091 min)   0.1 %
                             ****ORCA TERMINATED NORMALLY****
TOTAL RUN TIME: 0 days 1 hours 4 minutes 49 seconds 531 msec
