
                                 *****************
                                 * O   R   C   A *
                                 *****************

                                            #,                                       
                                            ###                                      
                                            ####                                     
                                            #####                                    
                                            ######                                   
                                           ########,                                 
                                     ,,################,,,,,                         
                               ,,#################################,,                 
                          ,,##########################################,,             
                       ,#########################################, ''#####,          
                    ,#############################################,,   '####,        
                  ,##################################################,,,,####,       
                ,###########''''           ''''###############################       
              ,#####''   ,,,,##########,,,,          '''####'''          '####       
            ,##' ,,,,###########################,,,                        '##       
           ' ,,###''''                  '''############,,,                           
         ,,##''                                '''############,,,,        ,,,,,,###''
      ,#''                                            '''#######################'''  
     '                                                          ''''####''''         
             ,#######,   #######,   ,#######,      ##                                
            ,#'     '#,  ##    ##  ,#'     '#,    #''#        ######   ,####,        
            ##       ##  ##   ,#'  ##            #'  '#       #        #'  '#        
            ##       ##  #######   ##           ,######,      #####,   #    #        
            '#,     ,#'  ##    ##  '#,     ,#' ,#      #,         ##   #,  ,#        
             '#######'   ##     ##  '#######'  #'      '#     #####' # '####'        



                  #######################################################
                  #                        -***-                        #
                  #          Department of theory and spectroscopy      #
                  #    Directorship and core code : Frank Neese         #
                  #        Max Planck Institute fuer Kohlenforschung    #
                  #                Kaiser Wilhelm Platz 1               #
                  #                 D-45470 Muelheim/Ruhr               #
                  #                      Germany                        #
                  #                                                     #
                  #                  All rights reserved                #
                  #                        -***-                        #
                  #######################################################


                         Program Version 5.0.4 -  RELEASE  -


 With contributions from (in alphabetic order):
   Daniel Aravena         : Magnetic Suceptibility
   Michael Atanasov       : Ab Initio Ligand Field Theory (pilot matlab implementation)
   Alexander A. Auer      : GIAO ZORA, VPT2 properties, NMR spectrum
   Ute Becker             : Parallelization
   Giovanni Bistoni       : ED, misc. LED, open-shell LED, HFLD
   Martin Brehm           : Molecular dynamics
   Dmytro Bykov           : SCF Hessian
   Vijay G. Chilkuri      : MRCI spin determinant printing, contributions to CSF-ICE
   Dipayan Datta          : RHF DLPNO-CCSD density
   Achintya Kumar Dutta   : EOM-CC, STEOM-CC
   Dmitry Ganyushin       : Spin-Orbit,Spin-Spin,Magnetic field MRCI
   Miquel Garcia          : C-PCM and meta-GGA Hessian, CC/C-PCM, Gaussian charge scheme
   Yang Guo               : DLPNO-NEVPT2, F12-NEVPT2, CIM, IAO-localization
   Andreas Hansen         : Spin unrestricted coupled pair/coupled cluster methods
   Benjamin Helmich-Paris : MC-RPA, TRAH-SCF, COSX integrals
   Lee Huntington         : MR-EOM, pCC
   Robert Izsak           : Overlap fitted RIJCOSX, COSX-SCS-MP3, EOM
   Marcus Kettner         : VPT2
   Christian Kollmar      : KDIIS, OOCD, Brueckner-CCSD(T), CCSD density, CASPT2, CASPT2-K
   Simone Kossmann        : Meta GGA functionals, TD-DFT gradient, OOMP2, MP2 Hessian
   Martin Krupicka        : Initial AUTO-CI
   Lucas Lang             : DCDCAS
   Marvin Lechner         : AUTO-CI (C++ implementation), FIC-MRCC
   Dagmar Lenk            : GEPOL surface, SMD
   Dimitrios Liakos       : Extrapolation schemes; Compound Job, initial MDCI parallelization
   Dimitrios Manganas     : Further ROCIS development; embedding schemes
   Dimitrios Pantazis     : SARC Basis sets
   Anastasios Papadopoulos: AUTO-CI, single reference methods and gradients
   Taras Petrenko         : DFT Hessian,TD-DFT gradient, ASA, ECA, R-Raman, ABS, FL, XAS/XES, NRVS
   Peter Pinski           : DLPNO-MP2, DLPNO-MP2 Gradient
   Christoph Reimann      : Effective Core Potentials
   Marius Retegan         : Local ZFS, SOC
   Christoph Riplinger    : Optimizer, TS searches, QM/MM, DLPNO-CCSD(T), (RO)-DLPNO pert. Triples
   Tobias Risthaus        : Range-separated hybrids, TD-DFT gradient, RPA, STAB
   Michael Roemelt        : Original ROCIS implementation
   Masaaki Saitow         : Open-shell DLPNO-CCSD energy and density
   Barbara Sandhoefer     : DKH picture change effects
   Avijit Sen             : IP-ROCIS
   Kantharuban Sivalingam : CASSCF convergence, NEVPT2, FIC-MRCI
   Bernardo de Souza      : ESD, SOC TD-DFT
   Georgi Stoychev        : AutoAux, RI-MP2 NMR, DLPNO-MP2 response
   Willem Van den Heuvel  : Paramagnetic NMR
   Boris Wezisla          : Elementary symmetry handling
   Frank Wennmohs         : Technical directorship


 We gratefully acknowledge several colleagues who have allowed us to
 interface, adapt or use parts of their codes:
   Stefan Grimme, W. Hujo, H. Kruse, P. Pracht,  : VdW corrections, initial TS optimization,
                  C. Bannwarth, S. Ehlert          DFT functionals, gCP, sTDA/sTD-DF
   Ed Valeev, F. Pavosevic, A. Kumar             : LibInt (2-el integral package), F12 methods
   Garnet Chan, S. Sharma, J. Yang, R. Olivares  : DMRG
   Ulf Ekstrom                                   : XCFun DFT Library
   Mihaly Kallay                                 : mrcc  (arbitrary order and MRCC methods)
   Jiri Pittner, Ondrej Demel                    : Mk-CCSD
   Frank Weinhold                                : gennbo (NPA and NBO analysis)
   Christopher J. Cramer and Donald G. Truhlar   : smd solvation model
   Lars Goerigk                                  : TD-DFT with DH, B97 family of functionals
   V. Asgeirsson, H. Jonsson                     : NEB implementation
   FAccTs GmbH                                   : IRC, NEB, NEB-TS, DLPNO-Multilevel, CI-OPT
                                                   MM, QMMM, 2- and 3-layer-ONIOM, Crystal-QMMM,
                                                   LR-CPCM, SF, NACMEs, symmetry and pop. for TD-DFT,
                                                   nearIR, NL-DFT gradient (VV10), updates on ESD,
                                                   ML-optimized integration grids
   S Lehtola, MJT Oliveira, MAL Marques          : LibXC Library
   Liviu Ungur et al                             : ANISO software


 Your calculation uses the libint2 library for the computation of 2-el integrals
 For citations please refer to: http://libint.valeyev.net

 Your ORCA version has been built with support for libXC version: 5.1.0
 For citations please refer to: https://tddft.org/programs/libxc/

 This ORCA versions uses:
   CBLAS   interface :  Fast vector & matrix operations
   LAPACKE interface :  Fast linear algebra routines
   SCALAPACK package :  Parallel linear algebra routines
   Shared memory     :  Shared parallel matrices
   BLAS/LAPACK       :  OpenBLAS 0.3.15  USE64BITINT DYNAMIC_ARCH NO_AFFINITY Prescott SINGLE_THREADED
        Core in use  :  Prescott
   Copyright (c) 2011-2014, The OpenBLAS Project




***************************************
The coordinates will be read from file: start.xyz
***************************************


Your calculation utilizes the atom-pairwise dispersion correction
with the Becke-Johnson damping scheme (D3BJ)
Cite in your paper:
S.Grimme, S.Ehrlich, L.Goerigk, J Comput Chem, (2011), 32, 1456–1465 
S.Grimme, J.Antony, S.Ehrlich and H.Krieg, J.Chem.Phys., 132, (2010), 154104 
   

Your calculation utilizes a Nudged-Elastic-Band implementation
 by V.Asgeirsson, C. Riplinger & H. Jonsson
Please cite in your paper:
 V. Asgeirsson et al., in prep. (2019)
   

================================================================================

----- Orbital basis set information -----
Your calculation utilizes the basis: def2-TZVP
   F. Weigend and R. Ahlrichs, Phys. Chem. Chem. Phys. 7, 3297 (2005).

----- AuxJ basis set information -----
Your calculation utilizes the auxiliary basis: def2/J
   F. Weigend, Phys. Chem. Chem. Phys. 8, 1057 (2006).

================================================================================
                                        WARNINGS
                       Please study these warnings very carefully!
================================================================================


WARNING: Geometry Optimization
  ===> : Switching off AutoStart
         For restart on a previous wavefunction, please use MOREAD

INFO   : the flag for use of the SHARK integral package has been found!

================================================================================
                                       INPUT FILE
================================================================================
NAME = neb.inp
|  1> ! NEB-TS b3lyp D3 def2-TZVP CPCM
|  2> 
|  3> %pal
|  4> nprocs 102
|  5> end
|  6> 
|  7> %cpcm
|  8> epsilon 78.4
|  9> end
| 10> 
| 11> %neb
| 12> NEB_End_XYZFile "end.xyz"
| 13> Nimages 6
| 14> end
| 15> 
| 16> 
| 17> *XYZfile 0 1 start.xyz
| 18> 
| 19>                          ****END OF INPUT****
================================================================================


--------------------------------------------------------------------------------
                        Nudged Elastic Band Calculation
--------------------------------------------------------------------------------

Number of images (incl. end points)     ....  8
Number of intermediate images           ....  6
Number of optimized images              ....  6
Optimization of end points before NEB   ....  NO
Use existing gbw files for MO input     ....  NO
Number of atoms                         ....  28
Number of (active) degrees of freedom   ....  84
Constrained atoms                       ....  None

-----------------------------------------
  REACTANT (ANGSTROEM)
-----------------------------------------
C      1.072052     0.197981    -0.274977 
H      0.630283     0.967786     0.348543 
N      0.060025    -1.722349     0.875741 
O     -0.745020    -1.229902     1.644716 
O      0.735897    -2.708124     1.129653 
H      2.697519    -0.392688    -1.475267 
C      0.261475    -1.047180    -0.461846 
H     -0.744460    -0.830197    -0.818057 
H      0.761527    -1.770633    -1.099816 
C      2.250704     0.374435    -0.855601 
H      2.802437     1.298281    -0.733224 
C      6.384704    -2.974766    -0.403810 
C      7.648318    -2.488784    -0.073725 
C      7.699476    -1.245102     0.558695 
C      6.522769    -0.562823     0.831942 
C      5.316399    -1.138691     0.457691 
N      5.246945    -2.322567    -0.150965 
H      6.287535    -3.935280    -0.900153 
H      6.536595     0.402140     1.321013 
H      4.376222    -0.641010     0.651962 
C      8.892272    -3.271832    -0.382292 
H      9.406582    -3.556403     0.539034 
H      9.591098    -2.676979    -0.974079 
H      8.657665    -4.181326    -0.935197 
H      8.656521    -0.817312     0.834746 
H      2.205390    -3.324892    -0.156558 
O      2.829336    -3.598088    -0.842736 
H      3.664455    -3.112124    -0.637981 

-----------------------------------------
  PRODUCT (ANGSTROEM)
-----------------------------------------
C      2.416098    -0.184429    -2.518394 
H      1.854660    -0.814427    -1.837483 
N      3.562490    -2.191005    -3.287013 
O      2.904597    -2.931282    -2.483192 
O      4.419706    -2.731156    -4.068184 
H      2.698521     1.809068    -3.209668 
C      3.389306    -0.854972    -3.318897 
H      3.975177    -0.342990    -4.067286 
H      4.906353    -0.571827    -1.827576 
C      2.164112     1.138786    -2.545089 
H      1.405393     1.573774    -1.908201 
C      6.129015     1.809657     1.536407 
C      5.928999     2.870552     2.402618 
C      4.784341     3.647794     2.202359 
C      3.897064     3.361885     1.173511 
C      4.156943     2.290887     0.343113 
N      5.256202     1.554665     0.550760 
H      6.977622     1.144446     1.608072 
H      3.010405     3.958105     1.015466 
H      3.522092     1.989006    -0.478712 
C      6.911193     3.168499     3.494658 
H      6.393284     3.467241     4.406276 
H      7.564599     3.993656     3.200560 
H      7.535935     2.302262     3.707815 
H      4.589819     4.482635     2.864104 
H      5.585426    -1.431171    -0.742389 
O      5.629743    -0.565406    -1.169593 
H      5.434102     0.746060    -0.084760 



----------------------
NEB settings
----------------------
Method type                             ....  climbing image
Threshold for climbing image            ....  2.00e-02 Eh/Bohr 
Free endpoints                          ....  off 
Tangent type                            ....  improved 
Number of intermediate images           ....  6 
Number of images free to move           ....  6 
Spring type for image distribution      ....  distance between adjacent images 
Spring constant                         ....  energy weighted (0.0100 -to- 0.1000) Eh/Bohr^2 
Spring force perp. to the path          ....  none 
Generation of initial path              ....  image dependent pair potential 
Initial path via TS guess               ....  off 

Minimization of RMSD: Rotation          ....  always 
Minimization of RMSD: Translation type  ....  centroid 
Center fixed to origin                  ....  true 
Remove external force                   ....  true 

Reparametrization of the path           ....  off 
Convergence thresholds:
Convergence monitored for               ....  all images
Scaling factor                          ....  10.00

Convergence parameters for regular images:
               Max(|Fp|)                ....  2.00e-02 Eh/Bohr
               RMS(Fp)                  ....  1.00e-02 Eh/Bohr

Convergence parameters for climbing image:
               Max(|F|)                 ....  2.00e-03 Eh/Bohr
               RMS(F)                   ....  1.00e-03 Eh/Bohr
Optimization method:
Method                                  ....  L-BFGS
Max. iterations                         ....  500 
Step size                               ....  1.00 
Maximum allowed step size               ....  0.10 Bohr

LBFGS parameters: 
               Memory                   ....  20 
               Initial step size        ....  0.0010 
               Estimate curvature       ....  YES 
               Reset on maxmove         ....  YES 
               Reparam. on reset        ....  NO 
Generation of  the initial path:
Minimize RMSD between reactant and product configurations     .... done
       RMSD before minimization         ....  5.7830 Bohr
       RMSD after minimization          ....  1.0792 Bohr
Performing linear interpolation         ....  done
Interpolation using                     ....  IDPP (Image Dependent Pair Potential)
IDPP-Settings:
       Remove global transl. and rot.   ...   true
       Convergence tolerance            ....  0.0100 1/Ang.^3
       Max. numer of iterations         ....    7000
       Spring constant                  ....  1.0000 1/Ang.^4
       Time step                        ....  0.0100 fs
       Max. movement per iteration      ....  0.0500 Ang.
       Full print                       ....  false 
idpp initial path generation successfully converged in 116 iterations
Displacement along initial path:             10.3458 Bohr
Writing initial trajectory to file      ....  neb_initial_path_trj.xyz



----------------------
NEB OPTIMIZATION      
----------------------

Following output files will be written:
Energy profile during opt. written to    ....  neb.interp
Optimization log-file                    ....  neb.NEB.log
Current trajectory will be written to    ....  neb_MEP_trj.xyz
       and to allxyz file                ....  neb_MEP.allxyz
       and individual images to xyz file ....  neb_im{NIm}.xyz
Trajectory history will be written to    ....  neb_MEP_ALL_trj.xyz
Converged CI will be written to          ....  neb_NEB-CI_converged.xyz
Converged TS will be written to          ....  neb_NEB-TS_converged.xyz

Single point energy and gradient calculation of reactant and
product configurations (have to be performed only once)
Properties of fixed NEB end points:
               Reactant:
                         E               ....   -686.407445 Eh
                         RMS(F)          ....      0.000574 Eh/Bohr
                         MAX(|F|)        ....      0.002077 Eh/Bohr
               Product:
                         E               ....   -686.396949 Eh
                         RMS(F)          ....      0.000246 Eh/Bohr
                         MAX(|F|)        ....      0.000893 Eh/Bohr



Starting iterations:

Optim.  Iteration  HEI  E(HEI)-E(0)  max(|Fp|)   RMS(Fp)    dS
Switch-on CI threshold               0.020000 
   LBFGS     0      4    0.108869    0.070411   0.014011  10.3458       
   LBFGS     1      4    0.088549    0.050168   0.009748  10.3689       
   LBFGS     2      4    0.073291    0.044596   0.008105  10.4710       
   LBFGS     3      5    0.060782    0.039041   0.007466  10.5684       
   LBFGS     4      5    0.053285    0.042138   0.007271  10.7292       
   LBFGS     5      5    0.049604    0.048769   0.006573  10.8009       
   LBFGS     6      5    0.047282    0.022799   0.004888  10.8985       
   LBFGS     7      5    0.042267    0.016261   0.003233  11.1847       

Image  5 will be converted to a climbing image in the next iteration (max(|Fp|) < 0.0200) 

Optim.  Iteration  CI   E(CI)-E(0)   max(|Fp|)   RMS(Fp)    dS     max(|FCI|)   RMS(FCI)
Convergence thresholds               0.020000   0.010000            0.002000    0.001000 
   LBFGS     8      5    0.039513    0.036613   0.005745  11.3595    0.025887    0.008379       
   LBFGS     9      5    0.039140    0.031580   0.004356  11.4608    0.025368    0.007570       
   LBFGS    10      5    0.039305    0.021970   0.003467  11.6137    0.024320    0.006329       
   LBFGS    11      5    0.042113    0.020029   0.003786  11.5566    0.020184    0.005646       
   LBFGS    12      5    0.043667    0.015757   0.002606  11.5498    0.017752    0.004764       
   LBFGS    13      5    0.044917    0.009714   0.001934  11.5800    0.011665    0.002744       
   LBFGS    14      5    0.043597    0.015857   0.002644  11.6394    0.009945    0.003269       
   LBFGS    15      5    0.042099    0.009240   0.001798  11.6946    0.005986    0.002061       
   LBFGS    16      5    0.039628    0.010447   0.001718  11.8867    0.009902    0.002572       
   LBFGS    17      5    0.038092    0.024989   0.003215  12.1798    0.011679    0.002450       
   LBFGS    18      5    0.038229    0.017047   0.002379  12.5474    0.019025    0.003189       
   LBFGS    19      5    0.038433    0.013981   0.001958  12.8608    0.018424    0.003313       
   LBFGS    20      5    0.037531    0.017668   0.002391  12.7822    0.016512    0.002935       
   LBFGS    21      5    0.036926    0.013904   0.002012  12.7128    0.013484    0.002543       
   LBFGS    22      5    0.036145    0.012708   0.001699  12.4880    0.005135    0.001884       
   LBFGS    23      5    0.035914    0.011052   0.001554  12.4801    0.004369    0.001578       
   LBFGS    24      5    0.035759    0.007139   0.001171  12.4732    0.003349    0.001360       
   LBFGS    25      5    0.035297    0.009899   0.001388  12.4734    0.003167    0.001267       
   LBFGS    26      5    0.035228    0.014693   0.001917  12.5000    0.005572    0.001777       
   LBFGS    27      5    0.035226    0.010985   0.001833  12.6173    0.006759    0.002430       
   LBFGS    28      5    0.034773    0.017294   0.002161  12.5577    0.005719    0.002108       
   LBFGS    29      5    0.034510    0.010614   0.001543  12.5183    0.004500    0.001764       
   LBFGS    30      5    0.034178    0.008728   0.000996  12.4098    0.003869    0.001376       
   LBFGS    31      5    0.034163    0.013710   0.001659  12.4345    0.005040    0.001751       
   LBFGS    32      5    0.034036    0.007788   0.001063  12.4569    0.004039    0.001231       
   LBFGS    33      5    0.033723    0.005546   0.000782  12.5669    0.002415    0.000832       
   LBFGS    34      5    0.033546    0.007952   0.000998  12.6354    0.004370    0.000956       
   LBFGS    35      5    0.033126    0.006906   0.001270  12.8260    0.003449    0.000924       
   LBFGS    36      5    0.033083    0.009353   0.001266  12.7795    0.002219    0.000803       
   LBFGS    37      5    0.033055    0.007189   0.001001  12.7409    0.002276    0.000771       
   LBFGS    38      5    0.032950    0.009121   0.001000  12.5931    0.002571    0.000784       
   LBFGS    39      5    0.032888    0.009491   0.001537  12.5963    0.003930    0.000867       
   LBFGS    40      5    0.032855    0.005316   0.000835  12.6108    0.001815    0.000577       

                                .--------------------.
          ----------------------| CI-NEB convergence |-------------------------
          Item                value                   Tolerance       Converged
          ---------------------------------------------------------------------
          RMS(Fp)             0.0008349808            0.0100000000      YES
          MAX(|Fp|)           0.0053159410            0.0200000000      YES
          RMS(FCI)            0.0005772033            0.0010000000      YES
          MAX(|FCI|)          0.0018145318            0.0020000000      YES
          ---------------------------------------------------------------------

The elastic band and climbing image have converged successfully to a MEP in 40 iterations!


                    *********************H U R R A Y*********************
                    ***        THE NEB OPTIMIZATION HAS CONVERGED     ***
                    *****************************************************



---------------------------------------------------------------
                         PATH SUMMARY              
---------------------------------------------------------------
All forces in Eh/Bohr.

Image Dist.(Ang.)    E(Eh)   dE(kcal/mol)  max(|Fp|)  RMS(Fp)
  0     0.000    -686.40745      0.00       0.00216   0.00057
  1     1.472    -686.40542      1.27       0.00128   0.00024
  2     3.136    -686.40164      3.64       0.00190   0.00051
  3     3.995    -686.39409      8.38       0.00532   0.00161
  4     4.277    -686.38131     16.40       0.00351   0.00114
  5     4.501    -686.37459     20.62       0.00184   0.00057 <= CI
  6     4.911    -686.39340      8.81       0.00398   0.00083
  7     6.673    -686.39695      6.59       0.00090   0.00025

Straight line distance between images along the path:
        D( 0- 1) =   1.4718 Ang.
        D( 1- 2) =   1.6639 Ang.
        D( 2- 3) =   0.8595 Ang.
        D( 3- 4) =   0.2817 Ang.
        D( 4- 5) =   0.2239 Ang.
        D( 5- 6) =   0.4099 Ang.
        D( 6- 7) =   1.7626 Ang.

---------------------------------------------------------------
               INFORMATION ABOUT SADDLE POINT     
---------------------------------------------------------------

Climbing image                            ....  5 
Energy                                    ....  -686.37459062 Eh
Max. abs. force                           ....  1.8145e-03 Eh/Bohr

-----------------------------------------
  SADDLE POINT (ANGSTROEM)
-----------------------------------------
C     -3.008625     1.670795     0.202623 
H     -3.286626     1.961990     1.209174 
N     -4.520287    -0.247771     0.546635 
O     -4.583815     0.031945     1.754169 
O     -5.211870    -1.154778     0.053501 
H     -1.826511     2.141784    -1.488301 
C     -3.566035     0.403252    -0.290603 
H     -3.940056     0.394677    -1.310408 
H     -2.560498    -0.454511    -0.356509 
C     -2.150791     2.421015    -0.491342 
H     -1.729668     3.322885    -0.067204 
C      1.961126    -1.391889    -0.226261 
C      3.241435    -0.899231    -0.015359 
C      3.353649     0.454908     0.311924 
C      2.226355     1.255072     0.418762 
C      0.984986     0.691500     0.197652 
N      0.883098    -0.602176    -0.118444 
H      1.776195    -2.426416    -0.482245 
H      2.301477     2.301470     0.673436 
H      0.055181     1.239538     0.264157 
C      4.459017    -1.767735    -0.137228 
H      5.107195    -1.633866     0.731106 
H      5.036664    -1.485815    -1.021544 
H      4.193199    -2.820663    -0.220471 
H      4.333960     0.879299     0.486963 
H     -1.809154    -2.005882     0.127332 
O     -1.556092    -1.297181    -0.475545 
H     -0.163508    -0.982216    -0.275970 

-----------------------------------------
  FORCES (Eh/Bohr)
-----------------------------------------
C      0.000131     0.000475    -0.000181 
H      0.000535    -0.000234     0.000091 
N      0.000841     0.000682     0.001815 
O      0.000294    -0.001010    -0.000905 
O     -0.000397     0.000746    -0.000783 
H     -0.000205     0.000623    -0.000150 
C      0.000366    -0.000437    -0.000461 
H      0.001199    -0.000130    -0.000191 
H      0.001242    -0.001667     0.000473 
C     -0.000296    -0.000429     0.000029 
H     -0.000674     0.000750    -0.000516 
C      0.000101    -0.000405    -0.000085 
C     -0.000630     0.000752     0.000140 
C     -0.000383     0.000247     0.000085 
C      0.000100     0.000264     0.000099 
C     -0.000166     0.000601     0.000160 
N     -0.001079    -0.000227    -0.000049 
H     -0.000464     0.000128     0.000042 
H      0.000311     0.000666     0.000148 
H      0.000510     0.000102     0.000108 
C     -0.000689    -0.000031    -0.000050 
H     -0.000334    -0.000459    -0.000354 
H     -0.000291    -0.000443     0.000209 
H     -0.000112     0.000106    -0.000076 
H      0.000431     0.000178     0.000096 
H      0.000345    -0.001668     0.000739 
O      0.000004     0.001088    -0.000434 
H     -0.000651    -0.000331     0.000153 

-----------------------------------------
  UNIT TANGENT
-----------------------------------------
C     -0.045421    -0.004301     0.005967 
H      0.032059     0.002634     0.020354 
N      0.007187     0.091634    -0.040634 
O      0.006557    -0.008946     0.053545 
O     -0.007749    -0.012517    -0.015657 
H     -0.037889     0.002293    -0.018283 
C     -0.281086     0.191675     0.055302 
H      0.062152    -0.072077    -0.017387 
H      0.469281    -0.400878    -0.054482 
C     -0.000233    -0.006886    -0.008297 
H      0.038033    -0.040081     0.007431 
C     -0.006313    -0.028359    -0.009055 
C     -0.016089    -0.009289    -0.005842 
C     -0.017910    -0.004793    -0.000559 
C     -0.019107    -0.005260    -0.001020 
C     -0.021551     0.010948     0.001721 
N     -0.003223    -0.000760     0.002583 
H     -0.012612    -0.018685    -0.012634 
H     -0.015252    -0.006176     0.006419 
H     -0.024663    -0.000620    -0.010404 
C     -0.006380    -0.000083    -0.001585 
H     -0.009899     0.005417     0.001726 
H     -0.003603     0.010221     0.002357 
H      0.006300    -0.002841    -0.005182 
H     -0.016441    -0.005723     0.005038 
H     -0.160139     0.011353    -0.009711 
O     -0.395987     0.129558     0.024493 
H      0.479978     0.172543     0.023797 
 => Unit tangent is an approximation to the TS mode at the saddle point

Next a TS optimization is performed on the CI from the NEB run.

         *************************************************************
         *                       TS OPTIMIZATION                     *
         *************************************************************


Following output files will be written:
Converged TS will be written to          ....  neb_NEB-TS_converged.xyz
                                         ....  neb.xyz
Current trajectory will be written to    ....  neb_trj.xyz
Initial Hessian will be stored in        ....  neb.appr.hess
Geometry optimization settings:
Update method            Update   .... Bofill
Choice of coordinates    CoordSys .... Z-matrix Internals
Initial Hessian          InHess   .... Read

Convergence Tolerances:
Energy Change            TolE     ....  5.0000e-06 Eh
Max. Gradient            TolMAXG  ....  3.0000e-04 Eh/bohr
RMS Gradient             TolRMSG  ....  1.0000e-04 Eh/bohr
Max. Displacement        TolMAXD  ....  4.0000e-03 bohr
RMS Displacement         TolRMSD  ....  2.0000e-03 bohr
Strict Convergence                ....  False
------------------------------------------------------------------------------
                        ORCA OPTIMIZATION COORDINATE SETUP
------------------------------------------------------------------------------

The optimization will be done in new redundant internal coordinates
Making redundant internal coordinates   ...  (new redundants) done
Following TS mode number                ...     0
TS-active-atoms for coordinate setup... 6 8 26 27 
Evaluating the initial hessian          ... (Reading Exact Hessian)...  
InHessName: neb.appr.hess	The file <neb.appr.hess> is opened as a .hess file
done
done
Diagonalizing the Hessian               .... done
Dimension of the hessian                .... 132
Lowest eigenvalues of the non projected Hessian:
 -0.007676478 -0.000000000 -0.000000000 -0.000000000 -0.000000000
done
Evaluating the coordinates              ...  done
Calculating the B-matrix                .... done
Calculating the G-matrix                .... done
Diagonalizing the G-matrix              .... done
Small eigenvalue found = 2.211e-03
Small eigenvalue found = 8.798e-03
Small eigenvalue found = 1.570e-02
Small eigenvalue found = 2.739e-02
The first mode is                       ....   54
The number of degrees of freedom        ....   78

    -----------------------------------------------------------------
                    Redundant Internal Coordinates


    -----------------------------------------------------------------
         Definition                    Initial Value    d2E/dq (diagonal element)
    -----------------------------------------------------------------
      1. B(H   1,C   0)                  1.0841         0.368128   
      2. B(O   3,N   2)                  1.2411         0.593356   
      3. B(O   4,N   2)                  1.2426         0.599703   
      4. B(C   6,O   4)                  2.2923         0.114452   
      5. B(C   6,N   2)                  1.4267         0.257532   
      6. B(C   6,C   0)                  1.4699         0.344376   
      7. B(C   6,O   3)                  2.3141         0.116546   
      8. B(H   7,C   6)                  1.0863         0.364930   
      9. B(H   8,C   6)                  1.3233         0.112384   
     10. B(C   9,C   6)                  2.4728         0.108099   
     11. B(C   9,H   5)                  1.0849         0.366910   
     12. B(C   9,C   0)                  1.3343         0.523391   
     13. B(H  10,C   9)                  1.0819         0.370967   
     14. B(C  12,C  11)                  1.3879         0.581016   
     15. B(C  13,C  12)                  1.3976         0.561531   
     16. B(C  14,C  13)                  1.3865         0.583197   
     17. B(C  15,C  14)                  1.3811         0.596947   
     18. B(N  16,C  11)                  1.3407         0.617556   
     19. B(N  16,C  15)                  1.3356         0.629431   
     20. B(H  17,C  11)                  1.0817         0.371720   
     21. B(H  18,C  14)                  1.0796         0.374199   
     22. B(H  19,C  15)                  1.0813         0.372011   
     23. B(C  20,C  12)                  1.5006         0.416465   
     24. B(H  21,C  20)                  1.0918         0.357719   
     25. B(H  22,C  20)                  1.0932         0.355843   
     26. B(H  23,C  20)                  1.0891         0.361229   
     27. B(H  24,C  13)                  1.0825         0.370355   
     28. B(O  26,H  25)                  0.9642         0.512224   
     29. B(O  26,H   8)                  1.3165         0.106645   
     30. B(H  27,O  26)                  1.4416         0.096015   
     31. B(H  27,N  16)                  1.1246         0.249230   
     32. A(H   1,C   0,C   6)          116.4833         0.221528   
     33. A(C   6,C   0,C   9)          123.6515         0.192669   
     34. A(H   1,C   0,C   9)          119.7852         0.226487   
     35. A(O   3,N   2,C   6)          120.1558         0.169519   
     36. A(O   4,N   2,C   6)          118.1929         0.165599   
     37. A(O   3,N   2,O   4)          121.4743         0.260342   
     38. A(C   0,C   6,N   2)          116.7582         0.111929   
     39. A(N   2,C   6,H   7)          108.4839         0.068834   
     40. A(N   2,C   6,H   8)          103.9860         0.111929   
     41. A(C   0,C   6,H   7)          116.8975         0.067979   
     42. A(H   7,C   6,H   8)          102.1082         0.045894   
     43. A(C   0,C   6,H   8)          106.7090         0.105822   
     44. L(C   6,H   8,O  26,C   0, 1) 180.2823         0.240876   
     45. L(C   6,H   8,O  26,C   0, 2) 183.7763         0.218296   
     46. A(H   5,C   9,H  10)          117.2858         0.211852   
     47. A(C   0,C   9,H  10)          121.0000         0.237152   
     48. A(C   0,C   9,H   5)          121.6946         0.237066   
     49. A(N  16,C  11,H  17)          116.4191         0.219437   
     50. A(C  12,C  11,H  17)          122.2195         0.219561   
     51. A(C  12,C  11,N  16)          121.3613         0.164926   
     52. A(C  13,C  12,C  20)          120.9738         0.242191   
     53. A(C  11,C  12,C  20)          122.0536         0.242875   
     54. A(C  11,C  12,C  13)          116.9718         0.160979   
     55. A(C  14,C  13,H  24)          119.8402         0.218058   
     56. A(C  12,C  13,H  24)          119.3688         0.217499   
     57. A(C  12,C  13,C  14)          120.7906         0.161965   
     58. A(C  15,C  14,H  18)          119.7244         0.218720   
     59. A(C  13,C  14,H  18)          121.3975         0.218980   
     60. A(C  13,C  14,C  15)          118.8776         0.160894   
     61. A(N  16,C  15,H  19)          116.0946         0.219671   
     62. A(C  14,C  15,H  19)          123.7934         0.219549   
     63. A(C  14,C  15,N  16)          120.1120         0.162439   
     64. A(C  11,N  16,C  15)          121.8861         0.166938   
     65. A(C  15,N  16,H  27)          115.5616         0.221350   
     66. A(C  11,N  16,H  27)          122.5493         0.212109   
     67. A(C  12,C  20,H  22)          110.1929         0.230037   
     68. A(C  12,C  20,H  21)          110.2526         0.229824   
     69. A(H  22,C  20,H  23)          108.4474         0.127521   
     70. A(H  21,C  20,H  23)          108.9177         0.128516   
     71. A(C  12,C  20,H  23)          111.5746         0.230060   
     72. A(H  21,C  20,H  22)          107.3388         0.122789   
     73. A(H  25,O  26,H  27)          109.1195         0.130659   
     74. A(H   8,O  26,H  27)          125.7767         0.190520   
     75. A(H   8,O  26,H  25)          102.3388         0.143455   
     76. A(N  16,H  27,O  26)          172.8573         0.238132   
     77. D(H   7,C   6,N   2,O   4)     30.5662         0.021206   
     78. D(H   8,C   6,N   2,O   4)    -77.5645         0.026798   
     79. D(H   7,C   6,N   2,O   3)   -154.1969         0.021064   
     80. D(H   8,C   6,C   0,H   1)   -109.5590         0.023436   
     81. D(N   2,C   6,C   0,H   1)      6.1602         0.023472   
     82. D(C   0,C   6,N   2,O   4)    165.2151         0.022340   
     83. D(N   2,C   6,C   0,C   9)   -177.1072         0.021640   
     84. D(H   7,C   6,C   0,C   9)    -46.2703         0.018834   
     85. D(H   8,C   6,C   0,C   9)     67.1735         0.024217   
     86. D(H   7,C   6,C   0,H   1)    136.9971         0.019700   
     87. D(H   8,C   6,N   2,O   3)     97.6725         0.027537   
     88. D(C   0,C   6,N   2,O   3)    -19.5479         0.022059   
     89. D(H  10,C   9,C   0,H   1)     -0.3553         0.024442   
     90. D(H   5,C   9,C   0,H   1)    177.9887         0.024070   
     91. D(H   5,C   9,C   0,C   6)      1.3585         0.025514   
     92. D(H  10,C   9,C   0,C   6)   -176.9854         0.026477   
     93. D(C  20,C  12,C  11,H  17)      0.4132         0.011042   
     94. D(C  20,C  12,C  11,N  16)   -179.7530         0.008471   
     95. D(C  13,C  12,C  11,H  17)   -179.9149         0.010296   
     96. D(C  13,C  12,C  11,N  16)     -0.0810         0.008331   
     97. D(H  24,C  13,C  12,C  20)     -0.4684         0.009466   
     98. D(C  14,C  13,C  12,C  20)    179.7634         0.007965   
     99. D(C  14,C  13,C  12,C  11)      0.0877         0.007607   
    100. D(H  24,C  13,C  12,C  11)    179.8559         0.008575   
    101. D(H  18,C  14,C  13,H  24)      0.0752         0.012407   
    102. D(H  18,C  14,C  13,C  12)    179.8424         0.010410   
    103. D(C  15,C  14,C  13,H  24)   -179.6875         0.009824   
    104. D(C  15,C  14,C  13,C  12)      0.0797         0.009191   
    105. D(H  19,C  15,C  14,C  13)    179.7131         0.011959   
    106. D(N  16,C  15,C  14,H  18)    179.9707         0.010540   
    107. D(N  16,C  15,C  14,C  13)     -0.2625         0.010188   
    108. D(H  19,C  15,C  14,H  18)     -0.0537         0.013930   
    109. D(H  27,N  16,C  15,H  19)     -0.3159         0.014913   
    110. D(C  11,N  16,C  15,H  19)   -179.6995         0.011750   
    111. D(C  11,N  16,C  15,C  14)      0.2779         0.011589   
    112. D(H  27,N  16,C  11,H  17)      0.4005         0.015772   
    113. D(H  27,N  16,C  11,C  12)   -179.4425         0.013378   
    114. D(H  27,N  16,C  15,C  14)    179.6615         0.012416   
    115. D(C  15,N  16,C  11,H  17)    179.7408         0.011632   
    116. D(C  15,N  16,C  11,C  12)     -0.1022         0.011383   
    117. D(H  23,C  20,C  12,C  13)    169.8705         0.029374   
    118. D(H  23,C  20,C  12,C  11)    -10.4705         0.029383   
    119. D(H  22,C  20,C  12,C  13)    -69.5998         0.029439   
    120. D(H  22,C  20,C  12,C  11)    110.0592         0.029458   
    121. D(H  21,C  20,C  12,C  13)     48.7053         0.029411   
    122. D(H  21,C  20,C  12,C  11)   -131.6357         0.029411   
    123. D(H  27,O  26,C   6,H   7)    116.2737         0.025153   
    124. D(H  27,O  26,C   6,N   2)   -131.0253         0.029671   
    125. D(H  27,O  26,C   6,C   0)     -6.4643         0.027308   
    126. D(H  25,O  26,C   6,H   7)   -117.8896         0.025167   
    127. D(H  25,O  26,C   6,N   2)     -5.1886         0.030538   
    128. D(H  25,O  26,C   6,C   0)    119.3724         0.028062   
    129. D(N  16,H  27,O  26,H  25)   -132.9590         0.023263   
    130. D(N  16,H  27,O  26,H   8)    -11.0494         0.017305   
    131. D(O  26,H  27,N  16,C  15)     11.1200         0.047780   
    132. D(O  26,H  27,N  16,C  11)   -169.5008         0.046040   
    -----------------------------------------------------------------

Number of atoms                         .... 28
Number of degrees of freedom            .... 132

         *************************************************************
         *                GEOMETRY OPTIMIZATION CYCLE   1            *
         *************************************************************


           ************************************************************
           *        Program running with 102 parallel MPI-processes   *
           *              working on a common directory               *
           ************************************************************
------------------------------------------------------------------------------
                           ORCA GTO INTEGRAL CALCULATION
                           -- RI-GTO INTEGRALS CHOSEN --
------------------------------------------------------------------------------
------------------------------------------------------------------------------
                   ___                                                        
                  /   \      - P O W E R E D   B Y -                         
                 /     \                                                     
                 |  |  |   _    _      __       _____    __    __             
                 |  |  |  | |  | |    /  \     |  _  \  |  |  /  |          
                  \  \/   | |  | |   /    \    | | | |  |  | /  /          
                 / \  \   | |__| |  /  /\  \   | |_| |  |  |/  /          
                |  |  |   |  __  | /  /__\  \  |    /   |      \           
                |  |  |   | |  | | |   __   |  |    \   |  |\   \          
                \     /   | |  | | |  |  |  |  | |\  \  |  | \   \       
                 \___/    |_|  |_| |__|  |__|  |_| \__\ |__|  \__/        
                                                                              
                      - O R C A' S   B I G   F R I E N D -                    
                                      &                                       
                       - I N T E G R A L  F E E D E R -                       
                                                                              
 v1 FN, 2020, v2 2021                                                         
------------------------------------------------------------------------------


Reading SHARK input file neb.SHARKINP.tmp ... ok
----------------------
SHARK INTEGRAL PACKAGE
----------------------

Number of atoms                             ...     28
Number of basis functions                   ...    518
Number of shells                            ...    210
Maximum angular momentum                    ...      3
Integral batch strategy                     ... SHARK/LIBINT Hybrid
RI-J (if used) integral strategy            ... SPLIT-RIJ (Revised 2003 algorithm where possible)
Printlevel                                  ...      1
Contraction scheme used                     ... SEGMENTED contraction
Coulomb Range Separation                    ... NOT USED
Exchange Range Separation                   ... NOT USED
Finite Nucleus Model                        ... NOT USED
Auxiliary Coulomb fitting basis             ... AVAILABLE
   # of basis functions in Aux-J            ...    840
   # of shells in Aux-J                     ...    280
   Maximum angular momentum in Aux-J        ...      4
Auxiliary J/K fitting basis                 ... NOT available
Auxiliary Correlation fitting basis         ... NOT available
Auxiliary 'external' fitting basis          ... NOT available
Integral threshold                          ...     2.500000e-11
Primitive cut-off                           ...     2.500000e-12
Primitive pair pre-selection threshold      ...     2.500000e-12

Calculating pre-screening integrals         ... done (  0.1 sec) Dimension = 210
Organizing shell pair data                  ... done (  0.4 sec)
Shell pair information
Total number of shell pairs                 ...     22155
Shell pairs after pre-screening             ...     15881
Total number of primitive shell pairs       ...     66780
Primitive shell pairs kept                  ...     33039
          la=0 lb=0:   4469 shell pairs
          la=1 lb=0:   4673 shell pairs
          la=1 lb=1:   1258 shell pairs
          la=2 lb=0:   2164 shell pairs
          la=2 lb=1:   1151 shell pairs
          la=2 lb=2:    275 shell pairs
          la=3 lb=0:   1025 shell pairs
          la=3 lb=1:    554 shell pairs
          la=3 lb=2:    248 shell pairs
          la=3 lb=3:     64 shell pairs

Calculating one electron integrals          ... done (  0.1 sec)
Calculating RI/J V-Matrix + Cholesky decomp.... done (  0.1 sec)
Calculating Nuclear repulsion               ... done (  0.0 sec) ENN=    840.204264071357 Eh

SHARK setup successfully completed in   0.9 seconds

Maximum memory used throughout the entire GTOINT-calculation: 28.1 MB


           ************************************************************
           *        Program running with 102 parallel MPI-processes   *
           *              working on a common directory               *
           ************************************************************
-------------------------------------------------------------------------------
                                 ORCA SCF
-------------------------------------------------------------------------------

------------
SCF SETTINGS
------------
Hamiltonian:
 Density Functional     Method          .... DFT(GTOs)
 Exchange Functional    Exchange        .... B88
   X-Alpha parameter    XAlpha          ....  0.666667
   Becke's b parameter  XBeta           ....  0.004200
 Correlation Functional Correlation     .... LYP
 LDA part of GGA corr.  LDAOpt          .... VWN-5
 Gradients option       PostSCFGGA      .... off
 Hybrid DFT is turned on
   Fraction HF Exchange ScalHFX         ....  0.200000
   Scaling of DF-GGA-X  ScalDFX         ....  0.720000
   Scaling of DF-GGA-C  ScalDFC         ....  0.810000
   Scaling of DF-LDA-C  ScalLDAC        ....  1.000000
   Perturbative correction              ....  0.000000
   Density functional embedding theory  .... OFF
   NL short-range parameter             ....  4.800000
 RI-approximation to the Coulomb term is turned on
   Number of AuxJ basis functions       .... 840
   RIJ-COSX (HFX calculated with COS-X)).... on


General Settings:
 Integral files         IntName         .... neb
 Hartree-Fock type      HFTyp           .... RHF
 Total Charge           Charge          ....    0
 Multiplicity           Mult            ....    1
 Number of Electrons    NEL             ....  106
 Basis Dimension        Dim             ....  518
 Nuclear Repulsion      ENuc            ....    840.2042640714 Eh

Convergence Acceleration:
 DIIS                   CNVDIIS         .... on
   Start iteration      DIISMaxIt       ....    12
   Startup error        DIISStart       ....  0.200000
   # of expansion vecs  DIISMaxEq       ....     5
   Bias factor          DIISBfac        ....   1.050
   Max. coefficient     DIISMaxC        ....  10.000
 Trust-Rad. Augm. Hess. CNVTRAH         .... auto
   Auto Start mean grad. ratio tolernc. ....  1.125000
   Auto Start start iteration           ....     1
   Auto Start num. interpolation iter.  ....    10
   Max. Number of Micro iterations      ....    16
   Max. Number of Macro iterations      .... Maxiter - #DIIS iter
   Number of Davidson start vectors     ....     2
   Converg. threshold I  (grad. norm)   ....   1.000e-05
   Converg. threshold II (energy diff.) ....   1.000e-08
   Grad. Scal. Fac. for Micro threshold ....   0.100
   Minimum threshold for Micro iter.    ....   0.010
   NR start threshold (gradient norm)   ....   0.001
   Initial trust radius                 ....   0.400
   Minimum AH scaling param. (alpha)    ....   1.000
   Maximum AH scaling param. (alpha)    .... 1000.000
   Orbital update algorithm             .... Taylor
   White noise on init. David. guess    .... on
   Maximum white noise                  ....   0.010
   Quad. conv. algorithm                .... NR
 SOSCF                  CNVSOSCF        .... on
   Start iteration      SOSCFMaxIt      ....   150
   Startup grad/error   SOSCFStart      ....  0.003300
 Level Shifting         CNVShift        .... on
   Level shift para.    LevelShift      ....    0.2500
   Turn off err/grad.   ShiftErr        ....    0.0010
 Zerner damping         CNVZerner       .... off
 Static damping         CNVDamp         .... on
   Fraction old density DampFac         ....    0.7000
   Max. Damping (<1)    DampMax         ....    0.9800
   Min. Damping (>=0)   DampMin         ....    0.0000
   Turn off err/grad.   DampErr         ....    0.1000
 Fernandez-Rico         CNVRico         .... off

SCF Procedure:
 Maximum # iterations   MaxIter         ....   125
 SCF integral mode      SCFMode         .... Direct
   Integral package                     .... SHARK and LIBINT hybrid scheme
 Reset frequency        DirectResetFreq ....    20
 Integral Threshold     Thresh          ....  2.500e-11 Eh
 Primitive CutOff       TCut            ....  2.500e-12 Eh

Convergence Tolerance:
 Convergence Check Mode ConvCheckMode   .... Total+1el-Energy
 Convergence forced     ConvForced      .... 0
 Energy Change          TolE            ....  1.000e-08 Eh
 1-El. energy change                    ....  1.000e-05 Eh
 Orbital Gradient       TolG            ....  1.000e-05
 Orbital Rotation angle TolX            ....  1.000e-05
 DIIS Error             TolErr          ....  5.000e-07


Diagonalization of the overlap matrix:
Smallest eigenvalue                        ... 4.571e-05
Time for diagonalization                   ...    0.141 sec
Threshold for overlap eigenvalues          ... 1.000e-08
Number of eigenvalues below threshold      ... 0
Time for construction of square roots      ...    0.192 sec
Total time needed                          ...    0.337 sec

---------------------
INITIAL GUESS: MOREAD
---------------------
Guess MOs are being read from file: neb.gbw
Input Geometry matches current geometry (good)
Input basis set matches current basis set (good)
MOs were renormalized
MOs were reorthogonalized (Cholesky)
                      ------------------
                      INITIAL GUESS DONE (   0.5 sec)
                      ------------------
-------------------
DFT GRID GENERATION
-------------------

General Integration Accuracy     IntAcc      ... 4.388
Radial Grid Type                 RadialGrid  ... OptM3 with GC (2021)
Angular Grid (max. ang.)         AngularGrid ... 4 (Lebedev-302)
Angular grid pruning method      GridPruning ... 4 (adaptive)
Weight generation scheme         WeightScheme... Becke
Basis function cutoff            BFCut       ... 1.0000e-11
Integration weight cutoff        WCut        ... 1.0000e-14
Angular grids for H and He will be reduced by one unit
Partially contracted basis set               ... off
Rotationally invariant grid construction     ... off

Total number of grid points                  ...   129255
Total number of batches                      ...     2034
Average number of points per batch           ...       63
Average number of grid points per atom       ...     4616
Time for grid setup =    1.131 sec

--------------------
COSX GRID GENERATION
--------------------

GRIDX 1
-------
General Integration Accuracy     IntAcc      ... 3.816
Radial Grid Type                 RadialGrid  ... OptM3 with GC (2021)
Angular Grid (max. ang.)         AngularGrid ... 1 (Lebedev-50)
Angular grid pruning method      GridPruning ... 4 (adaptive)
Weight generation scheme         WeightScheme... Becke
Basis function cutoff            BFCut       ... 1.0000e-11
Integration weight cutoff        WCut        ... 1.0000e-14
Angular grids for H and He will be reduced by one unit
Partially contracted basis set               ... on
Rotationally invariant grid construction     ... off

Total number of grid points                  ...    16488
Total number of batches                      ...      270
Average number of points per batch           ...       61
Average number of grid points per atom       ...      589
UseSFitting                                  ... on

GRIDX 2
-------
General Integration Accuracy     IntAcc      ... 4.020
Radial Grid Type                 RadialGrid  ... OptM3 with GC (2021)
Angular Grid (max. ang.)         AngularGrid ... 2 (Lebedev-110)
Angular grid pruning method      GridPruning ... 4 (adaptive)
Weight generation scheme         WeightScheme... Becke
Basis function cutoff            BFCut       ... 1.0000e-11
Integration weight cutoff        WCut        ... 1.0000e-14
Angular grids for H and He will be reduced by one unit
Partially contracted basis set               ... on
Rotationally invariant grid construction     ... off

Total number of grid points                  ...    35646
Total number of batches                      ...      569
Average number of points per batch           ...       62
Average number of grid points per atom       ...     1273
UseSFitting                                  ... on

GRIDX 3
-------
General Integration Accuracy     IntAcc      ... 4.338
Radial Grid Type                 RadialGrid  ... OptM3 with GC (2021)
Angular Grid (max. ang.)         AngularGrid ... 3 (Lebedev-194)
Angular grid pruning method      GridPruning ... 4 (adaptive)
Weight generation scheme         WeightScheme... Becke
Basis function cutoff            BFCut       ... 1.0000e-11
Integration weight cutoff        WCut        ... 1.0000e-14
Angular grids for H and He will be reduced by one unit
Partially contracted basis set               ... on
Rotationally invariant grid construction     ... off

Total number of grid points                  ...    78071
Total number of batches                      ...     1235
Average number of points per batch           ...       63
Average number of grid points per atom       ...     2788
UseSFitting                                  ... on

Time for X-Grid setup             =    1.485 sec


--------------------
CPCM SOLVATION MODEL
--------------------
CPCM parameters:
  Epsilon                                         ...      78.4000
  Refrac                                          ...       1.3300
  Rsolv                                           ...       1.3000
  Surface type                                    ... GAUSSIAN VDW
  Epsilon function type                           ...         CPCM
Radii:
 Radius for C  used is    3.8550 Bohr (=   2.0400 Ang.)
 Radius for H  used is    2.4944 Bohr (=   1.3200 Ang.)
 Radius for N  used is    3.5149 Bohr (=   1.8600 Ang.)
 Radius for O  used is    3.4469 Bohr (=   1.8240 Ang.)
Calculating surface                               ...        done! (  0.0s)
GEPOL surface points                              ...         1607
GEPOL Volume                                      ...    1715.0660
GEPOL Surface-area                                ...     978.2948
Calculating surface distance matrix               ...        done! (  0.1s)
Performing Cholesky decomposition & store         ...        done! (  0.5s)
Overall time for CPCM initialization              ...                 0.7s
--------------
SCF ITERATIONS
--------------
ITER       Energy         Delta-E        Max-DP      RMS-DP      [F,P]     Damp
               ***  Starting incremental Fock matrix formation  ***
                      *** Initiating the SOSCF procedure ***
                      *** Re-Reading the Fockian *** 
                      *** Removing any level shift *** 
ITER      Energy       Delta-E        Grad      Rot      Max-DP    RMS-DP
  0   -686.32982287 -686.3298228702  0.000000  0.000000  0.000014  0.000000
               *** Restarting incremental Fock matrix formation ***
                 **** Energy Check signals convergence ****
              ***Rediagonalizing the Fockian in SOSCF/NRSCF***

               *****************************************************
               *                     SUCCESS                       *
               *           SCF CONVERGED AFTER   1 CYCLES          *
               *****************************************************

Old exchange energy                            =    -17.874230963 Eh
New exchange energy                            =    -17.874276117 Eh
Exchange energy change after final integration =     -0.000045154 Eh
Total energy after final integration           =   -686.329868024 Eh
Final COS-X integration done in                =     1.621 sec

----------------
TOTAL SCF ENERGY
----------------

Total Energy       :         -686.32986802 Eh          -18675.98518 eV

Components:
Nuclear Repulsion  :          840.20426407 Eh           22863.12036 eV
Electronic Energy  :        -1526.53413210 Eh          -41539.10554 eV
One Electron Energy:        -2600.55878826 Eh          -70764.80224 eV
Two Electron Energy:         1074.02465617 Eh           29225.69670 eV
Max COSX asymmetry :            0.00000244 Eh               0.00007 eV
CPCM Dielectric    :           -0.04442214 Eh              -1.20879 eV

Virial components:
Potential Energy   :        -1369.72204088 Eh          -37272.03161 eV
Kinetic Energy     :          683.39217285 Eh           18596.04643 eV
Virial Ratio       :            2.00429870


DFT components:
N(Alpha)           :       53.000011534301 electrons
N(Beta)            :       53.000011534301 electrons
N(Total)           :      106.000023068602 electrons
E(X)               :      -71.157136984869 Eh       
E(C)               :       -4.249570363010 Eh       
E(XC)              :      -75.406707347880 Eh       
DFET-embed. en.    :        0.000000000000 Eh       
CPCM Solvation Model Properties:
Surface-charge          :           -0.02825124
Charge-correction       :           -0.00038467 Eh              -0.01047 eV
Free-energy (cav+disp)  :  This term is not implemented in the current solvation scheme

---------------
SCF CONVERGENCE
---------------

  Last Energy change         ...    1.1983e-10  Tolerance :   1.0000e-08
  Last MAX-Density change    ...    1.7764e-15  Tolerance :   1.0000e-07
  Last RMS-Density change    ...    1.5328e-17  Tolerance :   5.0000e-09
  Last Orbital Gradient      ...    5.2061e-07  Tolerance :   1.0000e-05
  Last Orbital Rotation      ...    1.1617e-06  Tolerance :   1.0000e-05

             **** THE GBW FILE WAS UPDATED (neb.gbw) ****
             **** DENSITY neb.scfp WAS UPDATED ****
             **** ENERGY FILE WAS UPDATED (neb.en.tmp) ****
             **** THE GBW FILE WAS UPDATED (neb.gbw) ****
             **** DENSITY neb.scfp WAS UPDATED ****
----------------
ORBITAL ENERGIES
----------------

  NO   OCC          E(Eh)            E(eV) 
   0   2.0000     -19.136185      -520.7221 
   1   2.0000     -19.133750      -520.6558 
   2   2.0000     -19.080922      -519.2183 
   3   2.0000     -14.526038      -395.2736 
   4   2.0000     -14.387063      -391.4919 
   5   2.0000     -10.238852      -278.6133 
   6   2.0000     -10.236908      -278.5604 
   7   2.0000     -10.213045      -277.9111 
   8   2.0000     -10.208827      -277.7963 
   9   2.0000     -10.201421      -277.5948 
  10   2.0000     -10.186029      -277.1760 
  11   2.0000     -10.175623      -276.8928 
  12   2.0000     -10.172736      -276.8142 
  13   2.0000     -10.155730      -276.3515 
  14   2.0000      -1.200870       -32.6773 
  15   2.0000      -1.024174       -27.8692 
  16   2.0000      -1.004757       -27.3408 
  17   2.0000      -0.940217       -25.5846 
  18   2.0000      -0.844341       -22.9757 
  19   2.0000      -0.820906       -22.3380 
  20   2.0000      -0.805646       -21.9227 
  21   2.0000      -0.745898       -20.2969 
  22   2.0000      -0.722415       -19.6579 
  23   2.0000      -0.665682       -18.1141 
  24   2.0000      -0.639622       -17.4050 
  25   2.0000      -0.607760       -16.5380 
  26   2.0000      -0.573844       -15.6151 
  27   2.0000      -0.555865       -15.1259 
  28   2.0000      -0.526379       -14.3235 
  29   2.0000      -0.524142       -14.2626 
  30   2.0000      -0.523428       -14.2432 
  31   2.0000      -0.501649       -13.6506 
  32   2.0000      -0.501370       -13.6430 
  33   2.0000      -0.471764       -12.8374 
  34   2.0000      -0.453278       -12.3343 
  35   2.0000      -0.448535       -12.2053 
  36   2.0000      -0.444243       -12.0885 
  37   2.0000      -0.429050       -11.6750 
  38   2.0000      -0.420678       -11.4472 
  39   2.0000      -0.415116       -11.2959 
  40   2.0000      -0.407719       -11.0946 
  41   2.0000      -0.396508       -10.7895 
  42   2.0000      -0.379251       -10.3199 
  43   2.0000      -0.365178        -9.9370 
  44   2.0000      -0.351331        -9.5602 
  45   2.0000      -0.318033        -8.6541 
  46   2.0000      -0.304236        -8.2787 
  47   2.0000      -0.302983        -8.2446 
  48   2.0000      -0.290548        -7.9062 
  49   2.0000      -0.284291        -7.7360 
  50   2.0000      -0.280680        -7.6377 
  51   2.0000      -0.278432        -7.5765 
  52   2.0000      -0.217667        -5.9230 
  53   0.0000      -0.069381        -1.8880 
  54   0.0000      -0.055043        -1.4978 
  55   0.0000      -0.038025        -1.0347 
  56   0.0000       0.005307         0.1444 
  57   0.0000       0.045250         1.2313 
  58   0.0000       0.057068         1.5529 
  59   0.0000       0.065633         1.7860 
  60   0.0000       0.077632         2.1125 
  61   0.0000       0.083385         2.2690 
  62   0.0000       0.090565         2.4644 
  63   0.0000       0.094757         2.5785 
  64   0.0000       0.099425         2.7055 
  65   0.0000       0.109095         2.9686 
  66   0.0000       0.117691         3.2025 
  67   0.0000       0.129926         3.5355 
  68   0.0000       0.132547         3.6068 
  69   0.0000       0.141454         3.8492 
  70   0.0000       0.145512         3.9596 
  71   0.0000       0.151051         4.1103 
  72   0.0000       0.159365         4.3365 
  73   0.0000       0.175448         4.7742 
  74   0.0000       0.179852         4.8940 
  75   0.0000       0.189955         5.1689 
  76   0.0000       0.193171         5.2564 
  77   0.0000       0.197674         5.3790 
  78   0.0000       0.207234         5.6391 
  79   0.0000       0.212330         5.7778 
  80   0.0000       0.223023         6.0688 
  81   0.0000       0.230110         6.2616 
  82   0.0000       0.231780         6.3071 
  83   0.0000       0.238447         6.4885 
  84   0.0000       0.248617         6.7652 
  85   0.0000       0.250101         6.8056 
  86   0.0000       0.251744         6.8503 
  87   0.0000       0.266063         7.2400 
  88   0.0000       0.274627         7.4730 
  89   0.0000       0.279446         7.6041 
  90   0.0000       0.288813         7.8590 
  91   0.0000       0.296607         8.0711 
  92   0.0000       0.302461         8.2304 
  93   0.0000       0.305286         8.3073 
  94   0.0000       0.313337         8.5263 
  95   0.0000       0.324118         8.8197 
  96   0.0000       0.329452         8.9649 
  97   0.0000       0.336297         9.1511 
  98   0.0000       0.340954         9.2778 
  99   0.0000       0.343643         9.3510 
 100   0.0000       0.351978         9.5778 
 101   0.0000       0.361435         9.8351 
 102   0.0000       0.374240        10.1836 
 103   0.0000       0.385968        10.5027 
 104   0.0000       0.397740        10.8231 
 105   0.0000       0.399795        10.8790 
 106   0.0000       0.408444        11.1143 
 107   0.0000       0.413401        11.2492 
 108   0.0000       0.417922        11.3722 
 109   0.0000       0.426788        11.6135 
 110   0.0000       0.430783        11.7222 
 111   0.0000       0.434188        11.8149 
 112   0.0000       0.441683        12.0188 
 113   0.0000       0.445526        12.1234 
 114   0.0000       0.450476        12.2581 
 115   0.0000       0.457027        12.4363 
 116   0.0000       0.463373        12.6090 
 117   0.0000       0.465262        12.6604 
 118   0.0000       0.473528        12.8854 
 119   0.0000       0.479525        13.0485 
 120   0.0000       0.482044        13.1171 
 121   0.0000       0.490865        13.3571 
 122   0.0000       0.493499        13.4288 
 123   0.0000       0.495855        13.4929 
 124   0.0000       0.505798        13.7635 
 125   0.0000       0.514930        14.0120 
 126   0.0000       0.517807        14.0902 
 127   0.0000       0.526019        14.3137 
 128   0.0000       0.534816        14.5531 
 129   0.0000       0.546485        14.8706 
 130   0.0000       0.548200        14.9173 
 131   0.0000       0.562258        15.2998 
 132   0.0000       0.570662        15.5285 
 133   0.0000       0.575742        15.6667 
 134   0.0000       0.593805        16.1583 
 135   0.0000       0.595530        16.2052 
 136   0.0000       0.602555        16.3964 
 137   0.0000       0.608818        16.5668 
 138   0.0000       0.616603        16.7786 
 139   0.0000       0.619563        16.8592 
 140   0.0000       0.632478        17.2106 
 141   0.0000       0.638278        17.3684 
 142   0.0000       0.656203        17.8562 
 143   0.0000       0.660085        17.9618 
 144   0.0000       0.669520        18.2186 
 145   0.0000       0.677122        18.4254 
 146   0.0000       0.682874        18.5819 
 147   0.0000       0.694798        18.9064 
 148   0.0000       0.707470        19.2512 
 149   0.0000       0.720612        19.6088 
 150   0.0000       0.727771        19.8037 
 151   0.0000       0.735796        20.0220 
 152   0.0000       0.755121        20.5479 
 153   0.0000       0.762843        20.7580 
 154   0.0000       0.778028        21.1712 
 155   0.0000       0.797538        21.7021 
 156   0.0000       0.806012        21.9327 
 157   0.0000       0.814747        22.1704 
 158   0.0000       0.825238        22.4559 
 159   0.0000       0.845186        22.9987 
 160   0.0000       0.850170        23.1343 
 161   0.0000       0.869316        23.6553 
 162   0.0000       0.885385        24.0926 
 163   0.0000       0.895355        24.3639 
 164   0.0000       0.904101        24.6018 
 165   0.0000       0.913974        24.8705 
 166   0.0000       0.945093        25.7173 
 167   0.0000       0.952805        25.9271 
 168   0.0000       0.956679        26.0326 
 169   0.0000       0.988810        26.9069 
 170   0.0000       0.994003        27.0482 
 171   0.0000       1.001558        27.2538 
 172   0.0000       1.009190        27.4615 
 173   0.0000       1.031868        28.0786 
 174   0.0000       1.041235        28.3334 
 175   0.0000       1.052307        28.6347 
 176   0.0000       1.064059        28.9545 
 177   0.0000       1.075501        29.2659 
 178   0.0000       1.078782        29.3551 
 179   0.0000       1.101450        29.9720 
 180   0.0000       1.111753        30.2523 
 181   0.0000       1.128132        30.6980 
 182   0.0000       1.143093        31.1051 
 183   0.0000       1.161100        31.5951 
 184   0.0000       1.175759        31.9940 
 185   0.0000       1.196273        32.5522 
 186   0.0000       1.200992        32.6807 
 187   0.0000       1.206475        32.8299 
 188   0.0000       1.213823        33.0298 
 189   0.0000       1.234467        33.5916 
 190   0.0000       1.246063        33.9071 
 191   0.0000       1.256184        34.1825 
 192   0.0000       1.270103        34.5613 
 193   0.0000       1.273908        34.6648 
 194   0.0000       1.287190        35.0262 
 195   0.0000       1.295681        35.2573 
 196   0.0000       1.310925        35.6721 
 197   0.0000       1.321469        35.9590 
 198   0.0000       1.342375        36.5279 
 199   0.0000       1.355423        36.8829 
 200   0.0000       1.368172        37.2298 
 201   0.0000       1.379071        37.5264 
 202   0.0000       1.393862        37.9289 
 203   0.0000       1.405740        38.2521 
 204   0.0000       1.410016        38.3685 
 205   0.0000       1.411984        38.4220 
 206   0.0000       1.446801        39.3695 
 207   0.0000       1.466713        39.9113 
 208   0.0000       1.474254        40.1165 
 209   0.0000       1.486045        40.4373 
 210   0.0000       1.502087        40.8739 
 211   0.0000       1.509229        41.0682 
 212   0.0000       1.520012        41.3616 
 213   0.0000       1.525674        41.5157 
 214   0.0000       1.542797        41.9816 
 215   0.0000       1.543873        42.0109 
 216   0.0000       1.551808        42.2268 
 217   0.0000       1.556089        42.3433 
 218   0.0000       1.573652        42.8213 
 219   0.0000       1.580002        42.9940 
 220   0.0000       1.585605        43.1465 
 221   0.0000       1.598878        43.5077 
 222   0.0000       1.607580        43.7445 
 223   0.0000       1.615007        43.9466 
 224   0.0000       1.631071        44.3837 
 225   0.0000       1.639506        44.6132 
 226   0.0000       1.644508        44.7493 
 227   0.0000       1.659680        45.1622 
 228   0.0000       1.670353        45.4526 
 229   0.0000       1.671922        45.4953 
 230   0.0000       1.690443        45.9993 
 231   0.0000       1.696474        46.1634 
 232   0.0000       1.703586        46.3569 
 233   0.0000       1.707596        46.4661 
 234   0.0000       1.714411        46.6515 
 235   0.0000       1.730919        47.1007 
 236   0.0000       1.731852        47.1261 
 237   0.0000       1.748987        47.5924 
 238   0.0000       1.759924        47.8900 
 239   0.0000       1.767031        48.0834 
 240   0.0000       1.783336        48.5270 
 241   0.0000       1.799729        48.9731 
 242   0.0000       1.806760        49.1644 
 243   0.0000       1.842336        50.1325 
 244   0.0000       1.855399        50.4880 
 245   0.0000       1.859226        50.5921 
 246   0.0000       1.871549        50.9274 
 247   0.0000       1.912361        52.0380 
 248   0.0000       1.948004        53.0079 
 249   0.0000       1.951813        53.1115 
 250   0.0000       1.953884        53.1679 
 251   0.0000       1.968563        53.5673 
 252   0.0000       1.980621        53.8954 
 253   0.0000       1.986144        54.0457 
 254   0.0000       2.005192        54.5640 
 255   0.0000       2.015868        54.8546 
 256   0.0000       2.032723        55.3132 
 257   0.0000       2.036563        55.4177 
 258   0.0000       2.053057        55.8665 
 259   0.0000       2.058887        56.0252 
 260   0.0000       2.079234        56.5788 
 261   0.0000       2.091588        56.9150 
 262   0.0000       2.093535        56.9680 
 263   0.0000       2.108764        57.3824 
 264   0.0000       2.112924        57.4956 
 265   0.0000       2.129529        57.9474 
 266   0.0000       2.132407        58.0257 
 267   0.0000       2.142814        58.3089 
 268   0.0000       2.163376        58.8684 
 269   0.0000       2.189772        59.5867 
 270   0.0000       2.204908        59.9986 
 271   0.0000       2.220921        60.4343 
 272   0.0000       2.226207        60.5782 
 273   0.0000       2.240059        60.9551 
 274   0.0000       2.251529        61.2672 
 275   0.0000       2.259199        61.4759 
 276   0.0000       2.279986        62.0416 
 277   0.0000       2.292188        62.3736 
 278   0.0000       2.294578        62.4386 
 279   0.0000       2.331458        63.4422 
 280   0.0000       2.343642        63.7737 
 281   0.0000       2.360337        64.2280 
 282   0.0000       2.368957        64.4626 
 283   0.0000       2.378841        64.7315 
 284   0.0000       2.385086        64.9015 
 285   0.0000       2.391331        65.0714 
 286   0.0000       2.401888        65.3587 
 287   0.0000       2.430113        66.1268 
 288   0.0000       2.447022        66.5868 
 289   0.0000       2.456630        66.8483 
 290   0.0000       2.480902        67.5088 
 291   0.0000       2.491032        67.7844 
 292   0.0000       2.498823        67.9964 
 293   0.0000       2.515026        68.4373 
 294   0.0000       2.524990        68.7085 
 295   0.0000       2.538118        69.0657 
 296   0.0000       2.543928        69.2238 
 297   0.0000       2.569623        69.9230 
 298   0.0000       2.577499        70.1373 
 299   0.0000       2.591369        70.5147 
 300   0.0000       2.608583        70.9832 
 301   0.0000       2.615360        71.1676 
 302   0.0000       2.621450        71.3333 
 303   0.0000       2.629605        71.5552 
 304   0.0000       2.650415        72.1215 
 305   0.0000       2.658573        72.3434 
 306   0.0000       2.660222        72.3883 
 307   0.0000       2.673492        72.7494 
 308   0.0000       2.677791        72.8664 
 309   0.0000       2.698748        73.4367 
 310   0.0000       2.707408        73.6723 
 311   0.0000       2.711497        73.7836 
 312   0.0000       2.717529        73.9477 
 313   0.0000       2.730409        74.2982 
 314   0.0000       2.739026        74.5327 
 315   0.0000       2.745020        74.6958 
 316   0.0000       2.752336        74.8949 
 317   0.0000       2.769377        75.3586 
 318   0.0000       2.785662        75.8017 
 319   0.0000       2.793664        76.0195 
 320   0.0000       2.797131        76.1138 
 321   0.0000       2.812986        76.5452 
 322   0.0000       2.825590        76.8882 
 323   0.0000       2.838547        77.2408 
 324   0.0000       2.850552        77.5675 
 325   0.0000       2.864298        77.9415 
 326   0.0000       2.883737        78.4705 
 327   0.0000       2.892864        78.7188 
 328   0.0000       2.894188        78.7549 
 329   0.0000       2.902074        78.9694 
 330   0.0000       2.924958        79.5922 
 331   0.0000       2.934902        79.8628 
 332   0.0000       2.957314        80.4726 
 333   0.0000       2.964123        80.6579 
 334   0.0000       2.971666        80.8632 
 335   0.0000       2.983096        81.1742 
 336   0.0000       2.998227        81.5859 
 337   0.0000       3.013713        82.0073 
 338   0.0000       3.016635        82.0868 
 339   0.0000       3.027693        82.3877 
 340   0.0000       3.036032        82.6146 
 341   0.0000       3.047268        82.9204 
 342   0.0000       3.055350        83.1403 
 343   0.0000       3.058176        83.2172 
 344   0.0000       3.072035        83.5943 
 345   0.0000       3.088807        84.0507 
 346   0.0000       3.096162        84.2509 
 347   0.0000       3.102838        84.4325 
 348   0.0000       3.110815        84.6496 
 349   0.0000       3.113974        84.7355 
 350   0.0000       3.119089        84.8747 
 351   0.0000       3.129896        85.1688 
 352   0.0000       3.148267        85.6687 
 353   0.0000       3.171840        86.3101 
 354   0.0000       3.175329        86.4051 
 355   0.0000       3.198061        87.0237 
 356   0.0000       3.203140        87.1619 
 357   0.0000       3.206279        87.2473 
 358   0.0000       3.215097        87.4872 
 359   0.0000       3.223568        87.7178 
 360   0.0000       3.236391        88.0667 
 361   0.0000       3.239038        88.1387 
 362   0.0000       3.261360        88.7461 
 363   0.0000       3.262635        88.7808 
 364   0.0000       3.272475        89.0486 
 365   0.0000       3.292126        89.5833 
 366   0.0000       3.303662        89.8972 
 367   0.0000       3.306579        89.9766 
 368   0.0000       3.310444        90.0818 
 369   0.0000       3.315641        90.2232 
 370   0.0000       3.339080        90.8610 
 371   0.0000       3.368060        91.6496 
 372   0.0000       3.382701        92.0480 
 373   0.0000       3.396329        92.4188 
 374   0.0000       3.402555        92.5882 
 375   0.0000       3.412237        92.8517 
 376   0.0000       3.415853        92.9501 
 377   0.0000       3.430328        93.3440 
 378   0.0000       3.454993        94.0151 
 379   0.0000       3.458272        94.1044 
 380   0.0000       3.466161        94.3190 
 381   0.0000       3.485500        94.8453 
 382   0.0000       3.493549        95.0643 
 383   0.0000       3.516474        95.6881 
 384   0.0000       3.541514        96.3695 
 385   0.0000       3.553277        96.6896 
 386   0.0000       3.583775        97.5195 
 387   0.0000       3.617030        98.4244 
 388   0.0000       3.634002        98.8862 
 389   0.0000       3.650689        99.3403 
 390   0.0000       3.664030        99.7033 
 391   0.0000       3.685169       100.2785 
 392   0.0000       3.708799       100.9215 
 393   0.0000       3.734755       101.6279 
 394   0.0000       3.755051       102.1801 
 395   0.0000       3.762098       102.3719 
 396   0.0000       3.784994       102.9949 
 397   0.0000       3.787304       103.0578 
 398   0.0000       3.796858       103.3178 
 399   0.0000       3.804056       103.5136 
 400   0.0000       3.841278       104.5265 
 401   0.0000       3.854256       104.8796 
 402   0.0000       3.871993       105.3623 
 403   0.0000       3.894147       105.9651 
 404   0.0000       3.909045       106.3705 
 405   0.0000       3.954597       107.6101 
 406   0.0000       3.978912       108.2717 
 407   0.0000       3.999362       108.8282 
 408   0.0000       4.055598       110.3584 
 409   0.0000       4.064330       110.5960 
 410   0.0000       4.080334       111.0315 
 411   0.0000       4.084284       111.1390 
 412   0.0000       4.102397       111.6319 
 413   0.0000       4.117656       112.0471 
 414   0.0000       4.141442       112.6944 
 415   0.0000       4.151035       112.9554 
 416   0.0000       4.176676       113.6531 
 417   0.0000       4.183933       113.8506 
 418   0.0000       4.209025       114.5334 
 419   0.0000       4.233107       115.1887 
 420   0.0000       4.250390       115.6590 
 421   0.0000       4.299742       117.0019 
 422   0.0000       4.314769       117.4108 
 423   0.0000       4.327913       117.7685 
 424   0.0000       4.335979       117.9880 
 425   0.0000       4.350538       118.3841 
 426   0.0000       4.373566       119.0108 
 427   0.0000       4.433148       120.6321 
 428   0.0000       4.465725       121.5186 
 429   0.0000       4.471089       121.6645 
 430   0.0000       4.481272       121.9416 
 431   0.0000       4.561070       124.1130 
 432   0.0000       4.572399       124.4213 
 433   0.0000       4.584369       124.7470 
 434   0.0000       4.596799       125.0853 
 435   0.0000       4.601793       125.2212 
 436   0.0000       4.607105       125.3657 
 437   0.0000       4.668929       127.0480 
 438   0.0000       4.698832       127.8617 
 439   0.0000       4.707249       128.0908 
 440   0.0000       4.739900       128.9792 
 441   0.0000       4.780707       130.0897 
 442   0.0000       4.788908       130.3128 
 443   0.0000       4.802764       130.6899 
 444   0.0000       4.836469       131.6070 
 445   0.0000       4.844090       131.8144 
 446   0.0000       4.879560       132.7796 
 447   0.0000       4.913401       133.7004 
 448   0.0000       4.949713       134.6885 
 449   0.0000       4.957270       134.8942 
 450   0.0000       4.966019       135.1322 
 451   0.0000       5.039589       137.1342 
 452   0.0000       5.049507       137.4041 
 453   0.0000       5.078598       138.1957 
 454   0.0000       5.121923       139.3746 
 455   0.0000       5.131439       139.6336 
 456   0.0000       5.145039       140.0036 
 457   0.0000       5.151169       140.1704 
 458   0.0000       5.165085       140.5491 
 459   0.0000       5.190200       141.2325 
 460   0.0000       5.200210       141.5049 
 461   0.0000       5.202617       141.5704 
 462   0.0000       5.205795       141.6569 
 463   0.0000       5.223413       142.1363 
 464   0.0000       5.254468       142.9814 
 465   0.0000       5.294358       144.0668 
 466   0.0000       5.306386       144.3941 
[...]
Searching for lambda that maximizes along the lowest mode
TS mode is mode number   0 with eigenvalue  -0.06995178 and components:
   1.   -0.06409115
   2.   -0.03172688
   3.   -0.08339832
   4.    0.07805320
   5.    0.15093890
   6.    0.02309847
   7.    0.08120251
   8.    0.02991194
   9.   -0.45045348
  10.    0.07838279
  11.   -0.08836777
  12.    0.05403945
  13.   -0.02610078
  14.    0.00711977
  15.    0.01711163
  16.   -0.01884939
  17.    0.01808641
  18.   -0.02819719
  19.    0.00775763
  20.    0.01529700
  21.    0.00861307
  22.   -0.01540602
  23.   -0.00597439
  24.    0.05663171
  25.    0.02873804
  26.    0.07164895
  27.    0.00214268
  28.    0.00085885
  29.    0.58430564
  30.   -0.34693413
  31.    0.31457577
  32.    0.00728564
  33.   -0.02973031
  34.    0.02359352
  35.    0.00352609
  36.    0.01162465
  37.   -0.01995179
  38.    0.05608983
  39.   -0.03036071
  40.   -0.00124663
  41.   -0.02999668
  42.    0.08256901
  43.   -0.05356569
  44.   -0.04214660
  45.    0.04503305
  46.   -0.02982552
  47.    0.00322640
  48.    0.02606691
  49.   -0.00524806
  50.   -0.00227253
  51.    0.00772865
  52.    0.00813429
  53.   -0.01768399
  54.    0.00959614
  55.   -0.00095725
  56.    0.00925972
  57.   -0.00819700
  58.    0.01219547
  59.    0.00129909
  60.   -0.01355265
  61.   -0.00206081
  62.   -0.02464281
  63.    0.02665511
  64.   -0.02197813
  65.    0.02778999
  66.   -0.00491568
  67.   -0.01964119
  68.   -0.00389476
  69.   -0.01012719
  70.    0.00388266
  71.    0.00854461
  72.    0.02130734
  73.    0.00763852
  74.   -0.00597186
  75.   -0.10091102
  76.   -0.16224125
  77.    0.12225326
  78.    0.10638672
  79.    0.04979145
  80.    0.02075053
  81.    0.03625738
  82.    0.05969703
  83.   -0.10653551
  84.    0.07323109
  85.   -0.06442504
  86.   -0.02089933
  87.    0.05383989
  88.   -0.07795911
  89.   -0.03179630
  90.    0.01244997
  91.   -0.01876592
  92.   -0.03145674
  93.   -0.00024084
  94.    0.01632810
  95.   -0.00918995
  96.    0.01726044
  97.   -0.00825761
  98.    0.00605405
  99.   -0.00551074
 100.   -0.00649403
 101.    0.00507076
 102.   -0.00222946
 103.    0.00437578
 104.    0.01602411
 105.    0.00941886
 106.   -0.00917433
 107.   -0.00450580
 108.   -0.01076572
 109.   -0.00291441
 110.   -0.04524671
 111.   -0.00538210
 112.   -0.00377528
 113.    0.02851939
 114.    0.05310654
 115.   -0.04363990
 116.   -0.01060613
 117.    0.01398102
 118.    0.02839997
 119.    0.02949865
 120.    0.00834329
 121.    0.00944197
 122.    0.02015851
 123.    0.02125719
 124.    0.04933696
 125.   -0.03378437
 126.   -0.06223828
 127.    0.00513398
 128.   -0.00207348
 129.   -0.02228010
 130.   -0.03708118
 131.    0.02088305
 132.   -0.04428864
 133.   -0.06449526

Lambda that maximizes along the TS mode:       0.00000000
Searching for lambda that minimizes along all other modes
In cycle   1: lambdaN =  -0.00000592   step =   0.00000592
In cycle   2: lambdaN =  -0.00000592   step =   0.00000000
Lambda that minimizes along all other modes:  -0.00000592
The final length of the internal step   ....       0.0223
Converting the step to cartesian space:
 Initial RMS(Int)=    0.0019359087
Transforming coordinates:
 Iter   0:  RMS(Cart)=    0.0071801244 RMS(Int)=    0.0019310587
 Iter   1:  RMS(Cart)=    0.0002599512 RMS(Int)=    0.0000409726
 Iter   2:  RMS(Cart)=    0.0001320596 RMS(Int)=    0.0000199535
 Iter   3:  RMS(Cart)=    0.0000651323 RMS(Int)=    0.0000098430
 Iter   4:  RMS(Cart)=    0.0000321404 RMS(Int)=    0.0000048559
 Iter   5:  RMS(Cart)=    0.0000158616 RMS(Int)=    0.0000023958
 Iter   6:  RMS(Cart)=    0.0000078285 RMS(Int)=    0.0000011821
 Iter   7:  RMS(Cart)=    0.0000038640 RMS(Int)=    0.0000005833
 Iter   8:  RMS(Cart)=    0.0000019073 RMS(Int)=    0.0000002879
 Iter   9:  RMS(Cart)=    0.0000009415 RMS(Int)=    0.0000001421
 Iter  10:  RMS(Cart)=    0.0000004648 RMS(Int)=    0.0000000701
 Iter  11:  RMS(Cart)=    0.0000002295 RMS(Int)=    0.0000000346
 Iter  12:  RMS(Cart)=    0.0000001133 RMS(Int)=    0.0000000171
 Iter  13:  RMS(Cart)=    0.0000000559 RMS(Int)=    0.0000000084
done
Storing new coordinates                 .... done
The predicted energy change is          ....    -0.000002961
Previously predicted energy change      ....    -0.000010109
Actually observed energy change         ....    -0.000027654
Ratio of predicted to observed change   ....     2.735505315
New trust radius                        ....     0.100000000

                                .--------------------.
          ----------------------|Geometry convergence|-------------------------
          Item                value                   Tolerance       Converged
          ---------------------------------------------------------------------
          Energy change      -0.0000276536            0.0000050000      NO
          RMS gradient        0.0001952510            0.0001000000      NO
          MAX gradient        0.0009515381            0.0003000000      NO
          RMS step            0.0019359087            0.0020000000      YES
          MAX step            0.0084442246            0.0040000000      NO
          ........................................................
          Max(Bonds)      0.0003      Max(Angles)    0.08
          Max(Dihed)        0.48      Max(Improp)    0.00
          ---------------------------------------------------------------------

The optimization has not yet converged - more geometry cycles are needed


    ---------------------------------------------------------------------------
                         Redundant Internal Coordinates
                            (Angstroem and degrees)

        Definition                    Value    dE/dq     Step     New-Value  comp.(TS mode)
    ----------------------------------------------------------------------------
     1. B(H   1,C   0)                1.0841  0.000145 -0.0001    1.0841   
     2. B(O   3,N   2)                1.2429  0.000235  0.0000    1.2429   
     3. B(O   4,N   2)                1.2429  0.000323  0.0000    1.2429   
     4. B(C   6,O   4)                2.2890 -0.000068  0.0001    2.2891   
     5. B(C   6,N   2)                1.4224 -0.000062  0.0001    1.4225   
     6. B(C   6,C   0)                1.4664 -0.000249  0.0000    1.4665   
     7. B(C   6,O   3)                2.3131  0.000386  0.0001    2.3132   
     8. B(H   7,C   6)                1.0851  0.000078  0.0001    1.0853   
     9. B(H   8,C   6)                1.3454  0.000043  0.0002    1.3456          0.45
    10. B(C   9,C   6)                2.4772  0.000288  0.0001    2.4773   
    11. B(C   9,H   5)                1.0849  0.000137  0.0000    1.0849   
    12. B(C   9,C   0)                1.3351  0.000410  0.0001    1.3352   
    13. B(H  10,C   9)                1.0820 -0.000203  0.0003    1.0823   
    14. B(C  12,C  11)                1.3874 -0.000027  0.0000    1.3874   
    15. B(C  13,C  12)                1.3972  0.000113 -0.0001    1.3971   
    16. B(C  14,C  13)                1.3873 -0.000162 -0.0001    1.3873   
    17. B(C  15,C  14)                1.3843  0.000145 -0.0000    1.3843   
    18. B(N  16,C  11)                1.3372 -0.000305 -0.0001    1.3371   
    19. B(N  16,C  15)                1.3357 -0.000033  0.0002    1.3360   
    20. B(H  17,C  11)                1.0826  0.000052 -0.0000    1.0826   
    21. B(H  18,C  14)                1.0808 -0.000000  0.0001    1.0809   
    22. B(H  19,C  15)                1.0820 -0.000124  0.0000    1.0821   
    23. B(C  20,C  12)                1.4995 -0.000258  0.0001    1.4996   
    24. B(H  21,C  20)                1.0914  0.000049  0.0001    1.0915   
    25. B(H  22,C  20)                1.0926  0.000059 -0.0000    1.0926   
    26. B(H  23,C  20)                1.0897  0.000230 -0.0001    1.0896   
    27. B(H  24,C  13)                1.0834  0.000049 -0.0000    1.0834   
    28. B(O  26,H  25)                0.9662  0.000028 -0.0000    0.9662   
    29. B(O  26,H   8)                1.2780 -0.000175 -0.0002    1.2779          0.58
    30. B(H  27,O  26)                1.2796 -0.000102  0.0001    1.2796          0.35
    31. B(H  27,N  16)                1.2148  0.000008  0.0001    1.2149          0.31
    32. A(C   6,C   0,C   9)          124.24  0.000125    0.00    124.25   
    33. A(H   1,C   0,C   6)          115.93 -0.000244    0.00    115.93   
    34. A(H   1,C   0,C   9)          119.73  0.000113   -0.01    119.72   
    35. A(O   3,N   2,O   4)          121.30  0.000023    0.00    121.30   
    36. A(O   4,N   2,C   6)          118.21 -0.000220   -0.00    118.21   
    37. A(O   3,N   2,C   6)          120.28  0.000194    0.00    120.28   
    38. A(H   7,C   6,H   8)          103.06 -0.000171    0.01    103.08   
    39. A(N   2,C   6,H   7)          109.27 -0.000191    0.00    109.28   
    40. A(N   2,C   6,H   8)          101.69  0.000372   -0.05    101.64   
    41. A(C   0,C   6,H   7)          117.09  0.000160    0.00    117.09   
    42. A(C   0,C   6,H   8)          106.23 -0.000321    0.03    106.25   
    43. A(C   0,C   6,N   2)          117.21  0.000133   -0.00    117.20   
    44. L(C   6,H   8,O  26,C   0, 1) 176.32 -0.000439    0.04    176.36   
    45. L(C   6,H   8,O  26,C   0, 2) 182.47  0.000467   -0.06    182.40   
    46. A(H   5,C   9,H  10)          117.05 -0.000204    0.01    117.06   
    47. A(C   0,C   9,H  10)          120.96 -0.000016   -0.00    120.96   
    48. A(C   0,C   9,H   5)          121.98  0.000220   -0.01    121.98   
    49. A(N  16,C  11,H  17)          116.07 -0.000101   -0.00    116.07   
    50. A(C  12,C  11,H  17)          121.85  0.000064    0.01    121.86   
    51. A(C  12,C  11,N  16)          122.08  0.000036   -0.01    122.07   
    52. A(C  13,C  12,C  20)          121.90  0.000065    0.00    121.91   
    53. A(C  11,C  12,C  20)          121.17 -0.000117   -0.01    121.15   
    54. A(C  11,C  12,C  13)          116.93  0.000051    0.01    116.94   
    55. A(C  14,C  13,H  24)          119.94 -0.000025   -0.00    119.94   
    56. A(C  12,C  13,H  24)          119.59  0.000114    0.00    119.59   
    57. A(C  12,C  13,C  14)          120.47 -0.000089    0.00    120.47   
    58. A(C  15,C  14,H  18)          119.92  0.000098   -0.00    119.92   
    59. A(C  13,C  14,H  18)          121.14 -0.000078    0.00    121.15   
    60. A(C  13,C  14,C  15)          118.93 -0.000020    0.00    118.93   
    61. A(N  16,C  15,H  19)          116.49 -0.000023    0.00    116.49   
    62. A(C  14,C  15,H  19)          123.09 -0.000010    0.00    123.09   
    63. A(C  14,C  15,N  16)          120.42  0.000033   -0.00    120.42   
    64. A(C  11,N  16,C  15)          121.17 -0.000012   -0.00    121.17   
    65. A(C  15,N  16,H  27)          119.56  0.000313    0.01    119.57   
    66. A(C  11,N  16,H  27)          119.21 -0.000310   -0.01    119.20   
    67. A(C  12,C  20,H  22)          110.43 -0.000052    0.00    110.43   
    68. A(C  12,C  20,H  21)          110.67 -0.000080    0.01    110.68   
    69. A(H  22,C  20,H  23)          108.34  0.000076   -0.01    108.33   
    70. A(H  21,C  20,H  23)          108.70  0.000085   -0.01    108.70   
    71. A(C  12,C  20,H  23)          111.17 -0.000053   -0.00    111.17   
    72. A(H  21,C  20,H  22)          107.42  0.000032    0.00    107.42   
    73. A(H  25,O  26,H  27)          110.52  0.000121    0.00    110.52   
    74. A(H   8,O  26,H  27)          105.30  0.000095   -0.04    105.26   
    75. A(H   8,O  26,H  25)          106.68  0.000166   -0.01    106.67   
    76. L(N  16,H  27,O  26,H   8, 2) 169.55 -0.000952    0.08    169.64   
    77. L(N  16,H  27,O  26,H   8, 1) 177.84  0.000526   -0.03    177.81   
    78. D(H   7,C   6,N   2,O   4)     24.28 -0.000009    0.00     24.28   
    79. D(H   8,C   6,C   0,C   9)     86.42 -0.000514    0.26     86.68   
    80. D(H   7,C   6,N   2,O   3)   -160.84 -0.000047    0.01   -160.83   
    81. D(H   8,C   6,C   0,H   1)    -89.94 -0.000414    0.25    -89.69   
    82. D(N   2,C   6,C   0,H   1)     22.82 -0.000099    0.21     23.03   
    83. D(C   0,C   6,N   2,O   3)    -24.61  0.000125    0.02    -24.59   
    84. D(N   2,C   6,C   0,C   9)   -160.82 -0.000199    0.22   -160.61   
    85. D(H   7,C   6,C   0,C   9)    -27.99 -0.000166    0.22    -27.77   
    86. D(C   0,C   6,N   2,O   4)    160.52  0.000163    0.01    160.52   
    87. D(H   8,C   6,N   2,O   4)    -84.19  0.000082    0.01    -84.19   
    88. D(H   7,C   6,C   0,H   1)    155.65 -0.000066    0.22    155.86   
    89. D(H   8,C   6,N   2,O   3)     90.68  0.000044    0.02     90.70   
    90. D(H  10,C   9,C   0,H   1)     -0.59 -0.000023    0.01     -0.57   
    91. D(H   5,C   9,C   0,H   1)    179.23 -0.000147    0.00    179.23   
    92. D(H   5,C   9,C   0,C   6)      3.00 -0.000031   -0.01      2.99   
    93. D(H  10,C   9,C   0,C   6)   -176.82  0.000094    0.01   -176.81   
    94. D(C  20,C  12,C  11,H  17)      0.43 -0.000038    0.04      0.47   
    95. D(C  20,C  12,C  11,N  16)   -179.32  0.000130    0.02   -179.30   
    96. D(C  13,C  12,C  11,H  17)    179.85 -0.000082   -0.00    179.85   
    97. D(C  13,C  12,C  11,N  16)      0.10  0.000087   -0.02      0.09   
    98. D(H  24,C  13,C  12,C  20)     -0.55 -0.000034   -0.02     -0.58   
    99. D(C  14,C  13,C  12,C  20)    179.46 -0.000034   -0.02    179.44   
   100. D(C  14,C  13,C  12,C  11)      0.05  0.000012    0.02      0.06   
   101. D(H  24,C  13,C  12,C  11)   -179.97  0.000011    0.01   -179.96   
   102. D(H  18,C  14,C  13,H  24)     -0.04 -0.000006   -0.00     -0.04   
   103. D(C  15,C  14,C  13,H  24)    179.84 -0.000090    0.00    179.84   
   104. D(C  15,C  14,C  13,C  12)     -0.18 -0.000090   -0.00     -0.18   
   105. D(H  18,C  14,C  13,C  12)    179.94 -0.000006   -0.01    179.94   
   106. D(H  19,C  15,C  14,C  13)   -179.68  0.000106    0.02   -179.66   
   107. D(N  16,C  15,C  14,H  18)   -179.95 -0.000007   -0.01   -179.96   
   108. D(N  16,C  15,C  14,C  13)      0.17  0.000076   -0.02      0.15   
   109. D(H  19,C  15,C  14,H  18)      0.20  0.000023    0.02      0.22   
   110. D(H  27,N  16,C  15,H  19)      2.54  0.000220    0.02      2.56   
   111. D(C  11,N  16,C  15,H  19)    179.83 -0.000008   -0.01    179.82   
   112. D(C  11,N  16,C  15,C  14)     -0.03  0.000020    0.02     -0.01   
   113. D(H  27,N  16,C  11,H  17)     -2.58 -0.000156   -0.05     -2.63   
   114. D(H  27,N  16,C  11,C  12)    177.19 -0.000315   -0.04    177.15   
   115. D(H  27,N  16,C  15,C  14)   -177.32  0.000248    0.06   -177.26   
   116. D(C  15,N  16,C  11,H  17)   -179.88  0.000055   -0.02   -179.90   
   117. D(C  15,N  16,C  11,C  12)     -0.11 -0.000104   -0.00     -0.12   
   118. D(H  23,C  20,C  12,C  13)    172.69 -0.000013   -0.03    172.66   
   119. D(H  23,C  20,C  12,C  11)     -7.92 -0.000059   -0.07     -7.99   
   120. D(H  22,C  20,C  12,C  13)    -67.02  0.000013   -0.05    -67.07   
   121. D(H  22,C  20,C  12,C  11)    112.37 -0.000033   -0.08    112.29   
   122. D(H  21,C  20,C  12,C  13)     51.78 -0.000030   -0.03     51.75   
   123. D(H  21,C  20,C  12,C  11)   -128.82 -0.000076   -0.07   -128.90   
   124. D(H  25,O  26,N  16,C  15)    -98.60 -0.000259    0.46    -98.14   
   125. D(H   8,O  26,N  16,C  15)     17.35  0.000216    0.42     17.77   
   126. D(H   8,O  26,N  16,C  11)   -156.08  0.000437    0.44   -155.64   
   127. D(H  27,O  26,C   6,H   7)    177.57 -0.000205   -0.23    177.34   
   128. D(H  27,O  26,C   6,N   2)    -68.54 -0.000256   -0.25    -68.78   
   129. D(H  27,O  26,C   6,C   0)     54.58 -0.000087   -0.27     54.31   
   130. D(H  25,O  26,C   6,H   7)    -64.22  0.000147   -0.28    -64.50   
   131. D(H  25,O  26,N  16,C  11)     87.97 -0.000039    0.48     88.46   
   132. D(H  25,O  26,C   6,N   2)     49.67  0.000096   -0.29     49.38   
   133. D(H  25,O  26,C   6,C   0)    172.78  0.000266   -0.31    172.48   
    ----------------------------------------------------------------------------




    ----------------------------------------------------------------------------
                                  WARNING !!!
       The optimization did not converge but reached the maximum number of
       optimization cycles.
       Please check your results very carefully.
    ----------------------------------------------------------------------------






    ----------------------------------------------------------------------------
                                  WARNING !!!
       The optimization did not converge but reached the maximum number of
       optimization cycles.
       Please check your results very carefully.
    ----------------------------------------------------------------------------


----------
STATISTICS
----------

For the individual parts of the NEB, NEB-CI or NEB-TS run:

Number of iterations:
     NEB                               ... 41  32.3%
     TS optimization                   ... 86  67.7%
Number of SCF / gradient calculations:
     NEB                               ... 308  78.2%
     TS optimization                   ... 86  21.8%

----------
 TIMINGS
----------

For the individual parts of the NEB, NEB-CI or NEB-TS run:

Total                                  ...    11082.601 sec
NEB                                    ...     5767.236 sec  52.0%
TS Optimization                        ...     5315.365 sec  48.0%


                            ***************************************
                            *     ORCA property calculations      *
                            ***************************************

                                    ---------------------
                                    Active property flags
                                    ---------------------
   (+) Dipole Moment


------------------------------------------------------------------------------
                       ORCA ELECTRIC PROPERTIES CALCULATION
------------------------------------------------------------------------------

Dipole Moment Calculation                       ... on
Quadrupole Moment Calculation                   ... off
Polarizability Calculation                      ... off
GBWName                                         ... neb.gbw
Electron density                                ... neb.scfp
The origin for moment calculation is the CENTER OF MASS  = (-0.912364,  0.010779  0.589662)

-------------
DIPOLE MOMENT
-------------
                                X             Y             Z
Electronic contribution:     -5.91666      -0.05382       7.38626
Nuclear contribution   :     11.01157      -0.63216      -8.20925
                        -----------------------------------------
Total Dipole Moment    :      5.09490      -0.68598      -0.82298
                        -----------------------------------------
Magnitude (a.u.)       :      5.20633
Magnitude (Debye)      :     13.23345



--------------------
Rotational spectrum 
--------------------
 
Rotational constants in cm-1:     0.037341     0.009736     0.009408 
Rotational constants in MHz :  1119.464450   291.867010   282.039403 

 Dipole components along the rotational axes: 
x,y,z [a.u.] :    -5.150248    -0.721260    -0.246255 
x,y,z [Debye]:   -13.090890    -1.833296    -0.625931 

 

Timings for individual modules:

Sum of individual times         ...    10893.330 sec (= 181.556 min)
GTO integral calculation        ...      425.439 sec (=   7.091 min)   3.9 %
SCF iterations                  ...     3750.020 sec (=  62.500 min)  34.4 %
SCF Gradient evaluation         ...      946.984 sec (=  15.783 min)   8.7 %
Geometry relaxation             ...        3.651 sec (=   0.061 min)   0.0 %
NEB Iterations                  ...     5767.236 sec (=  96.121 min)  52.9 %
                             ****ORCA TERMINATED NORMALLY****
TOTAL RUN TIME: 0 days 3 hours 4 minutes 50 seconds 152 msec
