 *******************************************************************************
 **                                                                           **
 **                              MOPAC v22.0.6                                **
 **                                                                           **
 *******************************************************************************
 **          Digital Object Identifier (DOI): 10.5281/zenodo.6511958          **
 **    Visit the DOI location for information on how to cite this program.    **
 *******************************************************************************

                              PM7 CALCULATION RESULTS

 *******************************************************************************
 *  CALCULATION DONE:                                Tue Mar 26 11:28:09 2024  *
 *  PM7        - The PM7 Hamiltonian to be used
 *  SINGLET    - SPIN STATE DEFINED AS A SINGLET
 *
 *
 *
 *                 CHARGE ON SYSTEM = 0
 *
 *
 *
 *  EPS=78.4   - USE ANDREAS KLAMT'S COSMO IMPLICIT SOLVATION MODEL
 *  T=         - A TIME OF 14.0 DAYS REQUESTED
 *  DUMP=N     - RESTART FILE WRITTEN EVERY 30.0 MINUTES REQUESTED
 *  RELSCF     - DEFAULT SCF CRITERION MULTIPLIED BY 1.0000
 *              (DEFAULT SCF CRITERION = 0.00010)
 *  ITRY=      - DO A MAXIMUM OF 15000 ITERATIONS FOR SCF
 *  AUX        - OUTPUT AUXILIARY INFORMATION
 *  BONDS      - FINAL BOND-ORDER MATRIX TO BE PRINTED
 *******************************************************************************
PM7 BONDS AUX DUMP=30M ITRY=15000 T=14D CHARGE=0 SINGLET eps=78.4 RELSCF=1
 Title: ASE calculation

   ATOM   CHEMICAL          X               Y               Z
  NUMBER   SYMBOL      (ANGSTROMS)     (ANGSTROMS)     (ANGSTROMS)

     1       C          2.06951000  *   2.71720000  *   1.49361000  *
     2       C          2.10746000  *   1.32842000  *   1.59533000  *
     3       C          1.00731000  *   0.56681000  *   1.18482000  *
     4       C         -0.12621000  *   1.21450000  *   0.67788000  *
     5       C         -0.16075000  *   2.60299000  *   0.58427000  *
     6       C          0.93837000  *   3.35623000  *   0.98993000  *
     7       H          2.93179000  *   3.30491000  *   1.80555000  *
     8       H          2.99227000  *   0.84247000  *   2.00123000  *
     9       H         -0.98393000  *   0.62460000  *   0.35540000  *
    10       H          0.91417000  *   4.44170000  *   0.91331000  *
    11       C          1.02531000  *  -0.88522000  *   1.31703000  *
    12       C          1.22120000  *  -1.46786000  *   2.67458000  *
    13       H          1.54964000  *  -2.51742000  *   2.64238000  *
    14       H          0.28360000  *  -1.44574000  *   3.25335000  *
    15       H          1.96709000  *  -0.91079000  *   3.25778000  *
    16       N          0.67783000  *  -1.66930000  *   0.29502000  *
    17       O          0.46955000  *  -1.19919000  *  -0.85656000  *
    18       O          0.59797000  *  -2.92380000  *   0.41796000  *
    19       N          5.14272000  *  -2.43688000  *   4.02255000  *
    20       C          4.47700000  *  -3.60101000  *   4.65241000  *
    21       C          4.67010000  *  -3.52058000  *   6.18320000  *
    22       N          6.11708000  *  -3.50750000  *   6.51665000  *
    23       C          6.80060000  *  -2.37530000  *   5.84151000  *
    24       C          6.59459000  *  -2.46523000  *   4.31281000  *
    25       H          7.07240000  *  -1.59431000  *   3.81498000  *
    26       H          7.09313000  *  -3.37500000  *   3.91522000  *
    27       H          7.88432000  *  -2.43705000  *   6.07954000  *
    28       H          6.44177000  *  -1.38835000  *   6.20646000  *
    29       H          4.21550000  *  -4.41190000  *   6.66813000  *
    30       H          4.14066000  *  -2.62617000  *   6.57682000  *
    31       H          4.86167000  *  -4.57156000  *   4.27215000  *
    32       H          3.29080000  *  -1.31533000  *   0.75462000  *
    33       H          4.97290000  *  -2.42698000  *   3.01548000  *
    34       H          3.39335000  *  -3.55667000  *   4.40630000  *
    35       H          6.23211000  *  -3.41481000  *   7.53570000  *
    36       H          4.67356000  *  -2.05638000  *   0.50218000  *
    37       H          4.65940000  *  -0.49489000  *   0.76894000  *
    38       O          4.23905000  *  -1.36627000  *   1.14794000  *
    39       H         -1.05044000  *   3.10094000  *   0.19614000  *



          CARTESIAN COORDINATES 

    NO.       ATOM           X           Y           Z

     1         C          2.0695      2.7172      1.4936
     2         C          2.1075      1.3284      1.5953
     3         C          1.0073      0.5668      1.1848
     4         C         -0.1262      1.2145      0.6779
     5         C         -0.1608      2.6030      0.5843
     6         C          0.9384      3.3562      0.9899
     7         H          2.9318      3.3049      1.8055
     8         H          2.9923      0.8425      2.0012
     9         H         -0.9839      0.6246      0.3554
    10         H          0.9142      4.4417      0.9133
    11         C          1.0253     -0.8852      1.3170
    12         C          1.2212     -1.4679      2.6746
    13         H          1.5496     -2.5174      2.6424
    14         H          0.2836     -1.4457      3.2534
    15         H          1.9671     -0.9108      3.2578
    16         N          0.6778     -1.6693      0.2950
    17         O          0.4696     -1.1992     -0.8566
    18         O          0.5980     -2.9238      0.4180
    19         N          5.1427     -2.4369      4.0225
    20         C          4.4770     -3.6010      4.6524
    21         C          4.6701     -3.5206      6.1832
    22         N          6.1171     -3.5075      6.5167
    23         C          6.8006     -2.3753      5.8415
    24         C          6.5946     -2.4652      4.3128
    25         H          7.0724     -1.5943      3.8150
    26         H          7.0931     -3.3750      3.9152
    27         H          7.8843     -2.4371      6.0795
    28         H          6.4418     -1.3883      6.2065
    29         H          4.2155     -4.4119      6.6681
    30         H          4.1407     -2.6262      6.5768
    31         H          4.8617     -4.5716      4.2721
    32         H          3.2908     -1.3153      0.7546
    33         H          4.9729     -2.4270      3.0155
    34         H          3.3933     -3.5567      4.4063
    35         H          6.2321     -3.4148      7.5357
    36         H          4.6736     -2.0564      0.5022
    37         H          4.6594     -0.4949      0.7689
    38         O          4.2390     -1.3663      1.1479
    39         H         -1.0504      3.1009      0.1961

 General Reference for PM7:
 "Optimization of Parameters for Semiempirical Methods VI: More Modifications to the 
 NDDO Approximations and Re-optimization of Parameters", J. J. P. Stewart, J. Mol. Mod., 1:32, 19 (2013)
 https://link.springer.com/article/10.1007/s00894-012-1667-x

           Empirical Formula: C12 H21 N3 O3  =    39 atoms



      MOLECULAR POINT GROUP   :   C1  


 SINGLET STATE CALCULATION


      RHF CALCULATION, NO. OF DOUBLY OCCUPIED LEVELS = 51


          Geometry optimization using L-BFGS
  SCF CRITERION =    0.1000E-03
 CYCLE:     1 TIME:   0.172 TIME LEFT:  2.00W  GRAD.:     8.235 HEAT: -53.10767
 CYCLE:     2 TIME:   0.055 TIME LEFT:  2.00W  GRAD.:     8.185 HEAT: -53.10825
 CYCLE:     3 TIME:   0.051 TIME LEFT:  2.00W  GRAD.:    11.104 HEAT: -52.55263
 CYCLE:     4 TIME:   0.055 TIME LEFT:  2.00W  GRAD.:     8.274 HEAT: -53.10809
 CYCLE:     5 TIME:   0.055 TIME LEFT:  2.00W  GRAD.:    11.217 HEAT: -52.55237
 CYCLE:     6 TIME:   0.051 TIME LEFT:  2.00W  GRAD.:     7.635 HEAT: -52.62453
 CYCLE:     7 TIME:   0.059 TIME LEFT:  2.00W  GRAD.:     5.735 HEAT: -52.70437
 CYCLE:     8 TIME:   0.055 TIME LEFT:  2.00W  GRAD.:     6.578 HEAT: -52.71617
 CYCLE:     9 TIME:   0.059 TIME LEFT:  2.00W  GRAD.:    10.612 HEAT: -52.78598
 CYCLE:    10 TIME:   0.055 TIME LEFT:  2.00W  GRAD.:    17.055 HEAT: -52.87077
 CYCLE:    11 TIME:   0.059 TIME LEFT:  2.00W  GRAD.:    17.299 HEAT: -52.82363
 CYCLE:    12 TIME:   0.059 TIME LEFT:  2.00W  GRAD.:    27.705 HEAT: -51.77903
 CYCLE:    13 TIME:   0.051 TIME LEFT:  2.00W  GRAD.:    16.575 HEAT: -52.06538
 CYCLE:    14 TIME:   0.055 TIME LEFT:  2.00W  GRAD.:    13.054 HEAT: -52.17057
 CYCLE:    15 TIME:   0.059 TIME LEFT:  2.00W  GRAD.:    10.638 HEAT: -52.08296
 CYCLE:    16 TIME:   0.059 TIME LEFT:  2.00W  GRAD.:    44.993 HEAT: -51.38748
 CYCLE:    17 TIME:   0.055 TIME LEFT:  2.00W  GRAD.:     5.297 HEAT: -52.01757
 CYCLE:    18 TIME:   0.055 TIME LEFT:  2.00W  GRAD.:     4.516 HEAT: -52.08100
 CYCLE:    19 TIME:   0.055 TIME LEFT:  2.00W  GRAD.:     5.768 HEAT: -52.11183
 CYCLE:    20 TIME:   0.055 TIME LEFT:  2.00W  GRAD.:     6.500 HEAT: -52.08923
 CYCLE:    21 TIME:   0.055 TIME LEFT:  2.00W  GRAD.:    10.015 HEAT: -52.07128
 CYCLE:    22 TIME:   0.059 TIME LEFT:  2.00W  GRAD.:    21.922 HEAT: -52.00130
 CYCLE:    23 TIME:   0.062 TIME LEFT:  2.00W  GRAD.:    35.101 HEAT: -52.09122
 CYCLE:    24 TIME:   0.055 TIME LEFT:  2.00W  GRAD.:    34.826 HEAT: -52.42642
 CYCLE:    25 TIME:   0.059 TIME LEFT:  2.00W  GRAD.:    26.956 HEAT: -53.54542
 CYCLE:    26 TIME:   0.059 TIME LEFT:  2.00W  GRAD.:    42.455 HEAT: -53.27166
 CYCLE:    27 TIME:   0.062 TIME LEFT:  2.00W  GRAD.:   102.165 HEAT: -52.63394
 CYCLE:    28 TIME:   0.066 TIME LEFT:  2.00W  GRAD.:   215.212 HEAT: -49.44873
 CYCLE:    29 TIME:   0.066 TIME LEFT:  2.00W  GRAD.:    81.746 HEAT: -57.22059
 CYCLE:    30 TIME:   0.062 TIME LEFT:  2.00W  GRAD.:   138.163 HEAT: -52.27702
 CYCLE:    31 TIME:   0.062 TIME LEFT:  2.00W  GRAD.:    52.451 HEAT: -62.05594
 CYCLE:    32 TIME:   0.059 TIME LEFT:  2.00W  GRAD.:    58.005 HEAT: -62.86209
 CYCLE:    33 TIME:   0.055 TIME LEFT:  2.00W  GRAD.:    42.693 HEAT: -65.51057
 CYCLE:    34 TIME:   0.059 TIME LEFT:  2.00W  GRAD.:    41.888 HEAT: -67.75877
 CYCLE:    35 TIME:   0.062 TIME LEFT:  2.00W  GRAD.:    41.177 HEAT: -69.28516
 CYCLE:    36 TIME:   0.059 TIME LEFT:  2.00W  GRAD.:    22.924 HEAT: -69.75560
 CYCLE:    37 TIME:   0.051 TIME LEFT:  2.00W  GRAD.:    16.177 HEAT: -70.05373
 CYCLE:    38 TIME:   0.055 TIME LEFT:  2.00W  GRAD.:    13.343 HEAT: -70.40741
 CYCLE:    39 TIME:   0.059 TIME LEFT:  2.00W  GRAD.:    24.312 HEAT: -70.61564
 CYCLE:    40 TIME:   0.055 TIME LEFT:  2.00W  GRAD.:    10.472 HEAT: -70.84502
 CYCLE:    41 TIME:   0.055 TIME LEFT:  2.00W  GRAD.:     8.627 HEAT: -70.90955
 CYCLE:    42 TIME:   0.055 TIME LEFT:  2.00W  GRAD.:     9.411 HEAT: -71.02426
 CYCLE:    43 TIME:   0.059 TIME LEFT:  2.00W  GRAD.:    23.040 HEAT: -71.06194
 CYCLE:    44 TIME:   0.051 TIME LEFT:  2.00W  GRAD.:     8.914 HEAT: -71.16408
 CYCLE:    45 TIME:   0.055 TIME LEFT:  2.00W  GRAD.:     6.369 HEAT: -71.22549
 CYCLE:    46 TIME:   0.055 TIME LEFT:  2.00W  GRAD.:     8.282 HEAT: -71.30932
 CYCLE:    47 TIME:   0.059 TIME LEFT:  2.00W  GRAD.:    10.115 HEAT: -71.41286
 CYCLE:    48 TIME:   0.055 TIME LEFT:  2.00W  GRAD.:    18.415 HEAT: -71.52643
 CYCLE:    49 TIME:   0.102 TIME LEFT:  2.00W  GRAD.:     7.922 HEAT: -71.51782
 CYCLE:    50 TIME:   0.055 TIME LEFT:  2.00W  GRAD.:     7.729 HEAT: -71.53902
 CYCLE:    51 TIME:   0.078 TIME LEFT:  2.00W  GRAD.:     9.908 HEAT: -71.66896
 CYCLE:    52 TIME:   0.062 TIME LEFT:  2.00W  GRAD.:    19.527 HEAT: -71.76537
 CYCLE:    53 TIME:   0.062 TIME LEFT:  2.00W  GRAD.:    10.891 HEAT: -71.79956
 CYCLE:    54 TIME:   0.074 TIME LEFT:  2.00W  GRAD.:     7.102 HEAT: -71.91376
 CYCLE:    55 TIME:   0.105 TIME LEFT:  2.00W  GRAD.:     7.438 HEAT: -71.90554
 CYCLE:    56 TIME:   0.102 TIME LEFT:  2.00W  GRAD.:    10.682 HEAT: -71.93349
 CYCLE:    57 TIME:   0.086 TIME LEFT:  2.00W  GRAD.:     6.358 HEAT: -72.00033
 CYCLE:    58 TIME:   0.105 TIME LEFT:  2.00W  GRAD.:     5.552 HEAT: -72.04321
 CYCLE:    59 TIME:   0.055 TIME LEFT:  2.00W  GRAD.:     5.971 HEAT: -72.05949
 CYCLE:    60 TIME:   0.098 TIME LEFT:  2.00W  GRAD.:     9.589 HEAT: -72.09825
 CYCLE:    61 TIME:   0.059 TIME LEFT:  2.00W  GRAD.:    10.227 HEAT: -72.10604
 CYCLE:    62 TIME:   0.070 TIME LEFT:  2.00W  GRAD.:     6.507 HEAT: -72.14729
 CYCLE:    63 TIME:   0.066 TIME LEFT:  2.00W  GRAD.:     6.853 HEAT: -72.18981
 CYCLE:    64 TIME:   0.059 TIME LEFT:  2.00W  GRAD.:     9.923 HEAT: -72.23934
 CYCLE:    65 TIME:   0.062 TIME LEFT:  2.00W  GRAD.:     8.810 HEAT: -72.28352
 CYCLE:    66 TIME:   0.055 TIME LEFT:  2.00W  GRAD.:    10.674 HEAT: -72.26279
 CYCLE:    67 TIME:   0.062 TIME LEFT:  2.00W  GRAD.:    11.150 HEAT: -72.34400
 CYCLE:    68 TIME:   0.059 TIME LEFT:  2.00W  GRAD.:    41.707 HEAT: -72.17890
 CYCLE:    69 TIME:   0.059 TIME LEFT:  2.00W  GRAD.:    15.604 HEAT: -72.47176
 CYCLE:    70 TIME:   0.090 TIME LEFT:  2.00W  GRAD.:    13.560 HEAT: -72.41917
 CYCLE:    71 TIME:   0.055 TIME LEFT:  2.00W  GRAD.:     4.502 HEAT: -72.53636
 CYCLE:    72 TIME:   0.059 TIME LEFT:  2.00W  GRAD.:     4.709 HEAT: -72.56041
 CYCLE:    73 TIME:   0.055 TIME LEFT:  2.00W  GRAD.:     5.400 HEAT: -72.64834
 CYCLE:    74 TIME:   0.062 TIME LEFT:  2.00W  GRAD.:    20.217 HEAT: -72.61009
 CYCLE:    75 TIME:   0.059 TIME LEFT:  2.00W  GRAD.:     5.658 HEAT: -72.63534
 CYCLE:    76 TIME:   0.055 TIME LEFT:  2.00W  GRAD.:     3.217 HEAT: -72.72646
 CYCLE:    77 TIME:   0.066 TIME LEFT:  2.00W  GRAD.:    10.013 HEAT: -72.68357
 CYCLE:    78 TIME:   0.059 TIME LEFT:  2.00W  GRAD.:     7.166 HEAT: -72.77213
 CYCLE:    79 TIME:   0.055 TIME LEFT:  2.00W  GRAD.:     6.628 HEAT: -72.77310
 CYCLE:    80 TIME:   0.055 TIME LEFT:  2.00W  GRAD.:     4.306 HEAT: -72.79840
 CYCLE:    81 TIME:   0.062 TIME LEFT:  2.00W  GRAD.:     6.077 HEAT: -72.86780
 CYCLE:    82 TIME:   0.082 TIME LEFT:  2.00W  GRAD.:    17.066 HEAT: -72.71200
 CYCLE:    83 TIME:   0.059 TIME LEFT:  2.00W  GRAD.:     5.008 HEAT: -72.81858
 CYCLE:    84 TIME:   0.082 TIME LEFT:  2.00W  GRAD.:     3.228 HEAT: -72.82736
 CYCLE:    85 TIME:   0.066 TIME LEFT:  2.00W  GRAD.:     3.227 HEAT: -72.83423
 CYCLE:    86 TIME:   0.086 TIME LEFT:  2.00W  GRAD.:    10.836 HEAT: -72.91083
 CYCLE:    87 TIME:   0.055 TIME LEFT:  2.00W  GRAD.:     7.541 HEAT: -72.91861
 CYCLE:    88 TIME:   0.059 TIME LEFT:  2.00W  GRAD.:     3.781 HEAT: -72.92023
 CYCLE:    89 TIME:   0.059 TIME LEFT:  2.00W  GRAD.:     4.128 HEAT: -72.94919
 CYCLE:    90 TIME:   0.062 TIME LEFT:  2.00W  GRAD.:     9.576 HEAT: -72.91525
 CYCLE:    91 TIME:   0.055 TIME LEFT:  2.00W  GRAD.:     6.577 HEAT: -73.00233
 CYCLE:    92 TIME:   0.055 TIME LEFT:  2.00W  GRAD.:     5.058 HEAT: -72.98750
 CYCLE:    93 TIME:   0.059 TIME LEFT:  2.00W  GRAD.:     4.460 HEAT: -72.99106
 CYCLE:    94 TIME:   0.062 TIME LEFT:  2.00W  GRAD.:     6.572 HEAT: -73.01132
 CYCLE:    95 TIME:   0.059 TIME LEFT:  2.00W  GRAD.:    23.714 HEAT: -73.00923
 CYCLE:    96 TIME:   0.059 TIME LEFT:  2.00W  GRAD.:     6.825 HEAT: -73.08187
 CYCLE:    97 TIME:   0.059 TIME LEFT:  2.00W  GRAD.:     4.931 HEAT: -73.12899
 CYCLE:    98 TIME:   0.062 TIME LEFT:  2.00W  GRAD.:    15.887 HEAT: -73.15124
 CYCLE:    99 TIME:   0.059 TIME LEFT:  2.00W  GRAD.:     9.481 HEAT: -73.13045
 CYCLE:   100 TIME:   0.062 TIME LEFT:  2.00W  GRAD.:     7.187 HEAT: -73.21297
 CYCLE:   101 TIME:   0.055 TIME LEFT:  2.00W  GRAD.:     5.654 HEAT: -73.23296
 CYCLE:   102 TIME:   0.062 TIME LEFT:  2.00W  GRAD.:    19.223 HEAT: -73.22156
 CYCLE:   103 TIME:   0.062 TIME LEFT:  2.00W  GRAD.:    13.656 HEAT: -73.30088
 CYCLE:   104 TIME:   0.059 TIME LEFT:  2.00W  GRAD.:     4.152 HEAT: -73.31500
 CYCLE:   105 TIME:   0.059 TIME LEFT:  2.00W  GRAD.:     9.065 HEAT: -73.33147
 CYCLE:   106 TIME:   0.059 TIME LEFT:  2.00W  GRAD.:     6.452 HEAT: -73.37253
 CYCLE:   107 TIME:   0.059 TIME LEFT:  2.00W  GRAD.:     7.900 HEAT: -73.48406
 CYCLE:   108 TIME:   0.055 TIME LEFT:  2.00W  GRAD.:     9.469 HEAT: -73.52090
 CYCLE:   109 TIME:   0.059 TIME LEFT:  2.00W  GRAD.:     8.076 HEAT: -73.58103
 CYCLE:   110 TIME:   0.062 TIME LEFT:  2.00W  GRAD.:    13.870 HEAT: -73.60357
 CYCLE:   111 TIME:   0.059 TIME LEFT:  2.00W  GRAD.:     8.239 HEAT: -73.65027
 CYCLE:   112 TIME:   0.055 TIME LEFT:  2.00W  GRAD.:     4.075 HEAT: -73.63642
 CYCLE:   113 TIME:   0.062 TIME LEFT:  2.00W  GRAD.:    10.833 HEAT: -73.67366
 CYCLE:   114 TIME:   0.055 TIME LEFT:  2.00W  GRAD.:     4.023 HEAT: -73.70814
 CYCLE:   115 TIME:   0.055 TIME LEFT:  2.00W  GRAD.:     2.933 HEAT: -73.69117
 CYCLE:   116 TIME:   0.062 TIME LEFT:  2.00W  GRAD.:     6.452 HEAT: -73.72173
 CYCLE:   117 TIME:   0.055 TIME LEFT:  2.00W  GRAD.:     5.972 HEAT: -73.72905
 CYCLE:   118 TIME:   0.055 TIME LEFT:  2.00W  GRAD.:     3.675 HEAT: -73.73880
 CYCLE:   119 TIME:   0.059 TIME LEFT:  2.00W  GRAD.:     6.380 HEAT: -73.76125
 CYCLE:   120 TIME:   0.059 TIME LEFT:  2.00W  GRAD.:     4.776 HEAT: -73.77984
 CYCLE:   121 TIME:   0.059 TIME LEFT:  2.00W  GRAD.:     6.776 HEAT: -73.81051
 CYCLE:   122 TIME:   0.062 TIME LEFT:  2.00W  GRAD.:    17.195 HEAT: -73.69752
 CYCLE:   123 TIME:   0.059 TIME LEFT:  2.00W  GRAD.:     3.855 HEAT: -73.86038
 CYCLE:   124 TIME:   0.059 TIME LEFT:  2.00W  GRAD.:     3.542 HEAT: -73.80378
 CYCLE:   125 TIME:   0.059 TIME LEFT:  2.00W  GRAD.:     4.162 HEAT: -73.79808
 CYCLE:   126 TIME:   0.059 TIME LEFT:  2.00W  GRAD.:    11.625 HEAT: -73.82970
 CYCLE:   127 TIME:   0.059 TIME LEFT:  2.00W  GRAD.:     2.896 HEAT: -73.85174
 CYCLE:   128 TIME:   0.059 TIME LEFT:  2.00W  GRAD.:     3.674 HEAT: -73.86643
 CYCLE:   129 TIME:   0.055 TIME LEFT:  2.00W  GRAD.:     2.483 HEAT: -73.86374
 CYCLE:   130 TIME:   0.059 TIME LEFT:  2.00W  GRAD.:     4.797 HEAT: -73.93565
 CYCLE:   131 TIME:   0.059 TIME LEFT:  2.00W  GRAD.:     2.460 HEAT: -73.93516
 CYCLE:   132 TIME:   0.055 TIME LEFT:  2.00W  GRAD.:     3.304 HEAT: -73.93652
 CYCLE:   133 TIME:   0.055 TIME LEFT:  2.00W  GRAD.:     2.400 HEAT: -73.93773
 CYCLE:   134 TIME:   0.051 TIME LEFT:  2.00W  GRAD.:     1.847 HEAT: -73.94817
 CYCLE:   135 TIME:   0.059 TIME LEFT:  2.00W  GRAD.:     4.619 HEAT: -73.95964
 CYCLE:   136 TIME:   0.059 TIME LEFT:  2.00W  GRAD.:     1.837 HEAT: -73.95093
 CYCLE:   137 TIME:   0.059 TIME LEFT:  2.00W  GRAD.:     3.262 HEAT: -73.90512
 CYCLE:   138 TIME:   0.055 TIME LEFT:  2.00W  GRAD.:     1.617 HEAT: -73.91681
 CYCLE:   139 TIME:   0.055 TIME LEFT:  2.00W  GRAD.:     2.232 HEAT: -73.95630
 CYCLE:   140 TIME:   0.055 TIME LEFT:  2.00W  GRAD.:     2.187 HEAT: -73.96385
 CYCLE:   141 TIME:   0.059 TIME LEFT:  2.00W  GRAD.:     4.701 HEAT: -73.94515
 CYCLE:   142 TIME:   0.051 TIME LEFT:  2.00W  GRAD.:     3.012 HEAT: -73.95238
 CYCLE:   143 TIME:   0.051 TIME LEFT:  2.00W  GRAD.:     3.073 HEAT: -73.95878
 CYCLE:   144 TIME:   0.059 TIME LEFT:  2.00W  GRAD.:     6.093 HEAT: -74.00032
 CYCLE:   145 TIME:   0.055 TIME LEFT:  2.00W  GRAD.:     7.450 HEAT: -73.91001
 CYCLE:   146 TIME:   0.055 TIME LEFT:  2.00W  GRAD.:     3.803 HEAT: -73.96038
 CYCLE:   147 TIME:   0.055 TIME LEFT:  2.00W  GRAD.:     3.314 HEAT: -73.99082
 CYCLE:   148 TIME:   0.055 TIME LEFT:  2.00W  GRAD.:     4.313 HEAT: -73.99735
 CYCLE:   149 TIME:   0.059 TIME LEFT:  2.00W  GRAD.:     3.595 HEAT: -74.01591
 CYCLE:   150 TIME:   0.055 TIME LEFT:  2.00W  GRAD.:     6.406 HEAT: -74.02469
 CYCLE:   151 TIME:   0.051 TIME LEFT:  2.00W  GRAD.:     3.244 HEAT: -74.02522
 CYCLE:   152 TIME:   0.059 TIME LEFT:  2.00W  GRAD.:     7.847 HEAT: -74.02895
 CYCLE:   153 TIME:   0.059 TIME LEFT:  2.00W  GRAD.:     3.867 HEAT: -74.06364
 CYCLE:   154 TIME:   0.055 TIME LEFT:  2.00W  GRAD.:     3.512 HEAT: -74.05822
 CYCLE:   155 TIME:   0.055 TIME LEFT:  2.00W  GRAD.:     5.270 HEAT: -74.03883
 CYCLE:   156 TIME:   0.055 TIME LEFT:  2.00W  GRAD.:     6.662 HEAT: -73.94132
 CYCLE:   157 TIME:   0.059 TIME LEFT:  2.00W  GRAD.:     5.997 HEAT: -73.95557
 CYCLE:   158 TIME:   0.055 TIME LEFT:  2.00W  GRAD.:     4.648 HEAT: -73.98057
 CYCLE:   159 TIME:   0.051 TIME LEFT:  2.00W  GRAD.:     8.871 HEAT: -73.97547
 CYCLE:   160 TIME:   0.062 TIME LEFT:  2.00W  GRAD.:     6.947 HEAT: -74.12206
 CYCLE:   161 TIME:   0.051 TIME LEFT:  2.00W  GRAD.:     3.114 HEAT: -74.13351
 CYCLE:   162 TIME:   0.055 TIME LEFT:  2.00W  GRAD.:     3.403 HEAT: -74.17530
 CYCLE:   163 TIME:   0.055 TIME LEFT:  2.00W  GRAD.:     2.961 HEAT: -74.18338
 CYCLE:   164 TIME:   0.059 TIME LEFT:  2.00W  GRAD.:     7.339 HEAT: -74.09262
 CYCLE:   165 TIME:   0.059 TIME LEFT:  2.00W  GRAD.:     3.246 HEAT: -74.13190
 CYCLE:   166 TIME:   0.051 TIME LEFT:  2.00W  GRAD.:     2.670 HEAT: -74.20008
 CYCLE:   167 TIME:   0.055 TIME LEFT:  2.00W  GRAD.:     3.921 HEAT: -74.22907
 CYCLE:   168 TIME:   0.055 TIME LEFT:  2.00W  GRAD.:     4.431 HEAT: -74.20502
 CYCLE:   169 TIME:   0.059 TIME LEFT:  2.00W  GRAD.:     4.280 HEAT: -74.19930
 CYCLE:   170 TIME:   0.059 TIME LEFT:  2.00W  GRAD.:     7.379 HEAT: -74.19775
 CYCLE:   171 TIME:   0.055 TIME LEFT:  2.00W  GRAD.:     6.500 HEAT: -74.21209
 CYCLE:   172 TIME:   0.055 TIME LEFT:  2.00W  GRAD.:     6.199 HEAT: -74.10518
 CYCLE:   173 TIME:   0.059 TIME LEFT:  2.00W  GRAD.:     8.840 HEAT: -74.20483
 CYCLE:   174 TIME:   0.055 TIME LEFT:  2.00W  GRAD.:    25.103 HEAT: -74.16175
 CYCLE:   175 TIME:   0.055 TIME LEFT:  2.00W  GRAD.:     7.061 HEAT: -74.25693
 CYCLE:   176 TIME:   0.059 TIME LEFT:  2.00W  GRAD.:     4.719 HEAT: -74.27247
 CYCLE:   177 TIME:   0.059 TIME LEFT:  2.00W  GRAD.:    11.528 HEAT: -74.23711
 CYCLE:   178 TIME:   0.055 TIME LEFT:  2.00W  GRAD.:    17.075 HEAT: -74.27389
 CYCLE:   179 TIME:   0.055 TIME LEFT:  2.00W  GRAD.:     3.099 HEAT: -74.31826
 CYCLE:   180 TIME:   0.062 TIME LEFT:  2.00W  GRAD.:     7.009 HEAT: -74.26001
 CYCLE:   181 TIME:   0.051 TIME LEFT:  2.00W  GRAD.:     3.767 HEAT: -74.28237
 CYCLE:   182 TIME:   0.078 TIME LEFT:  2.00W  GRAD.:     4.026 HEAT: -74.29165
 CYCLE:   183 TIME:   0.113 TIME LEFT:  2.00W  GRAD.:     6.694 HEAT: -74.26628
 CYCLE:   184 TIME:   0.105 TIME LEFT:  2.00W  GRAD.:    22.689 HEAT: -74.19703
 CYCLE:   185 TIME:   0.062 TIME LEFT:  2.00W  GRAD.:     4.350 HEAT: -74.30854
 CYCLE:   186 TIME:   0.062 TIME LEFT:  2.00W  GRAD.:     4.234 HEAT: -74.28049
 CYCLE:   187 TIME:   0.062 TIME LEFT:  2.00W  GRAD.:    15.536 HEAT: -74.18036
 CYCLE:   188 TIME:   0.098 TIME LEFT:  2.00W  GRAD.:     5.377 HEAT: -74.28978
 CYCLE:   189 TIME:   0.055 TIME LEFT:  2.00W  GRAD.:     5.165 HEAT: -74.28879
 CYCLE:   190 TIME:   0.090 TIME LEFT:  2.00W  GRAD.:     4.042 HEAT: -74.29725
 CYCLE:   191 TIME:   0.062 TIME LEFT:  2.00W  GRAD.:    12.991 HEAT: -74.28411
 CYCLE:   192 TIME:   0.062 TIME LEFT:  2.00W  GRAD.:    39.699 HEAT: -73.99697
 CYCLE:   193 TIME:   0.074 TIME LEFT:  2.00W  GRAD.:   114.845 HEAT: -71.39449
 CYCLE:   194 TIME:   0.145 TIME LEFT:  2.00W  GRAD.:   167.451 HEAT: -69.18021
 CYCLE:   195 TIME:   0.062 TIME LEFT:  2.00W  GRAD.:   135.266 HEAT: -71.00661
 CYCLE:   196 TIME:   0.074 TIME LEFT:  2.00W  GRAD.:   119.917 HEAT: -71.35219
 CYCLE:   197 TIME:   0.125 TIME LEFT:  2.00W  GRAD.:   100.991 HEAT: -72.36676
 CYCLE:   198 TIME:   0.070 TIME LEFT:  2.00W  GRAD.:   559.736 HEAT: -16.31841
 CYCLE:   199 TIME:   0.066 TIME LEFT:  2.00W  GRAD.:   232.721 HEAT: -62.62395
 CYCLE:   200 TIME:   0.090 TIME LEFT:  2.00W  GRAD.:   175.232 HEAT: -68.74746
 CYCLE:   201 TIME:   0.070 TIME LEFT:  2.00W  GRAD.:  2454.858 HEAT:  350.1687
 CYCLE:   202 TIME:   0.066 TIME LEFT:  2.00W  GRAD.:  1855.634 HEAT:  287.7682
 CYCLE:   203 TIME:   0.074 TIME LEFT:  2.00W  GRAD.:  1304.016 HEAT:  252.4684
 CYCLE:   204 TIME:   0.082 TIME LEFT:  2.00W  GRAD.:   619.619 HEAT:  6.527428
 CYCLE:   205 TIME:   0.066 TIME LEFT:  2.00W  GRAD.:  1308.757 HEAT:  81.20672
 CYCLE:   206 TIME:   0.070 TIME LEFT:  2.00W  GRAD.:   600.770 HEAT:  11.96487
 CYCLE:   207 TIME:   0.078 TIME LEFT:  2.00W  GRAD.:  1391.972 HEAT:  185.6397
 CYCLE:   208 TIME:   0.074 TIME LEFT:  2.00W  GRAD.:   429.382 HEAT:  37.17780
 CYCLE:   209 TIME:   0.074 TIME LEFT:  2.00W  GRAD.:  1943.231 HEAT:  241.8120


           HEAT OF FORMATION IS ESSENTIALLY STATIONARY


          CURRENT BEST VALUE OF HEAT OF FORMATION =    -74.318263

 PM7 BONDS AUX DUMP=30M ITRY=15000 T=14D CHARGE=0 SINGLET eps=78.4 RELSCF=1
 Title: ASE calculation

  C     2.41809685 +1   2.57126831 +1   1.21294886 +1
  C     2.58184550 +1   1.19422192 +1   1.34628708 +1
  C     1.46225616 +1   0.36298397 +1   1.39541756 +1
  C     0.18116643 +1   0.91264044 +1   1.31848202 +1
  C     0.02187948 +1   2.29014085 +1   1.19028787 +1
  C     1.14032131 +1   3.12039951 +1   1.12816894 +1
  H     3.29628062 +1   3.21654543 +1   1.17197777 +1
  H     3.58735144 +1   0.77176881 +1   1.40946917 +1
  H    -0.69928736 +1   0.26925240 +1   1.35474740 +1
  H     1.01584629 +1   4.19777959 +1   1.00743255 +1
  C     1.65829575 +1  -1.12408399 +1   1.52972557 +1
  C     0.93226155 +1  -1.69835398 +1   2.73821346 +1
  H     1.14933736 +1  -2.76676065 +1   2.88989984 +1
  H    -0.16083076 +1  -1.60625582 +1   2.66998721 +1
  H     1.23480847 +1  -1.16996201 +1   3.65611687 +1
  N     1.20452613 +1  -1.79085772 +1   0.26569533 +1
  O     1.44096271 +1  -1.24231770 +1  -0.79944935 +1
  O     0.63333239 +1  -2.86693549 +1   0.32309582 +1
  N     4.95721403 +1  -2.11240357 +1   3.84407393 +1
  C     4.12842066 +1  -3.14231616 +1   4.51219274 +1
  C     4.31516275 +1  -3.02987023 +1   6.04219140 +1
  N     5.74664830 +1  -3.20409055 +1   6.39700681 +1
  C     6.57547102 +1  -2.18366890 +1   5.70638659 +1
  C     6.38710166 +1  -2.30629701 +1   4.17769318 +1
  H     6.97502585 +1  -1.51593504 +1   3.66269567 +1
  H     6.78084476 +1  -3.28469020 +1   3.82915466 +1
  H     7.64016288 +1  -2.36157965 +1   5.97086638 +1
  H     6.32632505 +1  -1.15054229 +1   6.03146284 +1
  H     3.73413218 +1  -3.82608845 +1   6.55509853 +1
  H     3.91492419 +1  -2.05303796 +1   6.39022716 +1
  H     4.36714125 +1  -4.17193054 +1   4.17115870 +1
  H     2.76941823 +1  -1.36706637 +1   1.61048525 +1
  H     4.81643946 +1  -2.13844073 +1   2.82712162 +1
  H     3.06360674 +1  -2.95055900 +1   4.25445161 +1
  H     5.85986823 +1  -3.10515174 +1   7.41413839 +1
  H     4.86406927 +1  -2.43439699 +1   0.14038769 +1
  H     5.37333335 +1  -1.10603619 +1   0.68582027 +1
  O     4.69075947 +1  -1.77542382 +1   0.82200487 +1
  H    -0.98082456 +1   2.71670258 +1   1.13936485 +1



 -------------------------------------------------------------------------------
 PM7 BONDS AUX DUMP=30M ITRY=15000 T=14D CHARGE=0 SINGLET eps=78.4 RELSCF=1
 Title: ASE calculation



     HERBERTS TEST WAS SATISFIED IN BFGS                      
     SCF FIELD WAS ACHIEVED                                   


                              PM7 CALCULATION
                                                       MOPAC v22.0.6 Linux
                                                       Tue Mar 26 11:28:23 2024




          FINAL HEAT OF FORMATION =        -74.31826 KCAL/MOL =    -310.94761 KJ/MOL
          VAN DER WAALS AREA      =        303.15 SQUARE ANGSTROMS



          DIELECTRIC ENERGY       =         -1.00093 EV
          COSMO AREA              =        303.15 SQUARE ANGSTROMS
          COSMO VOLUME            =        340.22 CUBIC ANGSTROMS

          GRADIENT NORM           =          3.09931          =       0.49629 PER ATOM
          IONIZATION POTENTIAL    =          9.174131 EV
          HOMO LUMO ENERGIES (EV) =         -9.174 -0.434
          NO. OF FILLED LEVELS    =         51
          MOLECULAR WEIGHT        =        255.3162         POINT GROUP:  C1  

          MOLECULAR DIMENSIONS (Angstroms)

            Atom       Atom       Distance
            H    39    H    27    11.11098
            H     7    O    18     6.68592
            H    29    H    36     6.10513


          SCF CALCULATIONS        =        212

          WALL-CLOCK TIME         =     13.262 SECONDS
          COMPUTATION TIME        =         19 MINUTES AND 45.060 SECONDS



       FINAL  POINT  AND  DERIVATIVES

   PARAMETER     ATOM    TYPE            VALUE        GRADIENT
      1          1  C    CARTESIAN X     2.418097     -0.612482  KCAL/ANGSTROM
      2          1  C    CARTESIAN Y     2.571268     -0.051819  KCAL/ANGSTROM
      3          1  C    CARTESIAN Z     1.212949     -0.015636  KCAL/ANGSTROM
      4          2  C    CARTESIAN X     2.581846     -0.056327  KCAL/ANGSTROM
      5          2  C    CARTESIAN Y     1.194222      0.375681  KCAL/ANGSTROM
      6          2  C    CARTESIAN Z     1.346287     -0.412423  KCAL/ANGSTROM
      7          3  C    CARTESIAN X     1.462256      0.302647  KCAL/ANGSTROM
      8          3  C    CARTESIAN Y     0.362984      0.057476  KCAL/ANGSTROM
      9          3  C    CARTESIAN Z     1.395418     -0.141304  KCAL/ANGSTROM
     10          4  C    CARTESIAN X     0.181166      0.052559  KCAL/ANGSTROM
     11          4  C    CARTESIAN Y     0.912640      0.021729  KCAL/ANGSTROM
     12          4  C    CARTESIAN Z     1.318482     -0.302375  KCAL/ANGSTROM
     13          5  C    CARTESIAN X     0.021879     -0.173172  KCAL/ANGSTROM
     14          5  C    CARTESIAN Y     2.290141      0.354739  KCAL/ANGSTROM
     15          5  C    CARTESIAN Z     1.190288      0.069732  KCAL/ANGSTROM
     16          6  C    CARTESIAN X     1.140321      0.024838  KCAL/ANGSTROM
     17          6  C    CARTESIAN Y     3.120400      0.181228  KCAL/ANGSTROM
     18          6  C    CARTESIAN Z     1.128169      0.124317  KCAL/ANGSTROM
     19          7  H    CARTESIAN X     3.296281      0.190173  KCAL/ANGSTROM
     20          7  H    CARTESIAN Y     3.216545     -0.489576  KCAL/ANGSTROM
     21          7  H    CARTESIAN Z     1.171978      0.129243  KCAL/ANGSTROM
     22          8  H    CARTESIAN X     3.587351     -0.107255  KCAL/ANGSTROM
     23          8  H    CARTESIAN Y     0.771769      0.085202  KCAL/ANGSTROM
     24          8  H    CARTESIAN Z     1.409469      0.178422  KCAL/ANGSTROM
     25          9  H    CARTESIAN X    -0.699287      0.106511  KCAL/ANGSTROM
     26          9  H    CARTESIAN Y     0.269252      0.178404  KCAL/ANGSTROM
     27          9  H    CARTESIAN Z     1.354747     -0.278615  KCAL/ANGSTROM
     28         10  H    CARTESIAN X     1.015846      0.091986  KCAL/ANGSTROM
     29         10  H    CARTESIAN Y     4.197780      0.386622  KCAL/ANGSTROM
     30         10  H    CARTESIAN Z     1.007433     -0.654986  KCAL/ANGSTROM
     31         11  C    CARTESIAN X     1.658296     -0.161433  KCAL/ANGSTROM
     32         11  C    CARTESIAN Y    -1.124084     -0.273026  KCAL/ANGSTROM
     33         11  C    CARTESIAN Z     1.529726     -0.206218  KCAL/ANGSTROM
     34         12  C    CARTESIAN X     0.932262      0.130064  KCAL/ANGSTROM
     35         12  C    CARTESIAN Y    -1.698354     -0.214373  KCAL/ANGSTROM
     36         12  C    CARTESIAN Z     2.738213     -0.177795  KCAL/ANGSTROM
     37         13  H    CARTESIAN X     1.149337     -0.208192  KCAL/ANGSTROM
     38         13  H    CARTESIAN Y    -2.766761     -0.156890  KCAL/ANGSTROM
     39         13  H    CARTESIAN Z     2.889900      0.599204  KCAL/ANGSTROM
     40         14  H    CARTESIAN X    -0.160831      0.034967  KCAL/ANGSTROM
     41         14  H    CARTESIAN Y    -1.606256     -0.396022  KCAL/ANGSTROM
     42         14  H    CARTESIAN Z     2.669987      0.698323  KCAL/ANGSTROM
     43         15  H    CARTESIAN X     1.234808     -0.234224  KCAL/ANGSTROM
     44         15  H    CARTESIAN Y    -1.169962      0.031685  KCAL/ANGSTROM
     45         15  H    CARTESIAN Z     3.656117     -0.118462  KCAL/ANGSTROM
     46         16  N    CARTESIAN X     1.204526     -0.301187  KCAL/ANGSTROM
     47         16  N    CARTESIAN Y    -1.790858     -0.529292  KCAL/ANGSTROM
     48         16  N    CARTESIAN Z     0.265695     -0.412571  KCAL/ANGSTROM
     49         17  O    CARTESIAN X     1.440963     -0.049391  KCAL/ANGSTROM
     50         17  O    CARTESIAN Y    -1.242318     -0.095169  KCAL/ANGSTROM
     51         17  O    CARTESIAN Z    -0.799449      0.787730  KCAL/ANGSTROM
     52         18  O    CARTESIAN X     0.633332      0.194810  KCAL/ANGSTROM
     53         18  O    CARTESIAN Y    -2.866935      1.163302  KCAL/ANGSTROM
     54         18  O    CARTESIAN Z     0.323096     -0.549824  KCAL/ANGSTROM
     55         19  N    CARTESIAN X     4.957214      0.026480  KCAL/ANGSTROM
     56         19  N    CARTESIAN Y    -2.112404     -0.191019  KCAL/ANGSTROM
     57         19  N    CARTESIAN Z     3.844074     -0.098960  KCAL/ANGSTROM
     58         20  C    CARTESIAN X     4.128421      0.052696  KCAL/ANGSTROM
     59         20  C    CARTESIAN Y    -3.142316     -0.221211  KCAL/ANGSTROM
     60         20  C    CARTESIAN Z     4.512193     -0.041975  KCAL/ANGSTROM
     61         21  C    CARTESIAN X     4.315163      0.204162  KCAL/ANGSTROM
     62         21  C    CARTESIAN Y    -3.029870     -0.009821  KCAL/ANGSTROM
     63         21  C    CARTESIAN Z     6.042191      0.121820  KCAL/ANGSTROM
     64         22  N    CARTESIAN X     5.746648     -0.038357  KCAL/ANGSTROM
     65         22  N    CARTESIAN Y    -3.204091     -0.242606  KCAL/ANGSTROM
     66         22  N    CARTESIAN Z     6.397007      0.218219  KCAL/ANGSTROM
     67         23  C    CARTESIAN X     6.575471      0.030980  KCAL/ANGSTROM
     68         23  C    CARTESIAN Y    -2.183669     -0.049359  KCAL/ANGSTROM
     69         23  C    CARTESIAN Z     5.706387      0.105043  KCAL/ANGSTROM
     70         24  C    CARTESIAN X     6.387102     -0.156985  KCAL/ANGSTROM
     71         24  C    CARTESIAN Y    -2.306297     -0.096944  KCAL/ANGSTROM
     72         24  C    CARTESIAN Z     4.177693      0.034764  KCAL/ANGSTROM
     73         25  H    CARTESIAN X     6.975026     -0.138116  KCAL/ANGSTROM
     74         25  H    CARTESIAN Y    -1.515935      0.050057  KCAL/ANGSTROM
     75         25  H    CARTESIAN Z     3.662696      0.191046  KCAL/ANGSTROM
     76         26  H    CARTESIAN X     6.780845      0.286871  KCAL/ANGSTROM
     77         26  H    CARTESIAN Y    -3.284690      0.168748  KCAL/ANGSTROM
     78         26  H    CARTESIAN Z     3.829155      0.176826  KCAL/ANGSTROM
     79         27  H    CARTESIAN X     7.640163      0.251322  KCAL/ANGSTROM
     80         27  H    CARTESIAN Y    -2.361580      0.135632  KCAL/ANGSTROM
     81         27  H    CARTESIAN Z     5.970866     -0.144666  KCAL/ANGSTROM
     82         28  H    CARTESIAN X     6.326325     -0.129892  KCAL/ANGSTROM
     83         28  H    CARTESIAN Y    -1.150542     -0.111415  KCAL/ANGSTROM
     84         28  H    CARTESIAN Z     6.031463      0.135028  KCAL/ANGSTROM
     85         29  H    CARTESIAN X     3.734132      0.167745  KCAL/ANGSTROM
     86         29  H    CARTESIAN Y    -3.826088      0.003817  KCAL/ANGSTROM
     87         29  H    CARTESIAN Z     6.555099      0.154519  KCAL/ANGSTROM
     88         30  H    CARTESIAN X     3.914924      0.424910  KCAL/ANGSTROM
     89         30  H    CARTESIAN Y    -2.053038      0.008276  KCAL/ANGSTROM
     90         30  H    CARTESIAN Z     6.390227     -0.228656  KCAL/ANGSTROM
     91         31  H    CARTESIAN X     4.367141     -0.436895  KCAL/ANGSTROM
     92         31  H    CARTESIAN Y    -4.171931     -0.102795  KCAL/ANGSTROM
     93         31  H    CARTESIAN Z     4.171159     -0.619462  KCAL/ANGSTROM
     94         32  H    CARTESIAN X     2.769418     -0.006582  KCAL/ANGSTROM
     95         32  H    CARTESIAN Y    -1.367066      0.100230  KCAL/ANGSTROM
     96         32  H    CARTESIAN Z     1.610485      0.095588  KCAL/ANGSTROM
     97         33  H    CARTESIAN X     4.816439     -0.067906  KCAL/ANGSTROM
     98         33  H    CARTESIAN Y    -2.138441     -0.069159  KCAL/ANGSTROM
     99         33  H    CARTESIAN Z     2.827122     -0.160798  KCAL/ANGSTROM
    100         34  H    CARTESIAN X     3.063607      0.108614  KCAL/ANGSTROM
    101         34  H    CARTESIAN Y    -2.950559      0.104607  KCAL/ANGSTROM
    102         34  H    CARTESIAN Z     4.254452      0.224542  KCAL/ANGSTROM
    103         35  H    CARTESIAN X     5.859868     -0.103044  KCAL/ANGSTROM
    104         35  H    CARTESIAN Y    -3.105152     -0.120078  KCAL/ANGSTROM
    105         35  H    CARTESIAN Z     7.414138      0.116675  KCAL/ANGSTROM
    106         36  H    CARTESIAN X     4.864069      0.036856  KCAL/ANGSTROM
    107         36  H    CARTESIAN Y    -2.434397      0.132670  KCAL/ANGSTROM
    108         36  H    CARTESIAN Z     0.140388      0.361595  KCAL/ANGSTROM
    109         37  H    CARTESIAN X     5.373333      0.693080  KCAL/ANGSTROM
    110         37  H    CARTESIAN Y    -1.106036      0.146450  KCAL/ANGSTROM
    111         37  H    CARTESIAN Z     0.685820      0.210743  KCAL/ANGSTROM
    112         38  O    CARTESIAN X     4.690759     -0.258847  KCAL/ANGSTROM
    113         38  O    CARTESIAN Y    -1.775424      0.049960  KCAL/ANGSTROM
    114         38  O    CARTESIAN Z     0.822005     -0.625715  KCAL/ANGSTROM
    115         39  H    CARTESIAN X    -0.980825     -0.171869  KCAL/ANGSTROM
    116         39  H    CARTESIAN Y     2.716703     -0.315829  KCAL/ANGSTROM
    117         39  H    CARTESIAN Z     1.139365      0.457066  KCAL/ANGSTROM




   ATOM   CHEMICAL          X               Y               Z
  NUMBER   SYMBOL      (ANGSTROMS)     (ANGSTROMS)     (ANGSTROMS)

     1       C          2.41809685  *   2.57126831  *   1.21294886  *
     2       C          2.58184550  *   1.19422192  *   1.34628708  *
     3       C          1.46225616  *   0.36298397  *   1.39541756  *
     4       C          0.18116643  *   0.91264044  *   1.31848202  *
     5       C          0.02187948  *   2.29014085  *   1.19028787  *
     6       C          1.14032131  *   3.12039951  *   1.12816894  *
     7       H          3.29628062  *   3.21654543  *   1.17197777  *
     8       H          3.58735144  *   0.77176881  *   1.40946917  *
     9       H         -0.69928736  *   0.26925240  *   1.35474740  *
    10       H          1.01584629  *   4.19777959  *   1.00743255  *
    11       C          1.65829575  *  -1.12408399  *   1.52972557  *
    12       C          0.93226155  *  -1.69835398  *   2.73821346  *
    13       H          1.14933736  *  -2.76676065  *   2.88989984  *
    14       H         -0.16083076  *  -1.60625582  *   2.66998721  *
    15       H          1.23480847  *  -1.16996201  *   3.65611687  *
    16       N          1.20452613  *  -1.79085772  *   0.26569533  *
    17       O          1.44096271  *  -1.24231770  *  -0.79944935  *
    18       O          0.63333239  *  -2.86693549  *   0.32309582  *
    19       N          4.95721403  *  -2.11240357  *   3.84407393  *
    20       C          4.12842066  *  -3.14231616  *   4.51219274  *
    21       C          4.31516275  *  -3.02987023  *   6.04219140  *
    22       N          5.74664830  *  -3.20409055  *   6.39700681  *
    23       C          6.57547102  *  -2.18366890  *   5.70638659  *
    24       C          6.38710166  *  -2.30629701  *   4.17769318  *
    25       H          6.97502585  *  -1.51593504  *   3.66269567  *
    26       H          6.78084476  *  -3.28469020  *   3.82915466  *
    27       H          7.64016288  *  -2.36157965  *   5.97086638  *
    28       H          6.32632505  *  -1.15054229  *   6.03146284  *
    29       H          3.73413218  *  -3.82608845  *   6.55509853  *
    30       H          3.91492419  *  -2.05303796  *   6.39022716  *
    31       H          4.36714125  *  -4.17193054  *   4.17115870  *
    32       H          2.76941823  *  -1.36706637  *   1.61048525  *
    33       H          4.81643946  *  -2.13844073  *   2.82712162  *
    34       H          3.06360674  *  -2.95055900  *   4.25445161  *
    35       H          5.85986823  *  -3.10515174  *   7.41413839  *
    36       H          4.86406927  *  -2.43439699  *   0.14038769  *
    37       H          5.37333335  *  -1.10603619  *   0.68582027  *
    38       O          4.69075947  *  -1.77542382  *   0.82200487  *
    39       H         -0.98082456  *   2.71670258  *   1.13936485  *

                             CARTESIAN COORDINATES

   1    C        2.418096852     2.571268312     1.212948859
   2    C        2.581845501     1.194221916     1.346287084
   3    C        1.462256163     0.362983972     1.395417562
   4    C        0.181166426     0.912640441     1.318482020
   5    C        0.021879478     2.290140852     1.190287869
   6    C        1.140321311     3.120399506     1.128168938
   7    H        3.296280616     3.216545434     1.171977774
   8    H        3.587351438     0.771768810     1.409469172
   9    H       -0.699287355     0.269252401     1.354747403
  10    H        1.015846290     4.197779588     1.007432554
  11    C        1.658295748    -1.124083986     1.529725570
  12    C        0.932261545    -1.698353982     2.738213461
  13    H        1.149337357    -2.766760648     2.889899838
  14    H       -0.160830755    -1.606255822     2.669987208
  15    H        1.234808470    -1.169962007     3.656116867
  16    N        1.204526132    -1.790857716     0.265695330
  17    O        1.440962712    -1.242317696    -0.799449354
  18    O        0.633332393    -2.866935493     0.323095818
  19    N        4.957214026    -2.112403571     3.844073934
  20    C        4.128420665    -3.142316156     4.512192736
  21    C        4.315162750    -3.029870225     6.042191398
  22    N        5.746648303    -3.204090549     6.397006812
  23    C        6.575471025    -2.183668902     5.706386586
  24    C        6.387101657    -2.306297014     4.177693184
  25    H        6.975025846    -1.515935038     3.662695670
  26    H        6.780844763    -3.284690205     3.829154661
  27    H        7.640162883    -2.361579651     5.970866376
  28    H        6.326325054    -1.150542290     6.031462843
  29    H        3.734132184    -3.826088453     6.555098534
  30    H        3.914924188    -2.053037960     6.390227161
  31    H        4.367141250    -4.171930535     4.171158701
  32    H        2.769418232    -1.367066366     1.610485251
  33    H        4.816439458    -2.138440732     2.827121615
  34    H        3.063606738    -2.950558996     4.254451610
  35    H        5.859868228    -3.105151738     7.414138390
  36    H        4.864069268    -2.434396989     0.140387688
  37    H        5.373333354    -1.106036192     0.685820268
  38    O        4.690759467    -1.775423816     0.822004874
  39    H       -0.980824561     2.716702580     1.139364848


           Empirical Formula: C12 H21 N3 O3  =    39 atoms



      MOLECULAR POINT GROUP   :   C1  


                  EIGENVALUES  
 -37.35504 -35.97417 -34.26545 -31.08426 -30.76014 -29.16805 -29.01126 -26.33765
 -26.20853 -25.66283 -24.95555 -24.50492 -22.19440 -21.65949 -21.37109 -20.38402
 -19.51454 -18.60183 -18.22388 -18.11590 -18.05048 -17.52100 -16.89598 -15.88256
 -15.85540 -15.72654 -15.38055 -15.02789 -14.94025 -14.79902 -14.48873 -14.38154
 -14.26435 -14.11895 -13.85370 -13.45432 -13.10145 -12.91075 -12.32021 -12.25976
 -12.22510 -12.07239 -11.91132 -11.80406 -11.79832 -11.55258 -11.45286 -10.16145
 -10.09558  -9.63565  -9.17413  -0.43430  -0.34902  -0.08261   0.60274   2.19863
   2.87056   2.90985   3.25775   3.35000   3.74960   3.99231   4.02736   4.10090
   4.33920   4.37618   4.40678   4.58929   4.69281   4.86846   4.95409   5.00800
   5.07350   5.37287   5.41389   5.47332   5.48291   5.50812   5.61606   5.67532
   5.91484   5.98813   5.99973   6.02472   6.03033   6.06291   6.11531   6.15918
   6.19559   6.60280   6.62787   6.71147   6.96010


              NET ATOMIC CHARGES AND DIPOLE CONTRIBUTIONS

  ATOM NO.   TYPE          CHARGE      No. of ELECS.   s-Pop       p-Pop       
    1          C          -0.160252        4.1603     1.08660     3.07366
    2          C          -0.138310        4.1383     1.08959     3.04872
    3          C          -0.052717        4.0527     1.06650     2.98622
    4          C          -0.149752        4.1498     1.08784     3.06192
    5          C          -0.158832        4.1588     1.08662     3.07221
    6          C          -0.142895        4.1429     1.08939     3.05350
    7          H           0.165080        0.8349     0.83492
    8          H           0.170975        0.8290     0.82902
    9          H           0.170144        0.8299     0.82986
   10          H           0.164038        0.8360     0.83596
   11          C          -0.050734        4.0507     1.09602     2.95471
   12          C          -0.463428        4.4634     1.05672     3.40671
   13          H           0.179246        0.8208     0.82075
   14          H           0.176124        0.8239     0.82388
   15          H           0.180882        0.8191     0.81912
   16          N           0.626421        4.3736     1.47889     2.89469
   17          O          -0.457771        6.4578     1.93949     4.51828
   18          O          -0.449905        6.4499     1.93917     4.51074
   19          N          -0.581667        5.5817     1.67217     3.90949
   20          C          -0.115391        4.1154     1.06982     3.04557
   21          C          -0.128245        4.1282     1.07156     3.05669
   22          N          -0.581929        5.5819     1.67918     3.90275
   23          C          -0.127799        4.1278     1.07134     3.05646
   24          C          -0.122270        4.1223     1.06978     3.05249
   25          H           0.143997        0.8560     0.85600
   26          H           0.128226        0.8718     0.87177
   27          H           0.143727        0.8563     0.85627
   28          H           0.130549        0.8695     0.86945
   29          H           0.143938        0.8561     0.85606
   30          H           0.131145        0.8689     0.86886
   31          H           0.127361        0.8726     0.87264
   32          H           0.223090        0.7769     0.77691
   33          H           0.286526        0.7135     0.71347
   34          H           0.143119        0.8569     0.85688
   35          H           0.273810        0.7262     0.72619
   36          H           0.373059        0.6269     0.62694
   37          H           0.373858        0.6261     0.62614
   38          O          -0.740482        6.7405     1.81264     4.92784
   39          H           0.167066        0.8329     0.83293
 DIPOLE           X         Y         Z       TOTAL
 POINT-CHG.     3.065     3.011     3.361     5.455
 HYBRID         0.049    -0.233    -0.669     0.711
 SUM            3.114     2.777     2.691     4.965


          ATOMIC ORBITAL ELECTRON POPULATIONS

     Atom    s        px        py        pz   
    1  C   1.08660   1.05365   1.02072   0.99928
    2  C   1.08959   1.06536   1.00201   0.98136
    3  C   1.06650   0.99621   0.94594   1.04407
    4  C   1.08784   1.04419   1.02779   0.98993
    5  C   1.08662   1.07497   0.99828   0.99896
    6  C   1.08939   0.98711   1.08717   0.97921
    7  H   0.83492
    8  H   0.82902
    9  H   0.82986
   10  H   0.83596
   11  C   1.09602   1.12459   0.96986   0.86026
   12  C   1.05672   1.16420   1.17739   1.06512
   13  H   0.82075
   14  H   0.82388
   15  H   0.81912
   16  N   1.47889   0.92130   0.95842   1.01497
   17  O   1.93949   1.60922   1.64911   1.25995
   18  O   1.93917   1.44482   1.14167   1.92424
   19  N   1.67217   1.12891   1.51935   1.26123
   20  C   1.06982   1.05072   1.01442   0.98042
   21  C   1.07156   0.89182   1.14485   1.02002
   22  N   1.67918   1.14324   1.52723   1.23228
   23  C   1.07134   1.05214   1.01711   0.98721
   24  C   1.06978   0.89848   1.14297   1.01103
   25  H   0.85600
   26  H   0.87177
   27  H   0.85627
   28  H   0.86945
   29  H   0.85606
   30  H   0.86886
   31  H   0.87264
   32  H   0.77691
   33  H   0.71347
   34  H   0.85688
   35  H   0.72619
   36  H   0.62694
   37  H   0.62614
   38  O   1.81264   1.68597   1.54654   1.69533
   39  H   0.83293

          BONDING CONTRIBUTION OF EACH M.O.

  1.3151  1.3696  1.2584  1.7843  1.1152  1.2539  1.6208  1.9454  1.9294  1.5261
  1.4158  1.7822  1.6807  1.9574  1.9169  1.6606  1.7438  1.6049  1.7740  1.3089
  1.8577  1.6644  1.7867  1.8718  1.8925  1.9644  1.9241  1.8976  2.0518  1.9266
  1.9807  1.1057  1.5688  1.6093  1.7985  1.9663  1.9986  1.8078  0.6425  1.9088
  1.8823  1.6944  0.8816  0.9360  1.4114  1.7850  0.9174  2.0150  1.9504  0.7894
  0.9690 -2.1981 -2.2059 -1.9856 -2.0532 -1.9954 -1.9666 -1.9790 -1.9539 -1.9686
 -1.9432 -1.9411 -1.9956 -1.9602 -1.8615 -1.9716 -1.8996 -1.9599 -1.9548 -2.0024
 -1.9728 -1.9014 -1.9141 -1.9603 -1.9526 -1.9624 -1.9762 -1.9602 -1.9595 -1.9866
 -1.9631 -1.9797 -1.9697 -1.9926 -1.9708 -1.9592 -1.9652 -1.9781 -1.9709 -1.8821
 -1.8785 -1.7173 -1.8503





            (VALENCIES)   BOND ORDERS

     1  C     (3.972)     2  C 1.443     6  C 1.443     7  H 0.960     4  C 0.112

     2  C     (3.969)     1  C 1.443     3  C 1.426     8  H 0.957     5  C 0.111

     3  C     (3.990)     2  C 1.426     4  C 1.420    11  C 0.993     6  C 0.113

     4  C     (3.970)     5  C 1.449     3  C 1.420     9  H 0.957     1  C 0.112

     5  C     (3.971)     4  C 1.449     6  C 1.437    39  H 0.960     2  C 0.111

     6  C     (3.972)     1  C 1.443     5  C 1.437    10  H 0.961     3  C 0.113

     7  H     (0.973)     1  C 0.960

     8  H     (0.971)     2  C 0.957

     9  H     (0.971)     4  C 0.957

    10  H     (0.973)     6  C 0.961

    11  C     (3.903)    12  C 0.999     3  C 0.993    32  H 0.914    16  N 0.824    18  O 0.071    17  O 0.069

    12  C     (3.898)    11  C 0.999    14  H 0.959    13  H 0.957    15  H 0.952

    13  H     (0.968)    12  C 0.957

    14  H     (0.969)    12  C 0.959

    15  H     (0.967)    12  C 0.952

    16  N     (3.743)    18  O 1.444    17  O 1.439    11  C 0.824

    17  O     (1.829)    16  N 1.439    18  O 0.298    11  C 0.069

    18  O     (1.836)    16  N 1.444    17  O 0.298    11  C 0.071

    19  N     (2.875)    24  C 0.975    20  C 0.974    33  H 0.882

    20  C     (3.938)    21  C 0.996    19  N 0.974    31  H 0.969    34  H 0.962

    21  C     (3.935)    20  C 0.996    22  N 0.971    30  H 0.969    29  H 0.964

    22  N     (2.879)    23  C 0.972    21  C 0.971    35  H 0.899

    23  C     (3.936)    24  C 0.996    22  N 0.972    28  H 0.969    27  H 0.964

    24  C     (3.939)    23  C 0.996    19  N 0.975    26  H 0.968    25  H 0.964

    25  H     (0.979)    24  C 0.964

    26  H     (0.984)    24  C 0.968

    27  H     (0.979)    23  C 0.964

    28  H     (0.983)    23  C 0.969

    29  H     (0.979)    21  C 0.964

    30  H     (0.983)    21  C 0.969

    31  H     (0.984)    20  C 0.969

    32  H     (0.950)    11  C 0.914

    33  H     (0.918)    19  N 0.882

    34  H     (0.980)    20  C 0.962

    35  H     (0.925)    22  N 0.899

    36  H     (0.861)    38  O 0.858

    37  H     (0.860)    38  O 0.857

    38  O     (1.735)    36  H 0.858    37  H 0.857

    39  H     (0.972)     5  C 0.960


 **********************
 *                    *
 * JOB ENDED NORMALLY *
 *                    *
 **********************



 TOTAL JOB TIME:            13.28 SECONDS

 == MOPAC DONE ==
