 *******************************************************************************
 **                                                                           **
 **                              MOPAC v22.0.6                                **
 **                                                                           **
 *******************************************************************************
 **          Digital Object Identifier (DOI): 10.5281/zenodo.6511958          **
 **    Visit the DOI location for information on how to cite this program.    **
 *******************************************************************************

                              PM7 CALCULATION RESULTS

 *******************************************************************************
 *  CALCULATION DONE:                                Tue Mar 26 11:56:30 2024  *
 *  PM7        - The PM7 Hamiltonian to be used
 *  SINGLET    - SPIN STATE DEFINED AS A SINGLET
 *
 *
 *
 *                 CHARGE ON SYSTEM = 0
 *
 *
 *
 *  EPS=78.4   - USE ANDREAS KLAMT'S COSMO IMPLICIT SOLVATION MODEL
 *  LET        - OVERRIDE SOME SAFETY CHECKS
 *  THREADS    - USE A MAXIMUM OF 30 THREADS
 *  T=         - A TIME OF 14.0 DAYS REQUESTED
 *  DUMP=N     - RESTART FILE WRITTEN EVERY 30.0 MINUTES REQUESTED
 *  RELSCF     - DEFAULT SCF CRITERION MULTIPLIED BY 1.0000
 *              (DEFAULT SCF CRITERION = 0.00010)
 *  ITRY=      - DO A MAXIMUM OF 15000 ITERATIONS FOR SCF
 *  AUX        - OUTPUT AUXILIARY INFORMATION
 *  ISOTOPE    - SAVE THE FORCE MATRIX FOR USE LATER
 *  BONDS      - FINAL BOND-ORDER MATRIX TO BE PRINTED
 *  LARGE      - EXPANDED OUTPUT TO BE PRINTED
 *  THERMO     - THERMODYNAMIC QUANTITIES TO BE CALCULATED
 *******************************************************************************
PM7 AUX LARGE THERMO(298,298) LET ISOTOPE BONDS DUMP=30M ITRY=15000 T=14D THREADS=30 CHARGE=0 SINGLET eps=78.4 RELSCF=1
 Title: ASE calculation

   ATOM   CHEMICAL          X               Y               Z
  NUMBER   SYMBOL      (ANGSTROMS)     (ANGSTROMS)     (ANGSTROMS)

     1       C          0.90774261  *  -0.57441178  *  -0.90289514  *
     2       H          0.89488095  *  -0.78455365  *  -1.98048464  *
     3       N          0.65590654  *  -2.96923854  *  -0.43275504  *
     4       O          0.21818459  *  -3.15487762  *  -1.58206847  *
     5       O          0.61324337  *  -3.92429471  *   0.36689246  *
     6       H          2.03814035  *  -0.64705982  *   1.59432939  *
     7       C          1.27671197  *  -1.77920421  *  -0.08271700  *
     8       D          2.69941074  *  -2.08727078  *  -0.58143329  *
     9       H         -0.08771580  *  -0.19632827  *  -0.63073070  *
    10       C          1.40460309  *  -1.52444271  *   1.39329327  *
    11       H          0.42510218  *  -1.32503566  *   1.84878253  *
    12       C          4.64425904  *  -2.48166963  *  -4.16410862  *
    13       C          5.02034424  *  -3.00204237  *  -5.40633224  *
    14       C          5.14201227  *  -4.38278708  *  -5.55675554  *
    15       C          4.89601079  *  -5.20739202  *  -4.45917743  *
    16       C          4.52160114  *  -4.63023630  *  -3.24100849  *
    17       N          4.40279412  *  -3.28866239  *  -3.10357059  *
    18       H          5.20623889  *  -2.33197099  *  -6.24864161  *
    19       H          5.42114588  *  -4.81289090  *  -6.52358242  *
    20       H          4.98666323  *  -6.29298424  *  -4.54659444  *
    21       H          1.61897173  *   0.24750833  *  -0.74466206  *
    22       H          1.84243681  *  -2.37322832  *   1.92939563  *
    23       H          4.32680130  *  -5.24616915  *  -2.34961271  *
    24       H          4.54429195  *  -1.39785598  *  -4.00152448  *
    25       H          4.23442371  *  -2.71049422  *  -0.22241478  *
    26       H          4.02449542  *  -2.75330073  *  -1.95955150  *
    27       O          3.80237878  *  -2.17564226  *  -0.90428168  *


                                Isotopes Used

              Atom:    8  H  Default mass  1.0079,  mass used:  2.0140 amu


          CARTESIAN COORDINATES 

    NO.       ATOM           X           Y           Z

     1         C          0.9077     -0.5744     -0.9029
     2         H          0.8949     -0.7846     -1.9805
     3         N          0.6559     -2.9692     -0.4328
     4         O          0.2182     -3.1549     -1.5821
     5         O          0.6132     -3.9243      0.3669
     6         H          2.0381     -0.6471      1.5943
     7         C          1.2767     -1.7792     -0.0827
     8         H          2.6994     -2.0873     -0.5814
     9         H         -0.0877     -0.1963     -0.6307
    10         C          1.4046     -1.5244      1.3933
    11         H          0.4251     -1.3250      1.8488
    12         C          4.6443     -2.4817     -4.1641
    13         C          5.0203     -3.0020     -5.4063
    14         C          5.1420     -4.3828     -5.5568
    15         C          4.8960     -5.2074     -4.4592
    16         C          4.5216     -4.6302     -3.2410
    17         N          4.4028     -3.2887     -3.1036
    18         H          5.2062     -2.3320     -6.2486
    19         H          5.4211     -4.8129     -6.5236
    20         H          4.9867     -6.2930     -4.5466
    21         H          1.6190      0.2475     -0.7447
    22         H          1.8424     -2.3732      1.9294
    23         H          4.3268     -5.2462     -2.3496
    24         H          4.5443     -1.3979     -4.0015
    25         H          4.2344     -2.7105     -0.2224
    26         H          4.0245     -2.7533     -1.9596
    27         O          3.8024     -2.1756     -0.9043

 General Reference for PM7:
 "Optimization of Parameters for Semiempirical Methods VI: More Modifications to the 
 NDDO Approximations and Re-optimization of Parameters", J. J. P. Stewart, J. Mol. Mod., 1:32, 19 (2013)
 https://link.springer.com/article/10.1007/s00894-012-1667-x

           Empirical Formula: C8 H14 N2 O3  =    27 atoms



      MOLECULAR POINT GROUP   :   C1  


 SINGLET STATE CALCULATION


      RHF CALCULATION, NO. OF DOUBLY OCCUPIED LEVELS = 37

  SCF CRITERION =    0.1000E-03


          HEAT OF FORMATION =     -61.446279 KCALS/MOLE


          CARTESIAN COORDINATE DERIVATIVES

   NUMBER  ATOM         X            Y            Z

     1       C     -0.456658    -0.460326     1.135261
     2       H     -0.619728    -0.176542     0.375484
     3       N      0.616917     0.324404     0.149288
     4       O     -0.505229    -0.360962     0.339682
     5       O     -0.674956     0.287218     0.658579
     6       H     -1.082601    -1.112274    -0.071312
     7       C     -0.724764    -0.450028    -2.932124
     8       H     -2.343375    -0.338994     4.711551
     9       H     -0.326320     0.589946    -0.431223
    10       C     -1.472030     1.533697     2.441356
    11       H      1.094103     0.248547    -0.647602
    12       C     -1.394557    -0.200787     1.893678
    13       C      2.173612     0.004546    -1.919194
    14       C      1.632219    -0.382629    -0.364381
    15       C      2.305161     1.071121    -1.933136
    16       C     -1.480424    -0.320842     2.280229
    17       N      1.178274     0.925793    -3.060066
    18       H      0.626723     0.237571     0.113189
    19       H      0.216689     0.001698     0.409088
    20       H      0.481195     0.204495    -0.046450
    21       H     -0.040953    -0.235833     0.663059
    22       H      0.458798    -1.322476     1.512881
    23       H      0.382606    -0.143614    -0.901465
    24       H      0.180212     0.245616    -0.877253
    25       H      0.454396    -0.099847    -0.557881
    26       H     -1.914143    -0.497769     0.209585
    27       O      1.235310     0.428549    -3.148046

 DIPOLE           X         Y         Z       TOTAL
 POINT-CHG.     6.841    -3.795   -12.787    14.990
 HYBRID         0.182     0.625     0.563     0.861
 SUM            7.024    -3.170   -12.223    14.450


          GRADIENT NORM =  11.24522



 ** GRADIENT IS VERY LARGE, BUT SINCE "LET" IS USED, CALCULATION WILL CONTINUE


                              **** WARNING ****

           GRADIENT IS VERY LARGE FOR A THERMO CALCULATION
           RESULTS ARE LIKELY TO BE INACCURATE IF THERE ARE
           ANY LOW-LYING VIBRATIONS (LESS THAN ABOUT 400CM-1)
           GRADIENT NORM SHOULD BE LESS THAN ABOUT 1.0 FOR THERMO
           TO GIVE ACCURATE RESULTS


          TIME FOR SCF CALCULATION =    0.51

          TIME FOR DERIVATIVES     =    0.09

          MOLECULAR WEIGHT =  187.22



          ROTATIONAL CONSTANTS IN CM(-1)

          A =    0.04701187   B =    0.00998169   C =    0.00949451



           PRINCIPAL MOMENTS OF INERTIA IN UNITS OF 10**(-40)*GRAM-CM**2

          A =      595.4401   B =     2804.4113   C =     2948.3101


          ORIENTATION OF MOLECULE IN FORCE CALCULATION

    NO.       ATOM         X         Y         Z

     1          C      -1.5293   -1.9199    2.1190
     2          H      -0.4314   -1.9199    2.1190
     3          N      -1.5294    0.5336    2.1190
     4          O      -0.3608    0.5395    2.5447
     5          O      -2.1310    1.6234    2.0565
     6          H      -3.9795   -1.4866    0.9667
     7          C      -2.1080   -0.6247    1.6212
     8          H      -1.5763   -0.5655    0.1785
     9          H      -1.8571   -2.1346    3.1458
    10          C      -3.6069   -0.6037    1.5081
    11          H      -4.0806   -0.6105    2.4992
    12          C       1.9926   -1.0665   -1.7672
    13          C       3.3070   -0.8352   -2.1846
    14          C       3.7175    0.4712   -2.4466
    15          C       2.8010    1.5117   -2.2959
    16          C       1.4993    1.2201   -1.8740
    17          N       1.1091   -0.0509   -1.6188
    18          H       4.0033   -1.6697   -2.2936
    19          H       4.7454    0.6772   -2.7606
    20          H       3.0935    2.5452   -2.4971
    21          H      -1.8503   -2.7649    1.4949
    22          H      -3.9757    0.2826    0.9808
    23          H       0.7446    2.0121   -1.7510
    24          H       1.6268   -2.0830   -1.5575
    25          H      -1.8273   -0.0460   -1.4155
    26          H      -0.1118   -0.3155   -1.1968
    27          O      -1.2554   -0.6543   -0.9250


    FIRST DERIVATIVES WILL BE USED IN THE CALCULATION OF SECOND DERIVATIVES

          ESTIMATED TIME TO COMPLETE CALCULATION =       96.82 SECONDS

    FOR POINT-GROUP C1   THERE ARE   1 UNIQUE SYMMETRY FUNCTIONS.

 STEP:   1 TIME =     0.34 SECS, INTEGRAL =      0.34 TIME LEFT:1209599.06
 STEP:   2 TIME =     0.27 SECS, INTEGRAL =      0.61 TIME LEFT:1209598.80
 STEP:   3 TIME =     0.22 SECS, INTEGRAL =      0.83 TIME LEFT:1209598.57
 STEP:   4 TIME =     0.30 SECS, INTEGRAL =      1.12 TIME LEFT:1209598.28
 STEP:   5 TIME =     0.19 SECS, INTEGRAL =      1.31 TIME LEFT:1209598.09
 STEP:   6 TIME =     0.08 SECS, INTEGRAL =      1.39 TIME LEFT:1209598.01
 STEP:   7 TIME =     0.11 SECS, INTEGRAL =      1.51 TIME LEFT:1209597.89
 STEP:   8 TIME =     0.36 SECS, INTEGRAL =      1.86 TIME LEFT:1209597.54
 STEP:   9 TIME =     0.20 SECS, INTEGRAL =      2.07 TIME LEFT:1209597.34
 STEP:  10 TIME =     0.09 SECS, INTEGRAL =      2.16 TIME LEFT:1209597.25
 STEP:  11 TIME =     0.09 SECS, INTEGRAL =      2.25 TIME LEFT:1209597.15
 STEP:  12 TIME =     0.12 SECS, INTEGRAL =      2.37 TIME LEFT:1209597.03
 STEP:  13 TIME =     0.31 SECS, INTEGRAL =      2.68 TIME LEFT:1209596.72
 STEP:  14 TIME =     0.06 SECS, INTEGRAL =      2.74 TIME LEFT:1209596.66
 STEP:  15 TIME =     0.06 SECS, INTEGRAL =      2.80 TIME LEFT:1209596.60
 STEP:  16 TIME =     0.05 SECS, INTEGRAL =      2.85 TIME LEFT:1209596.55
 STEP:  17 TIME =     0.05 SECS, INTEGRAL =      2.90 TIME LEFT:1209596.50
 STEP:  18 TIME =     0.04 SECS, INTEGRAL =      2.94 TIME LEFT:1209596.46
 STEP:  19 TIME =     0.05 SECS, INTEGRAL =      2.99 TIME LEFT:1209596.41
 STEP:  20 TIME =     0.05 SECS, INTEGRAL =      3.04 TIME LEFT:1209596.37
 STEP:  21 TIME =     0.04 SECS, INTEGRAL =      3.08 TIME LEFT:1209596.32
 STEP:  22 TIME =     0.05 SECS, INTEGRAL =      3.12 TIME LEFT:1209596.28
 STEP:  23 TIME =     0.05 SECS, INTEGRAL =      3.17 TIME LEFT:1209596.23
 STEP:  24 TIME =     0.04 SECS, INTEGRAL =      3.21 TIME LEFT:1209596.19
 STEP:  25 TIME =     0.05 SECS, INTEGRAL =      3.26 TIME LEFT:1209596.14
 STEP:  26 TIME =     0.04 SECS, INTEGRAL =      3.30 TIME LEFT:1209596.10
 STEP:  27 TIME =     0.05 SECS, INTEGRAL =      3.35 TIME LEFT:1209596.05
 STEP:  28 TIME =     0.04 SECS, INTEGRAL =      3.39 TIME LEFT:1209596.01
 STEP:  29 TIME =     0.05 SECS, INTEGRAL =      3.44 TIME LEFT:1209595.96
 STEP:  30 TIME =     0.48 SECS, INTEGRAL =      3.92 TIME LEFT:1209595.48
 STEP:  31 TIME =     0.12 SECS, INTEGRAL =      4.04 TIME LEFT:1209595.36
 STEP:  32 TIME =     0.06 SECS, INTEGRAL =      4.10 TIME LEFT:1209595.30
 STEP:  33 TIME =     0.14 SECS, INTEGRAL =      4.25 TIME LEFT:1209595.16
 STEP:  34 TIME =     0.12 SECS, INTEGRAL =      4.37 TIME LEFT:1209595.03
 STEP:  35 TIME =     0.30 SECS, INTEGRAL =      4.67 TIME LEFT:1209594.73
 STEP:  36 TIME =     0.27 SECS, INTEGRAL =      4.94 TIME LEFT:1209594.46
 STEP:  37 TIME =     0.10 SECS, INTEGRAL =      5.04 TIME LEFT:1209594.36
 STEP:  38 TIME =     0.31 SECS, INTEGRAL =      5.35 TIME LEFT:1209594.05
 STEP:  39 TIME =     0.37 SECS, INTEGRAL =      5.72 TIME LEFT:1209593.68
 STEP:  40 TIME =     0.31 SECS, INTEGRAL =      6.03 TIME LEFT:1209593.37
 STEP:  41 TIME =     0.13 SECS, INTEGRAL =      6.16 TIME LEFT:1209593.24
 STEP:  42 TIME =     0.41 SECS, INTEGRAL =      6.57 TIME LEFT:1209592.83
 STEP:  43 TIME =     0.14 SECS, INTEGRAL =      6.72 TIME LEFT:1209592.68
 STEP:  44 TIME =     0.23 SECS, INTEGRAL =      6.95 TIME LEFT:1209592.45
 STEP:  45 TIME =     0.45 SECS, INTEGRAL =      7.41 TIME LEFT:1209592.00
 STEP:  46 TIME =     0.30 SECS, INTEGRAL =      7.71 TIME LEFT:1209591.70
 STEP:  47 TIME =     0.52 SECS, INTEGRAL =      8.22 TIME LEFT:1209591.18
 STEP:  48 TIME =     0.33 SECS, INTEGRAL =      8.55 TIME LEFT:1209590.85
 STEP:  49 TIME =     1.59 SECS, INTEGRAL =     10.14 TIME LEFT:1209589.26
 STEP:  50 TIME =     0.20 SECS, INTEGRAL =     10.34 TIME LEFT:1209589.06
 STEP:  51 TIME =     0.28 SECS, INTEGRAL =     10.62 TIME LEFT:1209588.78
 STEP:  52 TIME =     0.14 SECS, INTEGRAL =     10.77 TIME LEFT:1209588.64
 STEP:  53 TIME =     0.07 SECS, INTEGRAL =     10.84 TIME LEFT:1209588.56
 STEP:  54 TIME =     0.08 SECS, INTEGRAL =     10.92 TIME LEFT:1209588.48
 STEP:  55 TIME =     0.09 SECS, INTEGRAL =     11.01 TIME LEFT:1209588.39
 STEP:  56 TIME =     0.05 SECS, INTEGRAL =     11.06 TIME LEFT:1209588.34
 STEP:  57 TIME =     0.07 SECS, INTEGRAL =     11.13 TIME LEFT:1209588.27
 STEP:  58 TIME =     0.10 SECS, INTEGRAL =     11.23 TIME LEFT:1209588.17
 STEP:  59 TIME =     0.10 SECS, INTEGRAL =     11.34 TIME LEFT:1209588.07
 STEP:  60 TIME =     0.07 SECS, INTEGRAL =     11.41 TIME LEFT:1209588.00
 STEP:  61 TIME =     0.08 SECS, INTEGRAL =     11.48 TIME LEFT:1209587.92
 STEP:  62 TIME =     0.07 SECS, INTEGRAL =     11.55 TIME LEFT:1209587.85
 STEP:  63 TIME =     0.07 SECS, INTEGRAL =     11.62 TIME LEFT:1209587.78
 STEP:  64 TIME =     0.09 SECS, INTEGRAL =     11.71 TIME LEFT:1209587.69
 STEP:  65 TIME =     0.06 SECS, INTEGRAL =     11.77 TIME LEFT:1209587.63
 STEP:  66 TIME =     0.06 SECS, INTEGRAL =     11.83 TIME LEFT:1209587.57
 STEP:  67 TIME =     0.08 SECS, INTEGRAL =     11.91 TIME LEFT:1209587.49
 STEP:  68 TIME =     0.14 SECS, INTEGRAL =     12.05 TIME LEFT:1209587.35
 STEP:  69 TIME =     0.12 SECS, INTEGRAL =     12.17 TIME LEFT:1209587.23
 STEP:  70 TIME =     0.13 SECS, INTEGRAL =     12.30 TIME LEFT:1209587.10
 STEP:  71 TIME =     0.21 SECS, INTEGRAL =     12.52 TIME LEFT:1209586.89
 STEP:  72 TIME =     0.33 SECS, INTEGRAL =     12.84 TIME LEFT:1209586.56
 STEP:  73 TIME =     0.10 SECS, INTEGRAL =     12.95 TIME LEFT:1209586.46
 STEP:  74 TIME =     0.04 SECS, INTEGRAL =     12.99 TIME LEFT:1209586.41
 STEP:  75 TIME =     0.04 SECS, INTEGRAL =     13.03 TIME LEFT:1209586.38
 STEP:  76 TIME =     0.04 SECS, INTEGRAL =     13.07 TIME LEFT:1209586.33
 STEP:  77 TIME =     0.04 SECS, INTEGRAL =     13.11 TIME LEFT:1209586.29
 STEP:  78 TIME =     0.05 SECS, INTEGRAL =     13.16 TIME LEFT:1209586.24
 STEP:  79 TIME =     0.04 SECS, INTEGRAL =     13.20 TIME LEFT:1209586.20
 STEP:  80 TIME =     0.04 SECS, INTEGRAL =     13.25 TIME LEFT:1209586.16
 STEP:  81 TIME =     0.04 SECS, INTEGRAL =     13.29 TIME LEFT:1209586.11

(To convert to Hartree/Bohr^2, multiply by (10^(-21) x N x a0^2)/(4.184 x 627.51) =  0.0642)


           FORCE MATRIX IN MILLIDYNES/ANGSTROM


                  C  1       H  2       N  3       O  4       O  5       H  6
 ------------------------------------------------------------------------------
     C    1  11.335267
     H    2   3.364761   4.185362
     N    3   0.851763   0.110388  18.578087
     O    4   0.139660   0.030515   8.223184  10.983040
     O    5   0.135029   0.036612   8.226199   2.407309  10.925951
     H    6   0.015518   0.002203   0.095035   0.019935   0.022544   4.173361
     C    7   3.452555   0.684903   4.646802   1.722796   1.705551   0.669260
     H    8   0.352567   0.035534   1.720121   0.471198   0.445845   0.030149
     H    9   3.352791   0.472515   0.048730   0.021720   0.018420   0.005147
     C   10   0.672846   0.040413   0.870076   0.129142   0.129357   3.352071
     H   11   0.010069   0.001973   0.080167   0.029938   0.030881   0.464363
     C   12   0.002363   0.001745   0.023032   0.006850   0.009447   0.002180
     C   13   0.001874   0.000943   0.011883   0.004318   0.005197   0.000688
     C   14   0.000755   0.000358   0.003148   0.001910   0.002036   0.000369
     C   15   0.001887   0.000596   0.014473   0.004251   0.006995   0.000733
     C   16   0.002299   0.001750   0.019139   0.007839   0.006248   0.000730
     N   17   0.007739   0.007115   0.146399   0.048806   0.049974   0.004811
     H   18   0.000733   0.000603   0.004301   0.001359   0.001835   0.000390
     H   19   0.000913   0.000228   0.002899   0.000867   0.001815   0.000211
     H   20   0.000897   0.000399   0.004779   0.001837   0.002565   0.000179
     H   21   3.359506   0.468745   0.099539   0.024043   0.023244   0.017989
     H   22   0.038816   0.006441   0.136405   0.039382   0.066785   0.463936
     H   23   0.001333   0.000663   0.010628   0.002243   0.006027   0.000424
     H   24   0.000908   0.000560   0.005506   0.001588   0.002055   0.000746
     H   25   0.006458   0.004098   0.115552   0.037328   0.039837   0.003529
     H   26   0.016790   0.014238   0.351720   0.121668   0.119346   0.011771
     O   27   0.065336   0.019291   0.885011   0.282939   0.269835   0.018445


                  C  7       H  8       H  9       C 10       H 11       C 12
 ------------------------------------------------------------------------------
     C    7  13.377776
     H    8   1.646068   2.582240
     H    9   0.728911   0.035659   4.169946
     C   10   3.458171   0.293946   0.008959  11.347796
     H   11   0.721063   0.035047   0.008567   3.353323   4.172143
     C   12   0.027993   0.038530   0.000845   0.006906   0.004279  14.980865
     C   13   0.018978   0.030144   0.001300   0.000959   0.000716   5.736505
     C   14   0.002618   0.004936   0.000402   0.000730   0.000280   2.162866
     C   15   0.020218   0.031618   0.001436   0.000818   0.000664   1.420392
     C   16   0.027310   0.039767   0.000869   0.001733   0.000767   2.501617
     N   17   0.208564   0.305891   0.004630   0.006319   0.004004   6.366883
     H   18   0.005188   0.005757   0.000519   0.000761   0.000476   0.714167
     H   19   0.003391   0.005080   0.000675   0.000478   0.000513   0.104749
     H   20   0.004797   0.006027   0.000565   0.000467   0.000474   0.008454
     H   21   0.668884   0.035059   0.462858   0.013819   0.004348   0.001147
     H   22   0.693660   0.030394   0.001187   3.404027   0.464178   0.002041
     H   23   0.012447   0.019065   0.000432   0.001375   0.000577   0.144011
     H   24   0.010114   0.017104   0.000849   0.000788   0.000232   3.269251
     H   25   0.177382   0.542137   0.003265   0.007420   0.002601   0.014243
     H   26   0.514135   0.840975   0.011122   0.015259   0.008486   0.412994
     O   27   1.650829   2.584139   0.017822   0.052302   0.018729   0.098738


                  C 13       C 14       C 15       C 16       N 17       H 18
 ------------------------------------------------------------------------------
     C   13  14.894046
     C   14   6.115243  15.135718
     C   15   1.974204   6.104125  14.869637
     C   16   1.354998   2.124620   5.714384  14.977051
     N   17   2.350482   1.450093   2.363671   6.403132  15.196976
     H   18   3.368294   0.739305   0.091131   0.010666   0.109850   4.255171
     H   19   0.722762   3.412271   0.717630   0.107092   0.036305   0.033259
     H   20   0.092185   0.738247   3.379035   0.751446   0.104468   0.010949
     H   21   0.001672   0.001239   0.000970   0.001028   0.005633   0.000552
     H   22   0.000635   0.000385   0.000547   0.000856   0.004653   0.000218
     H   23   0.029980   0.091785   0.668336   3.293187   0.877084   0.015539
     H   24   0.675716   0.090204   0.028000   0.143504   0.878501   0.042881
     H   25   0.009722   0.003167   0.012041   0.019485   0.117216   0.002130
     H   26   0.138949   0.018836   0.145894   0.398748   0.645088   0.031419
     O   27   0.068015   0.010042   0.071937   0.104518   1.401328   0.015907


                  H 19       H 20       H 21       H 22       H 23       H 24
 ------------------------------------------------------------------------------
     H   19   4.256167
     H   20   0.033073   4.279396
     H   21   0.000649   0.002424   4.185031
     H   22   0.000105   0.000276   0.002505   4.230130
     H   23   0.012158   0.030286   0.000554   0.000569   4.172099
     H   24   0.011935   0.014635   0.001021   0.000450   0.015959   4.182935
     H   25   0.001748   0.003009   0.003965   0.004366   0.011444   0.005953
     H   26   0.020285   0.028449   0.012651   0.011214   0.075294   0.072426
     O   27   0.009929   0.015478   0.018796   0.017279   0.037307   0.034174


                  H 25       H 26       O 27
 ------------------------------------------
     H   25   4.194966
     H   26   0.463822   1.121215
     O   27   3.798784   0.731911   6.894768


          HEAT OF FORMATION =     -61.446279 KCALS/MOLE


          TRIVIAL VIBRATIONS, SHOULD BE ZERO

 -28.8746=TX   4.5463=TY -20.1002=TZ  -2.1390=RX -14.2718=RY -39.1766=RZ


      MOLECULAR POINT GROUP   :   C1  


           EIGENVECTORS  


   Root No.       1         2         3         4         5         6         7         8

                 1 A       2 A       3 A       4 A       5 A       6 A       7 A       8 A   

                  -0.9      -0.0      -0.0      -0.0      -0.0      -0.0       0.0       0.0
  
           1   -0.0041    0.0031   -0.0752   -0.0781   -0.0878    0.0272   -0.0816    0.0577
           2   -0.0136    0.0740   -0.0746   -0.0485   -0.0276    0.0424    0.0201    0.0429
           3    0.0385    0.1243    0.0623   -0.0121    0.0644    0.0338   -0.0495   -0.0632
           4   -0.0051    0.0034   -0.0749   -0.0776   -0.0880    0.0268   -0.0822    0.0581
           5    0.0181    0.1674   -0.0033   -0.1297   -0.1644    0.0214    0.0268    0.1038
           6   -0.0276    0.3598    0.5270   -0.0210   -0.1490    0.0712    0.0259   -0.0638
           7   -0.0539   -0.0666    0.0651    0.1306   -0.0167    0.1105   -0.0061   -0.0978
           8   -0.0598    0.0773   -0.0673   -0.0506   -0.0274    0.0411    0.0219    0.0442
           9    0.0607   -0.0347    0.0748   -0.0714    0.1251   -0.0625   -0.0497    0.1233
          10    0.0533   -0.0940    0.0247    0.1738   -0.1729    0.0854    0.0803   -0.1303
          11    0.0171    0.1341   -0.1310   -0.1164   -0.1463   -0.0088    0.0249    0.0781
          12   -0.0557    0.0452    0.1896   -0.1950    0.5662    0.0112   -0.2918    0.2083
          13   -0.0040   -0.0895    0.1426    0.1860    0.1529    0.1890   -0.0418   -0.1552
          14    0.0330    0.0568   -0.0295   -0.0142    0.0433    0.0761    0.0158    0.0133
          15   -0.0341   -0.1488   -0.0013   -0.0023   -0.1919   -0.1665    0.1333    0.1518
          16    0.0453    0.0500    0.0222   -0.1199    0.0310    0.0710   -0.0830    0.0262
          17    0.0043   -0.0716    0.0587    0.0084    0.1101    0.2138    0.1973   -0.0832
          18   -0.0103   -0.0164   -0.0544    0.3213   -0.2055   -0.2471   -0.1686    0.0699
          19   -0.1206   -0.0071    0.0334    0.0137   -0.0052    0.0660   -0.0657   -0.0098
          20    0.0430    0.0272   -0.0360   -0.0128    0.0012    0.0421    0.0404    0.0434
          21    0.4773    0.0159    0.0385   -0.0261    0.0467   -0.0163   -0.0206    0.0163
          22    0.1550    0.0376    0.0642   -0.0135    0.0785    0.0118   -0.0589   -0.0032
          23    0.0539   -0.0423   -0.0159   -0.0988   -0.0007   -0.0295    0.0060    0.1392
          24   -0.4247    0.0182    0.0454   -0.0349    0.0809   -0.0370   -0.0240    0.0425
          25    0.0576   -0.1873   -0.4765   -0.0879    0.0759   -0.0089   -0.1518    0.0709
          26   -0.1176    0.0452   -0.2545   -0.0086    0.0986    0.0762   -0.0312   -0.0442
          27    0.0398    0.0581   -0.1020   -0.0067    0.1408    0.0297   -0.0818   -0.0783
          28   -0.0392   -0.0033    0.0385    0.0118    0.0061    0.0634   -0.0691   -0.0106
          29    0.0040   -0.0268    0.0394    0.1329    0.0586    0.0564    0.0568   -0.0200
          30    0.0440   -0.0529   -0.0341    0.0262   -0.1041    0.0162    0.0515   -0.0091
          31   -0.1448   -0.0470   -0.0094    0.0457   -0.0912    0.0856   -0.0228   -0.0262
          32    0.0083    0.0170    0.0577    0.5350   -0.0090   -0.2776   -0.2269    0.0646
          33   -0.0074   -0.0737   -0.0565    0.0452   -0.1510    0.0250    0.0723   -0.0160
          34   -0.0437   -0.0207    0.0091    0.0645    0.0730   -0.0416    0.1587    0.0862
          35   -0.0232   -0.0447    0.0378   -0.0309    0.0001   -0.0655   -0.0482   -0.1392
          36    0.0196   -0.1991    0.0430   -0.0275   -0.0063   -0.1336    0.1134   -0.0748
          37   -0.0515   -0.0329    0.0088    0.0547    0.0419   -0.0004    0.0953    0.0767
          38   -0.0004   -0.0238    0.0285    0.0684    0.0398    0.0112    0.0216   -0.0370
          39    0.0162   -0.2214    0.0328    0.0025   -0.0809    0.0435   -0.0417   -0.0429
          40   -0.0340   -0.0077   -0.0064   -0.0256   -0.0152   -0.0125   -0.0188    0.0022
          41   -0.0070    0.0016    0.0164    0.1056    0.0518    0.0462    0.0402    0.0021
          42    0.0106   -0.0592   -0.0445    0.0518   -0.1121    0.1901   -0.1394    0.0198
          43   -0.0535    0.0334   -0.0274   -0.0939   -0.0401   -0.0785   -0.0547   -0.0735
          44   -0.0237    0.0082    0.0126    0.0395    0.0232   -0.0025   -0.0103   -0.0668
          45    0.0129    0.1380   -0.1338    0.0738   -0.0681    0.1105   -0.0300    0.0092
          46   -0.0547    0.0578   -0.0329   -0.0806   -0.0096   -0.1186    0.0085   -0.0673
          47   -0.0033   -0.0073    0.0203   -0.0590   -0.0164   -0.0782   -0.0814   -0.1710
          48    0.0171    0.2055   -0.1503    0.0525   -0.0013   -0.0633    0.1247   -0.0397
          49   -0.0797    0.0266   -0.0093   -0.0041    0.0459   -0.0899    0.1013    0.0176
          50   -0.0211   -0.0342    0.0330   -0.0912   -0.0274   -0.1029   -0.1005   -0.1975
          51    0.0434    0.0181   -0.0420   -0.0038    0.0256   -0.1500    0.1538   -0.0574
          52   -0.0330   -0.0501    0.0154    0.1141    0.0656    0.0450    0.1397    0.1387
          53   -0.0016   -0.0238    0.0282    0.1201    0.0630    0.0456    0.0652    0.0163
          54    0.0136   -0.3342    0.0788   -0.0154   -0.1068    0.0675   -0.0924   -0.0617
          55   -0.0250   -0.0187   -0.0029   -0.0338   -0.0377    0.0269   -0.0750    0.0040
          56   -0.0060    0.0160    0.0126    0.1807    0.0836    0.1069    0.0895    0.0817
          57    0.0116   -0.0866   -0.0352    0.0740   -0.1647    0.3591   -0.2912    0.0773
          58   -0.0339    0.0402   -0.0323   -0.1552   -0.0790   -0.0987   -0.1324   -0.1406
          59   -0.0153    0.0215    0.0060    0.0633    0.0317    0.0184    0.0045   -0.0402
          60    0.0088    0.2168   -0.1758    0.1081   -0.0794    0.1874   -0.0639    0.0498
          61   -0.0180    0.2005    0.2315   -0.1419   -0.3070    0.0289   -0.0374    0.1047
          62    0.0503    0.0487    0.0000   -0.0349   -0.0382    0.0342    0.0484    0.0663
          63   -0.0342    0.0579   -0.1952    0.0025    0.1901    0.0451   -0.1106   -0.1200
          64    0.0318   -0.0075    0.1066    0.1085    0.0853    0.0298   -0.1086   -0.0292
          65    0.0038   -0.0707    0.0602    0.0131    0.1092    0.2087    0.1934   -0.0814
          66   -0.0119   -0.1233   -0.0462   -0.2440   -0.0754    0.2964    0.3098   -0.0994
          67   -0.0278    0.0890   -0.0480   -0.1288   -0.0285   -0.1658   -0.0185   -0.1271
          68    0.0266   -0.0013    0.0166   -0.1087   -0.0396   -0.1151   -0.1202   -0.2276
          69   -0.0015    0.3603   -0.2177    0.0719    0.0327   -0.1193    0.2039   -0.0526
          70   -0.0079   -0.0384    0.0223    0.1245    0.1178   -0.0304    0.2431    0.1502
          71   -0.0400   -0.0623    0.0458   -0.0613   -0.0099   -0.0918   -0.0648   -0.1697
          72    0.0069   -0.3155    0.1070   -0.0701    0.0248   -0.2415    0.1785   -0.1131
          73   -0.0576    0.0310   -0.0094    0.0129    0.0573   -0.0829    0.1434    0.1224
          74   -0.0119   -0.1393    0.0596   -0.1207   -0.1000   -0.0645   -0.0061    0.5293
          75    0.0222   -0.0082    0.0827   -0.0448    0.0565   -0.0281   -0.0615    0.1510
          76    0.6092    0.0490    0.0071    0.0063    0.0706   -0.0676    0.0966    0.0353
          77    0.1329   -0.0557    0.0422   -0.1523   -0.0509   -0.1280   -0.1375   -0.1711
          78   -0.2185    0.0253   -0.0206   -0.0223    0.0556   -0.1632    0.1385   -0.0319
          79   -0.0603    0.0490    0.0128   -0.0064    0.0772   -0.0718    0.0415   -0.0801
          80   -0.0507   -0.0912    0.0368   -0.1282   -0.0563   -0.0764   -0.0456    0.2234
          81   -0.0173    0.0305    0.0276   -0.0324    0.0872   -0.0584    0.0110    0.0046


   Root No.       9        10        11        12        13        14        15        16

                 9 A      10 A      11 A      12 A      13 A      14 A      15 A      16 A   

                   0.0       0.0       0.0       0.1       0.2       0.2       0.2       0.2
  
           1    0.0123   -0.1468    0.0614   -0.0120    0.0335    0.0212   -0.0991   -0.0251
           2   -0.0360   -0.0442    0.0131   -0.0084   -0.0264   -0.0264    0.0161    0.0061
           3    0.0797    0.1816    0.0505   -0.0032   -0.0475   -0.0345   -0.0097   -0.1011
           4    0.0120   -0.1490    0.0628   -0.0124    0.0398    0.0254   -0.1147   -0.0388
           5   -0.0663   -0.1364   -0.0250   -0.0164    0.0594    0.0296   -0.2255   -0.2408
           6    0.1025    0.1396    0.0258   -0.0030   -0.1381   -0.0918   -0.0422   -0.0212
           7    0.0995   -0.0525    0.0681   -0.0064   -0.0093   -0.0747    0.0951   -0.0276
           8   -0.0432   -0.0522   -0.0047   -0.0088    0.0273    0.0298    0.1491    0.1011
           9   -0.2200   -0.0077    0.1016    0.0182   -0.0919   -0.0453   -0.0153   -0.0171
          10    0.0652    0.0488    0.1782   -0.0083    0.0201   -0.0763    0.1503   -0.1023
          11   -0.0703    0.0026    0.0571   -0.0128    0.0575    0.1230    0.1683    0.2663
          12   -0.1241   -0.2959   -0.2111    0.0221   -0.1695   -0.0501   -0.1417    0.1391
          13    0.1835   -0.1421   -0.0755   -0.0091    0.0288   -0.1297    0.1514   -0.2540
          14   -0.0145   -0.0877   -0.0589   -0.0097    0.0397   -0.0035    0.1750   -0.0199
          15   -0.4138    0.1962    0.4470    0.0343   -0.2631   -0.1415   -0.1868    0.1133
          16    0.0240   -0.0758    0.2210   -0.0138   -0.0496   -0.1178    0.3443    0.0821
          17   -0.0562   -0.0202    0.0651    0.0060    0.0778    0.1166   -0.2372   -0.0000
          18   -0.0467   -0.0176   -0.3526    0.0088   -0.0743   -0.0132    0.0650    0.0505
          19    0.0560   -0.0748    0.0932   -0.0043   -0.0565   -0.0343    0.0493    0.1683
          20   -0.0852   -0.0655    0.0190   -0.0035   -0.0201   -0.0271    0.1351    0.0545
          21   -0.1031    0.0380    0.0327   -0.0008    0.0881    0.0382    0.1502   -0.2193
          22   -0.0584    0.0691    0.1079    0.0103    0.0385    0.2198    0.1412    0.1947
          23   -0.1698   -0.1081   -0.0007    0.0065   -0.1838   -0.2850    0.2750   -0.2488
          24   -0.0969    0.0795    0.0606    0.0066    0.1916    0.1471    0.1364   -0.0174
          25   -0.0088   -0.1269    0.0786   -0.0148    0.1305    0.0836   -0.1666   -0.2036
          26    0.1212    0.1306    0.0597   -0.0071   -0.2015   -0.1460   -0.1077    0.1404
          27    0.1071    0.2290    0.0671   -0.0035   -0.0625   -0.0468   -0.0567   -0.1305
          28    0.0497   -0.0726    0.1182   -0.0057   -0.0435   -0.0328    0.0615    0.1380
          29   -0.0616   -0.0438    0.0358    0.0012    0.0350    0.0519   -0.0832    0.0148
          30   -0.0541    0.0183   -0.2302    0.0103   -0.0088    0.0199    0.0389   -0.0274
          31    0.0846   -0.0896   -0.0890    0.0042   -0.1493   -0.0468   -0.0308    0.3961
          32   -0.0658   -0.0730    0.0144   -0.0043    0.0481    0.0838   -0.1839   -0.0011
          33   -0.0382    0.0109   -0.3359    0.0155   -0.0632    0.0152   -0.0084    0.0990
          34   -0.0341    0.0555   -0.0655   -0.0297   -0.0472    0.0254    0.0072   -0.0495
          35    0.0010    0.0270   -0.0144   -0.0120    0.0140    0.0104   -0.0065   -0.0066
          36    0.1172   -0.1591    0.0529   -0.1333   -0.0014   -0.0226   -0.0069    0.0364
          37   -0.0545    0.0747   -0.0709    0.0550   -0.0574    0.0469    0.0134   -0.0669
          38   -0.0061    0.0300   -0.0137    0.0202   -0.0074    0.0155   -0.0004   -0.0170
          39    0.0541   -0.1020    0.0375    0.1594   -0.0471    0.0495    0.0087   -0.0017
          40   -0.0727    0.1056   -0.0872    0.0066   -0.0105    0.0138    0.0012   -0.0579
          41   -0.0146    0.0363   -0.0149    0.0025    0.0028   -0.0003   -0.0012   -0.0102
          42   -0.0189   -0.0152    0.0040   -0.0123    0.0877   -0.0882   -0.0156    0.0438
          43   -0.0522    0.0898   -0.0833   -0.0348   -0.0461    0.0578    0.0055   -0.0587
          44   -0.0042    0.0312   -0.0136   -0.0148   -0.0013    0.0119   -0.0034    0.0013
          45    0.0395   -0.0752    0.0233   -0.1591   -0.0722    0.0687    0.0166   -0.0120
          46   -0.0273    0.0630   -0.0717    0.0384   -0.0244    0.0257    0.0027   -0.0470
          47    0.0129    0.0253   -0.0152    0.0145    0.0215   -0.0006   -0.0187    0.0300
          48    0.1235   -0.1645    0.0579    0.0961    0.0046   -0.0256    0.0019    0.0261
          49   -0.0270    0.0576   -0.0648   -0.0010    0.0130   -0.0257   -0.0053   -0.0148
          50    0.0091    0.0275   -0.0164    0.0013    0.0376   -0.0094   -0.0175    0.0218
          51    0.1167   -0.1472    0.0483   -0.0383    0.1427   -0.1539   -0.0235    0.0452
          52   -0.0581    0.0718   -0.0679    0.1549   -0.1169    0.1035    0.0308   -0.1058
          53   -0.0097    0.0276   -0.0111    0.0578   -0.0364    0.0387    0.0104   -0.0398
          54    0.0491   -0.1057    0.0457    0.5003   -0.1866    0.2277    0.0457   -0.0766
          55   -0.1004    0.1385   -0.1004    0.0033    0.0608   -0.0572   -0.0141   -0.0314
          56   -0.0287    0.0459   -0.0151   -0.0033    0.0237   -0.0340   -0.0011   -0.0069
          57   -0.1186    0.0952   -0.0359   -0.0264    0.3372   -0.3448   -0.0640    0.1391
          58   -0.0532    0.0992   -0.0880   -0.1179   -0.0880    0.1208    0.0079   -0.0688
          59   -0.0074    0.0336   -0.0143   -0.0477   -0.0263    0.0356    0.0027   -0.0105
          60    0.0162   -0.0519    0.0173   -0.4462   -0.2590    0.2793    0.0596   -0.0939
          61    0.0002   -0.2501    0.0207   -0.0173    0.0726    0.0453   -0.3228   -0.1726
          62   -0.1150   -0.1083    0.0014   -0.0055    0.0266    0.0062    0.1920    0.0430
          63    0.1953    0.3229    0.0886   -0.0041   -0.1497   -0.1014   -0.1584   -0.0934
          64    0.0449   -0.0566    0.2426   -0.0087    0.0524    0.0473   -0.0970    0.0171
          65   -0.0572   -0.0207    0.0612    0.0062    0.0707    0.1113   -0.2287    0.0011
          66   -0.0428    0.0480   -0.2810    0.0214   -0.0303    0.0511   -0.0671    0.0512
          67   -0.0116    0.0508   -0.0700    0.1292   -0.0298    0.0385   -0.0008   -0.0501
          68    0.0202    0.0239   -0.0191    0.0511    0.0187    0.0129   -0.0251    0.0270
          69    0.1753   -0.2271    0.0900    0.4104   -0.0190   -0.0337    0.0057    0.0670
          70   -0.0276    0.0467   -0.0638   -0.1243   -0.0868    0.0404    0.0157   -0.0776
          71    0.0053    0.0218   -0.0112   -0.0441    0.0171    0.0106   -0.0089    0.0101
          72    0.1543   -0.1989    0.0699   -0.4551   -0.0536   -0.0029   -0.0120    0.0900
          73    0.0242    0.0885   -0.0853    0.0073    0.1657   -0.2182   -0.0793    0.0947
          74    0.5197    0.1772   -0.0040    0.0202    0.0378    0.0015   -0.0199   -0.0079
          75    0.1276    0.1829    0.0866    0.0106    0.3081    0.4529    0.0931    0.1336
          76    0.0472    0.0922   -0.1152    0.0056    0.0528   -0.1030   -0.1392    0.2512
          77    0.0452    0.0425   -0.0374   -0.0019   -0.0093   -0.0462   -0.0155    0.0166
          78   -0.0286   -0.0332    0.0190   -0.0308    0.3701   -0.2172    0.0465   -0.1330
          79   -0.1172    0.0851   -0.0545    0.0056    0.1067    0.0010   -0.0080    0.1103
          80    0.1773    0.0773   -0.0371    0.0128   -0.1030   -0.1109    0.0606   -0.1245
          81   -0.1522    0.0590    0.0202    0.0020    0.2077    0.0640    0.1398   -0.0899


   Root No.      17        18        19        20        21        22        23        24

                17 A      18 A      19 A      20 A      21 A      22 A      23 A      24 A   

                   0.3       0.3       0.4       0.5       0.5       0.7       0.8       0.8
  
           1   -0.0087    0.0391    0.0150   -0.0093   -0.0118   -0.0099    0.0112   -0.0679
           2    0.0505   -0.1481   -0.0480   -0.0197   -0.0019    0.0152   -0.0056   -0.0624
           3   -0.0397    0.0741   -0.0535    0.0136   -0.0111   -0.0086   -0.0483   -0.0066
           4   -0.0078    0.0353    0.0192   -0.0064   -0.0109   -0.0102    0.0101   -0.0700
           5    0.0851   -0.2975   -0.0123    0.0461    0.0452    0.0736   -0.0745    0.2385
           6   -0.0331    0.0762   -0.0265    0.0083    0.0096    0.0241   -0.0531   -0.2176
           7    0.0390   -0.0674   -0.0105   -0.0318   -0.0402   -0.0376   -0.0118    0.0180
           8    0.0038    0.0055   -0.0602   -0.0422   -0.0481   -0.0352   -0.0340   -0.0109
           9   -0.0093   -0.0144   -0.0896    0.0029    0.0054    0.0052    0.0013    0.0055
          10    0.0348   -0.0705   -0.0140   -0.0034   -0.0208   -0.0229   -0.0031    0.0109
          11   -0.1178    0.3518   -0.0625   -0.0634   -0.0718   -0.0554   -0.0192    0.0577
          12   -0.0006   -0.0346   -0.1185   -0.0604   -0.0153    0.0144   -0.0034    0.0132
          13    0.1177   -0.3193   -0.0286    0.0108   -0.0080   -0.0137   -0.0226   -0.0370
          14    0.0403   -0.1241   -0.0844   -0.0210   -0.0242   -0.0099   -0.0313   -0.0392
          15    0.0756   -0.2212   -0.1052   -0.0601   -0.0198    0.0091   -0.0224   -0.0257
          16    0.0189   -0.0123   -0.1860   -0.1152   -0.1102   -0.0543   -0.0422    0.4865
          17   -0.0505    0.1305    0.0438    0.0124    0.0088    0.0033    0.0123   -0.0003
          18   -0.0090   -0.0267   -0.0474    0.0226    0.0267    0.0170   -0.0197   -0.1633
          19   -0.0143    0.0948    0.0066   -0.0455   -0.0288   -0.0171    0.0025    0.0012
          20    0.0406   -0.1201   -0.0915   -0.0367   -0.0170    0.0070   -0.0071   -0.0015
          21   -0.0878    0.1310   -0.1864    0.0153   -0.0084    0.0224   -0.0034    0.0016
          22   -0.0527   -0.0995    0.1265    0.3651    0.4948    0.4791   -0.0646    0.0082
          23   -0.0454    0.2033    0.4187    0.2959    0.2194   -0.0684    0.2368   -0.0084
          24    0.0686   -0.0477    0.2796    0.0576   -0.0885   -0.2231   -0.0887    0.0064
          25   -0.0291    0.0431   -0.0260    0.0326   -0.0093    0.0070   -0.1085   -0.1608
          26    0.1103   -0.2516    0.0954   -0.0329    0.0459    0.0229    0.1956   -0.2739
          27   -0.0376    0.0617   -0.0391    0.0270    0.0041    0.0023   -0.0421   -0.0791
          28   -0.0195    0.0966   -0.0114   -0.0435   -0.0218    0.0004    0.0118    0.0206
          29   -0.0101    0.0200   -0.0203   -0.0112   -0.0089   -0.0022   -0.0123    0.0927
          30   -0.0359    0.0482   -0.0682    0.0083   -0.0126   -0.0196   -0.0191   -0.0025
          31    0.0173    0.0475    0.1377   -0.0568    0.0376    0.0838    0.1105    0.0892
          32   -0.0411    0.1049    0.0175    0.0061    0.0036    0.0046   -0.0124    0.3219
          33   -0.0202    0.0229    0.0016    0.0079    0.0248    0.0290    0.0283    0.0318
          34   -0.0908   -0.0164   -0.0061   -0.0686    0.0518   -0.0340   -0.0037    0.0023
          35    0.0002    0.0028   -0.0771    0.0254    0.0378   -0.0478    0.0817    0.0049
          36   -0.0308   -0.0128    0.0049   -0.0860    0.1998   -0.1037   -0.0408    0.0004
          37   -0.0676   -0.0053   -0.0148   -0.0676    0.0478   -0.0466   -0.0058    0.0047
          38   -0.0076    0.0024   -0.0363   -0.0133    0.0250   -0.0346    0.0408    0.0005
          39    0.0703    0.0211    0.0039   -0.0735    0.1883   -0.1756   -0.0890    0.0006
          40   -0.0971   -0.0147   -0.0522   -0.0652    0.0486   -0.0628    0.0621    0.0053
          41   -0.0165   -0.0008   -0.0201   -0.0086    0.0245   -0.0325    0.0035   -0.0008
          42   -0.0284   -0.0103    0.0131   -0.0533    0.1745   -0.1747   -0.1127    0.0003
          43   -0.0428   -0.0017   -0.0545   -0.0470    0.0558   -0.0568   -0.0190   -0.0007
          44    0.0212    0.0056   -0.0197    0.0156    0.0282   -0.0226   -0.0686   -0.0032
          45    0.0684    0.0252    0.0149   -0.0801    0.1785   -0.1645   -0.0710    0.0028
          46   -0.0778   -0.0120   -0.0377   -0.0603    0.0580   -0.0200   -0.0193    0.0000
          47    0.0384   -0.0018   -0.0408    0.0430    0.0284   -0.0503   -0.0171    0.0001
          48   -0.0407   -0.0099    0.0115   -0.0947    0.2031   -0.1077   -0.0283    0.0013
          49   -0.0463   -0.0070    0.0144   -0.0824    0.0837    0.0258   -0.0685    0.0001
          50    0.0338    0.0035   -0.0572    0.0254    0.0450   -0.0280    0.0069   -0.0006
          51   -0.0300    0.0071   -0.0034   -0.2511    0.2924    0.0398    0.0801   -0.0006
          52   -0.0357    0.0107    0.0158   -0.0765   -0.0705    0.0990   -0.3192   -0.0442
          53   -0.0067    0.0087   -0.0150   -0.0292   -0.0237    0.0421   -0.2574   -0.0427
          54    0.2873    0.0905    0.0054    0.0458   -0.1687    0.1676    0.2055    0.0147
          55   -0.1634   -0.0393   -0.0585   -0.0107   -0.0478    0.0173    0.0712   -0.0037
          56   -0.0600   -0.0117    0.0023    0.0063   -0.0343    0.0212    0.2157    0.0381
          57   -0.2589   -0.0942    0.0181    0.1506   -0.1755    0.1302    0.0175   -0.0054
          58    0.0417    0.0182   -0.0841    0.0248   -0.0685    0.0494   -0.1176   -0.0020
          59    0.0416    0.0134   -0.0091    0.0151   -0.0065    0.0094   -0.0061   -0.0040
          60    0.2905    0.0990    0.0393    0.0204   -0.1753    0.1799    0.1187   -0.0007
          61    0.0233   -0.0503    0.1190    0.0352    0.0215   -0.0392    0.1038    0.0706
          62    0.0306   -0.1090   -0.1621   -0.0583   -0.0493    0.0178   -0.0787   -0.3499
          63   -0.0236    0.0466    0.0501    0.0480    0.0445    0.0101    0.0065    0.3051
          64   -0.1039    0.3281    0.0051   -0.0300   -0.0540   -0.0549    0.0339   -0.3633
          65   -0.0558    0.1385    0.0149    0.0073    0.0012   -0.0041   -0.0090    0.0255
          66   -0.0473    0.0682   -0.0279    0.0276    0.0291    0.0203   -0.0295    0.1482
          67   -0.1468   -0.0387   -0.1095    0.0524   -0.0758   -0.0639    0.2654   -0.0029
          68    0.0108   -0.0149   -0.1094    0.0956   -0.0270   -0.1298    0.2646   -0.0029
          69   -0.2412   -0.0977    0.0501    0.2752   -0.2798    0.0771   -0.1065    0.0012
          70   -0.2159   -0.0512    0.0035   -0.0600   -0.1222    0.0376    0.3273    0.0276
          71    0.0078   -0.0010   -0.0862    0.1081    0.0041   -0.0458   -0.0332   -0.0047
          72   -0.1939   -0.0967    0.0096    0.3234   -0.2720    0.0352   -0.0954   -0.0086
          73    0.4718    0.1790   -0.1860    0.3808   -0.0079   -0.1255   -0.1415    0.0076
          74    0.0227    0.0408   -0.2107    0.0821    0.0616    0.0480    0.0119    0.0005
          75   -0.0348   -0.2951    0.0940   -0.0695    0.0087   -0.0810    0.1902   -0.0149
          76    0.2693   -0.0696    0.2659   -0.1163   -0.1810   -0.1707    0.0803   -0.0063
          77   -0.0335   -0.0253    0.3023   -0.3081   -0.1470    0.3089   -0.2498    0.0129
          78    0.2339    0.1810   -0.0744   -0.2551   -0.0396    0.4835    0.2101   -0.0091
          79    0.1865   -0.0171    0.1512    0.0946   -0.0101    0.0408   -0.1426    0.0061
          80   -0.0928    0.0741    0.3276   -0.1399   -0.1188   -0.0075   -0.1537    0.0122
          81    0.1082    0.0085    0.2441    0.0290   -0.1227   -0.2087    0.0152    0.0009


   Root No.      25        26        27        28        29        30        31        32

                25 A      26 A      27 A      28 A      29 A      30 A      31 A      32 A   

                   0.8       0.9       0.9       0.9       1.0       1.1       1.1       1.2
  
           1   -0.0181    0.0350   -0.0296   -0.0692    0.0001    0.0231   -0.0056   -0.0358
           2    0.0146   -0.0101    0.0025    0.0165    0.0009    0.0273   -0.0060   -0.0157
           3    0.0638   -0.0657    0.0219   -0.0201    0.0009    0.0708   -0.0104    0.0109
           4   -0.0173    0.0354   -0.0319   -0.0770    0.0006    0.0222   -0.0052   -0.0419
           5    0.1450   -0.2361    0.1866    0.4564    0.0182   -0.2830    0.0524    0.0538
           6    0.1261   -0.1195    0.0231   -0.3059    0.0128   -0.2541    0.0328   -0.0385
           7    0.0053   -0.0004   -0.0055    0.0108    0.0025    0.0464   -0.0101   -0.0553
           8    0.0237   -0.0053   -0.0184    0.0273    0.0052    0.1320   -0.0186   -0.0962
           9   -0.0057    0.0019    0.0081    0.0193   -0.0099    0.0899   -0.0166    0.0273
          10    0.0021   -0.0056    0.0074    0.0125   -0.0044    0.0798   -0.0162   -0.0236
          11   -0.0062    0.0182   -0.0157    0.0454   -0.0017    0.2019   -0.0370   -0.1114
          12   -0.0083    0.0146   -0.0104    0.0109    0.0011    0.0463   -0.0126   -0.0328
          13    0.0236   -0.0150   -0.0055    0.0162    0.0009    0.1326   -0.0218   -0.0726
          14    0.0264   -0.0103   -0.0136    0.0273    0.0015    0.1918   -0.0300   -0.0985
          15    0.0272   -0.0196   -0.0007    0.0101    0.0048    0.0646   -0.0124   -0.0645
          16   -0.0988    0.1390   -0.1205   -0.0499    0.0224   -0.3191    0.0518    0.1141
          17    0.0430   -0.0934    0.0818   -0.1147   -0.0253    0.2542   -0.0510    0.0159
          18   -0.0436    0.1317   -0.1202    0.2310    0.0302   -0.0618    0.0159   -0.1448
          19   -0.0008    0.0010   -0.0012    0.0073    0.0035    0.0099   -0.0014   -0.0566
          20    0.0031   -0.0002   -0.0023    0.0109   -0.0023    0.0972   -0.0192   -0.0402
          21   -0.0106    0.0058    0.0132    0.0084   -0.0191    0.1593   -0.0368    0.1097
          22    0.0463    0.0119   -0.1543    0.0140    0.0604    0.0221    0.0820   -0.1593
          23   -0.1403    0.0079    0.1912   -0.0422   -0.0757   -0.1017   -0.0323    0.1596
          24    0.0785   -0.0312   -0.0761    0.0099    0.0335   -0.0026    0.0826   -0.1917
          25    0.1778   -0.1628    0.0190   -0.3288    0.0190   -0.1969    0.0315   -0.0553
          26   -0.2613    0.3131   -0.1417   -0.0708   -0.0215   -0.0793    0.0183    0.1953
          27    0.0679   -0.0632    0.0120   -0.1189    0.0004   -0.0121    0.0037    0.0652
          28   -0.0022   -0.0139    0.0247    0.0467   -0.0008   -0.0169    0.0012   -0.0073
          29   -0.0033    0.0049   -0.0136   -0.0425    0.0008    0.0526   -0.0109   -0.0412
          30   -0.0298    0.0716   -0.0616    0.0499    0.0040    0.0360   -0.0094    0.0364
          31    0.1161   -0.3504    0.3749   -0.0330   -0.0584    0.0527   -0.0180    0.1797
          32   -0.0388    0.0395   -0.0567   -0.2933    0.0048   -0.1772    0.0320    0.0765
          33    0.0248   -0.0864    0.1036    0.0122   -0.0240    0.0767   -0.0205    0.1428
          34    0.0348    0.0201    0.0005    0.0007    0.0475   -0.0186   -0.1199   -0.0195
          35    0.0419    0.0131    0.0035   -0.0003   -0.1082   -0.0253   -0.0721   -0.0439
          36    0.0173    0.0040   -0.0044    0.0013    0.0055    0.0027    0.0588   -0.0516
          37    0.0665    0.0394    0.0002    0.0021    0.0811   -0.0011   -0.1163    0.0586
          38   -0.0115   -0.0399   -0.0355    0.0038   -0.1471   -0.0106   -0.0382    0.0054
          39    0.0284   -0.0148   -0.0426    0.0079   -0.0171    0.0422    0.1004    0.1561
          40    0.0339   -0.0351   -0.0597    0.0067    0.0246   -0.0024   -0.1884    0.1065
          41   -0.0149   -0.0309   -0.0281    0.0034   -0.0911   -0.0108   -0.0576    0.0127
          42    0.0337   -0.0023   -0.0362    0.0082   -0.0133    0.0495    0.1102    0.1980
          43   -0.0099   -0.0285   -0.0342    0.0045   -0.0023    0.0011   -0.1260    0.0848
          44   -0.0191   -0.0063   -0.0149    0.0041   -0.1550   -0.0165   -0.0524   -0.0032
          45    0.0451   -0.0071   -0.0441    0.0081    0.0111    0.0362    0.0534    0.1425
          46   -0.0047   -0.0230   -0.0373    0.0048    0.0252   -0.0028   -0.1246    0.0409
          47    0.0251    0.0485    0.0448   -0.0034   -0.1133   -0.0223    0.0003   -0.0638
          48    0.0209    0.0038   -0.0039    0.0011    0.0149   -0.0050    0.0229   -0.0700
          49    0.0238    0.0401    0.0083    0.0009    0.0411   -0.0337   -0.1374   -0.0825
          50    0.0004    0.0150    0.0220   -0.0024   -0.0727   -0.0222   -0.0344   -0.0587
          51   -0.0198    0.0206    0.0611   -0.0105    0.0138   -0.0527    0.0002   -0.3014
          52   -0.3610    0.0050    0.2577   -0.0329    0.2247    0.0298    0.1438   -0.0150
          53   -0.3870   -0.0815    0.1751   -0.0244   -0.0670    0.0257    0.2273   -0.0279
          54    0.1056    0.0158   -0.0512    0.0042   -0.0503   -0.0439   -0.1116   -0.1164
          55   -0.0842   -0.1130   -0.0756    0.0051   -0.0917   -0.0440   -0.2888   -0.0090
          56    0.4533    0.3534    0.1516   -0.0098    0.5014    0.0580    0.0343    0.1195
          57   -0.0591   -0.0003    0.0405   -0.0068   -0.0193   -0.0248    0.0480   -0.1550
          58    0.1670    0.4572    0.4483   -0.0377   -0.3036    0.0067    0.2324   -0.0857
          59   -0.0961   -0.1631   -0.1558    0.0148   -0.0829   -0.0363   -0.2016   -0.0054
          60   -0.0761   -0.1006   -0.0666    0.0011    0.1016   -0.0246   -0.0628   -0.0947
          61   -0.1999    0.2369   -0.1236   -0.0969   -0.0252    0.3343   -0.0521    0.0219
          62    0.1432   -0.1125    0.0096   -0.1315    0.0147   -0.1531    0.0298    0.0618
          63   -0.0171   -0.0334    0.0651    0.1893   -0.0068    0.1784   -0.0412   -0.1229
          64   -0.0382    0.0749    0.0033    0.5523    0.0096   -0.1841    0.0255    0.1036
          65   -0.0510    0.1029   -0.0913    0.0918    0.0238   -0.2145    0.0407   -0.0433
          66   -0.0836    0.1727   -0.1754   -0.0627    0.0357   -0.2960    0.0606   -0.0322
          67   -0.1495   -0.2239   -0.0789   -0.0069    0.3730    0.0502    0.2352    0.0275
          68   -0.1159   -0.1477    0.0120   -0.0162    0.2077    0.0206    0.3882   -0.1348
          69    0.0495    0.0692    0.0054    0.0057   -0.1387    0.0002   -0.0984    0.0897
          70    0.1784   -0.0879   -0.2197    0.0257   -0.4652    0.0340    0.3858   -0.0371
          71   -0.0158    0.0525    0.0851   -0.0097    0.0716   -0.0504   -0.3158   -0.0173
          72   -0.0643    0.0024    0.0358   -0.0046    0.1201    0.0086   -0.0846    0.0917
          73    0.0753   -0.0381   -0.1493    0.0252   -0.0283    0.0832    0.1275    0.1649
          74   -0.0107    0.0020    0.0031    0.0005   -0.0134    0.0239    0.0059    0.0260
          75   -0.1376    0.0349    0.1668   -0.0244   -0.0721   -0.0739   -0.0711    0.2271
          76   -0.0388   -0.0024    0.1049   -0.0217    0.0129   -0.1003   -0.0757   -0.1979
          77    0.1346   -0.0214   -0.2776    0.0458    0.0308    0.1385    0.1657    0.3579
          78   -0.1312    0.0139    0.1176   -0.0216   -0.0071   -0.0132   -0.0332    0.0896
          79    0.0726    0.0040   -0.1223    0.0188    0.0308   -0.0082   -0.0096    0.0520
          80    0.1177   -0.0123   -0.1038    0.0131    0.0957   -0.0207   -0.0178   -0.2827
          81   -0.0019   -0.0189    0.0194   -0.0029   -0.0126    0.0033    0.0322    0.0295


   Root No.      33        34        35        36        37        38        39        40

                33 A      34 A      35 A      36 A      37 A      38 A      39 A      40 A   

                   1.3       1.3       1.4       1.5       1.5       1.6       1.6       1.8
  
           1   -0.0747   -0.0597   -0.0001   -0.2208   -0.0225    0.1407    0.1367    0.0136
           2   -0.0155   -0.0156   -0.0034    0.0175    0.0011    0.1381    0.0707   -0.0231
           3    0.1108    0.0852   -0.0062    0.0790    0.0063    0.2407   -0.1712   -0.0668
           4   -0.0872   -0.0709    0.0001   -0.2861   -0.0295    0.1771    0.1632    0.0192
           5    0.0461    0.0254   -0.0054   -0.1952   -0.0225   -0.1223   -0.1521    0.0180
           6   -0.2092   -0.1303   -0.0030   -0.0262   -0.0015   -0.2456    0.1904    0.0535
           7   -0.0654   -0.0326    0.0026   -0.1886   -0.0183   -0.0798   -0.2515   -0.0148
           8   -0.0633   -0.0461   -0.0028    0.1116    0.0087    0.0512    0.1618    0.0096
           9    0.0266    0.0259    0.0021   -0.0557   -0.0024   -0.0243   -0.0756    0.0204
          10   -0.0353   -0.0137    0.0023   -0.1793   -0.0162   -0.0702   -0.2403    0.0017
          11   -0.1217   -0.0727   -0.0075   -0.1687   -0.0177   -0.1166   -0.2471    0.0102
          12   -0.0506   -0.0406    0.0030   -0.1077   -0.0096   -0.0497   -0.1248   -0.0109
          13   -0.0538   -0.0378    0.0055    0.0240    0.0021    0.0562    0.0724    0.0164
          14   -0.0639   -0.0560   -0.0007    0.2458    0.0222    0.1295    0.3586    0.0302
          15   -0.0595   -0.0468    0.0080    0.0692    0.0068    0.0493    0.0904   -0.0053
          16    0.1217    0.0986   -0.0030    0.1943    0.0231   -0.2233    0.1279   -0.0326
          17    0.0592    0.0577    0.0005   -0.1774   -0.0093   -0.2812    0.0488   -0.0513
          18   -0.2005   -0.1593    0.0028    0.2184    0.0161   -0.1172   -0.2229    0.0088
          19   -0.0760   -0.0530    0.0016   -0.1221   -0.0134    0.0165   -0.1010   -0.0062
          20   -0.0542   -0.0422   -0.0006    0.0720    0.0077   -0.0074    0.0653    0.0064
          21    0.1433    0.0908   -0.0023   -0.0434    0.0007   -0.0054   -0.0327    0.0270
          22    0.1967   -0.0910    0.0141   -0.0032   -0.0232   -0.0337    0.0264    0.0782
          23   -0.2469    0.0045   -0.0085    0.0118    0.0238    0.0342   -0.0165   -0.0590
          24    0.1575    0.0814    0.0072   -0.0048   -0.0311   -0.0156    0.0060    0.1473
          25   -0.1286   -0.0680   -0.0002    0.2068    0.0212   -0.2589    0.0443    0.0215
          26    0.1999    0.1135   -0.0069   -0.1489   -0.0153   -0.2064   -0.0430    0.0548
          27    0.1728    0.1364   -0.0077    0.2045    0.0198    0.0858   -0.2995   -0.0718
          28   -0.0301   -0.0267    0.0016   -0.0586   -0.0066    0.0319   -0.0845    0.0012
          29   -0.0581   -0.0421    0.0027    0.1572    0.0164   -0.2423   -0.1074   -0.0138
          30    0.0990    0.0931   -0.0034   -0.1590   -0.0081   -0.1979    0.1923   -0.0508
          31    0.1286    0.0770    0.0025    0.2605    0.0242    0.1363   -0.0599    0.0498
          32    0.0935    0.0636   -0.0010   -0.1724   -0.0187    0.2475    0.1094    0.0110
          33    0.2094    0.1695   -0.0042   -0.0294    0.0066   -0.2017    0.2807   -0.0441
          34    0.0111    0.0122   -0.1531   -0.0109    0.1137   -0.0011    0.0023   -0.1151
          35    0.0395   -0.0129   -0.0928   -0.0209    0.2247    0.0030   -0.0046    0.0951
          36   -0.0348    0.1020   -0.3751    0.0131   -0.1426   -0.0018    0.0029    0.0075
          37    0.0347   -0.0757   -0.1699   -0.0172    0.1894    0.0006    0.0003   -0.1146
          38    0.0156   -0.0178   -0.0145    0.0182   -0.1744    0.0020   -0.0057    0.2188
          39    0.0686   -0.2149   -0.3796    0.0143   -0.1376   -0.0010    0.0002    0.0076
          40    0.0230   -0.0744   -0.0107    0.0017    0.0178    0.0078   -0.0120    0.2856
          41    0.0208   -0.0348    0.0219    0.0125   -0.1229   -0.0006   -0.0015    0.0498
          42    0.0921   -0.2921    0.0306   -0.0001    0.0039   -0.0018    0.0004   -0.0800
          43   -0.0020   -0.0351    0.1496    0.0108   -0.1054    0.0014   -0.0016   -0.0121
          44    0.0061   -0.0153    0.0960    0.0189   -0.2115   -0.0065    0.0085   -0.2654
          45    0.0559   -0.1696    0.4049   -0.0154    0.1512    0.0010   -0.0033    0.0404
          46   -0.0502    0.0696    0.1576    0.0185   -0.1916   -0.0003    0.0015   -0.0679
          47    0.0267   -0.0104    0.0170   -0.0185    0.1783   -0.0017    0.0036   -0.1225
          48   -0.0346    0.1293    0.3752   -0.0162    0.1409   -0.0003    0.0002    0.0325
          49   -0.0456    0.1219   -0.0085   -0.0002   -0.0191   -0.0051    0.0091   -0.2403
          50    0.0032    0.0308   -0.0227   -0.0117    0.1158   -0.0001    0.0011   -0.0411
          51   -0.1306    0.4083   -0.0339   -0.0011   -0.0097   -0.0002    0.0009    0.0738
          52   -0.0270    0.0435    0.0114   -0.0289    0.3066    0.0012    0.0011   -0.1401
          53   -0.0212    0.0411    0.0820    0.0231   -0.2256    0.0027   -0.0073    0.3520
          54   -0.0433    0.1372    0.2512   -0.0010   -0.0045   -0.0012    0.0018    0.0019
          55   -0.0055    0.0558   -0.0324    0.0015    0.0213    0.0101   -0.0153    0.4181
          56   -0.0638    0.0388    0.0409    0.0161   -0.1477    0.0024   -0.0036    0.0960
          57   -0.0529    0.1711   -0.0102   -0.0037    0.0137   -0.0039    0.0066   -0.1361
          58    0.0196    0.0112   -0.0183    0.0178   -0.1908   -0.0018    0.0010    0.0028
          59   -0.0198    0.0284    0.0281    0.0286   -0.3121   -0.0078    0.0115   -0.4059
          60   -0.0416    0.1140   -0.2843   -0.0024    0.0309    0.0011   -0.0014    0.0396
          61    0.1322    0.0915   -0.0047    0.3060    0.0319    0.0564   -0.1029   -0.0417
          62    0.1443    0.0967   -0.0025   -0.0858   -0.0109    0.3448   -0.1176   -0.0733
          63   -0.2101   -0.1419   -0.0054   -0.0485   -0.0044    0.1397    0.2108   -0.0040
          64    0.1157    0.1029   -0.0007    0.0679    0.0111    0.0428    0.2680   -0.0157
          65   -0.1078   -0.0934    0.0086    0.3349    0.0269    0.0460   -0.1320    0.0357
          66   -0.0528   -0.0574    0.0069   -0.0880   -0.0154    0.3376   -0.0363    0.0327
          67   -0.0126   -0.0130    0.0042    0.0289   -0.3042   -0.0031    0.0029   -0.0167
          68    0.0721   -0.0698   -0.0640   -0.0267    0.2444   -0.0050    0.0062   -0.0967
          69    0.0351   -0.1111   -0.2390    0.0011    0.0004    0.0019   -0.0035    0.0168
          70    0.0092   -0.0306    0.0536   -0.0179    0.1740   -0.0016    0.0027   -0.0390
          71    0.0659   -0.0432   -0.0618   -0.0311    0.3405    0.0048   -0.0074    0.0913
          72    0.0197   -0.0831    0.2494    0.0041   -0.0381    0.0001   -0.0010    0.0098
          73   -0.1364    0.1869   -0.0184   -0.0035    0.0343    0.0053   -0.0054    0.0839
          74   -0.0081    0.0066    0.0064    0.0020    0.0052    0.0036   -0.0042    0.0170
          75   -0.2846    0.0064   -0.0132    0.0008    0.0349    0.0182   -0.0035   -0.1129
          76    0.0900   -0.1918    0.0218    0.0055   -0.0552    0.0045    0.0016    0.0299
          77   -0.2839    0.1556   -0.0341   -0.0043    0.1142    0.0173   -0.0093    0.0817
          78    0.1449   -0.3742    0.0258    0.0048   -0.0187   -0.0020   -0.0023   -0.0240
          79   -0.0521    0.0029   -0.0085   -0.0071    0.0253   -0.0099    0.0130   -0.1650
          80    0.3352   -0.0903    0.0252   -0.0088   -0.0411   -0.0293    0.0140   -0.0257
          81    0.0693    0.0707    0.0004   -0.0067   -0.0083   -0.0058   -0.0056    0.0870


   Root No.      41        42        43        44        45        46        47        48

                41 A      42 A      43 A      44 A      45 A      46 A      47 A      48 A   

                   1.9       2.1       2.6       2.9       2.9       3.0       3.3       3.3
  
           1    0.2312    0.1266   -0.0103    0.0769    0.0184   -0.0068    0.1233    0.0046
           2    0.1211   -0.0708    0.0316   -0.2854   -0.0511    0.0055   -0.2251   -0.0072
           3    0.1137   -0.1683   -0.0180    0.0892    0.0111    0.0001    0.1046    0.0038
           4    0.3347    0.2013   -0.0224    0.1733    0.0420   -0.0172    0.3559    0.0127
           5   -0.1047    0.0151   -0.0219    0.1428    0.0220    0.0007    0.0477    0.0023
           6   -0.0787    0.1138    0.0105   -0.0447   -0.0066   -0.0010   -0.0295   -0.0012
           7   -0.0487   -0.1054    0.0174   -0.1991   -0.0349    0.0053   -0.0037    0.0018
           8   -0.1175   -0.0585   -0.0246    0.1252    0.0151    0.0056   -0.0412   -0.0006
           9   -0.0826    0.2298    0.0039   -0.0552    0.0051   -0.0340   -0.0698   -0.0089
          10   -0.0741    0.0453    0.0256   -0.2017   -0.0273   -0.0087   -0.0490   -0.0020
          11   -0.2904   -0.0151    0.0302   -0.1579   -0.0153   -0.0132    0.3001    0.0117
          12   -0.0535   -0.0766    0.0246   -0.1090   -0.0226    0.0074    0.0439    0.0027
          13   -0.1983    0.0096    0.0042    0.0117    0.0095   -0.0102    0.2502    0.0092
          14   -0.2136    0.0326   -0.0150    0.2740    0.0473    0.0020    0.1036    0.0045
          15   -0.0845   -0.1033    0.0068    0.0606    0.0056    0.0107    0.1298    0.0056
          16    0.2285   -0.0782   -0.0162    0.0322    0.0025    0.0000    0.0220    0.0011
          17    0.1879   -0.1756   -0.0348    0.3056    0.0345    0.0221   -0.2376   -0.0080
          18    0.2260    0.0523   -0.0210    0.1918    0.0252    0.0110   -0.1329   -0.0050
          19   -0.0198   -0.1127   -0.0327    0.1577    0.0132    0.0117   -0.0654   -0.0020
          20   -0.0421    0.0222    0.0282   -0.0999   -0.0165    0.0049   -0.1606   -0.0048
          21   -0.0282    0.4261    0.0856    0.0540    0.0348   -0.0088   -0.1223   -0.0032
          22    0.0096   -0.0358   -0.1030   -0.0388   -0.0346   -0.0028    0.0160   -0.0001
          23    0.0157   -0.1580   -0.0346    0.0253   -0.0022   -0.0049    0.0549   -0.0003
          24    0.0131    0.0361   -0.3892   -0.0435   -0.0462   -0.0444    0.0035   -0.0095
          25   -0.1946   -0.0510    0.0086   -0.1199   -0.0227    0.0040   -0.1322   -0.0046
          26   -0.1026    0.2393    0.0063    0.0566    0.0170   -0.0055   -0.0030    0.0008
          27   -0.0637   -0.2294   -0.0239    0.2539    0.0381    0.0022    0.2632    0.0101
          28   -0.0238   -0.0363   -0.0203    0.3061    0.0360    0.0234   -0.2771   -0.0088
          29    0.2804    0.0311   -0.0107    0.0431    0.0076   -0.0016    0.0285    0.0014
          30    0.0389   -0.2227   -0.0144    0.0214   -0.0028    0.0051   -0.0127   -0.0011
          31   -0.0255    0.3176    0.0298    0.0064    0.0126   -0.0051   -0.0659   -0.0017
          32   -0.2174   -0.0245    0.0038   -0.0184   -0.0030    0.0006   -0.0160    0.0002
          33    0.0550   -0.1266    0.0173   -0.2742   -0.0364   -0.0176    0.2898    0.0093
          34   -0.0106    0.0416    0.0008    0.0165   -0.0981    0.0205    0.0077   -0.1029
          35    0.0072    0.0048   -0.0247   -0.0027   -0.0417    0.2089   -0.0004    0.1247
          36    0.0038    0.0207    0.0722    0.0547   -0.3164   -0.0299   -0.0138    0.4394
          37   -0.0128    0.0441   -0.0596    0.0040   -0.0488   -0.0218    0.0038   -0.2465
          38    0.0198   -0.0538    0.0797    0.0072   -0.0094    0.0321    0.0144   -0.1758
          39    0.0008   -0.0141    0.0272    0.0293   -0.1779   -0.0067    0.0187   -0.2609
          40    0.0201   -0.0584   -0.0060   -0.0212    0.1544   -0.1375   -0.0110    0.0324
          41    0.0045   -0.0136    0.0159   -0.0062    0.0532   -0.0134    0.0049   -0.2324
          42   -0.0090   -0.0209   -0.0990   -0.0890    0.5225    0.0576   -0.0085   -0.0324
          43   -0.0041    0.0160   -0.0500    0.0027   -0.0390   -0.0320   -0.0115    0.3015
          44   -0.0225    0.0654   -0.0778   -0.0028   -0.0167   -0.0276   -0.0090   -0.0347
          45    0.0028   -0.0175    0.0265    0.0139   -0.0842    0.0152   -0.0065    0.3029
          46   -0.0075    0.0367   -0.0392    0.0139   -0.1224    0.0796    0.0053    0.0719
          47   -0.0097    0.0160    0.0057    0.0120   -0.0316   -0.2001   -0.0054    0.1166
          48    0.0057    0.0175    0.0951    0.0688   -0.3999   -0.0193    0.0217   -0.3996
          49   -0.0181    0.0281    0.0492   -0.0124    0.1615   -0.1143    0.0130   -0.0533
          50   -0.0032    0.0062   -0.0091   -0.0060    0.0442   -0.0355   -0.0049    0.2045
          51    0.0084    0.0020   -0.0604   -0.0769    0.4555    0.0455   -0.0184   -0.0410
          52   -0.0158    0.0636   -0.1561   -0.0137    0.0025   -0.0557   -0.0289    0.1232
          53    0.0339   -0.1039    0.1700    0.0091    0.0230    0.0938    0.0237    0.0939
          54    0.0016   -0.0055    0.0184   -0.0086    0.0703    0.0084   -0.0010    0.0553
          55    0.0323   -0.0739    0.0550    0.0199   -0.0502   -0.3816   -0.0221   -0.0316
          56    0.0074   -0.0168   -0.0024    0.0048   -0.0206   -0.0871   -0.0090    0.1331
          57   -0.0084    0.0423    0.0274    0.0318   -0.2096    0.1128    0.0113    0.0098
          58   -0.0003    0.0129   -0.0324   -0.0040   -0.0011    0.0015   -0.0046   -0.1682
          59   -0.0370    0.1189   -0.2061   -0.0122   -0.0222   -0.1138   -0.0343    0.0050
          60    0.0044   -0.0137    0.0296   -0.0044    0.0434    0.0114    0.0083   -0.0624
          61   -0.0560   -0.1252    0.0208   -0.1360   -0.0270    0.0053   -0.1344   -0.0038
          62    0.3102   -0.1660    0.0077   -0.2050   -0.0386    0.0025   -0.1213   -0.0041
          63    0.1752    0.0025    0.0315   -0.2549   -0.0448    0.0041   -0.2038   -0.0070
          64   -0.1527   -0.1221    0.0090   -0.0832   -0.0171    0.0034   -0.0634   -0.0016
          65    0.1659    0.2280    0.0151   -0.1993   -0.0158   -0.0252    0.3000    0.0106
          66   -0.2599   -0.0052   -0.0027    0.0925    0.0080    0.0128   -0.1872   -0.0074
          67   -0.0006    0.0092   -0.0298   -0.0163    0.0169    0.3865    0.0149   -0.0504
          68   -0.0039   -0.0202    0.0836    0.0126    0.0415   -0.4188   -0.0111   -0.0980
          69   -0.0006   -0.0081   -0.0264   -0.0176    0.1097   -0.0578   -0.0099    0.1419
          70   -0.0019    0.0019   -0.0189   -0.0080    0.0141    0.1573    0.0037    0.0868
          71    0.0043    0.0242   -0.0695   -0.0193   -0.0141    0.5443    0.0201   -0.0715
          72   -0.0001   -0.0148   -0.0066   -0.0101    0.0844   -0.1027    0.0002   -0.1495
          73    0.0084    0.0588   -0.0081   -0.0022    0.0100    0.0140   -0.0235   -0.0113
          74   -0.0063    0.0011   -0.1210   -0.0084   -0.0238   -0.0214    0.0078   -0.0020
          75    0.0030   -0.0897    0.1967    0.0228    0.0322    0.0219    0.0148    0.0006
          76   -0.0061   -0.1481   -0.2226   -0.0067   -0.0684    0.0219    0.0374    0.0268
          77   -0.0038   -0.0213   -0.1957   -0.0084   -0.0421   -0.0061    0.0076   -0.0894
          78   -0.0065   -0.0487   -0.0183    0.0121   -0.0972   -0.0203    0.0120    0.0087
          79    0.0066   -0.0660    0.6071    0.0421    0.0980    0.0593    0.0395    0.0169
          80    0.0166    0.0931    0.3701    0.0138    0.0594    0.0511   -0.0343    0.0197
          81    0.0235    0.2219    0.0068   -0.0087   -0.0012    0.0164   -0.1052   -0.0012


   Root No.      49        50        51        52        53        54        55        56

                49 A      50 A      51 A      52 A      53 A      54 A      55 A      56 A   

                   3.3       4.0       4.6       4.8       5.1       6.0       6.5       6.8
  
           1   -0.0013   -0.0056    0.0016    0.0000    0.0071   -0.0004   -0.1760    0.0050
           2    0.0005    0.0150   -0.0036   -0.0002   -0.0240    0.0009    0.2799   -0.0842
           3   -0.0014    0.0076   -0.0027    0.0004    0.0050   -0.0004   -0.1432    0.0972
           4   -0.0025   -0.0108    0.0205    0.0005   -0.1265    0.0007    0.3633   -0.0221
           5   -0.0011   -0.0061    0.0043   -0.0002   -0.0102   -0.0003   -0.0658    0.0018
           6   -0.0003   -0.0042    0.0034    0.0002    0.0019    0.0001    0.0252   -0.0013
           7    0.0016   -0.2640    0.1312    0.0006   -0.1488   -0.0003    0.0604    0.0734
           8    0.0002   -0.0986    0.1261    0.0003   -0.3202   -0.0000   -0.0437    0.0554
           9   -0.0032    0.7405   -0.1855    0.0001   -0.1977    0.0016    0.0266   -0.1207
          10    0.0003    0.0450    0.0547    0.0002   -0.2472    0.0008    0.0822   -0.0100
          11   -0.0025    0.0573   -0.1306   -0.0006    0.3456   -0.0009    0.0568    0.0053
          12    0.0018   -0.2260    0.0693    0.0014   -0.0105   -0.0002    0.0428    0.0324
          13   -0.0013    0.1203   -0.1581   -0.0003    0.3901   -0.0006    0.0018   -0.0059
          14   -0.0003    0.0204   -0.0064   -0.0002   -0.0446    0.0001   -0.1037   -0.0156
          15    0.0022   -0.2212    0.0142    0.0008    0.1653   -0.0009   -0.0249    0.0345
          16   -0.0017    0.0441   -0.0464   -0.0001    0.1277   -0.0003    0.1080    0.0363
          17    0.0016    0.0534   -0.0593   -0.0005    0.1897   -0.0005    0.1550    0.0444
          18    0.0008    0.0269   -0.0348   -0.0003    0.1256   -0.0003    0.0974    0.0286
          19   -0.0011    0.0299    0.0051    0.0009   -0.1915    0.0012   -0.3510   -0.1604
          20    0.0016   -0.0504    0.0885    0.0002   -0.3021    0.0015    0.2309   -0.0938
          21    0.0059   -0.2112    0.1752   -0.0009    0.0154   -0.0027   -0.1211    0.2755
          22   -0.0050   -0.0554   -0.0153    0.0030    0.0294    0.0019    0.0207   -0.1056
          23   -0.0030    0.0091    0.0217    0.0002   -0.0058   -0.0004   -0.0151    0.0870
          24   -0.0112    0.1078    0.1247   -0.0006   -0.0420   -0.0037   -0.0099    0.3659
          25   -0.0003    0.0128   -0.0060   -0.0004    0.0404   -0.0003   -0.0591    0.0317
          26    0.0000   -0.0174    0.0134   -0.0008    0.0593   -0.0008   -0.0978    0.0661
          27   -0.0019   -0.0062    0.0021    0.0013   -0.1907    0.0016    0.2656   -0.1653
          28    0.0011    0.0093   -0.0047    0.0002   -0.0212    0.0006   -0.3478   -0.1474
          29    0.0004    0.0036    0.0010   -0.0001   -0.0095    0.0003    0.0485   -0.0019
          30    0.0003    0.0130   -0.0053    0.0002   -0.0028   -0.0004   -0.0156    0.0576
          31    0.0018   -0.0228    0.0139   -0.0008    0.1041   -0.0011    0.1626    0.1218
          32    0.0004   -0.0013    0.0029   -0.0003   -0.0074   -0.0001    0.0025    0.0000
          33   -0.0017   -0.0006    0.0072    0.0012   -0.1639    0.0013   -0.2326   -0.1583
          34   -0.3517    0.0486    0.2134    0.0966    0.0702    0.0999    0.0040   -0.0811
          35    0.0711   -0.0246   -0.0927    0.0362   -0.0246   -0.2155    0.0006   -0.0332
          36   -0.2596   -0.0129   -0.0620    0.3430   -0.0211   -0.0112   -0.0014    0.0299
          37   -0.0999    0.0047    0.0983   -0.1260    0.0429   -0.0469    0.0043   -0.0974
          38   -0.1397    0.0267    0.0718   -0.0521    0.0200   -0.2309    0.0028   -0.0710
          39    0.3576    0.0021   -0.0201   -0.4160   -0.0121    0.0424   -0.0014    0.0356
          40    0.0594   -0.0121    0.0017    0.1361    0.0119    0.0637    0.0037   -0.1104
          41   -0.2634   -0.0044    0.0018    0.0446    0.0020   -0.2989    0.0012   -0.0261
          42    0.0316   -0.0021   -0.0071    0.4695   -0.0034    0.0157   -0.0012    0.0335
          43    0.1489    0.0188    0.1177   -0.1179    0.0479    0.1426    0.0050   -0.1208
          44   -0.1202   -0.0243   -0.0289   -0.0535   -0.0032   -0.1961   -0.0003    0.0212
          45   -0.3539   -0.0008   -0.0296   -0.4349   -0.0149   -0.0196   -0.0014    0.0356
          46    0.2784    0.0376    0.1614    0.1061    0.0569   -0.0025    0.0046   -0.0948
          47    0.2070    0.0427    0.1636    0.0470    0.0488   -0.2364    0.0015   -0.0079
          48    0.1852   -0.0146   -0.0683    0.3331   -0.0219    0.0291   -0.0014    0.0277
          49   -0.0413    0.1346    0.4199   -0.0740    0.1079    0.0561    0.0006    0.0306
          50    0.2579    0.0292    0.0854   -0.0200    0.0218   -0.2634    0.0005    0.0022
          51    0.0278   -0.0503   -0.1323   -0.2756   -0.0310    0.0136   -0.0001   -0.0148
          52    0.0989   -0.1066   -0.2823    0.0138   -0.0712   -0.2233   -0.0018    0.0267
          53    0.0731    0.1043    0.2574    0.0188    0.0623    0.3120    0.0010   -0.0143
          54   -0.1259    0.0171    0.0506    0.0716    0.0126    0.0297    0.0003   -0.0058
          55   -0.0406   -0.0906   -0.2990   -0.0242   -0.0932   -0.0157   -0.0078    0.1866
          56    0.1583   -0.0171   -0.0589   -0.0057   -0.0184    0.0631   -0.0016    0.0365
          57   -0.0141    0.0294    0.0934   -0.0886    0.0285   -0.0028    0.0024   -0.0570
          58   -0.1390   -0.0558   -0.1549    0.0154   -0.0398    0.0767   -0.0015    0.0226
          59    0.0419   -0.1360   -0.3470    0.0071   -0.0851    0.3710   -0.0029    0.0352
          60    0.1371    0.0320    0.0859    0.0784    0.0226   -0.0653    0.0009   -0.0115
          61   -0.0007    0.0129   -0.0124    0.0001    0.0463   -0.0001   -0.0408    0.0053
          62   -0.0002    0.0725   -0.0737   -0.0006    0.2177   -0.0009   -0.1886    0.0342
          63    0.0000    0.0273   -0.0302   -0.0002    0.1199   -0.0003   -0.0955    0.0149
          64   -0.0003    0.0047   -0.0088    0.0001    0.0318    0.0001    0.1866    0.0223
          65   -0.0001   -0.0156    0.0270    0.0002   -0.1075   -0.0000   -0.2644   -0.0338
          66    0.0020   -0.0014   -0.0087    0.0001    0.0595   -0.0001    0.1629    0.0205
          67   -0.1097   -0.0074   -0.0796   -0.0153   -0.0318   -0.2462   -0.0030    0.0751
          68   -0.1588    0.0043    0.0480   -0.0128    0.0190    0.2960    0.0018   -0.0485
          69   -0.0416    0.0011    0.0173   -0.0492    0.0076    0.0366    0.0008   -0.0163
          70    0.1758   -0.0040   -0.0481   -0.0127   -0.0194    0.1026   -0.0022    0.0482
          71   -0.0460   -0.0077   -0.0736   -0.0087   -0.0278    0.3709   -0.0033    0.0780
          72    0.0598    0.0010    0.0240   -0.0524    0.0086   -0.0678    0.0009   -0.0227
          73   -0.0133   -0.0658   -0.0682   -0.0047    0.0141    0.0084    0.0034   -0.2068
          74   -0.0028    0.0292    0.0735    0.0045    0.0058   -0.0043   -0.0008    0.1752
          75    0.0032   -0.0039   -0.0638   -0.0033   -0.0172    0.0040   -0.0030   -0.1128
          76    0.0217    0.0982    0.0383    0.0079   -0.0289   -0.0103   -0.0029    0.0688
          77   -0.1065    0.0121    0.0285    0.0035    0.0050    0.0345    0.0005   -0.0001
          78   -0.0045    0.0021    0.0100    0.0194    0.0012   -0.0008    0.0001   -0.0012
          79    0.0219    0.0793   -0.0941   -0.0051   -0.1093   -0.0076   -0.0174    0.4085
          80    0.0306   -0.0765   -0.1404   -0.0067   -0.0066   -0.0011    0.0046   -0.2122
          81    0.0042   -0.2525   -0.0268    0.0014    0.1552    0.0007    0.0265   -0.4014


   Root No.      57        58        59        60        61        62        63        64

                57 A      58 A      59 A      60 A      61 A      62 A      63 A      64 A   

                   7.7       8.3       8.3       8.8       9.0       9.0       9.0       9.4
  
           1   -0.0045   -0.0100   -0.0002    0.3141   -0.3958   -0.1175   -0.0751    0.5543
           2    0.0599    0.1488   -0.0044   -0.0408   -0.4374    0.0907    0.4728    0.0066
           3   -0.0742   -0.1937    0.0055   -0.4703   -0.2632    0.4859   -0.0794    0.0707
           4    0.0089    0.0165   -0.0001   -0.2123    0.2479    0.0768    0.0595   -0.3301
           5   -0.0036   -0.0099    0.0004    0.0044    0.0210   -0.0030   -0.0286    0.0004
           6    0.0035    0.0111   -0.0004    0.0219    0.0101   -0.0234    0.0080   -0.0023
           7   -0.0312   -0.0602    0.0016   -0.0002    0.0034   -0.0153   -0.0838   -0.0074
           8   -0.0447   -0.1037    0.0031    0.0049    0.0206    0.0007   -0.1700   -0.0012
           9    0.0105   -0.0127    0.0004    0.0038   -0.0009    0.0563   -0.0851    0.0183
          10   -0.0184   -0.0655    0.0020    0.0004   -0.0121   -0.0012   -0.2147    0.0053
          11    0.0102    0.0282   -0.0006   -0.0059   -0.0046   -0.0107    0.0587   -0.0055
          12   -0.0112   -0.0271    0.0009    0.0018   -0.0052   -0.0130   -0.0646   -0.0045
          13    0.0205    0.0590   -0.0019   -0.0045   -0.0293   -0.0084    0.1527   -0.0060
          14   -0.0098   -0.0412    0.0012    0.0108    0.0466    0.0008   -0.1626    0.0037
          15   -0.0012    0.0071   -0.0000   -0.0038   -0.0019   -0.0123    0.0358   -0.0073
          16   -0.0129   -0.0270    0.0011   -0.0270   -0.0944   -0.0735   -0.1171   -0.0413
          17   -0.0115   -0.0208    0.0013   -0.0657   -0.2355   -0.1866   -0.2113   -0.1551
          18   -0.0054   -0.0064    0.0008   -0.0712   -0.1340   -0.1365   -0.1296   -0.0712
          19    0.0399    0.0449   -0.0011    0.0172    0.0029    0.0549   -0.0481   -0.0002
          20    0.0349    0.0591   -0.0014   -0.0044   -0.0062    0.0032    0.0091   -0.0037
          21   -0.0606   -0.0417    0.0006   -0.0073    0.0007   -0.1678    0.1947   -0.0265
          22    0.0272   -0.0247    0.0005    0.0091    0.0004    0.0367   -0.0379    0.0040
[...]

 VIBRATION         42   42A           ATOM PAIR      ENERGY CONTRIBUTION    RADIAL
 FREQUENCY          1152.41         C 15 -- H 20         +20.1% ( 54.8%)      4.4%
 TRANSITION DIPOLE   0.2346         C 13 -- H 18         +19.6% ( 54.2%)     14.3%
 TRAVEL (Ang.)       0.4545         C 12 -- H 24         +13.6% ( 45.1%)      0.0%
 REDUCED MASS        0.2832         C 13 -- C 14         +11.0% ( 40.6%)    100.0%
 EFFECTIVE MASS      3.9783
 FORCE CONSTANT      0.2216

 VIBRATION         43   43A           ATOM PAIR      ENERGY CONTRIBUTION    RADIAL
 FREQUENCY          1177.99         C 14 -- H 19         +38.6% ( 80.3%)      0.4%
 TRANSITION DIPOLE   0.1182         C 15 -- H 20         +10.2% ( 41.2%)      4.1%
 TRAVEL (Ang.)       0.3382         C 15 -- C 16          +9.7% ( 40.1%)     97.4%
 REDUCED MASS        0.5003         C 12 -- C 13          +8.0% ( 36.4%)     95.2%
 EFFECTIVE MASS      3.7330
 FORCE CONSTANT      0.4091

 VIBRATION         44   44A           ATOM PAIR      ENERGY CONTRIBUTION    RADIAL
 FREQUENCY          1224.19         C 14 -- C 15         +11.2% ( 45.9%)     99.5%
 TRANSITION DIPOLE   0.1888         C 13 -- C 14         +11.2% ( 45.8%)     99.4%
 TRAVEL (Ang.)       0.2557         C 12 -- C 13         +10.9% ( 45.3%)     94.9%
 REDUCED MASS        0.8424         C 15 -- C 16          +9.5% ( 42.1%)     94.9%
 EFFECTIVE MASS      8.5682
 FORCE CONSTANT      0.7438

 VIBRATION         45   45A           ATOM PAIR      ENERGY CONTRIBUTION    RADIAL
 FREQUENCY          1251.20         C 12 -- H 24         +19.6% ( 55.0%)     27.6%
 TRANSITION DIPOLE   0.8111         C 16 -- H 23         +19.1% ( 54.3%)     26.5%
 TRAVEL (Ang.)       0.3310         C 12 -- N 17          +9.8% ( 38.8%)     93.8%
 REDUCED MASS        0.4919         C 16 -- N 17          +9.3% ( 37.8%)     92.5%
 EFFECTIVE MASS      5.7024
 FORCE CONSTANT      0.4537

 VIBRATION         46   46A           ATOM PAIR      ENERGY CONTRIBUTION    RADIAL
 FREQUENCY          1260.40         C 10 -- H 11         +44.4% ( 60.3%)      0.0%
 TRANSITION DIPOLE   0.3825         C 10 -- H 22         +20.2% ( 40.6%)     10.4%
 TRAVEL (Ang.)       0.3802         H  6 -- C 10         +18.1% ( 38.5%)     10.4%
 REDUCED MASS        0.3702         C  7 -- C 10          +6.6% ( 23.2%)      4.7%
 EFFECTIVE MASS      1.8424
 FORCE CONSTANT      0.3465

 VIBRATION         47   47A           ATOM PAIR      ENERGY CONTRIBUTION    RADIAL
 FREQUENCY          1263.26         C  1 -- H  9         +44.4% ( 60.8%)      0.1%
 TRANSITION DIPOLE   0.6778         C  1 -- H 21         +21.0% ( 41.8%)      8.4%
 TRAVEL (Ang.)       0.3778         C  1 -- H  2         +15.7% ( 36.1%)     13.3%
 REDUCED MASS        0.3739         C  1 -- C  7          +6.6% ( 23.4%)      0.6%
 EFFECTIVE MASS      1.9541
 FORCE CONSTANT      0.3516

 VIBRATION         48   48A           ATOM PAIR      ENERGY CONTRIBUTION    RADIAL
 FREQUENCY          1277.09         C  1 -- H 21         +31.1% ( 47.4%)      1.1%
 TRANSITION DIPOLE   0.3614         C  1 -- H  2         +28.2% ( 45.1%)      1.3%
 TRAVEL (Ang.)       0.4766         C  1 -- H  9         +11.6% ( 29.0%)     23.0%
 REDUCED MASS        0.2324         H  6 -- C 10         +10.9% ( 28.1%)      0.5%
 EFFECTIVE MASS      1.4054
 FORCE CONSTANT      0.2233

 VIBRATION         49   49A           ATOM PAIR      ENERGY CONTRIBUTION    RADIAL
 FREQUENCY          1284.12         H  6 -- C 10         +26.6% ( 44.2%)      0.3%
 TRANSITION DIPOLE   0.7932         C 10 -- H 22         +24.5% ( 42.4%)      0.5%
 TRAVEL (Ang.)       0.5102         C 10 -- H 11         +17.3% ( 35.6%)     11.5%
 REDUCED MASS        0.2017         C  1 -- H 21          +8.8% ( 25.4%)      0.9%
 EFFECTIVE MASS      1.4058
 FORCE CONSTANT      0.1960

 VIBRATION         50   50A           ATOM PAIR      ENERGY CONTRIBUTION    RADIAL
 FREQUENCY          1287.85         C 16 -- H 23         +12.4% ( 43.7%)      1.3%
 TRANSITION DIPOLE   0.5372         C 12 -- H 24         +11.5% ( 42.1%)      0.1%
 TRAVEL (Ang.)       0.4482         H 26 -- O 27         +11.3% ( 41.7%)      8.2%
 REDUCED MASS        0.2607         N 17 -- H 26         +10.7% ( 40.7%)      0.0%
 EFFECTIVE MASS      3.4009
 FORCE CONSTANT      0.2548

 VIBRATION         51   51A           ATOM PAIR      ENERGY CONTRIBUTION    RADIAL
 FREQUENCY          1309.49         C  7 -- C 10         +22.9% ( 79.2%)     88.5%
 TRANSITION DIPOLE   0.9001         C  1 -- C  7         +21.8% ( 77.3%)     80.4%
 TRAVEL (Ang.)       0.1165         N  3 -- C  7         +13.6% ( 61.1%)      0.3%
 REDUCED MASS        3.7933         C  7 -- H  8         +13.6% ( 61.0%)      0.3%
 EFFECTIVE MASS     10.5124
 FORCE CONSTANT      3.8324

 VIBRATION         52   52A           ATOM PAIR      ENERGY CONTRIBUTION    RADIAL
 FREQUENCY          1330.19         C  1 -- C  7         +19.3% ( 66.4%)     52.9%
 TRANSITION DIPOLE   1.4514         C  7 -- C 10         +17.5% ( 63.3%)     34.9%
 TRAVEL (Ang.)       0.1348         C  7 -- H  8         +14.5% ( 57.7%)      1.0%
 REDUCED MASS        2.7895         N  3 -- C  7         +12.8% ( 54.2%)     92.1%
 EFFECTIVE MASS     11.0520
 FORCE CONSTANT      2.9081

 VIBRATION         53   53A           ATOM PAIR      ENERGY CONTRIBUTION    RADIAL
 FREQUENCY          1335.38         H 26 -- O 27         +27.7% ( 63.1%)      4.3%
 TRANSITION DIPOLE   0.7020         N 17 -- H 26         +27.6% ( 63.0%)      0.7%
 TRAVEL (Ang.)       0.4303         C 15 -- H 20          +7.1% ( 32.0%)      0.3%
 REDUCED MASS        0.2728         C 14 -- H 19          +6.9% ( 31.5%)      0.2%
 EFFECTIVE MASS      1.9604
 FORCE CONSTANT      0.2866

 VIBRATION         54   54A           ATOM PAIR      ENERGY CONTRIBUTION    RADIAL
 FREQUENCY          1364.78         C 12 -- C 13         +11.4% ( 48.7%)     99.3%
 TRANSITION DIPOLE   0.9919         C 15 -- C 16         +11.3% ( 48.6%)     99.7%
 TRAVEL (Ang.)       0.2247         C 16 -- N 17         +11.2% ( 48.3%)     99.0%
 REDUCED MASS        0.9782         C 12 -- N 17         +11.0% ( 47.8%)     99.4%
 EFFECTIVE MASS      7.8210
 FORCE CONSTANT      1.0735

 VIBRATION         55   55A           ATOM PAIR      ENERGY CONTRIBUTION    RADIAL
 FREQUENCY          1386.72         H  6 -- C 10         +19.4% ( 45.2%)      0.6%
 TRANSITION DIPOLE   0.6149         C 10 -- H 22         +15.5% ( 40.4%)      1.8%
 TRAVEL (Ang.)       0.4650         C 10 -- H 11         +13.0% ( 36.9%)      0.9%
 REDUCED MASS        0.2248         C  1 -- H 21         +10.2% ( 32.7%)      0.3%
 EFFECTIVE MASS      3.2461
 FORCE CONSTANT      0.2547

 VIBRATION         56   56A           ATOM PAIR      ENERGY CONTRIBUTION    RADIAL
 FREQUENCY          1388.34         C  1 -- H  2         +17.7% ( 42.6%)      0.0%
 TRANSITION DIPOLE   1.1573         C  1 -- H  9         +11.9% ( 35.0%)      0.3%
 TRAVEL (Ang.)       0.3362         C  1 -- H 21         +11.4% ( 34.3%)      0.9%
 REDUCED MASS        0.4296         N  3 -- C  7         +10.5% ( 32.8%)      0.5%
 EFFECTIVE MASS      2.4869         C  7 -- H  8         +10.0% ( 32.1%)      0.0%
 FORCE CONSTANT      0.4879

 VIBRATION         57   57A           ATOM PAIR      ENERGY CONTRIBUTION    RADIAL
 FREQUENCY          1446.88         N  3 -- C  7         +22.1% ( 67.2%)     85.6%
 TRANSITION DIPOLE   6.9103         N  3 -- O  5         +16.7% ( 58.3%)     57.7%
 TRAVEL (Ang.)       0.1538         N  3 -- O  4         +15.7% ( 56.7%)     53.1%
 REDUCED MASS        1.9696         C  7 -- H  8         +12.0% ( 49.5%)      5.5%
 EFFECTIVE MASS     10.0268
 FORCE CONSTANT      2.4294

 VIBRATION         58   58A           ATOM PAIR      ENERGY CONTRIBUTION    RADIAL
 FREQUENCY          1505.81         C 12 -- N 17         +11.0% ( 45.7%)     42.7%
 TRANSITION DIPOLE   1.3001         C 14 -- C 15         +11.0% ( 45.7%)     33.5%
 TRAVEL (Ang.)       0.1819         C 13 -- C 14         +10.8% ( 45.2%)     21.5%
 REDUCED MASS        1.3539         C 16 -- N 17         +10.7% ( 45.1%)     26.9%
 EFFECTIVE MASS      9.5124         C 14 -- H 19         +10.3% ( 44.2%)      0.1%
 FORCE CONSTANT      1.8087

 VIBRATION         59   59A           ATOM PAIR      ENERGY CONTRIBUTION    RADIAL
 FREQUENCY          1528.01         C 13 -- C 14         +13.2% ( 49.6%)     80.9%
 TRANSITION DIPOLE   1.1494         C 14 -- C 15         +12.0% ( 47.3%)     62.9%
 TRAVEL (Ang.)       0.1810         C 15 -- C 16         +10.5% ( 44.3%)      1.2%
 REDUCED MASS        1.3472         C 12 -- C 13         +10.1% ( 43.4%)      0.1%
 EFFECTIVE MASS      9.6939         C 16 -- N 17         +10.1% ( 43.4%)     80.5%
 FORCE CONSTANT      1.8533

 VIBRATION         60   60A           ATOM PAIR      ENERGY CONTRIBUTION    RADIAL
 FREQUENCY          1555.62         N  3 -- O  4         +36.3% ( 85.8%)     88.2%
 TRANSITION DIPOLE  10.3248         N  3 -- O  5         +35.3% ( 84.6%)     86.7%
 TRAVEL (Ang.)       0.0796         N  3 -- C  7         +21.5% ( 66.1%)      0.1%
 REDUCED MASS        6.8378         O  4 -- O  5          +6.6% ( 36.7%)      0.1%
 EFFECTIVE MASS     14.5887
 FORCE CONSTANT      9.7493

 VIBRATION         61   61A           ATOM PAIR      ENERGY CONTRIBUTION    RADIAL
 FREQUENCY          1658.54         C 12 -- C 13         +17.8% ( 59.3%)     99.9%
 TRANSITION DIPOLE   1.6877         C 15 -- C 16         +17.2% ( 58.2%)     99.5%
 TRAVEL (Ang.)       0.1287         C 16 -- N 17         +10.7% ( 46.0%)     54.5%
 REDUCED MASS        2.4563         C 12 -- N 17          +9.4% ( 43.0%)     39.4%
 EFFECTIVE MASS     11.9922
 FORCE CONSTANT      3.9810

 VIBRATION         62   62A           ATOM PAIR      ENERGY CONTRIBUTION    RADIAL
 FREQUENCY          1670.08         C 14 -- C 15         +18.2% ( 60.1%)     90.7%
 TRANSITION DIPOLE   1.8041         C 13 -- C 14         +16.5% ( 57.1%)     83.5%
 TRAVEL (Ang.)       0.1237         C 12 -- N 17         +13.0% ( 50.8%)     90.7%
 REDUCED MASS        2.6372         C 16 -- N 17         +12.0% ( 48.7%)     84.6%
 EFFECTIVE MASS     12.4080
 FORCE CONSTANT      4.3337

 VIBRATION         63   63A           ATOM PAIR      ENERGY CONTRIBUTION    RADIAL
 FREQUENCY          1745.13         H  8 -- O 27         +32.1% ( 68.6%)     98.8%
 TRANSITION DIPOLE   4.6356         C  7 -- H  8         +29.8% ( 66.1%)     98.5%
 TRAVEL (Ang.)       0.1707         N  3 -- C  7         +10.8% ( 39.9%)     99.6%
 REDUCED MASS        1.3268         N  3 -- O  5          +8.9% ( 36.2%)     49.2%
 EFFECTIVE MASS      5.9858
 FORCE CONSTANT      2.3808

 VIBRATION         64   64A           ATOM PAIR      ENERGY CONTRIBUTION    RADIAL
 FREQUENCY          2657.66         H  6 -- C 10         +32.8% ( 59.1%)     98.0%
 TRANSITION DIPOLE   0.2150         C 10 -- H 11         +32.4% ( 58.7%)     98.0%
 TRAVEL (Ang.)       0.3029         C  1 -- H  9         +20.1% ( 46.2%)     99.0%
 REDUCED MASS        0.2766         C  1 -- H 21         +12.3% ( 36.2%)     96.0%
 EFFECTIVE MASS      1.4392
 FORCE CONSTANT      1.1509

 VIBRATION         65   65A           ATOM PAIR      ENERGY CONTRIBUTION    RADIAL
 FREQUENCY          2658.48         C  1 -- H  9         +43.5% ( 68.0%)     99.4%
 TRANSITION DIPOLE   1.1119         C  1 -- H 21         +18.3% ( 44.1%)     93.3%
 TRAVEL (Ang.)       0.2982         H  6 -- C 10         +17.2% ( 42.7%)     98.3%
 REDUCED MASS        0.2852         C 10 -- H 11         +15.5% ( 40.5%)     97.6%
 EFFECTIVE MASS      1.4408
 FORCE CONSTANT      1.1877

 VIBRATION         66   66A           ATOM PAIR      ENERGY CONTRIBUTION    RADIAL
 FREQUENCY          2663.08         C  1 -- H  2         +56.5% ( 77.6%)     99.2%
 TRANSITION DIPOLE   0.7829         C  1 -- H 21         +34.4% ( 60.6%)     95.4%
 TRAVEL (Ang.)       0.2360         C  1 -- H  9          +4.7% ( 22.5%)     57.5%
 REDUCED MASS        0.4545         C 10 -- H 22          +1.7% ( 13.7%)     98.3%
 EFFECTIVE MASS      1.4438
 FORCE CONSTANT      1.8992

 VIBRATION         67   67A           ATOM PAIR      ENERGY CONTRIBUTION    RADIAL
 FREQUENCY          2668.28         C 10 -- H 22         +58.9% ( 79.1%)     99.5%
 TRANSITION DIPOLE   0.7117         H  6 -- C 10         +19.0% ( 44.9%)     88.3%
 TRAVEL (Ang.)       0.2422         C 10 -- H 11         +18.2% ( 44.1%)     87.7%
 REDUCED MASS        0.4307         C  1 -- H  2          +2.0% ( 14.5%)     99.6%
 EFFECTIVE MASS      1.4500
 FORCE CONSTANT      1.8066

 VIBRATION         68   68A           ATOM PAIR      ENERGY CONTRIBUTION    RADIAL
 FREQUENCY          2685.44         C 12 -- H 24         +85.7% ( 93.6%)    100.0%
 TRANSITION DIPOLE   1.5123         C 16 -- H 23          +9.3% ( 30.9%)    100.0%
 TRAVEL (Ang.)       0.1862         C 13 -- H 18          +2.6% ( 16.4%)     98.8%
 REDUCED MASS        0.7242         C 12 -- C 13          +1.0% ( 10.0%)     18.4%
 EFFECTIVE MASS      1.3800
 FORCE CONSTANT      3.0772

 VIBRATION         69   69A           ATOM PAIR      ENERGY CONTRIBUTION    RADIAL
 FREQUENCY          2691.80         C 16 -- H 23         +85.1% ( 93.4%)    100.0%
 TRANSITION DIPOLE   1.5643         C 12 -- H 24          +7.6% ( 27.9%)    100.0%
 TRAVEL (Ang.)       0.1871         C 15 -- H 20          +2.7% ( 16.7%)     99.8%
 REDUCED MASS        0.7155         C 13 -- H 18          +1.9% ( 14.1%)     99.8%
 EFFECTIVE MASS      1.4086
 FORCE CONSTANT      3.0545

 VIBRATION         70   70A           ATOM PAIR      ENERGY CONTRIBUTION    RADIAL
 FREQUENCY          2716.78         C 14 -- H 19         +57.9% ( 77.0%)    100.0%
 TRANSITION DIPOLE   0.7804         C 15 -- H 20         +36.1% ( 60.8%)     99.9%
 TRAVEL (Ang.)       0.2341         C 13 -- H 18          +3.0% ( 17.5%)     99.3%
 REDUCED MASS        0.4529         C 14 -- C 15          +0.9% (  9.6%)      0.3%
 EFFECTIVE MASS      1.3741
 FORCE CONSTANT      1.9694

 VIBRATION         71   71A           ATOM PAIR      ENERGY CONTRIBUTION    RADIAL
 FREQUENCY          2722.57         C 13 -- H 18         +46.9% ( 69.2%)    100.0%
 TRANSITION DIPOLE   1.8348         C 15 -- H 20         +38.8% ( 62.9%)    100.0%
 TRAVEL (Ang.)       0.2582         C 14 -- H 19         +11.3% ( 34.0%)     99.6%
 REDUCED MASS        0.3716         C 12 -- H 24          +0.6% (  7.9%)     96.5%
 EFFECTIVE MASS      1.3731
 FORCE CONSTANT      1.6229

 VIBRATION         72   72A           ATOM PAIR      ENERGY CONTRIBUTION    RADIAL
 FREQUENCY          2732.23         H 25 -- O 27         +98.7% ( 98.2%)     99.9%
 TRANSITION DIPOLE   1.4611         H  8 -- O 27          +0.5% (  6.7%)      4.5%
 TRAVEL (Ang.)       0.1647         H 26 -- O 27          +0.4% (  5.9%)      2.8%
 REDUCED MASS        0.9097         C  7 -- H  8          +0.2% (  4.6%)     94.9%
 EFFECTIVE MASS      1.3263
 FORCE CONSTANT      4.0012

 VIBRATION         73   73A           ATOM PAIR      ENERGY CONTRIBUTION    RADIAL
 FREQUENCY          2737.41         C 13 -- H 18         +43.5% ( 66.5%)    100.0%
 TRANSITION DIPOLE   1.1418         C 14 -- H 19         +28.3% ( 53.6%)    100.0%
 TRAVEL (Ang.)       0.2845         C 15 -- H 20         +19.9% ( 45.0%)    100.0%
 REDUCED MASS        0.3042         C 12 -- H 24          +3.3% ( 18.3%)     99.4%
 EFFECTIVE MASS      1.4548
 FORCE CONSTANT      1.3432

 VIBRATION         74   74A           ATOM PAIR      ENERGY CONTRIBUTION    RADIAL
 FREQUENCY          2777.73         C  1 -- H  2         +20.2% ( 43.1%)     96.1%
 TRANSITION DIPOLE   0.5209         C  1 -- H 21         +18.6% ( 41.3%)     95.8%
 TRAVEL (Ang.)       0.3815         C 10 -- H 22         +17.4% ( 40.0%)     96.6%
 REDUCED MASS        0.1668         C  1 -- H  9         +17.0% ( 39.5%)     95.2%
 EFFECTIVE MASS      1.1334         C 10 -- H 11         +13.7% ( 35.4%)     95.4%
 FORCE CONSTANT      0.7581         H  6 -- C 10         +12.8% ( 34.3%)     95.0%

 VIBRATION         75   75A           ATOM PAIR      ENERGY CONTRIBUTION    RADIAL
 FREQUENCY          2778.92         C 10 -- H 22         +21.2% ( 44.1%)     96.4%
 TRANSITION DIPOLE   0.5344         C 10 -- H 11         +17.7% ( 40.4%)     95.0%
 TRAVEL (Ang.)       0.3819         H  6 -- C 10         +16.9% ( 39.4%)     94.7%
 REDUCED MASS        0.1664         C  1 -- H  2         +15.4% ( 37.6%)     95.9%
 EFFECTIVE MASS      1.1397         C  1 -- H 21         +14.9% ( 37.0%)     95.4%
 FORCE CONSTANT      0.7570         C  1 -- H  9         +13.5% ( 35.2%)     94.7%

      SYMMETRY NUMBER FOR POINT-GROUP C1  =  1


          SYSTEM IS A GROUND STATE



 Title: ASE calculation


          MOLECULE IS NOT LINEAR

          THERE ARE 75 GENUINE VIBRATIONS IN THIS SYSTEM
          THIS THERMODYNAMICS CALCULATION IS LIMITED TO
          MOLECULES WHICH HAVE NO INTERNAL ROTATIONS




                    CALCULATED THERMODYNAMIC PROPERTIES
                                          *
   TEMP. (K)   PARTITION FUNCTION   H.O.F.    ENTHALPY  HEAT CAPACITY ENTROPY
                                   KCAL/MOL   CAL/MOLE    CAL/K/MOL  CAL/K/MOL


 298.00  VIB.     0.3572D+07                  7982.5713    48.8757    56.7713
         ROT.     0.2503D+07                   888.2803     2.9808    32.2583
         INT.     0.8941D+13                  8870.8516    51.8565    89.0296
         TRA.     0.2477D+28                  1480.4672     4.9680    41.5850
         TOT.                      -61.446   10351.3188    56.8246   130.6147

   *: NOTE: HEATS OF FORMATION ARE RELATIVE TO THE
            ELEMENTS IN THEIR STANDARD STATE AT 298K
              (=  Standard Enthalpy of Formation).

            Hvib:  Zero-point energy is not included.
                   frequencies of less than zero cm-1 are not included.
            Hrot = (3/2)RT
            Htra = (3/2)RT + pV = (5/2)RT

            Heat capacity is Cp, not Cv

          For more information, see: HTTP://OpenMOPAC.net/Manual/thermochemistry.html


           FORCE CONSTANT IN CARTESIAN COORDINATES (Millidynes/A)

    ATOM   CHEMICAL       X               Y               Z
   NUMBER   SYMBOL  FORCE CONSTANT  FORCE CONSTANT  FORCE CONSTANT

      1       C        6.480183        7.004325        6.005374
      2       H        4.086147        0.747415        0.547119
      3       N       12.108274       12.387244        4.404576
      4       O        9.564117        1.638623        1.564781
      5       O        3.667733        8.615910        0.546523
      6       H        1.210878        2.771025        1.390825
      7       C        8.765684        9.645501        2.711568
      8       H        0.751557        0.589439        2.243888
      9       H        0.861964        0.857807        3.614300
     10       C        7.153899        6.421282        5.990166
     11       H        1.451966        0.517498        3.363215
     12       C       10.257665        9.976987        3.104250
     13       C        9.764368       10.334422        2.894412
     14       C        9.261443       11.176997        2.937650
     15       C       10.160708        9.820196        3.034869
     16       C        9.958537       10.424133        3.025818
     17       N        8.272903       11.961042        2.009261
     18       H        2.155934        2.764505        0.421306
     19       H        3.732311        0.958753        0.670939
     20       H        1.064473        3.799808        0.496550
     21       H        0.879545        2.834029        1.664842
     22       H        1.206624        2.834741        1.366249
     23       H        2.289041        2.577031        0.422553
     24       H        1.165292        3.602444        0.499352
     25       H        1.776865        1.591130        1.466058
     26       H        0.234770        0.849982        0.553521
     27       O        3.719680        2.207172        5.096363

 **********************
 *                    *
 * JOB ENDED NORMALLY *
 *                    *
 **********************



 TOTAL JOB TIME:            14.77 SECONDS

 == MOPAC DONE ==
