 *******************************************************************************
 **                                                                           **
 **                              MOPAC v22.0.6                                **
 **                                                                           **
 *******************************************************************************
 **          Digital Object Identifier (DOI): 10.5281/zenodo.6511958          **
 **    Visit the DOI location for information on how to cite this program.    **
 *******************************************************************************

                              PM7 CALCULATION RESULTS

 *******************************************************************************
 *  CALCULATION DONE:                                Mon Mar 25 23:11:48 2024  *
 *  PM7        - The PM7 Hamiltonian to be used
 *  SINGLET    - SPIN STATE DEFINED AS A SINGLET
 *
 *
 *
 *                 CHARGE ON SYSTEM = -1
 *
 *
 *
 *  EPS=78.4   - USE ANDREAS KLAMT'S COSMO IMPLICIT SOLVATION MODEL
 *  T=         - A TIME OF 14.0 DAYS REQUESTED
 *  DUMP=N     - RESTART FILE WRITTEN EVERY 30.0 MINUTES REQUESTED
 *  RELSCF     - DEFAULT SCF CRITERION MULTIPLIED BY 1.0000
 *              (DEFAULT SCF CRITERION = 0.00010)
 *  ITRY=      - DO A MAXIMUM OF 15000 ITERATIONS FOR SCF
 *  AUX        - OUTPUT AUXILIARY INFORMATION
 *  BONDS      - FINAL BOND-ORDER MATRIX TO BE PRINTED
 *******************************************************************************
PM7 BONDS AUX DUMP=30M ITRY=15000 T=14D CHARGE=-1 SINGLET eps=78.4 RELSCF=1
 Title: ASE calculation

   ATOM   CHEMICAL          X               Y               Z
  NUMBER   SYMBOL      (ANGSTROMS)     (ANGSTROMS)     (ANGSTROMS)

     1       C         -0.80163000  *   1.17051000  *   0.01907000  *
     2       C          0.54035000  *   1.16033000  *   0.37713000  *
     3       C          1.29307000  *  -0.01788000  *   0.28723000  *
     4       C          0.68731000  *  -1.19598000  *  -0.15115000  *
     5       C         -0.65869000  *  -1.20598000  *  -0.50678000  *
     6       C         -1.39351000  *  -0.01991000  *  -0.42119000  *
     7       H         -1.38705000  *   2.09519000  *   0.08186000  *
     8       H          1.00541000  *   2.08900000  *   0.72489000  *
     9       H          1.25280000  *  -2.12993000  *  -0.22492000  *
    10       C          2.74452000  *   0.03205000  *   0.69523000  *
    11       H          2.82647000  *   0.51968000  *   1.73239000  *
    12       C          3.44606000  *  -1.31770000  *   0.75773000  *
    13       H          4.49308000  *  -1.22253000  *   1.08750000  *
    14       H          3.46042000  *  -1.84483000  *  -0.20655000  *
    15       H          2.94865000  *  -1.98081000  *   1.48567000  *
    16       N          3.51499000  *   0.91132000  *  -0.24424000  *
    17       O          4.68449000  *   1.14756000  *   0.01828000  *
    18       O          2.96521000  *   1.37036000  *  -1.23099000  *
    19       O          2.54270000  *   1.26596000  *   5.95487000  *
    20       H          2.20381000  *   0.59550000  *   6.48792000  *
    21       H         -1.13127000  *  -2.13339000  *  -0.84833000  *
    22       N         -2.78709000  *  -0.02162000  *  -0.79634000  *
    23       O         -3.32580000  *  -1.08020000  *  -1.09529000  *
    24       O         -3.40525000  *   1.03586000  *  -0.80857000  *
    25       H          1.60852000  *   0.09085000  *   3.54568000  *
    26       H          2.52788000  *   0.74038000  *   4.75983000  *
    27       O          2.51578000  *   0.26073000  *   3.71071000  *



          CARTESIAN COORDINATES 

    NO.       ATOM           X           Y           Z

     1         C         -0.8016      1.1705      0.0191
     2         C          0.5403      1.1603      0.3771
     3         C          1.2931     -0.0179      0.2872
     4         C          0.6873     -1.1960     -0.1512
     5         C         -0.6587     -1.2060     -0.5068
     6         C         -1.3935     -0.0199     -0.4212
     7         H         -1.3871      2.0952      0.0819
     8         H          1.0054      2.0890      0.7249
     9         H          1.2528     -2.1299     -0.2249
    10         C          2.7445      0.0321      0.6952
    11         H          2.8265      0.5197      1.7324
    12         C          3.4461     -1.3177      0.7577
    13         H          4.4931     -1.2225      1.0875
    14         H          3.4604     -1.8448     -0.2066
    15         H          2.9487     -1.9808      1.4857
    16         N          3.5150      0.9113     -0.2442
    17         O          4.6845      1.1476      0.0183
    18         O          2.9652      1.3704     -1.2310
    19         O          2.5427      1.2660      5.9549
    20         H          2.2038      0.5955      6.4879
    21         H         -1.1313     -2.1334     -0.8483
    22         N         -2.7871     -0.0216     -0.7963
    23         O         -3.3258     -1.0802     -1.0953
    24         O         -3.4053      1.0359     -0.8086
    25         H          1.6085      0.0908      3.5457
    26         H          2.5279      0.7404      4.7598
    27         O          2.5158      0.2607      3.7107

 General Reference for PM7:
 "Optimization of Parameters for Semiempirical Methods VI: More Modifications to the 
 NDDO Approximations and Re-optimization of Parameters", J. J. P. Stewart, J. Mol. Mod., 1:32, 19 (2013)
 https://link.springer.com/article/10.1007/s00894-012-1667-x

           Empirical Formula: C8 H11 N2 O6  =    27 atoms



      MOLECULAR POINT GROUP   :   C1  


 SINGLET STATE CALCULATION


      RHF CALCULATION, NO. OF DOUBLY OCCUPIED LEVELS = 45


          Geometry optimization using EF
  SCF CRITERION =    0.1000E-03

          DIAGONAL MATRIX USED AS START HESSIAN

 CYCLE:     1 TIME:   0.086 TIME LEFT:  2.00W  GRAD.:     3.142 HEAT: -222.2786

     TRUST RADIUS NOW LESS THAN  0.00010 OPTIMIZATION TERMINATING
      THE GEOMETRY MAY NOT BE COMPLETELY OPTIMIZED
      (TO CONTINUE, ADD 'LET DDMIN=0.0' TO THE KEYWORD LINE)

 -------------------------------------------------------------------------------
 PM7 BONDS AUX DUMP=30M ITRY=15000 T=14D CHARGE=-1 SINGLET eps=78.4 RELSCF=1
 Title: ASE calculation



     GEOMETRY OPTIMISED USING EIGENVECTOR FOLLOWING (EF).     
     SCF FIELD WAS ACHIEVED                                   


                              PM7 CALCULATION
                                                       MOPAC v22.0.6 Linux
                                                       Mon Mar 25 23:11:48 2024




          FINAL HEAT OF FORMATION =       -222.27862 KCAL/MOL =    -930.01375 KJ/MOL
          VAN DER WAALS AREA      =        256.85 SQUARE ANGSTROMS



          DIELECTRIC ENERGY       =         -3.70748 EV
          COSMO AREA              =        256.85 SQUARE ANGSTROMS
          COSMO VOLUME            =        264.93 CUBIC ANGSTROMS

          GRADIENT NORM           =          3.14189          =       0.60466 PER ATOM
          IONIZATION POTENTIAL    =         10.529233 EV
          HOMO LUMO ENERGIES (EV) =        -10.529 -1.575
          NO. OF FILLED LEVELS    =         45
          MOLECULAR WEIGHT        =        231.1847         POINT GROUP:  C1  

          MOLECULAR DIMENSIONS (Angstroms)

            Atom       Atom       Distance
            O    23    H    20     9.53361
            O    24    H    14     6.33708
            H    21    O    18     4.54972


          SCF CALCULATIONS        =         10

          WALL-CLOCK TIME         =      0.625 SECONDS
          COMPUTATION TIME        =     43.925 SECONDS



       FINAL  POINT  AND  DERIVATIVES

   PARAMETER     ATOM    TYPE            VALUE        GRADIENT
      1          1  C    CARTESIAN X    -0.801630     -0.043871  KCAL/ANGSTROM
      2          1  C    CARTESIAN Y     1.170510      0.311843  KCAL/ANGSTROM
      3          1  C    CARTESIAN Z     0.019070     -0.124183  KCAL/ANGSTROM
      4          2  C    CARTESIAN X     0.540350     -0.295174  KCAL/ANGSTROM
      5          2  C    CARTESIAN Y     1.160330     -0.169310  KCAL/ANGSTROM
      6          2  C    CARTESIAN Z     0.377130     -0.333303  KCAL/ANGSTROM
      7          3  C    CARTESIAN X     1.293070      0.358112  KCAL/ANGSTROM
      8          3  C    CARTESIAN Y    -0.017880     -0.280322  KCAL/ANGSTROM
      9          3  C    CARTESIAN Z     0.287230      0.344083  KCAL/ANGSTROM
     10          4  C    CARTESIAN X     0.687310     -0.326300  KCAL/ANGSTROM
     11          4  C    CARTESIAN Y    -1.195980      0.133443  KCAL/ANGSTROM
     12          4  C    CARTESIAN Z    -0.151150     -0.014379  KCAL/ANGSTROM
     13          5  C    CARTESIAN X    -0.658690     -0.076485  KCAL/ANGSTROM
     14          5  C    CARTESIAN Y    -1.205980     -0.096573  KCAL/ANGSTROM
     15          5  C    CARTESIAN Z    -0.506780     -0.413715  KCAL/ANGSTROM
     16          6  C    CARTESIAN X    -1.393510      0.008778  KCAL/ANGSTROM
     17          6  C    CARTESIAN Y    -0.019910     -0.326205  KCAL/ANGSTROM
     18          6  C    CARTESIAN Z    -0.421190      0.236391  KCAL/ANGSTROM
     19          7  H    CARTESIAN X    -1.387050      0.045229  KCAL/ANGSTROM
     20          7  H    CARTESIAN Y     2.095190     -0.113669  KCAL/ANGSTROM
     21          7  H    CARTESIAN Z     0.081860     -0.127135  KCAL/ANGSTROM
     22          8  H    CARTESIAN X     1.005410     -0.202314  KCAL/ANGSTROM
     23          8  H    CARTESIAN Y     2.089000      0.117175  KCAL/ANGSTROM
     24          8  H    CARTESIAN Z     0.724890     -0.015833  KCAL/ANGSTROM
     25          9  H    CARTESIAN X     1.252800     -0.411595  KCAL/ANGSTROM
     26          9  H    CARTESIAN Y    -2.129930     -0.235527  KCAL/ANGSTROM
     27          9  H    CARTESIAN Z    -0.224920      0.021776  KCAL/ANGSTROM
     28         10  C    CARTESIAN X     2.744520      0.125094  KCAL/ANGSTROM
     29         10  C    CARTESIAN Y     0.032050     -0.096480  KCAL/ANGSTROM
     30         10  C    CARTESIAN Z     0.695230      0.284266  KCAL/ANGSTROM
     31         11  H    CARTESIAN X     2.826470      0.698043  KCAL/ANGSTROM
     32         11  H    CARTESIAN Y     0.519680     -0.173773  KCAL/ANGSTROM
     33         11  H    CARTESIAN Z     1.732390     -0.310920  KCAL/ANGSTROM
     34         12  C    CARTESIAN X     3.446060      0.103990  KCAL/ANGSTROM
     35         12  C    CARTESIAN Y    -1.317700      0.548611  KCAL/ANGSTROM
     36         12  C    CARTESIAN Z     0.757730      0.192472  KCAL/ANGSTROM
     37         13  H    CARTESIAN X     4.493080      0.185099  KCAL/ANGSTROM
     38         13  H    CARTESIAN Y    -1.222530      0.245996  KCAL/ANGSTROM
     39         13  H    CARTESIAN Z     1.087500      0.028626  KCAL/ANGSTROM
     40         14  H    CARTESIAN X     3.460420     -0.074569  KCAL/ANGSTROM
     41         14  H    CARTESIAN Y    -1.844830     -0.155334  KCAL/ANGSTROM
     42         14  H    CARTESIAN Z    -0.206550     -0.131114  KCAL/ANGSTROM
     43         15  H    CARTESIAN X     2.948650     -0.343176  KCAL/ANGSTROM
     44         15  H    CARTESIAN Y    -1.980810      0.027004  KCAL/ANGSTROM
     45         15  H    CARTESIAN Z     1.485670      0.156987  KCAL/ANGSTROM
     46         16  N    CARTESIAN X     3.514990      0.101867  KCAL/ANGSTROM
     47         16  N    CARTESIAN Y     0.911320      0.197751  KCAL/ANGSTROM
     48         16  N    CARTESIAN Z    -0.244240      0.131087  KCAL/ANGSTROM
     49         17  O    CARTESIAN X     4.684490      0.064374  KCAL/ANGSTROM
     50         17  O    CARTESIAN Y     1.147560     -0.006061  KCAL/ANGSTROM
     51         17  O    CARTESIAN Z     0.018280      0.118750  KCAL/ANGSTROM
     52         18  O    CARTESIAN X     2.965210     -0.069891  KCAL/ANGSTROM
     53         18  O    CARTESIAN Y     1.370360      0.340587  KCAL/ANGSTROM
     54         18  O    CARTESIAN Z    -1.230990      0.267881  KCAL/ANGSTROM
     55         19  O    CARTESIAN X     2.542700      0.183311  KCAL/ANGSTROM
     56         19  O    CARTESIAN Y     1.265960      0.189635  KCAL/ANGSTROM
     57         19  O    CARTESIAN Z     5.954870      0.268144  KCAL/ANGSTROM
     58         20  H    CARTESIAN X     2.203810      0.121838  KCAL/ANGSTROM
     59         20  H    CARTESIAN Y     0.595500     -0.116850  KCAL/ANGSTROM
     60         20  H    CARTESIAN Z     6.487920      0.476978  KCAL/ANGSTROM
     61         21  H    CARTESIAN X    -1.131270     -0.123340  KCAL/ANGSTROM
     62         21  H    CARTESIAN Y    -2.133390      0.090479  KCAL/ANGSTROM
     63         21  H    CARTESIAN Z    -0.848330      0.163409  KCAL/ANGSTROM
     64         22  N    CARTESIAN X    -2.787090     -0.095365  KCAL/ANGSTROM
     65         22  N    CARTESIAN Y    -0.021620     -0.132979  KCAL/ANGSTROM
     66         22  N    CARTESIAN Z    -0.796340     -0.243407  KCAL/ANGSTROM
     67         23  O    CARTESIAN X    -3.325800     -0.258475  KCAL/ANGSTROM
     68         23  O    CARTESIAN Y    -1.080200     -0.111427  KCAL/ANGSTROM
     69         23  O    CARTESIAN Z    -1.095290     -0.089745  KCAL/ANGSTROM
     70         24  O    CARTESIAN X    -3.405250     -0.290021  KCAL/ANGSTROM
     71         24  O    CARTESIAN Y     1.035860      0.262096  KCAL/ANGSTROM
     72         24  O    CARTESIAN Z    -0.808570     -0.090123  KCAL/ANGSTROM
     73         25  H    CARTESIAN X     1.608520     -1.165185  KCAL/ANGSTROM
     74         25  H    CARTESIAN Y     0.090850      0.173777  KCAL/ANGSTROM
     75         25  H    CARTESIAN Z     3.545680     -0.507327  KCAL/ANGSTROM
     76         26  H    CARTESIAN X     2.527880     -0.068218  KCAL/ANGSTROM
     77         26  H    CARTESIAN Y     0.740380      0.278785  KCAL/ANGSTROM
     78         26  H    CARTESIAN Z     4.759830     -0.203123  KCAL/ANGSTROM
     79         27  O    CARTESIAN X     2.515780      1.848535  KCAL/ANGSTROM
     80         27  O    CARTESIAN Y     0.260730     -0.901906  KCAL/ANGSTROM
     81         27  O    CARTESIAN Z     3.710710     -0.083872  KCAL/ANGSTROM




   ATOM   CHEMICAL          X               Y               Z
  NUMBER   SYMBOL      (ANGSTROMS)     (ANGSTROMS)     (ANGSTROMS)

     1       C         -0.80163000  *   1.17051000  *   0.01907000  *
     2       C          0.54035000  *   1.16033000  *   0.37713000  *
     3       C          1.29307000  *  -0.01788000  *   0.28723000  *
     4       C          0.68731000  *  -1.19598000  *  -0.15115000  *
     5       C         -0.65869000  *  -1.20598000  *  -0.50678000  *
     6       C         -1.39351000  *  -0.01991000  *  -0.42119000  *
     7       H         -1.38705000  *   2.09519000  *   0.08186000  *
     8       H          1.00541000  *   2.08900000  *   0.72489000  *
     9       H          1.25280000  *  -2.12993000  *  -0.22492000  *
    10       C          2.74452000  *   0.03205000  *   0.69523000  *
    11       H          2.82647000  *   0.51968000  *   1.73239000  *
    12       C          3.44606000  *  -1.31770000  *   0.75773000  *
    13       H          4.49308000  *  -1.22253000  *   1.08750000  *
    14       H          3.46042000  *  -1.84483000  *  -0.20655000  *
    15       H          2.94865000  *  -1.98081000  *   1.48567000  *
    16       N          3.51499000  *   0.91132000  *  -0.24424000  *
    17       O          4.68449000  *   1.14756000  *   0.01828000  *
    18       O          2.96521000  *   1.37036000  *  -1.23099000  *
    19       O          2.54270000  *   1.26596000  *   5.95487000  *
    20       H          2.20381000  *   0.59550000  *   6.48792000  *
    21       H         -1.13127000  *  -2.13339000  *  -0.84833000  *
    22       N         -2.78709000  *  -0.02162000  *  -0.79634000  *
    23       O         -3.32580000  *  -1.08020000  *  -1.09529000  *
    24       O         -3.40525000  *   1.03586000  *  -0.80857000  *
    25       H          1.60852000  *   0.09085000  *   3.54568000  *
    26       H          2.52788000  *   0.74038000  *   4.75983000  *
    27       O          2.51578000  *   0.26073000  *   3.71071000  *

                             CARTESIAN COORDINATES

   1    C       -0.801630000     1.170510000     0.019070000
   2    C        0.540350000     1.160330000     0.377130000
   3    C        1.293070000    -0.017880000     0.287230000
   4    C        0.687310000    -1.195980000    -0.151150000
   5    C       -0.658690000    -1.205980000    -0.506780000
   6    C       -1.393510000    -0.019910000    -0.421190000
   7    H       -1.387050000     2.095190000     0.081860000
   8    H        1.005410000     2.089000000     0.724890000
   9    H        1.252800000    -2.129930000    -0.224920000
  10    C        2.744520000     0.032050000     0.695230000
  11    H        2.826470000     0.519680000     1.732390000
  12    C        3.446060000    -1.317700000     0.757730000
  13    H        4.493080000    -1.222530000     1.087500000
  14    H        3.460420000    -1.844830000    -0.206550000
  15    H        2.948650000    -1.980810000     1.485670000
  16    N        3.514990000     0.911320000    -0.244240000
  17    O        4.684490000     1.147560000     0.018280000
  18    O        2.965210000     1.370360000    -1.230990000
  19    O        2.542700000     1.265960000     5.954870000
  20    H        2.203810000     0.595500000     6.487920000
  21    H       -1.131270000    -2.133390000    -0.848330000
  22    N       -2.787090000    -0.021620000    -0.796340000
  23    O       -3.325800000    -1.080200000    -1.095290000
  24    O       -3.405250000     1.035860000    -0.808570000
  25    H        1.608520000     0.090850000     3.545680000
  26    H        2.527880000     0.740380000     4.759830000
  27    O        2.515780000     0.260730000     3.710710000


           Empirical Formula: C8 H11 N2 O6  =    27 atoms



      MOLECULAR POINT GROUP   :   C1  


                  EIGENVALUES  
 -37.48158 -37.43523 -31.62129 -30.88584 -30.81319 -29.37515 -27.32685 -27.03814
 -26.77271 -25.42025 -25.11454 -24.60179 -22.30938 -21.64464 -20.54679 -19.41342
 -18.57782 -18.40489 -18.28004 -17.62328 -17.56682 -16.49322 -16.13489 -16.03643
 -15.52361 -15.01306 -14.38443 -14.28393 -14.02098 -13.88584 -13.59930 -13.40298
 -12.81538 -12.47415 -11.97877 -11.95247 -11.91484 -11.85163 -11.69763 -11.56757
 -11.26791 -11.00491 -10.69519 -10.57313 -10.52923  -1.57472  -0.46888  -0.44860
  -0.01111   0.47208   0.55857   1.80155   2.58233   3.05021   3.28263   3.62515
   3.80792   4.00834   4.05024   4.21887   4.30567   4.40283   4.64894   4.71000
   4.99467   5.30728   5.35997   5.39427   5.58633   5.60834   5.66661   5.72853
   6.56259   7.05198   7.94709


              NET ATOMIC CHARGES AND DIPOLE CONTRIBUTIONS

  ATOM NO.   TYPE          CHARGE      No. of ELECS.   s-Pop       p-Pop       
    1          C          -0.067525        4.0675     1.09402     2.97350
    2          C          -0.162183        4.1622     1.08797     3.07422
    3          C           0.031491        3.9685     1.07735     2.89116
    4          C          -0.159735        4.1597     1.08716     3.07258
    5          C          -0.072851        4.0729     1.09513     2.97772
    6          C          -0.079215        4.0792     1.07183     3.00738
    7          H           0.196520        0.8035     0.80348
    8          H           0.193511        0.8065     0.80649
    9          H           0.187855        0.8121     0.81215
   10          C          -0.064836        4.0648     1.09905     2.96579
   11          H           0.254308        0.7457     0.74569
   12          C          -0.469621        4.4696     1.05778     3.41185
   13          H           0.182334        0.8177     0.81767
   14          H           0.172179        0.8278     0.82782
   15          H           0.189852        0.8101     0.81015
   16          N           0.627558        4.3724     1.47764     2.89480
   17          O          -0.454346        6.4543     1.93987     4.51448
   18          O          -0.449459        6.4495     1.93943     4.51003
   19          O          -1.131855        7.1319     1.86372     5.26814
   20          H           0.341558        0.6584     0.65844
   21          H           0.190526        0.8095     0.80947
   22          N           0.670374        4.3296     1.44888     2.88074
   23          O          -0.463018        6.4630     1.94098     4.52204
   24          O          -0.460559        6.4606     1.94099     4.51957
   25          H           0.347694        0.6523     0.65231
   26          H           0.437158        0.5628     0.56284
   27          O          -0.987712        6.9877     1.84932     5.13839
 DIPOLE           X         Y         Z       TOTAL
 POINT-CHG.    -5.849    -7.636   -15.053    17.864
 HYBRID        -0.809    -0.041    -0.587     1.000
 SUM           -6.658    -7.677   -15.640    18.651


          ATOMIC ORBITAL ELECTRON POPULATIONS

     Atom    s        px        py        pz   
    1  C   1.09402   1.01250   1.03638   0.92462
    2  C   1.08797   0.99447   1.06325   1.01649
    3  C   1.07735   0.95515   0.98478   0.95122
    4  C   1.08716   1.00779   1.06985   0.99494
    5  C   1.09513   0.99885   1.04223   0.93664
    6  C   1.07183   0.85279   1.02961   1.12499
    7  H   0.80348
    8  H   0.80649
    9  H   0.81215
   10  C   1.09905   0.93715   0.98741   1.04123
   11  H   0.74569
   12  C   1.05778   1.16580   1.03313   1.21292
   13  H   0.81767
   14  H   0.82782
   15  H   0.81015
   16  N   1.47764   0.97313   0.94943   0.97225
   17  O   1.93987   1.06932   1.66441   1.78075
   18  O   1.93943   1.69594   1.57256   1.24153
   19  O   1.86372   1.92512   1.66035   1.68267
   20  H   0.65844
   21  H   0.80947
   22  N   1.44888   1.01315   0.95045   0.91715
   23  O   1.94098   1.74734   1.22247   1.55223
   24  O   1.94099   1.69297   1.22221   1.60439
   25  H   0.65231
   26  H   0.56284
   27  O   1.84932   1.47937   1.93228   1.72674

          BONDING CONTRIBUTION OF EACH M.O.

  1.3451  1.3165  1.8620  1.0114  0.9954  1.6949  1.3072  1.0713  1.8519  0.9744
  1.0177  1.4941  1.4287  1.7029  1.5778  1.6630  1.3615  1.3909  1.2764  1.5452
  1.5727  1.5651  1.6023  1.9352  1.9290  1.9684  1.7894  0.8821  1.8952  1.8095
  0.9662  1.5297  1.9018  1.9229  0.8757  0.8518  0.3338  0.2918  0.6518  0.7650
  0.0873  0.0012  1.1032  2.0564  1.1769 -2.1639 -2.3604 -1.9377 -2.1990 -2.1101
 -2.0924 -1.9885 -1.9686 -1.9622 -1.9593 -1.9495 -1.9843 -2.0130 -1.9957 -1.9985
 -1.9785 -1.9576 -1.9276 -1.9551 -1.9900 -1.9296 -1.9445 -1.9418 -1.9349 -1.8514
 -1.9431 -1.9439 -1.8873 -1.7627 -1.7215





            (VALENCIES)   BOND ORDERS

     1  C     (3.951)     2  C 1.470     6  C 1.372     7  H 0.947     4  C 0.102    23  O 0.018    24  O 0.011

     2  C     (3.962)     1  C 1.470     3  C 1.403     8  H 0.949     5  C 0.104

     3  C     (3.989)     4  C 1.425     2  C 1.403    10  C 0.998     6  C 0.107

     4  C     (3.964)     5  C 1.449     3  C 1.425     9  H 0.949     1  C 0.102

     5  C     (3.954)     4  C 1.449     6  C 1.390    21  H 0.949     2  C 0.104    24  O 0.019    23  O 0.012

     6  C     (3.931)     5  C 1.390     1  C 1.372    22  N 0.904     3  C 0.107    24  O 0.067    23  O 0.066

     7  H     (0.961)     1  C 0.947

     8  H     (0.963)     2  C 0.949

     9  H     (0.965)     4  C 0.949

    10  C     (3.889)     3  C 0.998    12  C 0.994    11  H 0.895    16  N 0.824    18  O 0.072    17  O 0.069

    11  H     (0.935)    10  C 0.895    27  O 0.010

    12  C     (3.895)    10  C 0.994    14  H 0.960    13  H 0.956    15  H 0.949    18  O 0.010

    13  H     (0.967)    12  C 0.956

    14  H     (0.970)    12  C 0.960

    15  H     (0.964)    12  C 0.949

    16  N     (3.744)    18  O 1.447    17  O 1.437    10  C 0.824

    17  O     (1.828)    16  N 1.437    18  O 0.298    10  C 0.069

    18  O     (1.839)    16  N 1.447    17  O 0.298    10  C 0.072    12  C 0.010

    19  O     (1.261)    20  H 0.880    26  H 0.300    27  O 0.077

    20  H     (0.883)    19  O 0.880

    21  H     (0.964)     5  C 0.949

    22  N     (3.780)    23  O 1.422    24  O 1.422     6  C 0.904

    23  O     (1.815)    22  N 1.422    24  O 0.286     6  C 0.066     1  C 0.018     5  C 0.012

    24  O     (1.815)    22  N 1.422    23  O 0.286     6  C 0.067     5  C 0.019     1  C 0.011

    25  H     (0.879)    27  O 0.874

    26  H     (0.809)    27  O 0.505    19  O 0.300

    27  O     (1.475)    25  H 0.874    26  H 0.505    19  O 0.077    11  H 0.010


 **********************
 *                    *
 * JOB ENDED NORMALLY *
 *                    *
 **********************



 TOTAL JOB TIME:             0.63 SECONDS

 == MOPAC DONE ==
