
                                 *****************
                                 * O   R   C   A *
                                 *****************

                                            #,                                       
                                            ###                                      
                                            ####                                     
                                            #####                                    
                                            ######                                   
                                           ########,                                 
                                     ,,################,,,,,                         
                               ,,#################################,,                 
                          ,,##########################################,,             
                       ,#########################################, ''#####,          
                    ,#############################################,,   '####,        
                  ,##################################################,,,,####,       
                ,###########''''           ''''###############################       
              ,#####''   ,,,,##########,,,,          '''####'''          '####       
            ,##' ,,,,###########################,,,                        '##       
           ' ,,###''''                  '''############,,,                           
         ,,##''                                '''############,,,,        ,,,,,,###''
      ,#''                                            '''#######################'''  
     '                                                          ''''####''''         
             ,#######,   #######,   ,#######,      ##                                
            ,#'     '#,  ##    ##  ,#'     '#,    #''#        ######   ,####,        
            ##       ##  ##   ,#'  ##            #'  '#       #        #'  '#        
            ##       ##  #######   ##           ,######,      #####,   #    #        
            '#,     ,#'  ##    ##  '#,     ,#' ,#      #,         ##   #,  ,#        
             '#######'   ##     ##  '#######'  #'      '#     #####' # '####'        



                  #######################################################
                  #                        -***-                        #
                  #          Department of theory and spectroscopy      #
                  #    Directorship and core code : Frank Neese         #
                  #        Max Planck Institute fuer Kohlenforschung    #
                  #                Kaiser Wilhelm Platz 1               #
                  #                 D-45470 Muelheim/Ruhr               #
                  #                      Germany                        #
                  #                                                     #
                  #                  All rights reserved                #
                  #                        -***-                        #
                  #######################################################


                         Program Version 5.0.4 -  RELEASE  -


 With contributions from (in alphabetic order):
   Daniel Aravena         : Magnetic Suceptibility
   Michael Atanasov       : Ab Initio Ligand Field Theory (pilot matlab implementation)
   Alexander A. Auer      : GIAO ZORA, VPT2 properties, NMR spectrum
   Ute Becker             : Parallelization
   Giovanni Bistoni       : ED, misc. LED, open-shell LED, HFLD
   Martin Brehm           : Molecular dynamics
   Dmytro Bykov           : SCF Hessian
   Vijay G. Chilkuri      : MRCI spin determinant printing, contributions to CSF-ICE
   Dipayan Datta          : RHF DLPNO-CCSD density
   Achintya Kumar Dutta   : EOM-CC, STEOM-CC
   Dmitry Ganyushin       : Spin-Orbit,Spin-Spin,Magnetic field MRCI
   Miquel Garcia          : C-PCM and meta-GGA Hessian, CC/C-PCM, Gaussian charge scheme
   Yang Guo               : DLPNO-NEVPT2, F12-NEVPT2, CIM, IAO-localization
   Andreas Hansen         : Spin unrestricted coupled pair/coupled cluster methods
   Benjamin Helmich-Paris : MC-RPA, TRAH-SCF, COSX integrals
   Lee Huntington         : MR-EOM, pCC
   Robert Izsak           : Overlap fitted RIJCOSX, COSX-SCS-MP3, EOM
   Marcus Kettner         : VPT2
   Christian Kollmar      : KDIIS, OOCD, Brueckner-CCSD(T), CCSD density, CASPT2, CASPT2-K
   Simone Kossmann        : Meta GGA functionals, TD-DFT gradient, OOMP2, MP2 Hessian
   Martin Krupicka        : Initial AUTO-CI
   Lucas Lang             : DCDCAS
   Marvin Lechner         : AUTO-CI (C++ implementation), FIC-MRCC
   Dagmar Lenk            : GEPOL surface, SMD
   Dimitrios Liakos       : Extrapolation schemes; Compound Job, initial MDCI parallelization
   Dimitrios Manganas     : Further ROCIS development; embedding schemes
   Dimitrios Pantazis     : SARC Basis sets
   Anastasios Papadopoulos: AUTO-CI, single reference methods and gradients
   Taras Petrenko         : DFT Hessian,TD-DFT gradient, ASA, ECA, R-Raman, ABS, FL, XAS/XES, NRVS
   Peter Pinski           : DLPNO-MP2, DLPNO-MP2 Gradient
   Christoph Reimann      : Effective Core Potentials
   Marius Retegan         : Local ZFS, SOC
   Christoph Riplinger    : Optimizer, TS searches, QM/MM, DLPNO-CCSD(T), (RO)-DLPNO pert. Triples
   Tobias Risthaus        : Range-separated hybrids, TD-DFT gradient, RPA, STAB
   Michael Roemelt        : Original ROCIS implementation
   Masaaki Saitow         : Open-shell DLPNO-CCSD energy and density
   Barbara Sandhoefer     : DKH picture change effects
   Avijit Sen             : IP-ROCIS
   Kantharuban Sivalingam : CASSCF convergence, NEVPT2, FIC-MRCI
   Bernardo de Souza      : ESD, SOC TD-DFT
   Georgi Stoychev        : AutoAux, RI-MP2 NMR, DLPNO-MP2 response
   Willem Van den Heuvel  : Paramagnetic NMR
   Boris Wezisla          : Elementary symmetry handling
   Frank Wennmohs         : Technical directorship


 We gratefully acknowledge several colleagues who have allowed us to
 interface, adapt or use parts of their codes:
   Stefan Grimme, W. Hujo, H. Kruse, P. Pracht,  : VdW corrections, initial TS optimization,
                  C. Bannwarth, S. Ehlert          DFT functionals, gCP, sTDA/sTD-DF
   Ed Valeev, F. Pavosevic, A. Kumar             : LibInt (2-el integral package), F12 methods
   Garnet Chan, S. Sharma, J. Yang, R. Olivares  : DMRG
   Ulf Ekstrom                                   : XCFun DFT Library
   Mihaly Kallay                                 : mrcc  (arbitrary order and MRCC methods)
   Jiri Pittner, Ondrej Demel                    : Mk-CCSD
   Frank Weinhold                                : gennbo (NPA and NBO analysis)
   Christopher J. Cramer and Donald G. Truhlar   : smd solvation model
   Lars Goerigk                                  : TD-DFT with DH, B97 family of functionals
   V. Asgeirsson, H. Jonsson                     : NEB implementation
   FAccTs GmbH                                   : IRC, NEB, NEB-TS, DLPNO-Multilevel, CI-OPT
                                                   MM, QMMM, 2- and 3-layer-ONIOM, Crystal-QMMM,
                                                   LR-CPCM, SF, NACMEs, symmetry and pop. for TD-DFT,
                                                   nearIR, NL-DFT gradient (VV10), updates on ESD,
                                                   ML-optimized integration grids
   S Lehtola, MJT Oliveira, MAL Marques          : LibXC Library
   Liviu Ungur et al                             : ANISO software


 Your calculation uses the libint2 library for the computation of 2-el integrals
 For citations please refer to: http://libint.valeyev.net

 Your ORCA version has been built with support for libXC version: 5.1.0
 For citations please refer to: https://tddft.org/programs/libxc/

 This ORCA versions uses:
   CBLAS   interface :  Fast vector & matrix operations
   LAPACKE interface :  Fast linear algebra routines
   SCALAPACK package :  Parallel linear algebra routines
   Shared memory     :  Shared parallel matrices
   BLAS/LAPACK       :  OpenBLAS 0.3.15  USE64BITINT DYNAMIC_ARCH NO_AFFINITY Prescott SINGLE_THREADED
        Core in use  :  Prescott
   Copyright (c) 2011-2014, The OpenBLAS Project




***************************************
The coordinates will be read from file: start.xyz
***************************************


Your calculation utilizes the atom-pairwise dispersion correction
with the Becke-Johnson damping scheme (D3BJ)
Cite in your paper:
S.Grimme, S.Ehrlich, L.Goerigk, J Comput Chem, (2011), 32, 1456–1465 
S.Grimme, J.Antony, S.Ehrlich and H.Krieg, J.Chem.Phys., 132, (2010), 154104 
   

Your calculation utilizes a Nudged-Elastic-Band implementation
 by V.Asgeirsson, C. Riplinger & H. Jonsson
Please cite in your paper:
 V. Asgeirsson et al., in prep. (2019)
   

================================================================================

----- Orbital basis set information -----
Your calculation utilizes the basis: def2-TZVP
   F. Weigend and R. Ahlrichs, Phys. Chem. Chem. Phys. 7, 3297 (2005).

----- AuxJ basis set information -----
Your calculation utilizes the auxiliary basis: def2/J
   F. Weigend, Phys. Chem. Chem. Phys. 8, 1057 (2006).

================================================================================
                                        WARNINGS
                       Please study these warnings very carefully!
================================================================================


WARNING: Geometry Optimization
  ===> : Switching off AutoStart
         For restart on a previous wavefunction, please use MOREAD

INFO   : the flag for use of the SHARK integral package has been found!

================================================================================
                                       INPUT FILE
================================================================================
NAME = neb.inp
|  1> ! NEB-TS b3lyp D3 def2-TZVP CPCM
|  2> 
|  3> %pal
|  4> nprocs 102
|  5> end
|  6> 
|  7> %cpcm
|  8> epsilon 78.4
|  9> end
| 10> 
| 11> %neb
| 12> NEB_End_XYZFile "end.xyz"
| 13> Nimages 6
| 14> end
| 15> 
| 16> 
| 17> *XYZfile -1 1 start.xyz
| 18> 
| 19>                          ****END OF INPUT****
================================================================================


--------------------------------------------------------------------------------
                        Nudged Elastic Band Calculation
--------------------------------------------------------------------------------

Number of images (incl. end points)     ....  8
Number of intermediate images           ....  6
Number of optimized images              ....  6
Optimization of end points before NEB   ....  NO
Use existing gbw files for MO input     ....  NO
Number of atoms                         ....  23
Number of (active) degrees of freedom   ....  69
Constrained atoms                       ....  None

-----------------------------------------
  REACTANT (ANGSTROEM)
-----------------------------------------
C      1.746649    -1.125242     0.328251 
H      2.794290    -0.853776     0.416802 
N      1.411480    -1.757760     1.671841 
O      2.299005    -1.836686     2.506938 
O      0.268956    -2.153937     1.850814 
C      5.407983    -1.587643     0.688351 
O      5.754886    -1.079426     1.778662 
O      5.063780    -0.941121    -0.349557 
C      5.352703    -3.109642     0.583533 
H      5.596575    -3.444836    -0.424784 
H      4.332063    -3.437488     0.801871 
H      6.020756    -3.582511     1.303017 
C      0.876847     0.107925     0.146078 
H      1.022334     0.812779     0.965709 
H     -0.175971    -0.162633     0.082785 
H      1.166442     0.597870    -0.783762 
C      1.564823    -2.173344    -0.757471 
H      0.521010    -2.471944    -0.846335 
H      2.177694    -3.052255    -0.559307 
H      1.886423    -1.736940    -1.703646 
H      4.728970     0.689543    -0.109357 
O      4.505666     1.658802    -0.045932 
H      4.518236     1.854806     0.898620 

-----------------------------------------
  PRODUCT (ANGSTROEM)
-----------------------------------------
C      1.384961    -1.059436     0.004178 
H      3.322866    -0.425907    -0.351171 
N      1.904907    -1.796191     0.978544 
O      2.229344    -3.033389     0.773926 
O      2.108738    -1.296560     2.156064 
C      5.997389    -2.857963     0.514236 
O      5.761079    -1.655329     1.036942 
O      5.639736    -3.178777    -0.602833 
C      6.728158    -3.765318     1.462287 
H      7.045925    -4.667617     0.946644 
H      6.056779    -4.032659     2.281667 
H      7.587027    -3.251739     1.895098 
C      0.883564     0.312135     0.340583 
H      1.644004     0.922161     0.833979 
H      0.023948     0.275286     1.021853 
H      0.569137     0.825898    -0.568128 
C      1.078444    -1.724098    -1.302282 
H      0.311608    -2.501697    -1.197271 
H      1.958414    -2.214357    -1.726560 
H      0.717500    -0.986294    -2.018987 
H      5.218239    -1.097237     0.408491 
O      4.231627    -0.099006    -0.526788 
H      4.243768     0.802172    -0.177212 



----------------------
NEB settings
----------------------
Method type                             ....  climbing image
Threshold for climbing image            ....  2.00e-02 Eh/Bohr 
Free endpoints                          ....  off 
Tangent type                            ....  improved 
Number of intermediate images           ....  6 
Number of images free to move           ....  6 
Spring type for image distribution      ....  distance between adjacent images 
Spring constant                         ....  energy weighted (0.0100 -to- 0.1000) Eh/Bohr^2 
Spring force perp. to the path          ....  none 
Generation of initial path              ....  image dependent pair potential 
Initial path via TS guess               ....  off 

Minimization of RMSD: Rotation          ....  always 
Minimization of RMSD: Translation type  ....  centroid 
Center fixed to origin                  ....  true 
Remove external force                   ....  true 

Reparametrization of the path           ....  off 
Convergence thresholds:
Convergence monitored for               ....  all images
Scaling factor                          ....  10.00

Convergence parameters for regular images:
               Max(|Fp|)                ....  2.00e-02 Eh/Bohr
               RMS(Fp)                  ....  1.00e-02 Eh/Bohr

Convergence parameters for climbing image:
               Max(|F|)                 ....  2.00e-03 Eh/Bohr
               RMS(F)                   ....  1.00e-03 Eh/Bohr
Optimization method:
Method                                  ....  L-BFGS
Max. iterations                         ....  500 
Step size                               ....  1.00 
Maximum allowed step size               ....  0.10 Bohr

LBFGS parameters: 
               Memory                   ....  20 
               Initial step size        ....  0.0010 
               Estimate curvature       ....  YES 
               Reset on maxmove         ....  YES 
               Reparam. on reset        ....  NO 
Generation of  the initial path:
Minimize RMSD between reactant and product configurations     .... done
       RMSD before minimization         ....  1.6483 Bohr
       RMSD after minimization          ....  1.5229 Bohr
Performing linear interpolation         ....  done
Interpolation using                     ....  IDPP (Image Dependent Pair Potential)
IDPP-Settings:
       Remove global transl. and rot.   ...   true
       Convergence tolerance            ....  0.0100 1/Ang.^3
       Max. numer of iterations         ....    7000
       Spring constant                  ....  1.0000 1/Ang.^4
       Time step                        ....  0.0100 fs
       Max. movement per iteration      ....  0.0500 Ang.
       Full print                       ....  false 
idpp initial path generation successfully converged in 108 iterations
Displacement along initial path:             13.1111 Bohr
Writing initial trajectory to file      ....  neb_initial_path_trj.xyz



----------------------
NEB OPTIMIZATION      
----------------------

Following output files will be written:
Energy profile during opt. written to    ....  neb.interp
Optimization log-file                    ....  neb.NEB.log
Current trajectory will be written to    ....  neb_MEP_trj.xyz
       and to allxyz file                ....  neb_MEP.allxyz
       and individual images to xyz file ....  neb_im{NIm}.xyz
Trajectory history will be written to    ....  neb_MEP_ALL_trj.xyz
Converged CI will be written to          ....  neb_NEB-CI_converged.xyz
Converged TS will be written to          ....  neb_NEB-TS_converged.xyz

Single point energy and gradient calculation of reactant and
product configurations (have to be performed only once)
Properties of fixed NEB end points:
               Reactant:
                         E               ....   -628.707017 Eh
                         RMS(F)          ....      0.000473 Eh/Bohr
                         MAX(|F|)        ....      0.001388 Eh/Bohr
               Product:
                         E               ....   -628.687244 Eh
                         RMS(F)          ....      0.000270 Eh/Bohr
                         MAX(|F|)        ....      0.001068 Eh/Bohr



Starting iterations:

Optim.  Iteration  HEI  E(HEI)-E(0)  max(|Fp|)   RMS(Fp)    dS
Switch-on CI threshold               0.020000 
   LBFGS     0      4    0.142067    0.104836   0.019876  13.1111       
   LBFGS     1      5    0.111676    0.078351   0.014215  13.1222       
   LBFGS     2      5    0.095498    0.068206   0.010751  13.1828       
   LBFGS     3      5    0.081588    0.064650   0.008172  13.2663       
   LBFGS     4      5    0.068263    0.054934   0.006181  13.3760       
   LBFGS     5      5    0.053966    0.041473   0.005222  13.4871       
   LBFGS     6      5    0.040789    0.033392   0.003951  13.6520       
   LBFGS     7      5    0.032883    0.024987   0.003608  13.8586       
   LBFGS     8      6    0.029209    0.034574   0.003978  14.0821       
   LBFGS     9      6    0.033878    0.059687   0.005362  14.1606       
   LBFGS    10      6    0.041947    0.089631   0.008174  14.2598       
   LBFGS    11      5    0.041724    0.022612   0.002988  14.2074       
   LBFGS    12      5    0.044502    0.036272   0.003591  14.1515       
   LBFGS    13      5    0.046184    0.052123   0.004675  14.1046       
   LBFGS    14      5    0.044990    0.016919   0.002323  14.1383       

Image  5 will be converted to a climbing image in the next iteration (max(|Fp|) < 0.0200) 

Optim.  Iteration  CI   E(CI)-E(0)   max(|Fp|)   RMS(Fp)    dS     max(|FCI|)   RMS(FCI)
Convergence thresholds               0.020000   0.010000            0.002000    0.001000 
   LBFGS    15      5    0.044743    0.016747   0.001922  14.1258    0.013206    0.003496       
   LBFGS    16      5    0.042829    0.025130   0.002841  14.0650    0.012492    0.002844       
   LBFGS    17      5    0.041190    0.030449   0.003680  14.1308    0.010185    0.002979       
   LBFGS    18      5    0.039964    0.017152   0.002020  14.2014    0.009022    0.002149       
   LBFGS    19      5    0.037814    0.027418   0.002907  14.4488    0.007162    0.002502       
   LBFGS    20      5    0.037537    0.044308   0.003929  14.5291    0.010422    0.002814       
   LBFGS    21      5    0.037251    0.018296   0.001516  14.5351    0.005084    0.001671       
   LBFGS    22      5    0.037038    0.019235   0.001686  14.5021    0.004753    0.001529       
   LBFGS    23      5    0.036697    0.046146   0.003568  14.5007    0.005560    0.001625       
   LBFGS    24      5    0.036697    0.046146   0.003569  14.5007    0.005561    0.001625       
   LBFGS    25      5    0.036560    0.045323   0.003440  14.5839    0.005385    0.001447       
   LBFGS    26      5    0.036483    0.010539   0.000985  14.5696    0.003834    0.001055       
   LBFGS    27      5    0.036392    0.023620   0.001814  14.5323    0.003738    0.001065       
   LBFGS    28      5    0.036256    0.035341   0.002564  14.5145    0.003558    0.001068       
   LBFGS    29      5    0.035777    0.068395   0.004902  14.4756    0.004996    0.001260       
   LBFGS    30      5    0.035695    0.039920   0.002983  14.5789    0.002515    0.000845       
   LBFGS    31      5    0.035655    0.012679   0.001151  14.5875    0.002504    0.000716       
   LBFGS    32      5    0.035592    0.023263   0.001625  14.5674    0.002557    0.000687       
   LBFGS    33      5    0.035524    0.023668   0.001683  14.5606    0.002539    0.000676       
   LBFGS    34      5    0.035185    0.025123   0.002124  14.5488    0.002328    0.000752       
   LBFGS    35      5    0.035127    0.021387   0.001648  14.5786    0.002068    0.000626       
   LBFGS    36      5    0.035096    0.008648   0.000772  14.5795    0.002093    0.000584       
   LBFGS    37      5    0.034980    0.024213   0.002040  14.5816    0.002082    0.000628       
   LBFGS    38      5    0.034867    0.038904   0.003603  14.6243    0.003439    0.000975       
   LBFGS    39      5    0.034867    0.038905   0.003603  14.6243    0.003440    0.000975       
   LBFGS    40      5    0.034789    0.035289   0.002796  14.6700    0.001868    0.000645       
   LBFGS    41      5    0.034758    0.015185   0.001350  14.6736    0.001934    0.000545       

                                .--------------------.
          ----------------------| CI-NEB convergence |-------------------------
          Item                value                   Tolerance       Converged
          ---------------------------------------------------------------------
          RMS(Fp)             0.0013499233            0.0100000000      YES
          MAX(|Fp|)           0.0151852881            0.0200000000      YES
          RMS(FCI)            0.0005452880            0.0010000000      YES
          MAX(|FCI|)          0.0019343101            0.0020000000      YES
          ---------------------------------------------------------------------

The elastic band and climbing image have converged successfully to a MEP in 41 iterations!


                    *********************H U R R A Y*********************
                    ***        THE NEB OPTIMIZATION HAS CONVERGED     ***
                    *****************************************************



---------------------------------------------------------------
                         PATH SUMMARY              
---------------------------------------------------------------
All forces in Eh/Bohr.

Image Dist.(Ang.)    E(Eh)   dE(kcal/mol)  max(|Fp|)  RMS(Fp)
  0     0.000    -628.70702      0.00       0.00138   0.00047
  1     1.156    -628.70633      0.43       0.00117   0.00031
  2     2.545    -628.70285      2.62       0.00246   0.00061
  3     4.552    -628.70194      3.19       0.00340   0.00115
  4     5.730    -628.68580     13.32       0.00581   0.00196
  5     6.048    -628.67226     21.81       0.00193   0.00055 <= CI
  6     6.477    -628.68443     14.17       0.01519   0.00267
  7     7.765    -628.68724     12.41       0.00107   0.00027

Straight line distance between images along the path:
        D( 0- 1) =   1.1556 Ang.
        D( 1- 2) =   1.3890 Ang.
        D( 2- 3) =   2.0070 Ang.
        D( 3- 4) =   1.1786 Ang.
        D( 4- 5) =   0.3176 Ang.
        D( 5- 6) =   0.4292 Ang.
        D( 6- 7) =   1.2879 Ang.

---------------------------------------------------------------
               INFORMATION ABOUT SADDLE POINT     
---------------------------------------------------------------

Climbing image                            ....  5 
Energy                                    ....  -628.67225872 Eh
Max. abs. force                           ....  1.9343e-03 Eh/Bohr

-----------------------------------------
  SADDLE POINT (ANGSTROEM)
-----------------------------------------
C     -1.570393     0.460379    -0.299903 
H     -0.328568     1.066692    -0.352696 
N     -1.380991    -0.440797     0.776062 
O     -0.909031    -1.577514     0.554560 
O     -1.624321    -0.074349     1.945018 
C      2.672391    -0.839888     0.161099 
O      2.367716     0.223026     0.876960 
O      2.445151    -0.939062    -1.037187 
C      3.295347    -1.959896     0.953727 
H      3.692185    -2.714709     0.278743 
H      2.520044    -2.412562     1.577205 
H      4.079653    -1.595073     1.617041 
C     -2.504420     1.604812     0.046837 
H     -2.062348     2.270326     0.788550 
H     -3.466402     1.257498     0.440033 
H     -2.693666     2.186309    -0.856381 
C     -1.860110    -0.261818    -1.605524 
H     -2.704357    -0.954626    -1.496273 
H     -1.008232    -0.836591    -1.966083 
H     -2.127017     0.468254    -2.370048 
H      1.737303     0.879695     0.317894 
O      0.780035     1.669268    -0.392989 
H      0.650029     2.520627     0.043354 

-----------------------------------------
  FORCES (Eh/Bohr)
-----------------------------------------
C     -0.000949    -0.000604     0.000555 
H     -0.000567    -0.000101    -0.000219 
N      0.000141     0.000228    -0.000167 
O     -0.000108    -0.000216    -0.000013 
O      0.001934     0.001063     0.000670 
C      0.000130    -0.000958    -0.000346 
O     -0.000692    -0.001200    -0.000450 
O     -0.000143    -0.000265    -0.000369 
C      0.000210    -0.000314     0.000254 
H      0.000381    -0.000055     0.000551 
H      0.000126     0.000063     0.000264 
H     -0.000150     0.000820    -0.000109 
C      0.000021    -0.000053     0.000089 
H     -0.000635     0.000006     0.000443 
H      0.000134    -0.000128    -0.000706 
H      0.000268     0.000126     0.000253 
C      0.000497     0.000342     0.000140 
H      0.000578     0.000776    -0.000422 
H      0.000535     0.000295     0.000319 
H      0.001045     0.000495     0.000180 
H     -0.001085    -0.000136    -0.000541 
O     -0.000214     0.000079    -0.000441 
H     -0.001287    -0.000357     0.000272 

-----------------------------------------
  UNIT TANGENT
-----------------------------------------
C     -0.338899    -0.211414     0.076710 
H      0.563844     0.391086     0.001996 
N     -0.069347     0.030512    -0.078128 
O     -0.019779    -0.055627    -0.033471 
O      0.081435     0.047326     0.040336 
C      0.017008    -0.045318    -0.016060 
O      0.016539    -0.004122     0.031652 
O     -0.011213     0.016729     0.014027 
C      0.010624    -0.001346     0.007683 
H      0.007027     0.001163     0.010874 
H      0.012246     0.001199     0.009659 
H      0.009932     0.003903     0.002901 
C     -0.052525    -0.017352     0.012499 
H      0.048278    -0.046977    -0.018749 
H     -0.079144     0.129155     0.079910 
H     -0.024537    -0.027435    -0.001758 
C     -0.057466    -0.038749    -0.022568 
H     -0.010828    -0.114574    -0.154527 
H      0.008595     0.032999     0.019630 
H     -0.041703    -0.003466     0.005040 
H      0.265593    -0.234181     0.168563 
O     -0.244573     0.057601    -0.106878 
H     -0.091107     0.088886    -0.049342 
 => Unit tangent is an approximation to the TS mode at the saddle point

Next a TS optimization is performed on the CI from the NEB run.

         *************************************************************
         *                       TS OPTIMIZATION                     *
         *************************************************************


Following output files will be written:
Converged TS will be written to          ....  neb_NEB-TS_converged.xyz
                                         ....  neb.xyz
Current trajectory will be written to    ....  neb_trj.xyz
Initial Hessian will be stored in        ....  neb.appr.hess
Geometry optimization settings:
Update method            Update   .... Bofill
Choice of coordinates    CoordSys .... Z-matrix Internals
Initial Hessian          InHess   .... Read

Convergence Tolerances:
Energy Change            TolE     ....  5.0000e-06 Eh
Max. Gradient            TolMAXG  ....  3.0000e-04 Eh/bohr
RMS Gradient             TolRMSG  ....  1.0000e-04 Eh/bohr
Max. Displacement        TolMAXD  ....  4.0000e-03 bohr
RMS Displacement         TolRMSD  ....  2.0000e-03 bohr
Strict Convergence                ....  False
------------------------------------------------------------------------------
                        ORCA OPTIMIZATION COORDINATE SETUP
------------------------------------------------------------------------------

The optimization will be done in new redundant internal coordinates
Making redundant internal coordinates   ...  (new redundants) done
Following TS mode number                ...     0
TS-active-atoms for coordinate setup... 0 1 20 
Evaluating the initial hessian          ... (Reading Exact Hessian)...  
InHessName: neb.appr.hess	The file <neb.appr.hess> is opened as a .hess file
done
done
Diagonalizing the Hessian               .... done
Dimension of the hessian                .... 102
Lowest eigenvalues of the non projected Hessian:
 -0.008732736 -0.000000000 -0.000000000 -0.000000000 -0.000000000
done
Evaluating the coordinates              ...  done
Calculating the B-matrix                .... done
Calculating the G-matrix                .... done
Diagonalizing the G-matrix              .... done
Small eigenvalue found = 3.839e-03
Small eigenvalue found = 1.290e-02
Small eigenvalue found = 2.274e-02
The first mode is                       ....   39
The number of degrees of freedom        ....   63

    -----------------------------------------------------------------
                    Redundant Internal Coordinates


    -----------------------------------------------------------------
         Definition                    Initial Value    d2E/dq (diagonal element)
    -----------------------------------------------------------------
      1. B(H   1,C   0)                  1.3829         0.123339   
      2. B(N   2,C   0)                  1.4162         0.258178   
      3. B(O   3,C   0)                  2.3066         0.115280   
      4. B(O   3,N   2)                  1.2506         0.572626   
      5. B(O   4,N   2)                  1.2490         0.576901   
      6. B(O   4,C   0)                  2.3084         0.115815   
      7. B(O   6,C   5)                  1.3172         0.730005   
      8. B(O   7,C   5)                  1.2237         1.030265   
      9. B(C   8,C   5)                  1.5069         0.407566   
     10. B(H   9,C   8)                  1.0876         0.363310   
     11. B(H  10,C   8)                  1.0930         0.356110   
     12. B(H  11,C   8)                  1.0901         0.360086   
     13. B(C  12,C   0)                  1.5174         0.400519   
     14. B(H  13,C  12)                  1.0902         0.360103   
     15. B(H  14,C  12)                  1.0957         0.353953   
     16. B(H  15,C  12)                  1.0908         0.359142   
     17. B(C  16,C   0)                  1.5199         0.414654   
     18. B(H  17,C  16)                  1.0976         0.352102   
     19. B(H  18,C  16)                  1.0891         0.361465   
     20. B(H  19,C  16)                  1.0903         0.359718   
     21. B(H  20,O   6)                  1.0683         0.374001   
     22. B(O  21,H  20)                  1.4301         0.134257   
     23. B(O  21,H   1)                  1.2624         0.153923   
     24. B(H  22,O  21)                  0.9655         0.509352   
     25. A(N   2,C   0,C  16)          112.0716         0.069207   
     26. A(H   1,C   0,C  12)          103.3443         0.046596   
     27. A(C  12,C   0,C  16)          115.9342         0.075031   
     28. A(N   2,C   0,C  12)          112.8701         0.062988   
     29. A(H   1,C   0,C  16)          110.2850         0.044780   
     30. A(H   1,C   0,N   2)          100.8297         0.035744   
     31. L(C   0,H   1,O  21,C  12, 2) 180.3194         0.219843   
     32. L(C   0,H   1,O  21,C  12, 1) 177.4824         0.212583   
     33. A(O   3,N   2,O   4)          120.3966         0.261233   
     34. A(C   0,N   2,O   4)          119.8885         0.167985   
     35. A(C   0,N   2,O   3)          119.6233         0.167941   
     36. A(O   7,C   5,C   8)          122.1150         0.293234   
     37. A(O   6,C   5,C   8)          114.1745         0.285619   
     38. A(O   6,C   5,O   7)          123.6857         0.309473   
     39. A(C   5,O   6,H  20)          110.3717         0.375547   
     40. A(H  10,C   8,H  11)          107.5694         0.122663   
     41. A(H   9,C   8,H  11)          110.3288         0.130907   
     42. A(C   5,C   8,H  11)          111.6398         0.233795   
     43. A(H   9,C   8,H  10)          108.9901         0.121179   
     44. A(C   5,C   8,H  10)          108.3374         0.232392   
     45. A(C   5,C   8,H   9)          109.8910         0.231510   
     46. A(H  14,C  12,H  15)          108.2886         0.116864   
     47. A(H  13,C  12,H  15)          107.9564         0.112347   
     48. A(C   0,C  12,H  15)          108.6425         0.221557   
     49. A(H  13,C  12,H  14)          107.7800         0.122673   
     50. A(C   0,C  12,H  14)          112.5417         0.256569   
     51. A(C   0,C  12,H  13)          111.4870         0.235462   
     52. A(H  18,C  16,H  19)          108.2242         0.117029   
     53. A(H  17,C  16,H  19)          107.7080         0.115057   
     54. A(C   0,C  16,H  19)          109.3196         0.220973   
     55. A(H  17,C  16,H  18)          107.5470         0.123386   
     56. A(C   0,C  16,H  18)          112.7099         0.228716   
     57. A(C   0,C  16,H  17)          111.1641         0.260027   
     58. A(O   6,H  20,O  21)          174.0190         0.257210   
     59. A(H  20,O  21,H  22)          110.6306         0.073735   
     60. A(H   1,O  21,H  20)          107.9638         0.210518   
     61. A(H   1,O  21,H  22)          106.7521         0.138714   
     62. D(O   3,N   2,C   0,C  12)    163.0694         0.019938   
     63. D(O   3,N   2,C   0,H   1)    -87.3140         0.021869   
     64. D(O   4,N   2,C   0,C  12)    -20.3965         0.020718   
     65. D(O   4,N   2,C   0,H   1)     89.2202         0.024369   
     66. D(O   4,N   2,C   0,C  16)   -153.4922         0.020200   
     67. D(O   3,N   2,C   0,C  16)     29.9736         0.018882   
     68. D(H  20,O   6,C   5,O   7)     11.1483         0.023868   
     69. D(H  20,O   6,C   5,C   8)   -167.0716         0.025025   
     70. D(H  11,C   8,C   5,O   7)    135.4019         0.030281   
     71. D(H  11,C   8,C   5,O   6)    -46.3469         0.030234   
     72. D(H  10,C   8,C   5,O   7)   -106.3289         0.030469   
     73. D(H   9,C   8,C   5,O   6)   -169.0990         0.030342   
     74. D(H   9,C   8,C   5,O   7)     12.6498         0.030247   
     75. D(H  10,C   8,C   5,O   6)     71.9223         0.030270   
     76. D(H  13,C  12,C   0,H   1)    -40.3160         0.028640   
     77. D(H  15,C  12,C   0,N   2)   -173.4321         0.026977   
     78. D(H  15,C  12,C   0,H   1)     78.5307         0.027001   
     79. D(H  14,C  12,C   0,C  16)     77.6702         0.025146   
     80. D(H  14,C  12,C   0,N   2)    -53.5245         0.026878   
     81. D(H  14,C  12,C   0,H   1)   -161.5616         0.028243   
     82. D(H  13,C  12,C   0,C  16)   -161.0842         0.025461   
     83. D(H  15,C  12,C   0,C  16)    -42.2375         0.026132   
     84. D(H  13,C  12,C   0,N   2)     67.7211         0.026986   
     85. D(H  19,C  16,C   0,H   1)    -75.9282         0.026017   
     86. D(H  18,C  16,C   0,C  12)    161.4274         0.025508   
     87. D(H  18,C  16,C   0,N   2)    -67.0031         0.026260   
     88. D(H  18,C  16,C   0,H   1)     44.4676         0.026818   
     89. D(H  17,C  16,C   0,C  12)    -77.7426         0.024877   
     90. D(H  17,C  16,C   0,N   2)     53.8270         0.025774   
     91. D(H  19,C  16,C   0,N   2)    172.6011         0.025704   
     92. D(H  17,C  16,C   0,H   1)    165.2977         0.026207   
     93. D(H  19,C  16,C   0,C  12)     41.0315         0.024922   
     94. D(O  21,H  20,O   6,C   5)     80.5641         0.111594   
     95. D(H  22,O  21,H  20,O   6)    110.7662         0.027631   
     96. D(H   1,O  21,H  20,O   6)     -5.7102         0.027371   
     97. D(H  20,O  21,C   0,C  16)   -101.5176         0.025614   
     98. D(H  20,O  21,C   0,C  12)    134.3682         0.028051   
     99. D(H  20,O  21,C   0,N   2)     17.6717         0.027130   
    100. D(H  22,O  21,C   0,C  16)    139.6617         0.027167   
    101. D(H  22,O  21,C   0,C  12)     15.5475         0.030572   
    102. D(H  22,O  21,C   0,N   2)   -101.1490         0.028800   
    -----------------------------------------------------------------

Number of atoms                         .... 23
Number of degrees of freedom            .... 102

         *************************************************************
         *                GEOMETRY OPTIMIZATION CYCLE   1            *
         *************************************************************


           ************************************************************
           *        Program running with 102 parallel MPI-processes   *
           *              working on a common directory               *
           ************************************************************
------------------------------------------------------------------------------
                           ORCA GTO INTEGRAL CALCULATION
                           -- RI-GTO INTEGRALS CHOSEN --
------------------------------------------------------------------------------
------------------------------------------------------------------------------
                   ___                                                        
                  /   \      - P O W E R E D   B Y -                         
                 /     \                                                     
                 |  |  |   _    _      __       _____    __    __             
                 |  |  |  | |  | |    /  \     |  _  \  |  |  /  |          
                  \  \/   | |  | |   /    \    | | | |  |  | /  /          
                 / \  \   | |__| |  /  /\  \   | |_| |  |  |/  /          
                |  |  |   |  __  | /  /__\  \  |    /   |      \           
                |  |  |   | |  | | |   __   |  |    \   |  |\   \          
                \     /   | |  | | |  |  |  |  | |\  \  |  | \   \       
                 \___/    |_|  |_| |__|  |__|  |_| \__\ |__|  \__/        
                                                                              
                      - O R C A' S   B I G   F R I E N D -                    
                                      &                                       
                       - I N T E G R A L  F E E D E R -                       
                                                                              
 v1 FN, 2020, v2 2021                                                         
------------------------------------------------------------------------------


Reading SHARK input file neb.SHARKINP.tmp ... ok
----------------------
SHARK INTEGRAL PACKAGE
----------------------

Number of atoms                             ...     23
Number of basis functions                   ...    413
Number of shells                            ...    169
Maximum angular momentum                    ...      3
Integral batch strategy                     ... SHARK/LIBINT Hybrid
RI-J (if used) integral strategy            ... SPLIT-RIJ (Revised 2003 algorithm where possible)
Printlevel                                  ...      1
Contraction scheme used                     ... SEGMENTED contraction
Coulomb Range Separation                    ... NOT USED
Exchange Range Separation                   ... NOT USED
Finite Nucleus Model                        ... NOT USED
Auxiliary Coulomb fitting basis             ... AVAILABLE
   # of basis functions in Aux-J            ...    671
   # of shells in Aux-J                     ...    225
   Maximum angular momentum in Aux-J        ...      4
Auxiliary J/K fitting basis                 ... NOT available
Auxiliary Correlation fitting basis         ... NOT available
Auxiliary 'external' fitting basis          ... NOT available
Integral threshold                          ...     2.500000e-11
Primitive cut-off                           ...     2.500000e-12
Primitive pair pre-selection threshold      ...     2.500000e-12

Calculating pre-screening integrals         ... done (  0.1 sec) Dimension = 169
Organizing shell pair data                  ... done (  0.3 sec)
Shell pair information
Total number of shell pairs                 ...     14365
Shell pairs after pre-screening             ...     11602
Total number of primitive shell pairs       ...     43056
Primitive shell pairs kept                  ...     24368
          la=0 lb=0:   3291 shell pairs
          la=1 lb=0:   3394 shell pairs
          la=1 lb=1:    900 shell pairs
          la=2 lb=0:   1580 shell pairs
          la=2 lb=1:    841 shell pairs
          la=2 lb=2:    214 shell pairs
          la=3 lb=0:    747 shell pairs
          la=3 lb=1:    398 shell pairs
          la=3 lb=2:    188 shell pairs
          la=3 lb=3:     49 shell pairs

Calculating one electron integrals          ... done (  0.1 sec)
Calculating RI/J V-Matrix + Cholesky decomp.... done (  0.0 sec)
Calculating Nuclear repulsion               ... done (  0.0 sec) ENN=    669.032359511959 Eh

SHARK setup successfully completed in   0.7 seconds

Maximum memory used throughout the entire GTOINT-calculation: 24.3 MB


           ************************************************************
           *        Program running with 102 parallel MPI-processes   *
           *              working on a common directory               *
           ************************************************************
-------------------------------------------------------------------------------
                                 ORCA SCF
-------------------------------------------------------------------------------

------------
SCF SETTINGS
------------
Hamiltonian:
 Density Functional     Method          .... DFT(GTOs)
 Exchange Functional    Exchange        .... B88
   X-Alpha parameter    XAlpha          ....  0.666667
   Becke's b parameter  XBeta           ....  0.004200
 Correlation Functional Correlation     .... LYP
 LDA part of GGA corr.  LDAOpt          .... VWN-5
 Gradients option       PostSCFGGA      .... off
 Hybrid DFT is turned on
   Fraction HF Exchange ScalHFX         ....  0.200000
   Scaling of DF-GGA-X  ScalDFX         ....  0.720000
   Scaling of DF-GGA-C  ScalDFC         ....  0.810000
   Scaling of DF-LDA-C  ScalLDAC        ....  1.000000
   Perturbative correction              ....  0.000000
   Density functional embedding theory  .... OFF
   NL short-range parameter             ....  4.800000
 RI-approximation to the Coulomb term is turned on
   Number of AuxJ basis functions       .... 671
   RIJ-COSX (HFX calculated with COS-X)).... on


General Settings:
 Integral files         IntName         .... neb
 Hartree-Fock type      HFTyp           .... RHF
 Total Charge           Charge          ....   -1
 Multiplicity           Mult            ....    1
 Number of Electrons    NEL             ....   90
 Basis Dimension        Dim             ....  413
 Nuclear Repulsion      ENuc            ....    669.0323595120 Eh

Convergence Acceleration:
 DIIS                   CNVDIIS         .... on
   Start iteration      DIISMaxIt       ....    12
   Startup error        DIISStart       ....  0.200000
   # of expansion vecs  DIISMaxEq       ....     5
   Bias factor          DIISBfac        ....   1.050
   Max. coefficient     DIISMaxC        ....  10.000
 Trust-Rad. Augm. Hess. CNVTRAH         .... auto
   Auto Start mean grad. ratio tolernc. ....  1.125000
   Auto Start start iteration           ....     1
   Auto Start num. interpolation iter.  ....    10
   Max. Number of Micro iterations      ....    16
   Max. Number of Macro iterations      .... Maxiter - #DIIS iter
   Number of Davidson start vectors     ....     2
   Converg. threshold I  (grad. norm)   ....   1.000e-05
   Converg. threshold II (energy diff.) ....   1.000e-08
   Grad. Scal. Fac. for Micro threshold ....   0.100
   Minimum threshold for Micro iter.    ....   0.010
   NR start threshold (gradient norm)   ....   0.001
   Initial trust radius                 ....   0.400
   Minimum AH scaling param. (alpha)    ....   1.000
   Maximum AH scaling param. (alpha)    .... 1000.000
   Orbital update algorithm             .... Taylor
   White noise on init. David. guess    .... on
   Maximum white noise                  ....   0.010
   Quad. conv. algorithm                .... NR
 SOSCF                  CNVSOSCF        .... on
   Start iteration      SOSCFMaxIt      ....   150
   Startup grad/error   SOSCFStart      ....  0.003300
 Level Shifting         CNVShift        .... on
   Level shift para.    LevelShift      ....    0.2500
   Turn off err/grad.   ShiftErr        ....    0.0010
 Zerner damping         CNVZerner       .... off
 Static damping         CNVDamp         .... on
   Fraction old density DampFac         ....    0.7000
   Max. Damping (<1)    DampMax         ....    0.9800
   Min. Damping (>=0)   DampMin         ....    0.0000
   Turn off err/grad.   DampErr         ....    0.1000
 Fernandez-Rico         CNVRico         .... off

SCF Procedure:
 Maximum # iterations   MaxIter         ....   125
 SCF integral mode      SCFMode         .... Direct
   Integral package                     .... SHARK and LIBINT hybrid scheme
 Reset frequency        DirectResetFreq ....    20
 Integral Threshold     Thresh          ....  2.500e-11 Eh
 Primitive CutOff       TCut            ....  2.500e-12 Eh

Convergence Tolerance:
 Convergence Check Mode ConvCheckMode   .... Total+1el-Energy
 Convergence forced     ConvForced      .... 0
 Energy Change          TolE            ....  1.000e-08 Eh
 1-El. energy change                    ....  1.000e-05 Eh
 Orbital Gradient       TolG            ....  1.000e-05
 Orbital Rotation angle TolX            ....  1.000e-05
 DIIS Error             TolErr          ....  5.000e-07


Diagonalization of the overlap matrix:
Smallest eigenvalue                        ... 1.944e-04
Time for diagonalization                   ...    0.046 sec
Threshold for overlap eigenvalues          ... 1.000e-08
Number of eigenvalues below threshold      ... 0
Time for construction of square roots      ...    0.100 sec
Total time needed                          ...    0.149 sec

---------------------
INITIAL GUESS: MOREAD
---------------------
Guess MOs are being read from file: neb.gbw
Input Geometry matches current geometry (good)
Input basis set matches current basis set (good)
MOs were renormalized
MOs were reorthogonalized (Cholesky)
                      ------------------
                      INITIAL GUESS DONE (   0.2 sec)
                      ------------------
-------------------
DFT GRID GENERATION
-------------------

General Integration Accuracy     IntAcc      ... 4.388
Radial Grid Type                 RadialGrid  ... OptM3 with GC (2021)
Angular Grid (max. ang.)         AngularGrid ... 4 (Lebedev-302)
Angular grid pruning method      GridPruning ... 4 (adaptive)
Weight generation scheme         WeightScheme... Becke
Basis function cutoff            BFCut       ... 1.0000e-11
Integration weight cutoff        WCut        ... 1.0000e-14
Angular grids for H and He will be reduced by one unit
Partially contracted basis set               ... off
Rotationally invariant grid construction     ... off

Total number of grid points                  ...   105176
Total number of batches                      ...     1655
Average number of points per batch           ...       63
Average number of grid points per atom       ...     4573
Time for grid setup =    0.851 sec

--------------------
COSX GRID GENERATION
--------------------

GRIDX 1
-------
General Integration Accuracy     IntAcc      ... 3.816
Radial Grid Type                 RadialGrid  ... OptM3 with GC (2021)
Angular Grid (max. ang.)         AngularGrid ... 1 (Lebedev-50)
Angular grid pruning method      GridPruning ... 4 (adaptive)
Weight generation scheme         WeightScheme... Becke
Basis function cutoff            BFCut       ... 1.0000e-11
Integration weight cutoff        WCut        ... 1.0000e-14
Angular grids for H and He will be reduced by one unit
Partially contracted basis set               ... on
Rotationally invariant grid construction     ... off

Total number of grid points                  ...    13424
Total number of batches                      ...      223
Average number of points per batch           ...       60
Average number of grid points per atom       ...      584
UseSFitting                                  ... on

GRIDX 2
-------
General Integration Accuracy     IntAcc      ... 4.020
Radial Grid Type                 RadialGrid  ... OptM3 with GC (2021)
Angular Grid (max. ang.)         AngularGrid ... 2 (Lebedev-110)
Angular grid pruning method      GridPruning ... 4 (adaptive)
Weight generation scheme         WeightScheme... Becke
Basis function cutoff            BFCut       ... 1.0000e-11
Integration weight cutoff        WCut        ... 1.0000e-14
Angular grids for H and He will be reduced by one unit
Partially contracted basis set               ... on
Rotationally invariant grid construction     ... off

Total number of grid points                  ...    28904
Total number of batches                      ...      464
Average number of points per batch           ...       62
Average number of grid points per atom       ...     1257
UseSFitting                                  ... on

GRIDX 3
-------
General Integration Accuracy     IntAcc      ... 4.338
Radial Grid Type                 RadialGrid  ... OptM3 with GC (2021)
Angular Grid (max. ang.)         AngularGrid ... 3 (Lebedev-194)
Angular grid pruning method      GridPruning ... 4 (adaptive)
Weight generation scheme         WeightScheme... Becke
Basis function cutoff            BFCut       ... 1.0000e-11
Integration weight cutoff        WCut        ... 1.0000e-14
Angular grids for H and He will be reduced by one unit
Partially contracted basis set               ... on
Rotationally invariant grid construction     ... off

Total number of grid points                  ...    63357
Total number of batches                      ...     1002
Average number of points per batch           ...       63
Average number of grid points per atom       ...     2755
UseSFitting                                  ... on

Time for X-Grid setup             =    0.990 sec


--------------------
CPCM SOLVATION MODEL
--------------------
CPCM parameters:
  Epsilon                                         ...      78.4000
  Refrac                                          ...       1.3300
  Rsolv                                           ...       1.3000
  Surface type                                    ... GAUSSIAN VDW
  Epsilon function type                           ...         CPCM
Radii:
 Radius for C  used is    3.8550 Bohr (=   2.0400 Ang.)
 Radius for H  used is    2.4944 Bohr (=   1.3200 Ang.)
 Radius for N  used is    3.5149 Bohr (=   1.8600 Ang.)
 Radius for O  used is    3.4469 Bohr (=   1.8240 Ang.)
Calculating surface                               ...        done! (  0.0s)
GEPOL surface points                              ...         1365
GEPOL Volume                                      ...    1401.9330
GEPOL Surface-area                                ...     840.3413
Calculating surface distance matrix               ...        done! (  0.1s)
Performing Cholesky decomposition & store         ...        done! (  0.4s)
Overall time for CPCM initialization              ...                 0.5s
--------------
SCF ITERATIONS
--------------
ITER       Energy         Delta-E        Max-DP      RMS-DP      [F,P]     Damp
               ***  Starting incremental Fock matrix formation  ***
                      *** Initiating the SOSCF procedure ***
                      *** Re-Reading the Fockian *** 
                      *** Removing any level shift *** 
ITER      Energy       Delta-E        Grad      Rot      Max-DP    RMS-DP
  0   -628.64177735 -628.6417773516  0.000002  0.000002  0.000004  0.000000
               *** Restarting incremental Fock matrix formation ***
                  ***Gradient check signals convergence***
              ***Rediagonalizing the Fockian in SOSCF/NRSCF***

               *****************************************************
               *                     SUCCESS                       *
               *           SCF CONVERGED AFTER   1 CYCLES          *
               *****************************************************

Old exchange energy                            =    -15.601318381 Eh
New exchange energy                            =    -15.601318077 Eh
Exchange energy change after final integration =      0.000000304 Eh
Total energy after final integration           =   -628.641777048 Eh
Final COS-X integration done in                =     0.964 sec

----------------
TOTAL SCF ENERGY
----------------

Total Energy       :         -628.64177705 Eh          -17106.21242 eV

Components:
Nuclear Repulsion  :          669.03235951 Eh           18205.29604 eV
Electronic Energy  :        -1297.67413656 Eh          -35311.50846 eV
One Electron Energy:        -2203.78843747 Eh          -59968.13210 eV
Two Electron Energy:          906.11430091 Eh           24656.62365 eV
Max COSX asymmetry :            0.00000205 Eh               0.00006 eV
CPCM Dielectric    :           -0.10234974 Eh              -2.78508 eV

Virial components:
Potential Energy   :        -1254.72184230 Eh          -34142.71711 eV
Kinetic Energy     :          626.08006525 Eh           17036.50469 eV
Virial Ratio       :            2.00409167


DFT components:
N(Alpha)           :       44.999913704350 electrons
N(Beta)            :       44.999913704350 electrons
N(Total)           :       89.999827408700 electrons
E(X)               :      -62.164859165468 Eh       
E(C)               :       -3.647380544513 Eh       
E(XC)              :      -65.812239709981 Eh       
DFET-embed. en.    :        0.000000000000 Eh       
CPCM Solvation Model Properties:
Surface-charge          :            0.97076148
Charge-correction       :           -0.00403275 Eh              -0.10974 eV
Free-energy (cav+disp)  :  This term is not implemented in the current solvation scheme

---------------
SCF CONVERGENCE
---------------

  Last Energy change         ...   -4.7748e-11  Tolerance :   1.0000e-08
  Last MAX-Density change    ...    2.1094e-15  Tolerance :   1.0000e-07
  Last RMS-Density change    ...    1.7977e-17  Tolerance :   5.0000e-09
  Last Orbital Gradient      ...    2.4162e-06  Tolerance :   1.0000e-05
  Last Orbital Rotation      ...    9.7453e-06  Tolerance :   1.0000e-05

             **** THE GBW FILE WAS UPDATED (neb.gbw) ****
             **** DENSITY neb.scfp WAS UPDATED ****
             **** ENERGY FILE WAS UPDATED (neb.en.tmp) ****
             **** THE GBW FILE WAS UPDATED (neb.gbw) ****
             **** DENSITY neb.scfp WAS UPDATED ****
----------------
ORBITAL ENERGIES
----------------

  NO   OCC          E(Eh)            E(eV) 
   0   2.0000     -19.126357      -520.4546 
   1   2.0000     -19.119080      -520.2566 
   2   2.0000     -19.118136      -520.2309 
   3   2.0000     -19.093713      -519.5663 
   4   2.0000     -19.082509      -519.2615 
   5   2.0000     -14.505039      -394.7022 
   6   2.0000     -10.286195      -279.9016 
   7   2.0000     -10.178955      -276.9834 
   8   2.0000     -10.161829      -276.5174 
   9   2.0000     -10.153068      -276.2790 
  10   2.0000     -10.152331      -276.2590 
  11   2.0000      -1.180437       -32.1213 
  12   2.0000      -1.074912       -29.2498 
  13   2.0000      -1.003449       -27.3052 
  14   2.0000      -0.987289       -26.8655 
  15   2.0000      -0.942059       -25.6347 
  16   2.0000      -0.815074       -22.1793 
  17   2.0000      -0.734606       -19.9896 
  18   2.0000      -0.685492       -18.6532 
  19   2.0000      -0.680574       -18.5194 
  20   2.0000      -0.578968       -15.7545 
  21   2.0000      -0.546252       -14.8643 
  22   2.0000      -0.516715       -14.0605 
  23   2.0000      -0.488566       -13.2946 
  24   2.0000      -0.482660       -13.1338 
  25   2.0000      -0.479804       -13.0561 
  26   2.0000      -0.461639       -12.5618 
  27   2.0000      -0.452032       -12.3004 
  28   2.0000      -0.445801       -12.1309 
  29   2.0000      -0.416311       -11.3284 
  30   2.0000      -0.396510       -10.7896 
  31   2.0000      -0.395531       -10.7630 
  32   2.0000      -0.385937       -10.5019 
  33   2.0000      -0.380518       -10.3544 
  34   2.0000      -0.379242       -10.3197 
  35   2.0000      -0.373467       -10.1626 
  36   2.0000      -0.342624        -9.3233 
  37   2.0000      -0.334659        -9.1065 
  38   2.0000      -0.301032        -8.1915 
  39   2.0000      -0.291592        -7.9346 
  40   2.0000      -0.287853        -7.8329 
  41   2.0000      -0.280333        -7.6282 
  42   2.0000      -0.264202        -7.1893 
  43   2.0000      -0.261831        -7.1248 
  44   2.0000      -0.210720        -5.7340 
  45   0.0000      -0.039923        -1.0864 
  46   0.0000       0.019682         0.5356 
  47   0.0000       0.043735         1.1901 
  48   0.0000       0.060651         1.6504 
  49   0.0000       0.074838         2.0364 
  50   0.0000       0.093988         2.5576 
  51   0.0000       0.102487         2.7888 
  52   0.0000       0.119022         3.2388 
  53   0.0000       0.122454         3.3322 
  54   0.0000       0.128337         3.4922 
  55   0.0000       0.134119         3.6496 
  56   0.0000       0.148426         4.0389 
  57   0.0000       0.153541         4.1781 
  58   0.0000       0.157160         4.2765 
  59   0.0000       0.166866         4.5406 
  60   0.0000       0.176473         4.8021 
  61   0.0000       0.184653         5.0247 
  62   0.0000       0.196508         5.3472 
  63   0.0000       0.208738         5.6800 
  64   0.0000       0.212125         5.7722 
  65   0.0000       0.221702         6.0328 
  66   0.0000       0.232047         6.3143 
  67   0.0000       0.240544         6.5455 
  68   0.0000       0.246266         6.7012 
  69   0.0000       0.257369         7.0034 
  70   0.0000       0.267712         7.2848 
  71   0.0000       0.279656         7.6098 
  72   0.0000       0.291456         7.9309 
  73   0.0000       0.299959         8.1623 
  74   0.0000       0.319211         8.6862 
  75   0.0000       0.335998         9.1430 
  76   0.0000       0.347938         9.4679 
  77   0.0000       0.353589         9.6216 
  78   0.0000       0.367334         9.9957 
  79   0.0000       0.379847        10.3362 
  80   0.0000       0.389692        10.6041 
  81   0.0000       0.390572        10.6280 
  82   0.0000       0.402603        10.9554 
  83   0.0000       0.404497        11.0069 
  84   0.0000       0.412666        11.2292 
  85   0.0000       0.421079        11.4581 
  86   0.0000       0.429929        11.6990 
  87   0.0000       0.438973        11.9451 
  88   0.0000       0.443278        12.0622 
  89   0.0000       0.455091        12.3837 
  90   0.0000       0.458590        12.4789 
  91   0.0000       0.466360        12.6903 
  92   0.0000       0.470330        12.7983 
  93   0.0000       0.476406        12.9637 
  94   0.0000       0.480020        13.0620 
  95   0.0000       0.484569        13.1858 
  96   0.0000       0.500372        13.6158 
  97   0.0000       0.509903        13.8752 
  98   0.0000       0.515353        14.0235 
  99   0.0000       0.519997        14.1498 
 100   0.0000       0.522282        14.2120 
 101   0.0000       0.536424        14.5968 
 102   0.0000       0.545588        14.8462 
 103   0.0000       0.563029        15.3208 
 104   0.0000       0.564363        15.3571 
 105   0.0000       0.579469        15.7681 
 106   0.0000       0.590105        16.0576 
 107   0.0000       0.596615        16.2347 
 108   0.0000       0.604261        16.4428 
 109   0.0000       0.621746        16.9186 
 110   0.0000       0.626186        17.0394 
 111   0.0000       0.637758        17.3543 
 112   0.0000       0.652250        17.7486 
 113   0.0000       0.682882        18.5822 
 114   0.0000       0.694126        18.8881 
 115   0.0000       0.714278        19.4365 
 116   0.0000       0.741037        20.1646 
 117   0.0000       0.744464        20.2579 
 118   0.0000       0.775457        21.1012 
 119   0.0000       0.797083        21.6897 
 120   0.0000       0.807991        21.9866 
 121   0.0000       0.827249        22.5106 
 122   0.0000       0.832969        22.6662 
 123   0.0000       0.852694        23.2030 
 124   0.0000       0.865823        23.5602 
 125   0.0000       0.879215        23.9246 
 126   0.0000       0.886810        24.1313 
 127   0.0000       0.910266        24.7696 
 128   0.0000       0.931526        25.3481 
 129   0.0000       0.953201        25.9379 
 130   0.0000       0.959027        26.0964 
 131   0.0000       0.967308        26.3218 
 132   0.0000       0.990417        26.9506 
 133   0.0000       0.997997        27.1569 
 134   0.0000       1.012911        27.5627 
 135   0.0000       1.041236        28.3335 
 136   0.0000       1.054831        28.7034 
 137   0.0000       1.062773        28.9195 
 138   0.0000       1.066221        29.0133 
 139   0.0000       1.103084        30.0165 
 140   0.0000       1.113670        30.3045 
 141   0.0000       1.140450        31.0332 
 142   0.0000       1.161487        31.6057 
 143   0.0000       1.187880        32.3239 
 144   0.0000       1.203670        32.7535 
 145   0.0000       1.226867        33.3847 
 146   0.0000       1.263451        34.3802 
 147   0.0000       1.289144        35.0794 
 148   0.0000       1.307999        35.5925 
 149   0.0000       1.319509        35.9057 
 150   0.0000       1.343699        36.5639 
 151   0.0000       1.355769        36.8923 
 152   0.0000       1.396462        37.9997 
 153   0.0000       1.416094        38.5339 
 154   0.0000       1.419308        38.6213 
 155   0.0000       1.449611        39.4459 
 156   0.0000       1.477068        40.1931 
 157   0.0000       1.501292        40.8522 
 158   0.0000       1.507458        41.0200 
 159   0.0000       1.521216        41.3944 
 160   0.0000       1.526921        41.5496 
 161   0.0000       1.538558        41.8663 
 162   0.0000       1.541915        41.9576 
 163   0.0000       1.548984        42.1500 
 164   0.0000       1.557060        42.3698 
 165   0.0000       1.567054        42.6417 
 166   0.0000       1.569313        42.7032 
 167   0.0000       1.582811        43.0705 
 168   0.0000       1.586405        43.1683 
 169   0.0000       1.600142        43.5421 
 170   0.0000       1.604729        43.6669 
 171   0.0000       1.615699        43.9654 
 172   0.0000       1.631462        44.3943 
 173   0.0000       1.642395        44.6918 
 174   0.0000       1.645904        44.7873 
 175   0.0000       1.661612        45.2148 
 176   0.0000       1.692783        46.0630 
 177   0.0000       1.705323        46.4042 
 178   0.0000       1.724477        46.9254 
 179   0.0000       1.736635        47.2563 
 180   0.0000       1.768330        48.1187 
 181   0.0000       1.777516        48.3687 
 182   0.0000       1.785779        48.5935 
 183   0.0000       1.796655        48.8895 
 184   0.0000       1.811480        49.2929 
 185   0.0000       1.843901        50.1751 
 186   0.0000       1.858989        50.5857 
 187   0.0000       1.907090        51.8946 
 188   0.0000       1.912797        52.0499 
 189   0.0000       1.944246        52.9056 
 190   0.0000       1.955733        53.2182 
 191   0.0000       1.961466        53.3742 
 192   0.0000       1.970245        53.6131 
 193   0.0000       1.974272        53.7227 
 194   0.0000       2.003964        54.5306 
 195   0.0000       2.006745        54.6063 
 196   0.0000       2.047041        55.7028 
 197   0.0000       2.060563        56.0708 
 198   0.0000       2.076122        56.4942 
 199   0.0000       2.105839        57.3028 
 200   0.0000       2.121936        57.7408 
 201   0.0000       2.129650        57.9507 
 202   0.0000       2.136300        58.1317 
 203   0.0000       2.139493        58.2186 
 204   0.0000       2.160763        58.7973 
 205   0.0000       2.172032        59.1040 
 206   0.0000       2.179557        59.3088 
 207   0.0000       2.194961        59.7279 
 208   0.0000       2.216202        60.3059 
 209   0.0000       2.228494        60.6404 
 210   0.0000       2.247911        61.1688 
 211   0.0000       2.253850        61.3304 
 212   0.0000       2.270148        61.7739 
 213   0.0000       2.297156        62.5088 
 214   0.0000       2.317694        63.0677 
 215   0.0000       2.331277        63.4373 
 216   0.0000       2.347051        63.8665 
 217   0.0000       2.363771        64.3215 
 218   0.0000       2.364990        64.3546 
 219   0.0000       2.370135        64.4947 
 220   0.0000       2.394839        65.1669 
 221   0.0000       2.398070        65.2548 
 222   0.0000       2.401761        65.3552 
 223   0.0000       2.409454        65.5646 
 224   0.0000       2.436271        66.2943 
 225   0.0000       2.449328        66.6496 
 226   0.0000       2.457306        66.8667 
 227   0.0000       2.471794        67.2609 
 228   0.0000       2.528352        68.8000 
 229   0.0000       2.539291        69.0976 
 230   0.0000       2.545896        69.2773 
 231   0.0000       2.572287        69.9955 
 232   0.0000       2.583402        70.2979 
 233   0.0000       2.584236        70.3206 
 234   0.0000       2.589848        70.4733 
 235   0.0000       2.603709        70.8505 
 236   0.0000       2.614322        71.1393 
 237   0.0000       2.650972        72.1366 
 238   0.0000       2.675484        72.8036 
 239   0.0000       2.688351        73.1538 
 240   0.0000       2.695452        73.3470 
 241   0.0000       2.709408        73.7267 
 242   0.0000       2.715339        73.8881 
 243   0.0000       2.738038        74.5058 
 244   0.0000       2.750298        74.8394 
 245   0.0000       2.755790        74.9889 
 246   0.0000       2.766668        75.2849 
 247   0.0000       2.798304        76.1457 
 248   0.0000       2.810016        76.4644 
 249   0.0000       2.832514        77.0766 
 250   0.0000       2.852910        77.6316 
 251   0.0000       2.889128        78.6172 
 252   0.0000       2.911260        79.2194 
 253   0.0000       2.931471        79.7694 
 254   0.0000       2.933871        79.8347 
 255   0.0000       2.948617        80.2360 
 256   0.0000       2.961478        80.5859 
 257   0.0000       2.974813        80.9488 
 258   0.0000       2.997571        81.5681 
 259   0.0000       3.023062        82.2617 
 260   0.0000       3.048240        82.9468 
 261   0.0000       3.056168        83.1626 
 262   0.0000       3.066311        83.4386 
 263   0.0000       3.105314        84.4999 
 264   0.0000       3.107491        84.5591 
 265   0.0000       3.123792        85.0027 
 266   0.0000       3.128345        85.1266 
 267   0.0000       3.158285        85.9413 
 268   0.0000       3.171804        86.3092 
 269   0.0000       3.177986        86.4774 
 270   0.0000       3.197687        87.0135 
 271   0.0000       3.204535        87.1998 
 272   0.0000       3.213563        87.4455 
 273   0.0000       3.228138        87.8421 
 274   0.0000       3.234996        88.0287 
 275   0.0000       3.258814        88.6768 
 276   0.0000       3.270097        88.9839 
 277   0.0000       3.276264        89.1517 
 278   0.0000       3.296710        89.7080 
 279   0.0000       3.332633        90.6856 
 280   0.0000       3.342259        90.9475 
 281   0.0000       3.351646        91.2029 
 282   0.0000       3.366789        91.6150 
 283   0.0000       3.368324        91.6568 
 284   0.0000       3.391674        92.2921 
 285   0.0000       3.406086        92.6843 
 286   0.0000       3.422021        93.1179 
 287   0.0000       3.460782        94.1727 
 288   0.0000       3.505919        95.4009 
 289   0.0000       3.513489        95.6069 
 290   0.0000       3.535026        96.1929 
 291   0.0000       3.555550        96.7514 
 292   0.0000       3.569829        97.1400 
 293   0.0000       3.596193        97.8574 
 294   0.0000       3.648712        99.2865 
 295   0.0000       3.660841        99.6166 
 296   0.0000       3.677301       100.0644 
 297   0.0000       3.687958       100.3544 
 298   0.0000       3.760432       102.3266 
 299   0.0000       3.771517       102.6282 
 300   0.0000       3.773789       102.6900 
 301   0.0000       3.820250       103.9543 
 302   0.0000       3.839401       104.4754 
 303   0.0000       3.869307       105.2892 
 304   0.0000       3.895143       105.9922 
 305   0.0000       3.896400       106.0264 
 306   0.0000       3.933456       107.0348 
 307   0.0000       3.955743       107.6412 
 308   0.0000       3.972188       108.0887 
 309   0.0000       4.013664       109.2174 
 310   0.0000       4.020063       109.3915 
 311   0.0000       4.061886       110.5295 
 312   0.0000       4.107612       111.7738 
 313   0.0000       4.121918       112.1631 
 314   0.0000       4.144772       112.7850 
 315   0.0000       4.164815       113.3304 
 316   0.0000       4.182103       113.8008 
 317   0.0000       4.293909       116.8432 
 318   0.0000       4.332223       117.8858 
 319   0.0000       4.334564       117.9495 
 320   0.0000       4.382378       119.2506 
 321   0.0000       4.393509       119.5535 
 322   0.0000       4.395261       119.6011 
 323   0.0000       4.439192       120.7965 
 324   0.0000       4.480737       121.9271 
 325   0.0000       4.484526       122.0302 
 326   0.0000       4.514682       122.8508 
 327   0.0000       4.530785       123.2889 
 328   0.0000       4.568768       124.3225 
 329   0.0000       4.647624       126.4683 
 330   0.0000       4.722329       128.5011 
 331   0.0000       4.726905       128.6256 
 332   0.0000       4.750387       129.2646 
 333   0.0000       4.785935       130.2319 
 334   0.0000       4.829088       131.4062 
 335   0.0000       4.870727       132.5392 
 336   0.0000       4.924038       133.9899 
 337   0.0000       4.995203       135.9264 
 338   0.0000       5.048809       137.3851 
 339   0.0000       5.154701       140.2665 
 340   0.0000       5.157481       140.3422 
 341   0.0000       5.163187       140.4975 
 342   0.0000       5.163700       140.5114 
 343   0.0000       5.169806       140.6776 
 344   0.0000       5.184632       141.0810 
 345   0.0000       5.187083       141.1477 
 346   0.0000       5.229737       142.3084 
 347   0.0000       5.262032       143.1872 
 348   0.0000       5.292374       144.0128 
 349   0.0000       5.299748       144.2135 
 350   0.0000       5.312594       144.5630 
 351   0.0000       5.390350       146.6789 
 352   0.0000       5.404762       147.0711 
 353   0.0000       5.444234       148.1451 
 354   0.0000       5.458022       148.5203 
 355   0.0000       5.489930       149.3886 
 356   0.0000       5.511727       149.9817 
 357   0.0000       5.528742       150.4447 
 358   0.0000       5.619991       152.9277 
 359   0.0000       5.648232       153.6962 
 360   0.0000       5.652996       153.8259 
 361   0.0000       5.738598       156.1552 
 362   0.0000       5.788755       157.5200 
 363   0.0000       5.888984       160.2474 
 364   0.0000       5.935928       161.5248 
 365   0.0000       5.955344       162.0531 
 366   0.0000       5.961153       162.2112 
 367   0.0000       6.145513       167.2279 
 368   0.0000       6.185700       168.3215 
 369   0.0000       6.262731       170.4176 
 370   0.0000       6.285078       171.0257 
 371   0.0000       6.298255       171.3842 
 372   0.0000       6.330744       172.2683 
 373   0.0000       6.351746       172.8398 
 374   0.0000       6.360324       173.0732 
 375   0.0000       6.398655       174.1162 
 376   0.0000       6.422095       174.7541 
 377   0.0000       6.431926       175.0216 
 378   0.0000       6.436062       175.1341 
 379   0.0000       6.450648       175.5311 
 380   0.0000       6.479559       176.3178 
 381   0.0000       6.527731       177.6286 
 382   0.0000       6.644996       180.8195 
 383   0.0000       6.698583       182.2777 
 384   0.0000       6.740200       183.4102 
 385   0.0000       6.757368       183.8773 
 386   0.0000       6.830178       185.8586 
 387   0.0000       6.860638       186.6875 
 388   0.0000       6.875425       187.0898 
 389   0.0000       6.884567       187.3386 
 390   0.0000       6.910627       188.0477 
 391   0.0000       6.938775       188.8137 
 392   0.0000       7.056354       192.0131 
 393   0.0000       7.084987       192.7923 
 394   0.0000       7.109282       193.4534 
 395   0.0000       7.130172       194.0218 
 396   0.0000       7.147492       194.4931 
 397   0.0000       7.243799       197.1138 
 398   0.0000       7.253887       197.3883 
 399   0.0000       7.414536       201.7598 
 400   0.0000       7.461753       203.0446 
 401   0.0000       7.565048       205.8554 
 402   0.0000      22.307427       607.0159 
 403   0.0000      22.370761       608.7393 
 404   0.0000      22.393060       609.3461 
 405   0.0000      22.759859       619.3273 
 406   0.0000      23.297440       633.9556 
 407   0.0000      32.381390       881.1424 
 408   0.0000      43.697300      1189.0640 
 409   0.0000      43.798385      1191.8146 
 410   0.0000      43.894746      1194.4368 
 411   0.0000      43.977659      1196.6930 
 412   0.0000      44.085229      1199.6201 
-------
TIMINGS
-------

Total SCF time: 0 days 0 hours 0 min 8 sec 

Total time                  ....       8.451 sec
Sum of individual times     ....       6.859 sec  ( 81.2%)

Fock matrix formation       ....       4.260 sec  ( 50.4%)
  Split-RI-J                ....       0.891 sec  ( 20.9% of F)
  Chain of spheres X        ....       2.085 sec  ( 48.9% of F)
  XC integration            ....       0.330 sec  (  7.7% of F)
    Basis function eval.    ....       0.032 sec  (  9.6% of XC)
    Density eval.           ....       0.081 sec  ( 24.4% of XC)
    XC-Functional eval.     ....       0.002 sec  (  0.7% of XC)
    XC-Potential eval.      ....       0.043 sec  ( 13.1% of XC)
Diagonalization             ....       0.183 sec  (  2.2%)
Density matrix formation    ....       0.046 sec  (  0.5%)
Population analysis         ....       0.000 sec  (  0.0%)
Initial guess               ....       0.247 sec  (  2.9%)
Orbital Transformation      ....       0.000 sec  (  0.0%)
Orbital Orthonormalization  ....       0.201 sec  (  2.4%)
DIIS solution               ....       0.091 sec  (  1.1%)
SOSCF solution              ....       0.191 sec  (  2.3%)
Grid generation             ....       1.841 sec  ( 21.8%)

Maximum memory used throughout the entire SCF-calculation: 90.9 MB


-------------------------------------------------------------------------------
                          DFT DISPERSION CORRECTION                            
                                                                               
                              DFTD3 V3.1  Rev 1                                
                          USING Becke-Johnson damping                          
-------------------------------------------------------------------------------
The B3LYP functional is recognized
Active option DFTDOPT                   ...         4   

molecular C6(AA) [au] = 4120.664183 


            DFT-D V3
 parameters
 s6 scaling factor         :     1.0000 
 a1 scaling factor         :     0.3981 
 s8 scaling factor         :     1.9889 
 a2 scaling factor         :     4.4211 
 ad hoc parameters k1-k3   :    16.0000     1.3333    -4.0000 

 Edisp/kcal,au: -19.127542739093  -0.030481676356 
 E6   /kcal   :  -9.627259306 
 E8   /kcal   :  -9.500283433 
 % E8         :  49.668081061 

-------------------------   ----------------
Dispersion correction           -0.030481676
-------------------------   ----------------


-------------------------   --------------------
FINAL SINGLE POINT ENERGY      -628.672258723876
-------------------------   --------------------



           ************************************************************
           *        Program running with 102 parallel MPI-processes   *
           *              working on a common directory               *
           ************************************************************
------------------------------------------------------------------------------
                         ORCA SCF GRADIENT CALCULATION
------------------------------------------------------------------------------

 ... reading COSX grid (gridx3)
Gradient of the Kohn-Sham DFT energy:
Kohn-Sham wavefunction type      ... RKS
Hartree-Fock exchange scaling    ...    0.200
Number of operators              ...    1
Number of atoms                  ...   23
Basis set dimensions             ...  413
Integral neglect threshold       ... 2.5e-11
Integral primitive cutoff        ... 2.5e-12
SHARK Integral package           ... ON

Nuc. rep. gradient       (SHARK) ... done (  0.0 sec)
HCore & Overlap gradient (SHARK) ... done (  0.1 sec)
RI-J gradient            (SHARK) ... done (  0.4 sec)
COSX-gradient                    ... done (  1.3 sec)
Exchange-correlation gradient    ... done
Dispersion correction            ... done

------------------
CARTESIAN GRADIENT
------------------

   1   C   :    0.000950082    0.000604390   -0.000554092
   2   H   :    0.000566253    0.000101231    0.000218978
   3   N   :   -0.000140290   -0.000230959    0.000165353
   4   O   :    0.000107194    0.000218348    0.000013619
   5   O   :   -0.001934583   -0.001062166   -0.000669116
   6   C   :   -0.000129075    0.000957891    0.000348201
   7   O   :    0.000691893    0.001200397    0.000449378
   8   O   :    0.000143145    0.000265339    0.000367208
   9   C   :   -0.000210923    0.000314355   -0.000254549
  10   H   :   -0.000380311    0.000054410   -0.000551004
  11   H   :   -0.000126010   -0.000062931   -0.000263680
  12   H   :    0.000150180   -0.000819360    0.000109145
  13   C   :   -0.000021018    0.000053416   -0.000088800
  14   H   :    0.000634893   -0.000005995   -0.000442338
  15   H   :   -0.000134520    0.000128271    0.000706276
  16   H   :   -0.000268456   -0.000125910   -0.000253206
  17   C   :   -0.000496684   -0.000342134   -0.000139918
  18   H   :   -0.000578215   -0.000776382    0.000422398
  19   H   :   -0.000534341   -0.000295168   -0.000319479
  20   H   :   -0.001044604   -0.000494460   -0.000179978
  21   H   :    0.001085130    0.000135708    0.000540753
  22   O   :    0.000214617   -0.000079856    0.000440648
  23   H   :    0.001287146    0.000357207   -0.000271389

Difference to translation invariance:
           :   -0.0001684966    0.0000956401   -0.0002055945

Difference to rotation invariance:
           :    0.0003555319    0.0005874966    0.0006586435

Norm of the cartesian gradient     ...    0.0045298228
RMS gradient                       ...    0.0005453266
MAX gradient                       ...    0.0019345826

-------
TIMINGS
-------

Total SCF gradient time            ...        4.415 sec

[...]
 120   0.0000       0.812208        22.1013 
 121   0.0000       0.818628        22.2760 
 122   0.0000       0.825501        22.4630 
 123   0.0000       0.844940        22.9920 
 124   0.0000       0.864315        23.5192 
 125   0.0000       0.877717        23.8839 
 126   0.0000       0.878125        23.8950 
 127   0.0000       0.910942        24.7880 
 128   0.0000       0.928472        25.2650 
 129   0.0000       0.948339        25.8056 
 130   0.0000       0.962761        26.1981 
 131   0.0000       0.975683        26.5497 
 132   0.0000       0.996979        27.1292 
 133   0.0000       1.009589        27.4723 
 134   0.0000       1.021516        27.7969 
 135   0.0000       1.041450        28.3393 
 136   0.0000       1.043828        28.4040 
 137   0.0000       1.051636        28.6165 
 138   0.0000       1.063132        28.9293 
 139   0.0000       1.098792        29.8997 
 140   0.0000       1.125474        30.6257 
 141   0.0000       1.126235        30.6464 
 142   0.0000       1.184054        32.2197 
 143   0.0000       1.195400        32.5285 
 144   0.0000       1.212169        32.9848 
 145   0.0000       1.226869        33.3848 
 146   0.0000       1.238194        33.6930 
 147   0.0000       1.290101        35.1054 
 148   0.0000       1.320623        35.9360 
 149   0.0000       1.325065        36.0568 
 150   0.0000       1.352731        36.8097 
 151   0.0000       1.360548        37.0224 
 152   0.0000       1.406568        38.2747 
 153   0.0000       1.419986        38.6398 
 154   0.0000       1.424841        38.7719 
 155   0.0000       1.450093        39.4590 
 156   0.0000       1.475387        40.1473 
 157   0.0000       1.497741        40.7556 
 158   0.0000       1.507381        41.0179 
 159   0.0000       1.514615        41.2148 
 160   0.0000       1.520468        41.3740 
 161   0.0000       1.534198        41.7477 
 162   0.0000       1.541785        41.9541 
 163   0.0000       1.554127        42.2899 
 164   0.0000       1.556450        42.3531 
 165   0.0000       1.564704        42.5778 
 166   0.0000       1.571142        42.7530 
 167   0.0000       1.584870        43.1265 
 168   0.0000       1.587188        43.1896 
 169   0.0000       1.597052        43.4580 
 170   0.0000       1.609013        43.7835 
 171   0.0000       1.619611        44.0719 
 172   0.0000       1.625268        44.2258 
 173   0.0000       1.641426        44.6655 
 174   0.0000       1.649637        44.8889 
 175   0.0000       1.664110        45.2827 
 176   0.0000       1.694414        46.1073 
 177   0.0000       1.713010        46.6134 
 178   0.0000       1.729209        47.0542 
 179   0.0000       1.733338        47.1665 
 180   0.0000       1.775177        48.3050 
 181   0.0000       1.781248        48.4702 
 182   0.0000       1.786795        48.6212 
 183   0.0000       1.794756        48.8378 
 184   0.0000       1.813212        49.3400 
 185   0.0000       1.838491        50.0279 
 186   0.0000       1.848673        50.3050 
 187   0.0000       1.903970        51.8097 
 188   0.0000       1.909305        51.9548 
 189   0.0000       1.940316        52.7987 
 190   0.0000       1.948887        53.0319 
 191   0.0000       1.962828        53.4113 
 192   0.0000       1.976936        53.7952 
 193   0.0000       1.990134        54.1543 
 194   0.0000       2.005548        54.5737 
 195   0.0000       2.010984        54.7217 
 196   0.0000       2.047986        55.7285 
 197   0.0000       2.071331        56.3638 
 198   0.0000       2.087075        56.7922 
 199   0.0000       2.108794        57.3832 
 200   0.0000       2.123007        57.7700 
 201   0.0000       2.129393        57.9437 
 202   0.0000       2.138106        58.1808 
 203   0.0000       2.147534        58.4374 
 204   0.0000       2.165183        58.9176 
 205   0.0000       2.172448        59.1153 
 206   0.0000       2.173956        59.1564 
 207   0.0000       2.185056        59.4584 
 208   0.0000       2.219316        60.3907 
 209   0.0000       2.232715        60.7553 
 210   0.0000       2.243209        61.0408 
 211   0.0000       2.260248        61.5045 
 212   0.0000       2.280197        62.0473 
 213   0.0000       2.311119        62.8887 
 214   0.0000       2.326174        63.2984 
 215   0.0000       2.332815        63.4791 
 216   0.0000       2.337844        63.6160 
 217   0.0000       2.365371        64.3650 
 218   0.0000       2.371631        64.5354 
 219   0.0000       2.377790        64.7029 
 220   0.0000       2.391816        65.0846 
 221   0.0000       2.394052        65.1455 
 222   0.0000       2.403388        65.3995 
 223   0.0000       2.407938        65.5233 
 224   0.0000       2.432505        66.1918 
 225   0.0000       2.465209        67.0817 
 226   0.0000       2.470153        67.2163 
 227   0.0000       2.503840        68.1329 
 228   0.0000       2.531699        68.8910 
 229   0.0000       2.540802        69.1387 
 230   0.0000       2.545656        69.2708 
 231   0.0000       2.572108        69.9906 
 232   0.0000       2.583597        70.3033 
 233   0.0000       2.587103        70.3987 
 234   0.0000       2.595511        70.6274 
 235   0.0000       2.613751        71.1238 
 236   0.0000       2.629185        71.5437 
 237   0.0000       2.662744        72.4569 
 238   0.0000       2.668068        72.6018 
 239   0.0000       2.676701        72.8367 
 240   0.0000       2.699191        73.4487 
 241   0.0000       2.711863        73.7936 
 242   0.0000       2.725646        74.1686 
 243   0.0000       2.740130        74.5627 
 244   0.0000       2.746888        74.7466 
 245   0.0000       2.758679        75.0675 
 246   0.0000       2.762332        75.1669 
 247   0.0000       2.801720        76.2387 
 248   0.0000       2.819123        76.7122 
 249   0.0000       2.821041        76.7644 
 250   0.0000       2.838351        77.2355 
 251   0.0000       2.896515        78.8182 
 252   0.0000       2.904628        79.0390 
 253   0.0000       2.917476        79.3886 
 254   0.0000       2.939951        80.0001 
 255   0.0000       2.946647        80.1823 
 256   0.0000       2.960675        80.5641 
 257   0.0000       2.991650        81.4069 
 258   0.0000       3.003309        81.7242 
 259   0.0000       3.014200        82.0206 
 260   0.0000       3.048515        82.9543 
 261   0.0000       3.056025        83.1587 
 262   0.0000       3.095699        84.2383 
 263   0.0000       3.104063        84.4658 
 264   0.0000       3.105281        84.4990 
 265   0.0000       3.120816        84.9217 
 266   0.0000       3.133099        85.2560 
 267   0.0000       3.171224        86.2934 
 268   0.0000       3.179974        86.5315 
 269   0.0000       3.183841        86.6367 
 270   0.0000       3.193406        86.8970 
 271   0.0000       3.202233        87.1372 
 272   0.0000       3.217529        87.5534 
 273   0.0000       3.224189        87.7346 
 274   0.0000       3.246787        88.3496 
 275   0.0000       3.254304        88.5541 
 276   0.0000       3.268774        88.9479 
 277   0.0000       3.279037        89.2271 
 278   0.0000       3.315848        90.2288 
 279   0.0000       3.327797        90.5539 
 280   0.0000       3.340549        90.9010 
 281   0.0000       3.357511        91.3625 
 282   0.0000       3.363595        91.5281 
 283   0.0000       3.375381        91.8488 
 284   0.0000       3.394859        92.3788 
 285   0.0000       3.413076        92.8745 
 286   0.0000       3.438384        93.5632 
 287   0.0000       3.447854        93.8209 
 288   0.0000       3.511788        95.5606 
 289   0.0000       3.518671        95.7479 
 290   0.0000       3.542377        96.3930 
 291   0.0000       3.561842        96.9227 
 292   0.0000       3.568438        97.1021 
 293   0.0000       3.574462        97.2660 
 294   0.0000       3.631054        98.8060 
 295   0.0000       3.649539        99.3090 
 296   0.0000       3.671581        99.9088 
 297   0.0000       3.696609       100.5898 
 298   0.0000       3.763856       102.4197 
 299   0.0000       3.769593       102.5759 
 300   0.0000       3.782643       102.9310 
 301   0.0000       3.829809       104.2144 
 302   0.0000       3.836917       104.4078 
 303   0.0000       3.877352       105.5081 
 304   0.0000       3.893522       105.9481 
 305   0.0000       3.902618       106.1956 
 306   0.0000       3.938991       107.1854 
 307   0.0000       3.950936       107.5104 
 308   0.0000       3.988369       108.5291 
 309   0.0000       4.015777       109.2748 
 310   0.0000       4.025439       109.5378 
 311   0.0000       4.071778       110.7987 
 312   0.0000       4.104397       111.6863 
 313   0.0000       4.130879       112.4069 
 314   0.0000       4.172001       113.5259 
 315   0.0000       4.181183       113.7758 
 316   0.0000       4.208787       114.5269 
 317   0.0000       4.273634       116.2915 
 318   0.0000       4.336039       117.9896 
 319   0.0000       4.339910       118.0950 
 320   0.0000       4.384113       119.2978 
 321   0.0000       4.394306       119.5752 
 322   0.0000       4.400620       119.7469 
 323   0.0000       4.422294       120.3367 
 324   0.0000       4.487199       122.1029 
 325   0.0000       4.490322       122.1879 
 326   0.0000       4.533878       123.3731 
 327   0.0000       4.549616       123.8014 
 328   0.0000       4.560750       124.1043 
 329   0.0000       4.644967       126.3960 
 330   0.0000       4.720507       128.4515 
 331   0.0000       4.733644       128.8090 
 332   0.0000       4.752788       129.3299 
 333   0.0000       4.795527       130.4929 
 334   0.0000       4.842651       131.7752 
 335   0.0000       4.895450       133.2120 
 336   0.0000       4.932789       134.2280 
 337   0.0000       4.998107       136.0054 
 338   0.0000       5.049503       137.4040 
 339   0.0000       5.146060       140.0314 
 340   0.0000       5.157869       140.3527 
 341   0.0000       5.161909       140.4627 
 342   0.0000       5.162766       140.4860 
 343   0.0000       5.170450       140.6951 
 344   0.0000       5.183871       141.0603 
 345   0.0000       5.184680       141.0823 
 346   0.0000       5.223520       142.1392 
 347   0.0000       5.259692       143.1235 
 348   0.0000       5.290362       143.9581 
 349   0.0000       5.299349       144.2026 
 350   0.0000       5.316674       144.6741 
 351   0.0000       5.391765       146.7174 
 352   0.0000       5.400872       146.9652 
 353   0.0000       5.438732       147.9954 
 354   0.0000       5.461844       148.6243 
 355   0.0000       5.491316       149.4263 
 356   0.0000       5.510178       149.9396 
 357   0.0000       5.523953       150.3144 
 358   0.0000       5.620541       152.9427 
 359   0.0000       5.653538       153.8406 
 360   0.0000       5.655545       153.8952 
 361   0.0000       5.740657       156.2112 
 362   0.0000       5.787131       157.4758 
 363   0.0000       5.919567       161.0796 
 364   0.0000       5.953789       162.0108 
 365   0.0000       5.958571       162.1410 
 366   0.0000       5.966665       162.3612 
 367   0.0000       6.157688       167.5592 
 368   0.0000       6.186112       168.3327 
 369   0.0000       6.262939       170.4232 
 370   0.0000       6.281946       170.9405 
 371   0.0000       6.303692       171.5322 
 372   0.0000       6.325576       172.1277 
 373   0.0000       6.347873       172.7344 
 374   0.0000       6.367236       173.2613 
 375   0.0000       6.396052       174.0454 
 376   0.0000       6.410222       174.4310 
 377   0.0000       6.423322       174.7875 
 378   0.0000       6.431755       175.0170 
 379   0.0000       6.451016       175.5411 
 380   0.0000       6.478179       176.2802 
 381   0.0000       6.533110       177.7750 
 382   0.0000       6.636851       180.5979 
 383   0.0000       6.697121       182.2379 
 384   0.0000       6.719679       182.8518 
 385   0.0000       6.754344       183.7951 
 386   0.0000       6.843564       186.2229 
 387   0.0000       6.861165       186.7018 
 388   0.0000       6.867418       186.8719 
 389   0.0000       6.877777       187.1538 
 390   0.0000       6.907704       187.9682 
 391   0.0000       6.950400       189.1300 
 392   0.0000       7.063660       192.2119 
 393   0.0000       7.093220       193.0163 
 394   0.0000       7.110383       193.4834 
 395   0.0000       7.138784       194.2562 
 396   0.0000       7.163401       194.9261 
 397   0.0000       7.243747       197.1124 
 398   0.0000       7.250057       197.2841 
 399   0.0000       7.433034       202.2631 
 400   0.0000       7.464023       203.1064 
 401   0.0000       7.574593       206.1152 
 402   0.0000      22.311396       607.1239 
 403   0.0000      22.369058       608.6930 
 404   0.0000      22.410144       609.8110 
 405   0.0000      22.791375       620.1848 
 406   0.0000      23.306376       634.1987 
 407   0.0000      32.379275       881.0849 
 408   0.0000      43.718374      1189.6374 
 409   0.0000      43.802891      1191.9373 
 410   0.0000      43.900537      1194.5943 
 411   0.0000      43.965843      1196.3714 
 412   0.0000      44.081666      1199.5231 
-------
TIMINGS
-------

Total SCF time: 0 days 0 hours 0 min 15 sec 

Total time                  ....      15.287 sec
Sum of individual times     ....      13.613 sec  ( 89.1%)

Fock matrix formation       ....      10.032 sec  ( 65.6%)
  Split-RI-J                ....       1.816 sec  ( 18.1% of F)
  Chain of spheres X        ....       4.342 sec  ( 43.3% of F)
  XC integration            ....       1.209 sec  ( 12.0% of F)
    Basis function eval.    ....       0.096 sec  (  8.0% of XC)
    Density eval.           ....       0.220 sec  ( 18.2% of XC)
    XC-Functional eval.     ....       0.009 sec  (  0.7% of XC)
    XC-Potential eval.      ....       0.096 sec  (  8.0% of XC)
Diagonalization             ....       0.189 sec  (  1.2%)
Density matrix formation    ....       0.114 sec  (  0.7%)
Population analysis         ....       0.000 sec  (  0.0%)
Initial guess               ....       0.221 sec  (  1.4%)
Orbital Transformation      ....       0.000 sec  (  0.0%)
Orbital Orthonormalization  ....       0.189 sec  (  1.2%)
DIIS solution               ....       0.097 sec  (  0.6%)
SOSCF solution              ....       1.140 sec  (  7.5%)
Grid generation             ....       1.821 sec  ( 11.9%)

Maximum memory used throughout the entire SCF-calculation: 90.8 MB


-------------------------------------------------------------------------------
                          DFT DISPERSION CORRECTION                            
                                                                               
                              DFTD3 V3.1  Rev 1                                
                          USING Becke-Johnson damping                          
-------------------------------------------------------------------------------
The B3LYP functional is recognized
Active option DFTDOPT                   ...         4   

molecular C6(AA) [au] = 4115.012042 


            DFT-D V3
 parameters
 s6 scaling factor         :     1.0000 
 a1 scaling factor         :     0.3981 
 s8 scaling factor         :     1.9889 
 a2 scaling factor         :     4.4211 
 ad hoc parameters k1-k3   :    16.0000     1.3333    -4.0000 

 Edisp/kcal,au: -19.231688930997  -0.030647643859 
 E6   /kcal   :  -9.677343083 
 E8   /kcal   :  -9.554345848 
 % E8         :  49.680222482 

-------------------------   ----------------
Dispersion correction           -0.030647644
-------------------------   ----------------


-------------------------   --------------------
FINAL SINGLE POINT ENERGY      -628.674181763386
-------------------------   --------------------

                                *** OPTIMIZATION RUN DONE ***


                    ***********************HURRAY************************
                    ***        THE TS OPTIMIZATION HAS CONVERGED      ***
                    *****************************************************



---------------------------------------------------------------
                      PATH SUMMARY FOR NEB-TS             
---------------------------------------------------------------
All forces in Eh/Bohr. Global forces for TS.

Image     E(Eh)   dE(kcal/mol)  max(|Fp|)  RMS(Fp)
  0    -628.70702     0.00       0.00138   0.00047
  1    -628.70633     0.43       0.00117   0.00031
  2    -628.70285     2.62       0.00246   0.00061
  3    -628.70194     3.19       0.00340   0.00115
  4    -628.68580    13.32       0.00581   0.00196
  5    -628.67226    21.81       0.00193   0.00055 <= CI
 TS    -628.67418    20.60       0.00239   0.00043 <= TS
  6    -628.68443    14.17       0.01519   0.00267
  7    -628.68724    12.41       0.00107   0.00027
----------
STATISTICS
----------

For the individual parts of the NEB, NEB-CI or NEB-TS run:

Number of iterations:
     NEB                               ... 42  64.6%
     TS optimization                   ... 23  35.4%
Number of SCF / gradient calculations:
     NEB                               ... 338  93.6%
     TS optimization                   ... 23  6.4%

----------
 TIMINGS
----------

For the individual parts of the NEB, NEB-CI or NEB-TS run:

Total                                  ...     4547.334 sec
NEB                                    ...     3646.574 sec  80.2%
TS Optimization                        ...      900.760 sec  19.8%


                            ***************************************
                            *     ORCA property calculations      *
                            ***************************************

                                    ---------------------
                                    Active property flags
                                    ---------------------
   (+) Dipole Moment


------------------------------------------------------------------------------
                       ORCA ELECTRIC PROPERTIES CALCULATION
------------------------------------------------------------------------------

Dipole Moment Calculation                       ... on
Quadrupole Moment Calculation                   ... off
Polarizability Calculation                      ... off
GBWName                                         ... neb.gbw
Electron density                                ... neb.scfp
The origin for moment calculation is the CENTER OF MASS  = ( 0.255221, -0.344592  0.368785)

-------------
DIPOLE MOMENT
-------------
                                X             Y             Z
Electronic contribution:      2.49607      -3.34935       4.02620
Nuclear contribution   :     -2.73503       4.25419      -4.12047
                        -----------------------------------------
Total Dipole Moment    :     -0.23896       0.90484      -0.09427
                        -----------------------------------------
Magnitude (a.u.)       :      0.94059
Magnitude (Debye)      :      2.39080



--------------------
Rotational spectrum 
--------------------
 
Rotational constants in cm-1:     0.050744     0.018694     0.017705 
Rotational constants in MHz :  1521.278779   560.431281   530.778889 

 Dipole components along the rotational axes: 
x,y,z [a.u.] :    -0.516908     0.630993     0.468372 
x,y,z [Debye]:    -1.313875     1.603857     1.190506 

 

Timings for individual modules:

Sum of individual times         ...     4551.799 sec (=  75.863 min)
GTO integral calculation        ...      113.008 sec (=   1.883 min)   2.5 %
SCF iterations                  ...      590.924 sec (=   9.849 min)  13.0 %
SCF Gradient evaluation         ...      200.579 sec (=   3.343 min)   4.4 %
Geometry relaxation             ...        0.713 sec (=   0.012 min)   0.0 %
NEB Iterations                  ...     3646.574 sec (=  60.776 min)  80.1 %
                             ****ORCA TERMINATED NORMALLY****
TOTAL RUN TIME: 0 days 1 hours 15 minutes 55 seconds 9 msec
