
                                 *****************
                                 * O   R   C   A *
                                 *****************

                                            #,                                       
                                            ###                                      
                                            ####                                     
                                            #####                                    
                                            ######                                   
                                           ########,                                 
                                     ,,################,,,,,                         
                               ,,#################################,,                 
                          ,,##########################################,,             
                       ,#########################################, ''#####,          
                    ,#############################################,,   '####,        
                  ,##################################################,,,,####,       
                ,###########''''           ''''###############################       
              ,#####''   ,,,,##########,,,,          '''####'''          '####       
            ,##' ,,,,###########################,,,                        '##       
           ' ,,###''''                  '''############,,,                           
         ,,##''                                '''############,,,,        ,,,,,,###''
      ,#''                                            '''#######################'''  
     '                                                          ''''####''''         
             ,#######,   #######,   ,#######,      ##                                
            ,#'     '#,  ##    ##  ,#'     '#,    #''#        ######   ,####,        
            ##       ##  ##   ,#'  ##            #'  '#       #        #'  '#        
            ##       ##  #######   ##           ,######,      #####,   #    #        
            '#,     ,#'  ##    ##  '#,     ,#' ,#      #,         ##   #,  ,#        
             '#######'   ##     ##  '#######'  #'      '#     #####' # '####'        



                  #######################################################
                  #                        -***-                        #
                  #          Department of theory and spectroscopy      #
                  #    Directorship and core code : Frank Neese         #
                  #        Max Planck Institute fuer Kohlenforschung    #
                  #                Kaiser Wilhelm Platz 1               #
                  #                 D-45470 Muelheim/Ruhr               #
                  #                      Germany                        #
                  #                                                     #
                  #                  All rights reserved                #
                  #                        -***-                        #
                  #######################################################


                         Program Version 5.0.4 -  RELEASE  -


 With contributions from (in alphabetic order):
   Daniel Aravena         : Magnetic Suceptibility
   Michael Atanasov       : Ab Initio Ligand Field Theory (pilot matlab implementation)
   Alexander A. Auer      : GIAO ZORA, VPT2 properties, NMR spectrum
   Ute Becker             : Parallelization
   Giovanni Bistoni       : ED, misc. LED, open-shell LED, HFLD
   Martin Brehm           : Molecular dynamics
   Dmytro Bykov           : SCF Hessian
   Vijay G. Chilkuri      : MRCI spin determinant printing, contributions to CSF-ICE
   Dipayan Datta          : RHF DLPNO-CCSD density
   Achintya Kumar Dutta   : EOM-CC, STEOM-CC
   Dmitry Ganyushin       : Spin-Orbit,Spin-Spin,Magnetic field MRCI
   Miquel Garcia          : C-PCM and meta-GGA Hessian, CC/C-PCM, Gaussian charge scheme
   Yang Guo               : DLPNO-NEVPT2, F12-NEVPT2, CIM, IAO-localization
   Andreas Hansen         : Spin unrestricted coupled pair/coupled cluster methods
   Benjamin Helmich-Paris : MC-RPA, TRAH-SCF, COSX integrals
   Lee Huntington         : MR-EOM, pCC
   Robert Izsak           : Overlap fitted RIJCOSX, COSX-SCS-MP3, EOM
   Marcus Kettner         : VPT2
   Christian Kollmar      : KDIIS, OOCD, Brueckner-CCSD(T), CCSD density, CASPT2, CASPT2-K
   Simone Kossmann        : Meta GGA functionals, TD-DFT gradient, OOMP2, MP2 Hessian
   Martin Krupicka        : Initial AUTO-CI
   Lucas Lang             : DCDCAS
   Marvin Lechner         : AUTO-CI (C++ implementation), FIC-MRCC
   Dagmar Lenk            : GEPOL surface, SMD
   Dimitrios Liakos       : Extrapolation schemes; Compound Job, initial MDCI parallelization
   Dimitrios Manganas     : Further ROCIS development; embedding schemes
   Dimitrios Pantazis     : SARC Basis sets
   Anastasios Papadopoulos: AUTO-CI, single reference methods and gradients
   Taras Petrenko         : DFT Hessian,TD-DFT gradient, ASA, ECA, R-Raman, ABS, FL, XAS/XES, NRVS
   Peter Pinski           : DLPNO-MP2, DLPNO-MP2 Gradient
   Christoph Reimann      : Effective Core Potentials
   Marius Retegan         : Local ZFS, SOC
   Christoph Riplinger    : Optimizer, TS searches, QM/MM, DLPNO-CCSD(T), (RO)-DLPNO pert. Triples
   Tobias Risthaus        : Range-separated hybrids, TD-DFT gradient, RPA, STAB
   Michael Roemelt        : Original ROCIS implementation
   Masaaki Saitow         : Open-shell DLPNO-CCSD energy and density
   Barbara Sandhoefer     : DKH picture change effects
   Avijit Sen             : IP-ROCIS
   Kantharuban Sivalingam : CASSCF convergence, NEVPT2, FIC-MRCI
   Bernardo de Souza      : ESD, SOC TD-DFT
   Georgi Stoychev        : AutoAux, RI-MP2 NMR, DLPNO-MP2 response
   Willem Van den Heuvel  : Paramagnetic NMR
   Boris Wezisla          : Elementary symmetry handling
   Frank Wennmohs         : Technical directorship


 We gratefully acknowledge several colleagues who have allowed us to
 interface, adapt or use parts of their codes:
   Stefan Grimme, W. Hujo, H. Kruse, P. Pracht,  : VdW corrections, initial TS optimization,
                  C. Bannwarth, S. Ehlert          DFT functionals, gCP, sTDA/sTD-DF
   Ed Valeev, F. Pavosevic, A. Kumar             : LibInt (2-el integral package), F12 methods
   Garnet Chan, S. Sharma, J. Yang, R. Olivares  : DMRG
   Ulf Ekstrom                                   : XCFun DFT Library
   Mihaly Kallay                                 : mrcc  (arbitrary order and MRCC methods)
   Jiri Pittner, Ondrej Demel                    : Mk-CCSD
   Frank Weinhold                                : gennbo (NPA and NBO analysis)
   Christopher J. Cramer and Donald G. Truhlar   : smd solvation model
   Lars Goerigk                                  : TD-DFT with DH, B97 family of functionals
   V. Asgeirsson, H. Jonsson                     : NEB implementation
   FAccTs GmbH                                   : IRC, NEB, NEB-TS, DLPNO-Multilevel, CI-OPT
                                                   MM, QMMM, 2- and 3-layer-ONIOM, Crystal-QMMM,
                                                   LR-CPCM, SF, NACMEs, symmetry and pop. for TD-DFT,
                                                   nearIR, NL-DFT gradient (VV10), updates on ESD,
                                                   ML-optimized integration grids
   S Lehtola, MJT Oliveira, MAL Marques          : LibXC Library
   Liviu Ungur et al                             : ANISO software


 Your calculation uses the libint2 library for the computation of 2-el integrals
 For citations please refer to: http://libint.valeyev.net

 Your ORCA version has been built with support for libXC version: 5.1.0
 For citations please refer to: https://tddft.org/programs/libxc/

 This ORCA versions uses:
   CBLAS   interface :  Fast vector & matrix operations
   LAPACKE interface :  Fast linear algebra routines
   SCALAPACK package :  Parallel linear algebra routines
   Shared memory     :  Shared parallel matrices
   BLAS/LAPACK       :  OpenBLAS 0.3.15  USE64BITINT DYNAMIC_ARCH NO_AFFINITY Prescott SINGLE_THREADED
        Core in use  :  Prescott
   Copyright (c) 2011-2014, The OpenBLAS Project


Your calculation utilizes the atom-pairwise dispersion correction
with the Becke-Johnson damping scheme (D3BJ)
Cite in your paper:
S.Grimme, S.Ehrlich, L.Goerigk, J Comput Chem, (2011), 32, 1456–1465 
S.Grimme, J.Antony, S.Ehrlich and H.Krieg, J.Chem.Phys., 132, (2010), 154104 
   

================================================================================

----- Orbital basis set information -----
Your calculation utilizes the basis: def2-TZVP
   F. Weigend and R. Ahlrichs, Phys. Chem. Chem. Phys. 7, 3297 (2005).

----- AuxJ basis set information -----
Your calculation utilizes the auxiliary basis: def2/J
   F. Weigend, Phys. Chem. Chem. Phys. 8, 1057 (2006).

================================================================================
                                        WARNINGS
                       Please study these warnings very carefully!
================================================================================

WARNING: Gradients needed for Numerical Frequencies
  ===> : Setting RunTyp to EnGrad

INFO   : the flag for use of the SHARK integral package has been found!

================================================================================
                                       INPUT FILE
================================================================================
NAME = /home/rudenko/mop_saddle_orca_4_serv/for_orca/c6h5chno2ch3_piperazine/orca/start_freq_D/start_f_D.inp
|  1> !  NUMFREQ B3LYP def2-TZVP CPCM D3 
|  2> %pal nprocs 102 end
|  3> %cpcm epsilon 78.4 end 
|  4> *xyz 0 1 
|  5> C   -0.63901199241088 2.85147915983486 0.27207846108369
|  6> C   0.44729962096301 2.28057689752499 0.92721097520638
|  7> C   0.28364102785821 1.1188231473501 1.67907668448609
|  8> C   -0.97663674880688 0.525754452424 1.76169852461797
|  9> C   -2.05948909447308 1.09151007010144 1.09972837649928
| 10> C   -1.89338129371403 2.25654708541198 0.35529474291861
| 11> H   -0.50431421241209 3.75821130444806 -0.30409046161553
| 12> H   1.42685033576022 2.73740777690726 0.86464129498854
| 13> H   -1.11458486905919 -0.37982359718175 2.33846822509773
| 14> H   -2.73933560822413 2.69773469214688 -0.15654959909522
| 15> C   1.47614254637986 0.52942069808816 2.39766149999128
| 16> C   1.27206193887023 0.2776655374116 3.87760150117555
| 17> H   2.16513931328884 -0.16194540395616 4.31982297380544
| 18> H   0.41904715681334 -0.37107152498074 4.0648302511465
| 19> H   1.08823122713729 1.24073090376115 4.35511262761654
| 20> N   1.8421884217717 -0.7748281355638 1.67317691960945
| 21> O   2.49513907691887 -0.67052674738267 0.64645574667467
| 22> O   1.45169325683698 -1.83501553470696 2.12977644424923
| 23> N   4.9703961884727 0.84551020919523 3.92145535708056
| 24> C   5.28798346917299 -0.46381792297093 3.35418243173314
| 25> C   5.65864389879521 -1.42528528814534 4.47322507458268
| 26> N   6.79573141620167 -0.88366835158129 5.22198010158493
| 27> C   6.47831194151766 0.42947454016153 5.78962113172971
| 28> C   6.10575130154079 1.38693680336026 4.66694523716903
| 29> H   5.82860375931462 2.35757593129555 5.08286037168927
| 30> H   6.98965821431268 1.53290072039844 4.02407512059928
| 31> H   7.35195691620036 0.80399503806386 6.32642746207987
| 32> H   5.63733482176073 0.37926809456829 6.50001742239461
| 33> H   5.93730540918799 -2.39499405570202 4.05632512676187
| 34> H   4.77541885469504 -1.57116399439447 5.11575183261018
| 35> H   6.12786615053827 -0.41340136632506 2.64153038838065
| 36> H   2.34577373211213 1.15703200386098 2.21996828669981 M = 2
| 37> H   4.69335633042141 1.49015444412686 3.18782979832429
| 38> H   4.41813250997001 -0.84258807015299 2.81698793889378
| 39> H   7.05269553068972 -1.52401211927071 5.96425919151619
| 40> H   4.45250479561428 3.11896103882582 1.00252268918175
| 41> H   3.58320497955707 3.72534979106588 2.10809698763335
| 42> O   3.92169727411019 2.88469529173601 1.77444167572577
| 43> H   -3.03366768768433 0.62388636024559 1.16637114517251
| 44> *
| 45> 
| 46>                          ****END OF INPUT****
================================================================================

                     *******************************
                     * Energy+Gradient Calculation *
                     *******************************

---------------------------------
CARTESIAN COORDINATES (ANGSTROEM)
---------------------------------
  C     -0.639012    2.851479    0.272078
  C      0.447300    2.280577    0.927211
  C      0.283641    1.118823    1.679077
  C     -0.976637    0.525754    1.761699
  C     -2.059489    1.091510    1.099728
  C     -1.893381    2.256547    0.355295
  H     -0.504314    3.758211   -0.304090
  H      1.426850    2.737408    0.864641
  H     -1.114585   -0.379824    2.338468
  H     -2.739336    2.697735   -0.156550
  C      1.476143    0.529421    2.397661
  C      1.272062    0.277666    3.877602
  H      2.165139   -0.161945    4.319823
  H      0.419047   -0.371072    4.064830
  H      1.088231    1.240731    4.355113
  N      1.842188   -0.774828    1.673177
  O      2.495139   -0.670527    0.646456
  O      1.451693   -1.835016    2.129776
  N      4.970396    0.845510    3.921455
  C      5.287983   -0.463818    3.354182
  C      5.658644   -1.425285    4.473225
  N      6.795731   -0.883668    5.221980
  C      6.478312    0.429475    5.789621
  C      6.105751    1.386937    4.666945
  H      5.828604    2.357576    5.082860
  H      6.989658    1.532901    4.024075
  H      7.351957    0.803995    6.326427
  H      5.637335    0.379268    6.500017
  H      5.937305   -2.394994    4.056325
  H      4.775419   -1.571164    5.115752
  H      6.127866   -0.413401    2.641530
  H      2.345774    1.157032    2.219968
  H      4.693356    1.490154    3.187830
  H      4.418133   -0.842588    2.816988
  H      7.052696   -1.524012    5.964259
  H      4.452505    3.118961    1.002523
  H      3.583205    3.725350    2.108097
  O      3.921697    2.884695    1.774442
  H     -3.033668    0.623886    1.166371

----------------------------
CARTESIAN COORDINATES (A.U.)
----------------------------
  NO LB      ZA    FRAG     MASS         X           Y           Z
   0 C     6.0000    0    12.011   -1.207558    5.388515    0.514154
   1 C     6.0000    0    12.011    0.845274    4.309666    1.752175
   2 C     6.0000    0    12.011    0.536004    2.114269    3.172995
   3 C     6.0000    0    12.011   -1.845576    0.993532    3.329128
   4 C     6.0000    0    12.011   -3.891870    2.062655    2.078185
   5 C     6.0000    0    12.011   -3.577972    4.264256    0.671410
   6 H     1.0000    0     1.008   -0.953016    7.101990   -0.574648
   7 H     1.0000    0     1.008    2.696356    5.172951    1.633935
   8 H     1.0000    0     1.008   -2.106260   -0.717763    4.419065
   9 H     1.0000    0     1.008   -5.176594    5.097980   -0.295836
  10 C     6.0000    0    12.011    2.789505    1.000460    4.530924
  11 C     6.0000    0    12.011    2.403849    0.524712    7.327605
  12 H     1.0000    0     1.008    4.091520   -0.306032    8.163282
  13 H     1.0000    0     1.008    0.791884   -0.701224    7.681416
  14 H     1.0000    0     1.008    2.056459    2.344642    8.229970
  15 N     7.0000    0    14.007    3.481232   -1.464213    3.161846
  16 O     8.0000    0    15.999    4.715130   -1.267112    1.221624
  17 O     8.0000    0    15.999    2.743303   -3.467677    4.024694
  18 N     7.0000    0    14.007    9.392688    1.597783    7.410477
  19 C     6.0000    0    12.011    9.992841   -0.876489    6.338486
  20 C     6.0000    0    12.011   10.693287   -2.693399    8.453170
  21 N     7.0000    0    14.007   12.842071   -1.669891    9.868112
  22 C     6.0000    0    12.011   12.242235    0.811589   10.940798
  23 C     6.0000    0    12.011   11.538198    2.620931    8.819248
  24 H     1.0000    0     1.008   11.014465    4.455173    9.605214
  25 H     1.0000    0     1.008   13.208540    2.896763    7.604400
  26 H     1.0000    0     1.008   13.893185    1.519330   11.955215
  27 H     1.0000    0     1.008   10.653019    0.716713   12.283253
  28 H     1.0000    0     1.008   11.219881   -4.525883    7.665344
  29 H     1.0000    0     1.008    9.024234   -2.969070    9.667370
  30 H     1.0000    0     1.008   11.579989   -0.781215    4.991769
  31 H     1.0000    0     2.000    4.432870    2.186474    4.195132
  32 H     1.0000    0     1.008    8.869158    2.815984    6.024125
  33 H     1.0000    0     1.008    8.349060   -1.592261    5.323336
  34 H     1.0000    0     1.008   13.327663   -2.879966   11.270816
  35 H     1.0000    0     1.008    8.414015    5.893982    1.894493
  36 H     1.0000    0     1.008    6.771276    7.039891    3.983726
  37 O     8.0000    0    15.999    7.410934    5.451284    3.353209
  38 H     1.0000    0     1.008   -5.732801    1.178974    2.204122

--------------------------------
INTERNAL COORDINATES (ANGSTROEM)
--------------------------------
 C      0   0   0     0.000000000000     0.00000000     0.00000000
 C      1   0   0     1.391114993637     0.00000000     0.00000000
 C      2   1   0     1.393469754223   120.30069354     0.00000000
 C      3   2   1     1.395298147252   119.49842999     0.50051770
 C      4   3   2     1.389551401874   120.17248487   359.93263463
 C      1   2   3     1.390795264153   120.03735193   359.41335353
 H      1   2   3     1.082717553887   119.81157922   179.55810049
 H      2   1   3     1.082649075231   120.40741174   180.44791360
 H      4   3   2     1.082480750499   120.14838561   179.67129339
 H      6   1   2     1.082714106783   120.13857504   180.19614494
 C      3   2   1     1.511892607280   119.26374263   180.87403295
 C     11   3   2     1.515008898454   115.01272324   126.90724557
 H     12  11   3     1.089222111107   110.68434701   179.00034429
 H     12  11   3     1.087910198199   111.89018064    56.68711555
 H     12  11   3     1.090552844347   107.67906414   297.41322059
 N     11   3   2     1.536207183353   107.14392965   250.27968598
 O     16  11   3     1.221220579824   116.83253576    80.26218952
 O     16  11   3     1.218592188158   119.05044679   261.64592913
 N     13  12  11     3.007179693050   125.16061893    47.76099185
 C     19  13  12     1.461848285691    87.36378932   239.98209705
 C     20  19  13     1.521205142280   109.48580547   274.05246872
 N     21  20  19     1.465247766992   109.35223575   301.99811856
 C     22  21  20     1.465372210787   111.16722037    58.94617884
 C     19  13  12     1.462165910885   141.33957066   118.60720328
 H     24  19  13     1.091758432971   109.04611410   294.43227158
 H     24  19  13     1.102668981291   111.97513594   175.05442205
 H     23  22  21     1.091641965775   108.93945247   180.75701851
 H     23  22  21     1.102010023967   111.97432832    61.33997958
 H     21  20  19     1.091692675502   110.04092051   182.31325718
 H     21  20  19     1.101910935713   108.50070210    64.30074856
 H     20  19  13     1.102641230199   112.04471811   153.51744482
 H     11   3   2     1.087073699609   109.16043849     0.98989097
 H     19  13  12     1.015147148467    93.08960844   350.22571030
 H     20  19  13     1.090268516816   109.21015197    34.19541457
 H     22  21  20     1.013434232845   109.72423284   180.49382454
 H     33  19  13     2.736162923881   168.30267581   212.71062800
 H     36  33  19     1.531562606764    73.08943734   209.10143474
 O     36  33  19     0.965658317901    42.73779484   182.25883351
 H      5   4   3     1.082652817900   119.73711873   179.82820024

---------------------------
INTERNAL COORDINATES (A.U.)
---------------------------
 C      0   0   0     0.000000000000     0.00000000     0.00000000
 C      1   0   0     2.628826358766     0.00000000     0.00000000
 C      2   1   0     2.633276211383   120.30069354     0.00000000
 C      3   2   1     2.636731373473   119.49842999     0.50051770
 C      4   3   2     2.625871598547   120.17248487   359.93263463
 C      1   2   3     2.628222157604   120.03735193   359.41335353
 H      1   2   3     2.046039657236   119.81157922   179.55810049
 H      2   1   3     2.045910251331   120.40741174   180.44791360
 H      4   3   2     2.045592163684   120.14838561   179.67129339
 H      6   1   2     2.046033143153   120.13857504   180.19614494
 C      3   2   1     2.857062971659   119.26374263   180.87403295
 C     11   3   2     2.862951908531   115.01272324   126.90724557
 H     12  11   3     2.058331489003   110.68434701   179.00034429
 H     12  11   3     2.055852332895   111.89018064    56.68711555
 H     12  11   3     2.060846210385   107.67906414   297.41322059
 N     11   3   2     2.903010861499   107.14392965   250.27968598
 O     16  11   3     2.307772444976   116.83253576    80.26218952
 O     16  11   3     2.302805504555   119.05044679   261.64592913
 N     13  12  11     5.682746055354   125.16061893    47.76099185
 C     19  13  12     2.762492909298    87.36378932   239.98209705
 C     20  19  13     2.874661112422   109.48580547   274.05246872
 N     21  20  19     2.768916997955   109.35223575   301.99811856
 C     22  21  20     2.769152162646   111.16722037    58.94617884
 C     19  13  12     2.763093133928   141.33957066   118.60720328
 H     24  19  13     2.063124442715   109.04611410   294.43227158
 H     24  19  13     2.083742391010   111.97513594   175.05442205
 H     23  22  21     2.062904351610   108.93945247   180.75701851
 H     23  22  21     2.082497142134   111.97432832    61.33997958
 H     21  20  19     2.063000179106   110.04092051   182.31325718
 H     21  20  19     2.082309892471   108.50070210    64.30074856
 H     20  19  13     2.083689949047   112.04471811   153.51744482
 H     11   3   2     2.054271579650   109.16043849     0.98989097
 H     19  13  12     1.918350096233    93.08960844   350.22571030
 H     20  19  13     2.060308909218   109.21015197    34.19541457
 H     22  21  20     1.915113154818   109.72423284   180.49382454
 H     33  19  13     5.170598583925   168.30267581   212.71062800
 H     36  33  19     2.894233883738    73.08943734   209.10143474
 O     36  33  19     1.824829759777    42.73779484   182.25883351
 H      5   4   3     2.045917323949   119.73711873   179.82820024

---------------------
BASIS SET INFORMATION
---------------------
There are 4 groups of distinct atoms

 Group   1 Type C   : 11s6p2d1f contracted to 5s3p2d1f pattern {62111/411/11/1}
 Group   2 Type H   : 5s1p contracted to 3s1p pattern {311/1}
 Group   3 Type N   : 11s6p2d1f contracted to 5s3p2d1f pattern {62111/411/11/1}
 Group   4 Type O   : 11s6p2d1f contracted to 5s3p2d1f pattern {62111/411/11/1}

Atom   0C    basis set group =>   1
Atom   1C    basis set group =>   1
Atom   2C    basis set group =>   1
Atom   3C    basis set group =>   1
Atom   4C    basis set group =>   1
Atom   5C    basis set group =>   1
Atom   6H    basis set group =>   2
Atom   7H    basis set group =>   2
Atom   8H    basis set group =>   2
Atom   9H    basis set group =>   2
Atom  10C    basis set group =>   1
Atom  11C    basis set group =>   1
Atom  12H    basis set group =>   2
Atom  13H    basis set group =>   2
Atom  14H    basis set group =>   2
Atom  15N    basis set group =>   3
Atom  16O    basis set group =>   4
Atom  17O    basis set group =>   4
Atom  18N    basis set group =>   3
Atom  19C    basis set group =>   1
Atom  20C    basis set group =>   1
Atom  21N    basis set group =>   3
Atom  22C    basis set group =>   1
Atom  23C    basis set group =>   1
Atom  24H    basis set group =>   2
Atom  25H    basis set group =>   2
Atom  26H    basis set group =>   2
Atom  27H    basis set group =>   2
Atom  28H    basis set group =>   2
Atom  29H    basis set group =>   2
Atom  30H    basis set group =>   2
Atom  31H    basis set group =>   2
Atom  32H    basis set group =>   2
Atom  33H    basis set group =>   2
Atom  34H    basis set group =>   2
Atom  35H    basis set group =>   2
Atom  36H    basis set group =>   2
Atom  37O    basis set group =>   4
Atom  38H    basis set group =>   2
---------------------------------
AUXILIARY/J BASIS SET INFORMATION
---------------------------------
There are 4 groups of distinct atoms

 Group   1 Type C   : 12s5p4d2f1g contracted to 6s4p3d1f1g pattern {711111/2111/211/2/1}
 Group   2 Type H   : 5s2p1d contracted to 3s1p1d pattern {311/2/1}
 Group   3 Type N   : 12s5p4d2f1g contracted to 6s4p3d1f1g pattern {711111/2111/211/2/1}
 Group   4 Type O   : 12s5p4d2f1g contracted to 6s4p3d1f1g pattern {711111/2111/211/2/1}

Atom   0C    basis set group =>   1
Atom   1C    basis set group =>   1
Atom   2C    basis set group =>   1
Atom   3C    basis set group =>   1
Atom   4C    basis set group =>   1
Atom   5C    basis set group =>   1
Atom   6H    basis set group =>   2
Atom   7H    basis set group =>   2
Atom   8H    basis set group =>   2
Atom   9H    basis set group =>   2
Atom  10C    basis set group =>   1
Atom  11C    basis set group =>   1
Atom  12H    basis set group =>   2
Atom  13H    basis set group =>   2
Atom  14H    basis set group =>   2
Atom  15N    basis set group =>   3
Atom  16O    basis set group =>   4
Atom  17O    basis set group =>   4
Atom  18N    basis set group =>   3
Atom  19C    basis set group =>   1
Atom  20C    basis set group =>   1
Atom  21N    basis set group =>   3
Atom  22C    basis set group =>   1
Atom  23C    basis set group =>   1
Atom  24H    basis set group =>   2
Atom  25H    basis set group =>   2
Atom  26H    basis set group =>   2
Atom  27H    basis set group =>   2
Atom  28H    basis set group =>   2
Atom  29H    basis set group =>   2
Atom  30H    basis set group =>   2
Atom  31H    basis set group =>   2
Atom  32H    basis set group =>   2
Atom  33H    basis set group =>   2
Atom  34H    basis set group =>   2
Atom  35H    basis set group =>   2
Atom  36H    basis set group =>   2
Atom  37O    basis set group =>   4
Atom  38H    basis set group =>   2


           ************************************************************
           *        Program running with 102 parallel MPI-processes   *
           *              working on a common directory               *
           ************************************************************
------------------------------------------------------------------------------
                           ORCA GTO INTEGRAL CALCULATION
                           -- RI-GTO INTEGRALS CHOSEN --
------------------------------------------------------------------------------
------------------------------------------------------------------------------
                   ___                                                        
                  /   \      - P O W E R E D   B Y -                         
                 /     \                                                     
                 |  |  |   _    _      __       _____    __    __             
                 |  |  |  | |  | |    /  \     |  _  \  |  |  /  |          
                  \  \/   | |  | |   /    \    | | | |  |  | /  /          
                 / \  \   | |__| |  /  /\  \   | |_| |  |  |/  /          
                |  |  |   |  __  | /  /__\  \  |    /   |      \           
                |  |  |   | |  | | |   __   |  |    \   |  |\   \          
                \     /   | |  | | |  |  |  |  | |\  \  |  | \   \       
                 \___/    |_|  |_| |__|  |__|  |_| \__\ |__|  \__/        
                                                                              
                      - O R C A' S   B I G   F R I E N D -                    
                                      &                                       
                       - I N T E G R A L  F E E D E R -                       
                                                                              
 v1 FN, 2020, v2 2021                                                         
------------------------------------------------------------------------------


Reading SHARK input file /home/rudenko/mop_saddle_orca_4_serv/for_orca/c6h5chno2ch3_piperazine/orca/start_freq_D/start_f_D.SHARKINP.tmp ... ok
----------------------
SHARK INTEGRAL PACKAGE
----------------------

Number of atoms                             ...     39
Number of basis functions                   ...    684
Number of shells                            ...    282
Maximum angular momentum                    ...      3
Integral batch strategy                     ... SHARK/LIBINT Hybrid
RI-J (if used) integral strategy            ... SPLIT-RIJ (Revised 2003 algorithm where possible)
Printlevel                                  ...      1
Contraction scheme used                     ... SEGMENTED contraction
Coulomb Range Separation                    ... NOT USED
Exchange Range Separation                   ... NOT USED
Finite Nucleus Model                        ... NOT USED
Auxiliary Coulomb fitting basis             ... AVAILABLE
   # of basis functions in Aux-J            ...   1113
   # of shells in Aux-J                     ...    375
   Maximum angular momentum in Aux-J        ...      4
Auxiliary J/K fitting basis                 ... NOT available
Auxiliary Correlation fitting basis         ... NOT available
Auxiliary 'external' fitting basis          ... NOT available
Integral threshold                          ...     2.500000e-11
Primitive cut-off                           ...     2.500000e-12
Primitive pair pre-selection threshold      ...     2.500000e-12

Calculating pre-screening integrals         ... done (  0.1 sec) Dimension = 282
Organizing shell pair data                  ... done (  0.8 sec)
Shell pair information
Total number of shell pairs                 ...     39903
Shell pairs after pre-screening             ...     27597
Total number of primitive shell pairs       ...    118800
Primitive shell pairs kept                  ...     55446
          la=0 lb=0:   8083 shell pairs
          la=1 lb=0:   8220 shell pairs
          la=1 lb=1:   2150 shell pairs
          la=2 lb=0:   3677 shell pairs
          la=2 lb=1:   1909 shell pairs
          la=2 lb=2:    438 shell pairs
          la=3 lb=0:   1731 shell pairs
          la=3 lb=1:    907 shell pairs
          la=3 lb=2:    384 shell pairs
          la=3 lb=3:     98 shell pairs

Calculating one electron integrals          ... done (  0.2 sec)
Calculating RI/J V-Matrix + Cholesky decomp.... done (  0.2 sec)
Calculating Nuclear repulsion               ... done (  0.0 sec) ENN=   1348.890369343898 Eh

SHARK setup successfully completed in   1.9 seconds

Maximum memory used throughout the entire GTOINT-calculation: 42.3 MB


           ************************************************************
           *        Program running with 102 parallel MPI-processes   *
           *              working on a common directory               *
           ************************************************************
-------------------------------------------------------------------------------
                                 ORCA SCF
-------------------------------------------------------------------------------

------------
SCF SETTINGS
------------
Hamiltonian:
 Density Functional     Method          .... DFT(GTOs)
 Exchange Functional    Exchange        .... B88
   X-Alpha parameter    XAlpha          ....  0.666667
   Becke's b parameter  XBeta           ....  0.004200
 Correlation Functional Correlation     .... LYP
 LDA part of GGA corr.  LDAOpt          .... VWN-5
 Gradients option       PostSCFGGA      .... off
 Hybrid DFT is turned on
   Fraction HF Exchange ScalHFX         ....  0.200000
   Scaling of DF-GGA-X  ScalDFX         ....  0.720000
   Scaling of DF-GGA-C  ScalDFC         ....  0.810000
   Scaling of DF-LDA-C  ScalLDAC        ....  1.000000
   Perturbative correction              ....  0.000000
   Density functional embedding theory  .... OFF
   NL short-range parameter             ....  4.800000
 RI-approximation to the Coulomb term is turned on
   Number of AuxJ basis functions       .... 1113
   RIJ-COSX (HFX calculated with COS-X)).... on


General Settings:
 Integral files         IntName         .... /home/rudenko/mop_saddle_orca_4_serv/for_orca/c6h5chno2ch3_piperazine/orca/start_freq_D/start_f_D
 Hartree-Fock type      HFTyp           .... RHF
 Total Charge           Charge          ....    0
 Multiplicity           Mult            ....    1
 Number of Electrons    NEL             ....  138
 Basis Dimension        Dim             ....  684
 Nuclear Repulsion      ENuc            ....   1348.8903693439 Eh

Convergence Acceleration:
 DIIS                   CNVDIIS         .... on
   Start iteration      DIISMaxIt       ....    12
   Startup error        DIISStart       ....  0.200000
   # of expansion vecs  DIISMaxEq       ....     5
   Bias factor          DIISBfac        ....   1.050
   Max. coefficient     DIISMaxC        ....  10.000
 Trust-Rad. Augm. Hess. CNVTRAH         .... auto
   Auto Start mean grad. ratio tolernc. ....  1.125000
   Auto Start start iteration           ....    20
   Auto Start num. interpolation iter.  ....    10
   Max. Number of Micro iterations      ....    16
   Max. Number of Macro iterations      .... Maxiter - #DIIS iter
   Number of Davidson start vectors     ....     2
   Converg. threshold I  (grad. norm)   ....   1.000e-05
   Converg. threshold II (energy diff.) ....   1.000e-08
   Grad. Scal. Fac. for Micro threshold ....   0.100
   Minimum threshold for Micro iter.    ....   0.010
   NR start threshold (gradient norm)   ....   0.001
   Initial trust radius                 ....   0.400
   Minimum AH scaling param. (alpha)    ....   1.000
   Maximum AH scaling param. (alpha)    .... 1000.000
   Orbital update algorithm             .... Taylor
   White noise on init. David. guess    .... on
   Maximum white noise                  ....   0.010
   Quad. conv. algorithm                .... NR
 SOSCF                  CNVSOSCF        .... on
   Start iteration      SOSCFMaxIt      ....   150
   Startup grad/error   SOSCFStart      ....  0.003300
 Level Shifting         CNVShift        .... on
   Level shift para.    LevelShift      ....    0.2500
   Turn off err/grad.   ShiftErr        ....    0.0010
 Zerner damping         CNVZerner       .... off
 Static damping         CNVDamp         .... on
   Fraction old density DampFac         ....    0.7000
   Max. Damping (<1)    DampMax         ....    0.9800
   Min. Damping (>=0)   DampMin         ....    0.0000
   Turn off err/grad.   DampErr         ....    0.1000
 Fernandez-Rico         CNVRico         .... off

SCF Procedure:
 Maximum # iterations   MaxIter         ....   125
 SCF integral mode      SCFMode         .... Direct
   Integral package                     .... SHARK and LIBINT hybrid scheme
 Reset frequency        DirectResetFreq ....    20
 Integral Threshold     Thresh          ....  2.500e-11 Eh
 Primitive CutOff       TCut            ....  2.500e-12 Eh

Convergence Tolerance:
 Convergence Check Mode ConvCheckMode   .... Total+1el-Energy
 Convergence forced     ConvForced      .... 0
 Energy Change          TolE            ....  1.000e-08 Eh
 1-El. energy change                    ....  1.000e-05 Eh
 Orbital Gradient       TolG            ....  1.000e-05
 Orbital Rotation angle TolX            ....  1.000e-05
 DIIS Error             TolErr          ....  5.000e-07


Diagonalization of the overlap matrix:
Smallest eigenvalue                        ... 7.561e-06
Time for diagonalization                   ...    0.303 sec
Threshold for overlap eigenvalues          ... 1.000e-08
Number of eigenvalues below threshold      ... 0
Time for construction of square roots      ...    0.415 sec
Total time needed                          ...    0.721 sec

Time for model grid setup =    0.283 sec

------------------------------
INITIAL GUESS: MODEL POTENTIAL
------------------------------
Loading Hartree-Fock densities                     ... done
Calculating cut-offs                               ... done
Initializing the effective Hamiltonian             ... done
Setting up the integral package (SHARK)            ... done
Starting the Coulomb interaction                   ... done (   0.1 sec)
Reading the grid                                   ... done
Mapping shells                                     ... done
Starting the XC term evaluation                    ... done (   0.1 sec)
  promolecular density results
     # of electrons  =    137.987258169
     EX              =   -112.272516392
     EC              =     -4.657661859
     EX+EC           =   -116.930178252
Transforming the Hamiltonian                       ... done (   0.4 sec)
Diagonalizing the Hamiltonian                      ... done (   0.3 sec)
Back transforming the eigenvectors                 ... done (   0.2 sec)
Now organizing SCF variables                       ... done
                      ------------------
                      INITIAL GUESS DONE (   1.5 sec)
                      ------------------
-------------------
DFT GRID GENERATION
-------------------

General Integration Accuracy     IntAcc      ... 4.388
Radial Grid Type                 RadialGrid  ... OptM3 with GC (2021)
Angular Grid (max. ang.)         AngularGrid ... 4 (Lebedev-302)
Angular grid pruning method      GridPruning ... 4 (adaptive)
Weight generation scheme         WeightScheme... Becke
Basis function cutoff            BFCut       ... 1.0000e-11
Integration weight cutoff        WCut        ... 1.0000e-14
Angular grids for H and He will be reduced by one unit
Partially contracted basis set               ... off
Rotationally invariant grid construction     ... off

Total number of grid points                  ...   174861
Total number of batches                      ...     2752
Average number of points per batch           ...       63
Average number of grid points per atom       ...     4484
Time for grid setup =    1.382 sec

--------------------
COSX GRID GENERATION
--------------------

GRIDX 1
-------
General Integration Accuracy     IntAcc      ... 3.816
Radial Grid Type                 RadialGrid  ... OptM3 with GC (2021)
Angular Grid (max. ang.)         AngularGrid ... 1 (Lebedev-50)
Angular grid pruning method      GridPruning ... 4 (adaptive)
Weight generation scheme         WeightScheme... Becke
Basis function cutoff            BFCut       ... 1.0000e-11
Integration weight cutoff        WCut        ... 1.0000e-14
Angular grids for H and He will be reduced by one unit
Partially contracted basis set               ... on
Rotationally invariant grid construction     ... off

Total number of grid points                  ...    22258
Total number of batches                      ...      367
Average number of points per batch           ...       60
Average number of grid points per atom       ...      571
UseSFitting                                  ... on

GRIDX 2
-------
General Integration Accuracy     IntAcc      ... 4.020
Radial Grid Type                 RadialGrid  ... OptM3 with GC (2021)
Angular Grid (max. ang.)         AngularGrid ... 2 (Lebedev-110)
Angular grid pruning method      GridPruning ... 4 (adaptive)
Weight generation scheme         WeightScheme... Becke
Basis function cutoff            BFCut       ... 1.0000e-11
Integration weight cutoff        WCut        ... 1.0000e-14
Angular grids for H and He will be reduced by one unit
Partially contracted basis set               ... on
Rotationally invariant grid construction     ... off

Total number of grid points                  ...    47298
Total number of batches                      ...      758
Average number of points per batch           ...       62
Average number of grid points per atom       ...     1213
UseSFitting                                  ... on

GRIDX 3
-------
General Integration Accuracy     IntAcc      ... 4.338
Radial Grid Type                 RadialGrid  ... OptM3 with GC (2021)
Angular Grid (max. ang.)         AngularGrid ... 3 (Lebedev-194)
Angular grid pruning method      GridPruning ... 4 (adaptive)
Weight generation scheme         WeightScheme... Becke
Basis function cutoff            BFCut       ... 1.0000e-11
Integration weight cutoff        WCut        ... 1.0000e-14
Angular grids for H and He will be reduced by one unit
Partially contracted basis set               ... on
Rotationally invariant grid construction     ... off

Total number of grid points                  ...   103112
Total number of batches                      ...     1631
Average number of points per batch           ...       63
Average number of grid points per atom       ...     2644
UseSFitting                                  ... on

Time for X-Grid setup             =    2.461 sec


--------------------
CPCM SOLVATION MODEL
--------------------
CPCM parameters:
  Epsilon                                         ...      78.4000
  Refrac                                          ...       1.3300
  Rsolv                                           ...       1.3000
  Surface type                                    ... GAUSSIAN VDW
  Epsilon function type                           ...         CPCM
Radii:
 Radius for C  used is    3.8550 Bohr (=   2.0400 Ang.)
 Radius for H  used is    2.4944 Bohr (=   1.3200 Ang.)
 Radius for N  used is    3.5149 Bohr (=   1.8600 Ang.)
 Radius for O  used is    3.4469 Bohr (=   1.8240 Ang.)
Calculating surface                               ...        done! (  0.0s)
GEPOL surface points                              ...         2205
GEPOL Volume                                      ...    2197.0945
GEPOL Surface-area                                ...    1210.4972
Calculating surface distance matrix               ...        done! (  0.3s)
Performing Cholesky decomposition & store         ...        done! (  0.9s)
Overall time for CPCM initialization              ...                 1.1s
--------------
SCF ITERATIONS
--------------
ITER       Energy         Delta-E        Max-DP      RMS-DP      [F,P]     Damp
               ***  Starting incremental Fock matrix formation  ***
  0   -858.9609132733   0.000000000000 0.17377524  0.00132858  0.3202163 0.7000
  1   -859.2687025640  -0.307789290616 0.14020159  0.00110154  0.1272035 0.7000
                               ***Turning on DIIS***
  2   -859.3810842626  -0.112381698635 0.11312119  0.00135864  0.0383758 0.0000
  3   -859.5672363175  -0.186152054911 0.14093367  0.00102616  0.0729992 0.0000
  4   -859.6054573548  -0.038221037293 0.02443376  0.00026810  0.0157941 0.0000
  5   -859.6077320628  -0.002274707983 0.01153812  0.00010385  0.0067713 0.0000
                      *** Initiating the SOSCF procedure ***
                           *** Shutting down DIIS ***
                      *** Re-Reading the Fockian *** 
                      *** Removing any level shift *** 
ITER      Energy       Delta-E        Grad      Rot      Max-DP    RMS-DP
  6   -859.60792853  -0.0001964666  0.000244  0.000244  0.004793  0.000046
               *** Restarting incremental Fock matrix formation ***
  7   -859.60792856  -0.0000000289  0.000180  0.000337  0.002729  0.000033
  8   -859.60792759   0.0000009730  0.000238  0.000168  0.001804  0.000014
  9   -859.60793147  -0.0000038816  0.000037  0.000076  0.000444  0.000005
 10   -859.60793144   0.0000000316  0.000058  0.000078  0.000239  0.000002
 11   -859.60793151  -0.0000000753  0.000023  0.000058  0.000104  0.000001
 12   -859.60793150   0.0000000145  0.000032  0.000037  0.000088  0.000001
 13   -859.60793151  -0.0000000147  0.000006  0.000011  0.000075  0.000001
 14   -859.60793150   0.0000000141  0.000010  0.000007  0.000084  0.000001
                  ***Gradient check signals convergence***
              ***Rediagonalizing the Fockian in SOSCF/NRSCF***

               *****************************************************
               *                     SUCCESS                       *
               *           SCF CONVERGED AFTER  15 CYCLES          *
               *****************************************************

Old exchange energy                            =    -22.837848405 Eh
New exchange energy                            =    -22.837847811 Eh
Exchange energy change after final integration =      0.000000594 Eh
Total energy after final integration           =   -859.607930947 Eh
Final COS-X integration done in                =     3.338 sec

----------------
TOTAL SCF ENERGY
----------------

Total Energy       :         -859.60793095 Eh          -23391.12098 eV

Components:
Nuclear Repulsion  :         1348.89036934 Eh           36705.17300 eV
Electronic Energy  :        -2208.49830029 Eh          -60096.29399 eV
One Electron Energy:        -3849.21942171 Eh         -104742.58547 eV
Two Electron Energy:         1640.72112142 Eh           44646.29149 eV
Max COSX asymmetry :            0.00000165 Eh               0.00005 eV
CPCM Dielectric    :           -0.02960677 Eh              -0.80564 eV

Virial components:
Potential Energy   :        -1715.51644011 Eh          -46681.57558 eV
Kinetic Energy     :          855.90850916 Eh           23290.45460 eV
Virial Ratio       :            2.00432222


DFT components:
N(Alpha)           :       69.000061973273 electrons
N(Beta)            :       69.000061973273 electrons
N(Total)           :      138.000123946546 electrons
E(X)               :      -90.796864771441 Eh       
E(C)               :       -5.497390916456 Eh       
E(XC)              :      -96.294255687897 Eh       
DFET-embed. en.    :        0.000000000000 Eh       
CPCM Solvation Model Properties:
Surface-charge          :           -0.03582314
Charge-correction       :           -0.00004799 Eh              -0.00131 eV
Free-energy (cav+disp)  :  This term is not implemented in the current solvation scheme

---------------
SCF CONVERGENCE
---------------

  Last Energy change         ...   -4.3991e-08  Tolerance :   1.0000e-08
  Last MAX-Density change    ...    1.2212e-15  Tolerance :   1.0000e-07
  Last RMS-Density change    ...    1.2479e-17  Tolerance :   5.0000e-09
  Last Orbital Gradient      ...    4.8806e-07  Tolerance :   1.0000e-05
  Last Orbital Rotation      ...    2.0283e-06  Tolerance :   1.0000e-05

             **** THE GBW FILE WAS UPDATED (/home/rudenko/mop_saddle_orca_4_serv/for_orca/c6h5chno2ch3_piperazine/orca/start_freq_D/start_f_D.gbw) ****
             **** DENSITY /home/rudenko/mop_saddle_orca_4_serv/for_orca/c6h5chno2ch3_piperazine/orca/start_freq_D/start_f_D.scfp WAS UPDATED ****
             **** ENERGY FILE WAS UPDATED (/home/rudenko/mop_saddle_orca_4_serv/for_orca/c6h5chno2ch3_piperazine/orca/start_freq_D/start_f_D.en.tmp) ****
             **** THE GBW FILE WAS UPDATED (/home/rudenko/mop_saddle_orca_4_serv/for_orca/c6h5chno2ch3_piperazine/orca/start_freq_D/start_f_D.gbw) ****
             **** DENSITY /home/rudenko/mop_saddle_orca_4_serv/for_orca/c6h5chno2ch3_piperazine/orca/start_freq_D/start_f_D.scfp WAS UPDATED ****
----------------
ORBITAL ENERGIES
----------------

  NO   OCC          E(Eh)            E(eV) 
   0   2.0000     -19.171905      -521.6941 
   1   2.0000     -19.169184      -521.6200 
   2   2.0000     -19.131016      -520.5814 
   3   2.0000     -14.551524      -395.9671 
   4   2.0000     -14.293159      -388.9366 
   5   2.0000     -14.286765      -388.7627 
   6   2.0000     -10.233259      -278.4611 
   7   2.0000     -10.192919      -277.3634 
   8   2.0000     -10.180424      -277.0234 
   9   2.0000     -10.180307      -277.0202 
  10   2.0000     -10.179525      -276.9990 
  11   2.0000     -10.179327      -276.9936 
  12   2.0000     -10.179032      -276.9855 
  13   2.0000     -10.177653      -276.9480 
  14   2.0000     -10.177389      -276.9408 
  15   2.0000     -10.176897      -276.9274 
  16   2.0000     -10.176389      -276.9136 
  17   2.0000     -10.166932      -276.6563 
  18   2.0000      -1.240701       -33.7612 
  19   2.0000      -1.067703       -29.0537 
  20   2.0000      -1.014263       -27.5995 
  21   2.0000      -0.922351       -25.0984 
  22   2.0000      -0.875225       -23.8161 
  23   2.0000      -0.867206       -23.5979 
  24   2.0000      -0.829337       -22.5674 
  25   2.0000      -0.752702       -20.4821 
  26   2.0000      -0.751863       -20.4592 
  27   2.0000      -0.743314       -20.2266 
  28   2.0000      -0.699878       -19.0447 
  29   2.0000      -0.665175       -18.1003 
  30   2.0000      -0.626768       -17.0552 
  31   2.0000      -0.623257       -16.9597 
  32   2.0000      -0.613373       -16.6907 
  33   2.0000      -0.584624       -15.9084 
  34   2.0000      -0.550819       -14.9885 
  35   2.0000      -0.546604       -14.8739 
  36   2.0000      -0.543196       -14.7811 
  37   2.0000      -0.531719       -14.4688 
  38   2.0000      -0.528771       -14.3886 
  39   2.0000      -0.518746       -14.1158 
  40   2.0000      -0.506181       -13.7739 
  41   2.0000      -0.472248       -12.8505 
  42   2.0000      -0.465998       -12.6804 
  43   2.0000      -0.453446       -12.3389 
  44   2.0000      -0.449283       -12.2256 
  45   2.0000      -0.437842       -11.9143 
  46   2.0000      -0.432282       -11.7630 
  47   2.0000      -0.424270       -11.5450 
  48   2.0000      -0.420926       -11.4540 
  49   2.0000      -0.410397       -11.1675 
  50   2.0000      -0.402835       -10.9617 
  51   2.0000      -0.401527       -10.9261 
  52   2.0000      -0.397827       -10.8254 
  53   2.0000      -0.380719       -10.3599 
  54   2.0000      -0.375315       -10.2128 
  55   2.0000      -0.373031       -10.1507 
  56   2.0000      -0.350940        -9.5496 
  57   2.0000      -0.347821        -9.4647 
  58   2.0000      -0.341874        -9.3029 
  59   2.0000      -0.331674        -9.0253 
  60   2.0000      -0.328438        -8.9372 
  61   2.0000      -0.325521        -8.8579 
  62   2.0000      -0.318242        -8.6598 
  63   2.0000      -0.313702        -8.5363 
  64   2.0000      -0.308163        -8.3855 
  65   2.0000      -0.263009        -7.1568 
  66   2.0000      -0.260600        -7.0913 
  67   2.0000      -0.229046        -6.2326 
  68   2.0000      -0.223021        -6.0687 
  69   0.0000      -0.080848        -2.2000 
  70   0.0000      -0.022920        -0.6237 
  71   0.0000      -0.016692        -0.4542 
  72   0.0000       0.020814         0.5664 
  73   0.0000       0.044518         1.2114 
  74   0.0000       0.058171         1.5829 
  75   0.0000       0.066156         1.8002 
  76   0.0000       0.068747         1.8707 
  77   0.0000       0.075393         2.0516 
  78   0.0000       0.085650         2.3307 
  79   0.0000       0.092109         2.5064 
  80   0.0000       0.099794         2.7155 
  81   0.0000       0.101058         2.7499 
  82   0.0000       0.102131         2.7791 
  83   0.0000       0.108092         2.9413 
  84   0.0000       0.111750         3.0409 
  85   0.0000       0.117403         3.1947 
  86   0.0000       0.118624         3.2279 
  87   0.0000       0.123232         3.3533 
  88   0.0000       0.130101         3.5402 
  89   0.0000       0.138036         3.7561 
  90   0.0000       0.138724         3.7749 
  91   0.0000       0.144132         3.9220 
  92   0.0000       0.150172         4.0864 
  93   0.0000       0.156012         4.2453 
  94   0.0000       0.157376         4.2824 
  95   0.0000       0.172483         4.6935 
  96   0.0000       0.175690         4.7808 
  97   0.0000       0.179662         4.8888 
  98   0.0000       0.181687         4.9439 
  99   0.0000       0.186863         5.0848 
 100   0.0000       0.193292         5.2597 
 101   0.0000       0.201529         5.4839 
 102   0.0000       0.207948         5.6585 
 103   0.0000       0.209189         5.6923 
 104   0.0000       0.215041         5.8516 
 105   0.0000       0.220406         5.9976 
 106   0.0000       0.222314         6.0495 
 107   0.0000       0.229341         6.2407 
 108   0.0000       0.233489         6.3536 
 109   0.0000       0.237359         6.4589 
 110   0.0000       0.244010         6.6399 
 111   0.0000       0.251956         6.8561 
 112   0.0000       0.255474         6.9518 
 113   0.0000       0.261450         7.1144 
 114   0.0000       0.268746         7.3129 
 115   0.0000       0.279511         7.6059 
 116   0.0000       0.282141         7.6774 
 117   0.0000       0.289338         7.8733 
 118   0.0000       0.296792         8.0761 
 119   0.0000       0.303228         8.2512 
 120   0.0000       0.311955         8.4887 
 121   0.0000       0.321090         8.7373 
 122   0.0000       0.324056         8.8180 
 123   0.0000       0.327307         8.9065 
 124   0.0000       0.329872         8.9763 
 125   0.0000       0.335382         9.1262 
 126   0.0000       0.344091         9.3632 
 127   0.0000       0.350832         9.5466 
 128   0.0000       0.352657         9.5963 
 129   0.0000       0.357775         9.7355 
 130   0.0000       0.362884         9.8746 
 131   0.0000       0.366350         9.9689 
 132   0.0000       0.374156        10.1813 
 133   0.0000       0.381950        10.3934 
 134   0.0000       0.386185        10.5086 
 135   0.0000       0.393111        10.6971 
 136   0.0000       0.394305        10.7296 
 137   0.0000       0.402361        10.9488 
 138   0.0000       0.409236        11.1359 
 139   0.0000       0.414971        11.2919 
 140   0.0000       0.420453        11.4411 
 141   0.0000       0.425741        11.5850 
 142   0.0000       0.427856        11.6426 
 143   0.0000       0.429557        11.6888 
 144   0.0000       0.432373        11.7655 
 145   0.0000       0.435697        11.8559 
 146   0.0000       0.439067        11.9476 
 147   0.0000       0.444305        12.0901 
 148   0.0000       0.448170        12.1953 
 149   0.0000       0.449133        12.2215 
 150   0.0000       0.452402        12.3105 
 151   0.0000       0.455315        12.3898 
 152   0.0000       0.462645        12.5892 
 153   0.0000       0.468981        12.7616 
 154   0.0000       0.476757        12.9732 
 155   0.0000       0.479350        13.0438 
 156   0.0000       0.479958        13.0603 
 157   0.0000       0.489081        13.3086 
 158   0.0000       0.491051        13.3622 
 159   0.0000       0.497012        13.5244 
 160   0.0000       0.499799        13.6002 
 161   0.0000       0.506927        13.7942 
 162   0.0000       0.510693        13.8967 
 163   0.0000       0.517256        14.0752 
 164   0.0000       0.520463        14.1625 
 165   0.0000       0.522092        14.2068 
 166   0.0000       0.526108        14.3161 
 167   0.0000       0.531740        14.4694 
 168   0.0000       0.541570        14.7369 
 169   0.0000       0.544910        14.8277 
 170   0.0000       0.551598        15.0097 
 171   0.0000       0.561907        15.2903 
 172   0.0000       0.566110        15.4046 
 173   0.0000       0.571034        15.5386 
 174   0.0000       0.577872        15.7247 
 175   0.0000       0.590547        16.0696 
 176   0.0000       0.595788        16.2122 
 177   0.0000       0.606398        16.5009 
 178   0.0000       0.608996        16.5716 
 179   0.0000       0.613813        16.7027 
 180   0.0000       0.617452        16.8017 
 181   0.0000       0.622246        16.9322 
 182   0.0000       0.630775        17.1643 
 183   0.0000       0.648014        17.6334 
 184   0.0000       0.654459        17.8087 
 185   0.0000       0.659850        17.9554 
 186   0.0000       0.672493        18.2995 
 187   0.0000       0.680417        18.5151 
 188   0.0000       0.692417        18.8416 
 189   0.0000       0.694118        18.8879 
 190   0.0000       0.699478        19.0338 
 191   0.0000       0.703840        19.1525 
 192   0.0000       0.722052        19.6480 
 193   0.0000       0.730641        19.8818 
 194   0.0000       0.737717        20.0743 
 195   0.0000       0.745774        20.2935 
 196   0.0000       0.747155        20.3311 
 197   0.0000       0.760082        20.6829 
 198   0.0000       0.762193        20.7403 
 199   0.0000       0.763140        20.7661 
 200   0.0000       0.773228        21.0406 
 201   0.0000       0.785748        21.3813 
 202   0.0000       0.789215        21.4756 
 203   0.0000       0.804195        21.8833 
 204   0.0000       0.809814        22.0361 
 205   0.0000       0.815640        22.1947 
 206   0.0000       0.819262        22.2933 
 207   0.0000       0.836807        22.7707 
 208   0.0000       0.843583        22.9551 
 209   0.0000       0.850787        23.1511 
 210   0.0000       0.865905        23.5625 
 211   0.0000       0.876638        23.8545 
 212   0.0000       0.880087        23.9484 
 213   0.0000       0.881725        23.9930 
 214   0.0000       0.903685        24.5905 
 215   0.0000       0.904754        24.6196 
 216   0.0000       0.909310        24.7436 
 217   0.0000       0.917085        24.9552 
 218   0.0000       0.928733        25.2721 
 219   0.0000       0.939996        25.5786 
 220   0.0000       0.958056        26.0700 
 221   0.0000       0.961656        26.1680 
 222   0.0000       0.965912        26.2838 
 223   0.0000       0.978062        26.6144 
 224   0.0000       0.998038        27.1580 
 225   0.0000       1.010311        27.4919 
 226   0.0000       1.018511        27.7151 
 227   0.0000       1.021920        27.8079 
 228   0.0000       1.037285        28.2260 
 229   0.0000       1.058676        28.8080 
 230   0.0000       1.062534        28.9130 
 231   0.0000       1.077789        29.3281 
 232   0.0000       1.090850        29.6835 
 233   0.0000       1.102276        29.9944 
 234   0.0000       1.106793        30.1174 
 235   0.0000       1.114887        30.3376 
 236   0.0000       1.129636        30.7390 
 237   0.0000       1.130792        30.7704 
 238   0.0000       1.139955        31.0197 
 239   0.0000       1.150613        31.3098 
 240   0.0000       1.159187        31.5431 
 241   0.0000       1.170352        31.8469 
 242   0.0000       1.182964        32.1901 
 243   0.0000       1.186559        32.2879 
 244   0.0000       1.190775        32.4026 
 245   0.0000       1.200698        32.6726 
 246   0.0000       1.203362        32.7452 
 247   0.0000       1.210417        32.9371 
 248   0.0000       1.224467        33.3195 
 249   0.0000       1.232851        33.5476 
 250   0.0000       1.244645        33.8685 
 251   0.0000       1.255841        34.1732 
 252   0.0000       1.261681        34.3321 
 253   0.0000       1.267555        34.4919 
 254   0.0000       1.274289        34.6752 
 255   0.0000       1.280767        34.8515 
 256   0.0000       1.287561        35.0363 
 257   0.0000       1.300025        35.3755 
 258   0.0000       1.304018        35.4841 
 259   0.0000       1.317482        35.8505 
 260   0.0000       1.341058        36.4921 
 261   0.0000       1.349723        36.7278 
 262   0.0000       1.370351        37.2891 
 263   0.0000       1.384159        37.6649 
 264   0.0000       1.394763        37.9534 
 265   0.0000       1.404416        38.2161 
 266   0.0000       1.420315        38.6487 
 267   0.0000       1.428227        38.8640 
 268   0.0000       1.440560        39.1996 
 269   0.0000       1.446516        39.3617 
 270   0.0000       1.458026        39.6749 
 271   0.0000       1.462946        39.8088 
 272   0.0000       1.477947        40.2170 
 273   0.0000       1.480701        40.2919 
 274   0.0000       1.485402        40.4199 
 275   0.0000       1.494727        40.6736 
 276   0.0000       1.495788        40.7025 
 277   0.0000       1.504324        40.9347 
 278   0.0000       1.509973        41.0885 
 279   0.0000       1.521258        41.3955 
 280   0.0000       1.527402        41.5627 
 281   0.0000       1.533614        41.7318 
 282   0.0000       1.546937        42.0943 
 283   0.0000       1.550246        42.1843 
 284   0.0000       1.565227        42.5920 
 285   0.0000       1.571425        42.7607 
 286   0.0000       1.579068        42.9686 
 287   0.0000       1.588582        43.2275 
 288   0.0000       1.593941        43.3733 
 289   0.0000       1.599447        43.5232 
 290   0.0000       1.608158        43.7602 
 291   0.0000       1.611931        43.8629 
 292   0.0000       1.619764        44.0760 
 293   0.0000       1.623379        44.1744 
 294   0.0000       1.625543        44.2333 
 295   0.0000       1.629695        44.3463 
 296   0.0000       1.635966        44.5169 
 297   0.0000       1.641618        44.6707 
 298   0.0000       1.648430        44.8561 
 299   0.0000       1.663251        45.2594 
 300   0.0000       1.674561        45.5671 
 301   0.0000       1.676299        45.6144 
 302   0.0000       1.685349        45.8607 
 303   0.0000       1.691772        46.0355 
 304   0.0000       1.704408        46.3793 
 305   0.0000       1.709323        46.5130 
 306   0.0000       1.716355        46.7044 
 307   0.0000       1.723560        46.9005 
 308   0.0000       1.727890        47.0183 
 309   0.0000       1.739183        47.3256 
 310   0.0000       1.759583        47.8807 
 311   0.0000       1.762967        47.9728 
 312   0.0000       1.765844        48.0511 
 313   0.0000       1.771561        48.2066 
 314   0.0000       1.788305        48.6623 
 315   0.0000       1.801693        49.0266 
 316   0.0000       1.803294        49.0701 
 317   0.0000       1.816041        49.4170 
 318   0.0000       1.822642        49.5966 
 319   0.0000       1.839374        50.0519 
 320   0.0000       1.848083        50.2889 
 321   0.0000       1.856120        50.5076 
 322   0.0000       1.869694        50.8770 
 323   0.0000       1.884892        51.2905 
 324   0.0000       1.893014        51.5115 
 325   0.0000       1.906827        51.8874 
 326   0.0000       1.916671        52.1553 
 327   0.0000       1.941960        52.8434 
 328   0.0000       1.947043        52.9817 
 329   0.0000       1.959011        53.3074 
 330   0.0000       1.963669        53.4342 
 331   0.0000       1.966968        53.5239 
 332   0.0000       1.977217        53.8028 
 333   0.0000       1.990863        54.1741 
 334   0.0000       2.001748        54.4703 
 335   0.0000       2.011484        54.7353 
 336   0.0000       2.015790        54.8524 
 337   0.0000       2.025423        55.1146 
 338   0.0000       2.044564        55.6354 
 339   0.0000       2.049889        55.7803 
 340   0.0000       2.057636        55.9911 
 341   0.0000       2.064964        56.1905 
 342   0.0000       2.076638        56.5082 
 343   0.0000       2.081081        56.6291 
 344   0.0000       2.090478        56.8848 
 345   0.0000       2.095416        57.0192 
 346   0.0000       2.103587        57.2415 
 347   0.0000       2.108709        57.3809 
 348   0.0000       2.113061        57.4993 
 349   0.0000       2.119641        57.6784 
 350   0.0000       2.126259        57.8585 
 351   0.0000       2.132967        58.0410 
 352   0.0000       2.143362        58.3238 
 353   0.0000       2.161721        58.8234 
 354   0.0000       2.166880        58.9638 
 355   0.0000       2.177147        59.2432 
 356   0.0000       2.186635        59.5014 
 357   0.0000       2.197166        59.7879 
 358   0.0000       2.209116        60.1131 
 359   0.0000       2.232459        60.7483 
 360   0.0000       2.237121        60.8752 
 361   0.0000       2.246213        61.1226 
 362   0.0000       2.252741        61.3002 
 363   0.0000       2.268455        61.7278 
 364   0.0000       2.277603        61.9767 
 365   0.0000       2.286413        62.2164 
 366   0.0000       2.292018        62.3690 
 367   0.0000       2.305447        62.7344 
 368   0.0000       2.329877        63.3992 
 369   0.0000       2.336902        63.5903 
 370   0.0000       2.346631        63.8551 
 371   0.0000       2.354922        64.0807 
 372   0.0000       2.373438        64.5845 
 373   0.0000       2.384039        64.8730 
 374   0.0000       2.390254        65.0421 
 375   0.0000       2.397774        65.2467 
 376   0.0000       2.410360        65.5892 
 377   0.0000       2.416158        65.7470 
 378   0.0000       2.437828        66.3367 
 379   0.0000       2.450246        66.6746 
 380   0.0000       2.458393        66.8963 
 381   0.0000       2.467901        67.1550 
 382   0.0000       2.474375        67.3312 
 383   0.0000       2.479872        67.4807 
 384   0.0000       2.496503        67.9333 
 385   0.0000       2.511105        68.3306 
 386   0.0000       2.515422        68.4481 
 387   0.0000       2.531522        68.8862 
 388   0.0000       2.537436        69.0471 
 389   0.0000       2.545468        69.2657 
 390   0.0000       2.558396        69.6175 
 391   0.0000       2.564597        69.7862 
 392   0.0000       2.568328        69.8878 
 393   0.0000       2.576832        70.1192 
 394   0.0000       2.584983        70.3410 
 395   0.0000       2.588998        70.4502 
 396   0.0000       2.597640        70.6854 
 397   0.0000       2.601515        70.7908 
 398   0.0000       2.609418        71.0059 
 399   0.0000       2.614995        71.1576 
 400   0.0000       2.622091        71.3507 
 401   0.0000       2.623763        71.3962 
 402   0.0000       2.633454        71.6599 
 403   0.0000       2.638057        71.7852 
 404   0.0000       2.641452        71.8776 
 405   0.0000       2.647704        72.0477 
 406   0.0000       2.651789        72.1588 
 407   0.0000       2.658951        72.3537 
 408   0.0000       2.668032        72.6008 
 409   0.0000       2.676350        72.8272 
 410   0.0000       2.679619        72.9161 
 411   0.0000       2.685160        73.0669 
 412   0.0000       2.693208        73.2859 
 413   0.0000       2.695501        73.3483 
 414   0.0000       2.704004        73.5797 
 415   0.0000       2.709856        73.7389 
 416   0.0000       2.725470        74.1638 
 417   0.0000       2.739606        74.5485 
 418   0.0000       2.744833        74.6907 
 419   0.0000       2.754692        74.9590 
 420   0.0000       2.759665        75.0943 
 421   0.0000       2.762284        75.1656 
 422   0.0000       2.764230        75.2185 
 423   0.0000       2.771713        75.4221 
 424   0.0000       2.776195        75.5441 
 425   0.0000       2.788806        75.8873 
 426   0.0000       2.794562        76.0439 
 427   0.0000       2.807258        76.3894 
 428   0.0000       2.816804        76.6491 
 429   0.0000       2.821449        76.7755 
 430   0.0000       2.835300        77.1524 
 431   0.0000       2.837971        77.2251 
 432   0.0000       2.844729        77.4090 
 433   0.0000       2.854192        77.6665 
 434   0.0000       2.862056        77.8805 
 435   0.0000       2.865443        77.9727 
 436   0.0000       2.882442        78.4352 
 437   0.0000       2.893828        78.7451 
 438   0.0000       2.900891        78.9373 
 439   0.0000       2.915540        79.3359 
 440   0.0000       2.947041        80.1931 
 441   0.0000       2.950277        80.2811 
 442   0.0000       2.967862        80.7596 
 443   0.0000       2.979573        81.0783 
 444   0.0000       2.982572        81.1599 
 445   0.0000       2.997287        81.5603 
 446   0.0000       3.013783        82.0092 
 447   0.0000       3.021120        82.2089 
 448   0.0000       3.029879        82.4472 
 449   0.0000       3.033725        82.5519 
 450   0.0000       3.046747        82.9062 
 451   0.0000       3.063338        83.3577 
 452   0.0000       3.084640        83.9373 
 453   0.0000       3.090881        84.1071 
 454   0.0000       3.093025        84.1655 
 455   0.0000       3.102465        84.4224 
 456   0.0000       3.108149        84.5770 
 457   0.0000       3.114213        84.7421 
 458   0.0000       3.122775        84.9750 
 459   0.0000       3.133913        85.2781 
 460   0.0000       3.143724        85.5451 
 461   0.0000       3.145330        85.5888 
 462   0.0000       3.156846        85.9021 
 463   0.0000       3.159771        85.9818 
 464   0.0000       3.170671        86.2783 
 465   0.0000       3.191648        86.8491 
 466   0.0000       3.198266        87.0293 
 467   0.0000       3.199614        87.0659 
 468   0.0000       3.203965        87.1843 
 469   0.0000       3.215201        87.4901 
 470   0.0000       3.220796        87.6423 
 471   0.0000       3.222721        87.6947 
 472   0.0000       3.228102        87.8411 
 473   0.0000       3.237630        88.1004 
 474   0.0000       3.243468        88.2592 
 475   0.0000       3.247845        88.3783 
 476   0.0000       3.249269        88.4171 
 477   0.0000       3.267991        88.9266 
 478   0.0000       3.272242        89.0422 
 479   0.0000       3.277500        89.1853 
 480   0.0000       3.288027        89.4718 
 481   0.0000       3.296432        89.7005 
 482   0.0000       3.301539        89.8394 
 483   0.0000       3.305975        89.9602 
 484   0.0000       3.311484        90.1101 
 485   0.0000       3.321144        90.3729 
 486   0.0000       3.331284        90.6489 
 487   0.0000       3.345937        91.0476 
 488   0.0000       3.374677        91.8296 
 489   0.0000       3.384345        92.0927 
 490   0.0000       3.392813        92.3231 
 491   0.0000       3.401405        92.5569 
 492   0.0000       3.409545        92.7784 
 493   0.0000       3.415310        92.9353 
 494   0.0000       3.424805        93.1937 
 495   0.0000       3.435404        93.4821 
 496   0.0000       3.438471        93.5655 
 497   0.0000       3.443001        93.6888 
 498   0.0000       3.453215        93.9667 
 499   0.0000       3.464950        94.2861 
 500   0.0000       3.467542        94.3566 
 501   0.0000       3.475528        94.5739 
 502   0.0000       3.482200        94.7555 
 503   0.0000       3.489101        94.9433 
 504   0.0000       3.501466        95.2797 
 505   0.0000       3.512699        95.5854 
 506   0.0000       3.534941        96.1906 
 507   0.0000       3.537726        96.2664 
 508   0.0000       3.542806        96.4046 
 509   0.0000       3.552388        96.6654 
 510   0.0000       3.556439        96.7756 
 511   0.0000       3.560445        96.8846 
 512   0.0000       3.573379        97.2366 
 513   0.0000       3.596651        97.8698 
 514   0.0000       3.608490        98.1920 
 515   0.0000       3.625179        98.6461 
 516   0.0000       3.642041        99.1050 
 517   0.0000       3.654537        99.4450 
 518   0.0000       3.678896       100.1079 
 519   0.0000       3.685883       100.2980 
 520   0.0000       3.691570       100.4527 
 521   0.0000       3.712505       101.0224 
 522   0.0000       3.750415       102.0540 
 523   0.0000       3.761849       102.3651 
 524   0.0000       3.770391       102.5976 
 525   0.0000       3.773869       102.6922 
 526   0.0000       3.781062       102.8879 
 527   0.0000       3.785845       103.0181 
 528   0.0000       3.793959       103.2389 
 529   0.0000       3.808500       103.6346 
 530   0.0000       3.824514       104.0703 
 531   0.0000       3.830433       104.2314 
 532   0.0000       3.875217       105.4500 
 533   0.0000       3.892003       105.9068 
 534   0.0000       3.899492       106.1106 
 535   0.0000       3.907845       106.3379 
 536   0.0000       3.913562       106.4934 
 537   0.0000       3.920522       106.6828 
 538   0.0000       3.933946       107.0481 
 539   0.0000       3.939610       107.2022 
 540   0.0000       3.976127       108.1959 
 541   0.0000       3.985170       108.4420 
 542   0.0000       4.015651       109.2714 
 543   0.0000       4.023992       109.4984 
 544   0.0000       4.035684       109.8165 
 545   0.0000       4.047682       110.1430 
 546   0.0000       4.072160       110.8091 
 547   0.0000       4.079817       111.0175 
 548   0.0000       4.094141       111.4072 
 549   0.0000       4.098327       111.5212 
 550   0.0000       4.143481       112.7498 
 551   0.0000       4.146920       112.8434 
 552   0.0000       4.158500       113.1585 
 553   0.0000       4.160455       113.2117 
 554   0.0000       4.185056       113.8812 
 555   0.0000       4.204439       114.4086 
 556   0.0000       4.207777       114.4994 
 557   0.0000       4.216634       114.7404 
 558   0.0000       4.224842       114.9638 
 559   0.0000       4.234255       115.2199 
 560   0.0000       4.255911       115.8092 
 561   0.0000       4.262335       115.9840 
 562   0.0000       4.270859       116.2160 
 563   0.0000       4.273367       116.2842 
 564   0.0000       4.316827       117.4668 
 565   0.0000       4.329795       117.8197 
 566   0.0000       4.336592       118.0047 
 567   0.0000       4.344194       118.2115 
 568   0.0000       4.361256       118.6758 
 569   0.0000       4.417687       120.2114 
 570   0.0000       4.430893       120.5707 
 571   0.0000       4.438570       120.7796 
 572   0.0000       4.449908       121.0881 
 573   0.0000       4.460762       121.3835 
 574   0.0000       4.494713       122.3074 
 575   0.0000       4.496762       122.3631 
 576   0.0000       4.533763       123.3700 
 577   0.0000       4.542747       123.6144 
 578   0.0000       4.574893       124.4892 
 579   0.0000       4.605500       125.3220 
 580   0.0000       4.614241       125.5599 
 581   0.0000       4.619816       125.7116 
 582   0.0000       4.650819       126.5552 
 583   0.0000       4.658754       126.7712 
 584   0.0000       4.682095       127.4063 
 585   0.0000       4.690880       127.6453 
 586   0.0000       4.698859       127.8625 
 587   0.0000       4.721522       128.4792 
 588   0.0000       4.736855       128.8964 
 589   0.0000       4.749502       129.2405 
 590   0.0000       4.783269       130.1594 
 591   0.0000       4.795662       130.4966 
 592   0.0000       4.801204       130.6474 
 593   0.0000       4.823367       131.2505 
 594   0.0000       4.862477       132.3147 
 595   0.0000       4.871691       132.5655 
 596   0.0000       4.884901       132.9249 
 597   0.0000       4.899902       133.3331 
 598   0.0000       4.936306       134.3237 
 599   0.0000       4.989578       135.7733 
 600   0.0000       4.995093       135.9234 
 601   0.0000       5.013909       136.4354 
 602   0.0000       5.020221       136.6072 
 603   0.0000       5.040112       137.1484 
 604   0.0000       5.064222       137.8045 
 605   0.0000       5.086400       138.4080 
 606   0.0000       5.088943       138.4772 
 607   0.0000       5.112400       139.1155 
 608   0.0000       5.127857       139.5361 
 609   0.0000       5.133934       139.7015 
 610   0.0000       5.135807       139.7524 
 611   0.0000       5.143824       139.9706 
 612   0.0000       5.148030       140.0850 
 613   0.0000       5.170931       140.7082 
 614   0.0000       5.191462       141.2669 
 615   0.0000       5.206879       141.6864 
 616   0.0000       5.212883       141.8498 
 617   0.0000       5.231391       142.3534 
 618   0.0000       5.260724       143.1516 
 619   0.0000       5.290108       143.9512 
 620   0.0000       5.309212       144.4710 
 621   0.0000       5.332012       145.0914 
 622   0.0000       5.343365       145.4004 
 623   0.0000       5.359636       145.8431 
 624   0.0000       5.382229       146.4579 
 625   0.0000       5.389561       146.6574 
 626   0.0000       5.394797       146.7999 
 627   0.0000       5.404729       147.0702 
 628   0.0000       5.412087       147.2704 
 629   0.0000       5.428838       147.7262 
 630   0.0000       5.434761       147.8874 
 631   0.0000       5.460449       148.5864 
 632   0.0000       5.509791       149.9290 
 633   0.0000       5.543705       150.8519 
 634   0.0000       5.552008       151.0778 
 635   0.0000       5.577772       151.7789 
 636   0.0000       5.601696       152.4299 
 637   0.0000       5.616676       152.8375 
 638   0.0000       5.623736       153.0296 
 639   0.0000       5.672165       154.3475 
 640   0.0000       5.707061       155.2970 
 641   0.0000       5.869124       159.7070 
 642   0.0000       5.909382       160.8024 
 643   0.0000       5.958915       162.1503 
 644   0.0000       6.004937       163.4027 
 645   0.0000       6.212095       169.0397 
 646   0.0000       6.245546       169.9499 
 647   0.0000       6.319238       171.9552 
 648   0.0000       6.355407       172.9394 
 649   0.0000       6.368773       173.3031 
 650   0.0000       6.388930       173.8516 
 651   0.0000       6.409065       174.3995 
 652   0.0000       6.423153       174.7829 
 653   0.0000       6.443593       175.3391 
 654   0.0000       6.455044       175.6507 
 655   0.0000       6.671213       181.5329 
 656   0.0000       6.858470       186.6285 
 657   0.0000       6.875035       187.0792 
 658   0.0000       6.906460       187.9343 
 659   0.0000       6.926324       188.4749 
 660   0.0000       7.003027       190.5621 
 661   0.0000       7.097257       193.1262 
 662   0.0000       7.256308       197.4542 
 663   0.0000       7.305956       198.8052 
 664   0.0000       7.381707       200.8665 
 665   0.0000       7.423533       202.0046 
 666   0.0000      22.039314       599.7202 
 667   0.0000      22.410424       609.8186 
 668   0.0000      22.431142       610.3824 
 669   0.0000      22.479170       611.6893 
 670   0.0000      22.493404       612.0766 
 671   0.0000      22.539639       613.3348 
 672   0.0000      22.579651       614.4235 
 673   0.0000      22.596739       614.8885 
 674   0.0000      22.699372       617.6813 
 675   0.0000      22.766477       619.5073 
 676   0.0000      22.806104       620.5856 
 677   0.0000      23.214134       631.6887 
 678   0.0000      32.211823       876.5283 
 679   0.0000      32.384086       881.2158 
 680   0.0000      32.509852       884.6380 
 681   0.0000      43.445180      1182.2035 
 682   0.0000      43.972674      1196.5573 
 683   0.0000      44.060763      1198.9543 

                    ********************************
                    * MULLIKEN POPULATION ANALYSIS *
                    ********************************

-----------------------
MULLIKEN ATOMIC CHARGES
-----------------------
   0 C :   -0.131584
   1 C :   -0.215785
   2 C :    0.146542
   3 C :   -0.220984
   4 C :   -0.130026
   5 C :   -0.144921
   6 H :    0.143977
   7 H :    0.125293
   8 H :    0.148653
   9 H :    0.144691
  10 C :    0.002684
  11 C :   -0.367811
  12 H :    0.141167
  13 H :    0.136873
  14 H :    0.136494
  15 N :    0.429255
  16 O :   -0.361227
  17 O :   -0.348781
  18 N :   -0.395561
  19 C :   -0.060742
  20 C :   -0.126720
  21 N :   -0.385513
  22 C :   -0.080565
  23 C :   -0.096133
  24 H :    0.106125
  25 H :    0.057288
  26 H :    0.107447
  27 H :    0.064692
  28 H :    0.107693
  29 H :    0.080194
  30 H :    0.067691
  31 H :    0.190799
  32 H :    0.226005
  33 H :    0.107977
  34 H :    0.214872
  35 H :    0.367117
  36 H :    0.368668
  37 O :   -0.700321
  38 H :    0.144477
Sum of atomic charges:    0.0000000

--------------------------------
MULLIKEN REDUCED ORBITAL CHARGES
--------------------------------
  0 C s       :     3.217546  s :     3.217546
      pz      :     0.958654  p :     2.825566
      px      :     0.895805
      py      :     0.971108
      dz2     :     0.008957  d :     0.081218
      dxz     :     0.019838
      dyz     :     0.009924
      dx2y2   :     0.023807
      dxy     :     0.018694
      f0      :     0.000730  f :     0.007253
      f+1     :     0.001010
      f-1     :     0.000672
      f+2     :     0.001197
      f-2     :     0.001040
      f+3     :     0.001739
      f-3     :     0.000866
  1 C s       :     3.259288  s :     3.259288
      pz      :     0.937800  p :     2.865829
[...]
    108       0.000011  -0.268130  -0.245869
    109      -0.000025   0.595554   0.611884
    110      -0.000015   0.275479   0.242161
    111      -0.000000  -0.007949   0.040053
    112       0.000001  -0.045584  -0.027698
    113      -0.000005   0.018359  -0.050940
    114       0.000001   0.000087  -0.000039
    115       0.000002   0.000039  -0.000026
    116       0.000004   0.000002   0.000003


-----------
IR SPECTRUM
-----------

 Mode   freq       eps      Int      T**2         TX        TY        TZ
       cm**-1   L/(mol*cm) km/mol    a.u.
----------------------------------------------------------------------------
  7:     10.32   0.000449    2.27  0.013582  (-0.111890  0.001134 -0.032584)
  8:     19.84   0.000442    2.23  0.006954  (-0.021322 -0.040290 -0.069826)
  9:     26.83   0.000708    3.58  0.008234  ( 0.019583  0.061052  0.064214)
 10:     31.54   0.000336    1.70  0.003321  (-0.044152  0.022944 -0.029078)
 11:     43.35   0.000124    0.63  0.000894  (-0.005676 -0.006180 -0.028704)
 12:     45.30   0.001302    6.58  0.008970  (-0.010684  0.048324  0.080750)
 13:     50.78   0.001114    5.63  0.006848  (-0.007870 -0.003909 -0.082287)
 14:     52.27   0.000627    3.17  0.003744  (-0.057578  0.020417  0.003406)
 15:     66.84   0.001412    7.14  0.006593  ( 0.068518 -0.026403 -0.034653)
 16:     72.26   0.008670   43.82  0.037443  (-0.174765 -0.030647 -0.077208)
 17:     98.48   0.004123   20.83  0.013065  ( 0.107772 -0.021920  0.031133)
 18:    113.03   0.004080   20.62  0.011264  ( 0.096986 -0.031503  0.029417)
 19:    121.17   0.029632  149.75  0.076314  ( 0.271847 -0.006944  0.048629)
 20:    171.82   0.010887   55.02  0.019774  (-0.034215  0.054425  0.125065)
 21:    203.87   0.000577    2.92  0.000884  (-0.007949  0.007631 -0.027611)
 22:    215.95   0.000164    0.83  0.000237  ( 0.011780  0.001835  0.009762)
 23:    249.94   0.000394    1.99  0.000492  ( 0.008460  0.005320  0.019794)
 24:    271.15   0.002295   11.60  0.002641  (-0.025556  0.034341 -0.028434)
 25:    278.53   0.000572    2.89  0.000641  (-0.006034 -0.021379 -0.012139)
 26:    297.75   0.000211    1.06  0.000221  (-0.009767  0.008661  0.007089)
 27:    356.89   0.000120    0.60  0.000105  (-0.000652 -0.001594  0.010077)
 28:    418.49   0.000017    0.08  0.000012  (-0.002836  0.002008 -0.000567)
 29:    419.41   0.000012    0.06  0.000009  ( 0.000943 -0.002876 -0.000196)
 30:    465.74   0.000621    3.14  0.000416  ( 0.015817 -0.012728 -0.001914)
 31:    466.45   0.001247    6.30  0.000834  (-0.009667 -0.012552 -0.024148)
 32:    472.89   0.000011    0.06  0.000008  ( 0.002211 -0.000051  0.001618)
 33:    512.66   0.003466   17.51  0.002110  (-0.019598 -0.010091 -0.040294)
 34:    577.75   0.006822   34.47  0.003685  (-0.037929  0.033818  0.033201)
 35:    587.02   0.019050   96.27  0.010127  (-0.094037  0.035742  0.002610)
 36:    626.17   0.002014   10.18  0.001004  ( 0.004334 -0.029653 -0.010279)
 37:    647.23   0.003181   16.07  0.001534  (-0.001499  0.037527  0.011096)
 38:    715.51   0.011832   59.80  0.005161  (-0.007658  0.038384  0.060238)
 39:    738.01   0.010928   55.23  0.004621  ( 0.023014 -0.038142 -0.051346)
 40:    778.98   0.001795    9.07  0.000719  (-0.009654  0.009534  0.023129)
 41:    795.32   0.013727   69.37  0.005386  ( 0.069102 -0.019241 -0.015515)
 42:    812.96   0.001170    5.91  0.000449  (-0.001817 -0.014096 -0.015717)
 43:    832.72   0.041093  207.67  0.015400  ( 0.118234 -0.032006 -0.019897)
 44:    854.00   0.007310   36.94  0.002671  ( 0.050770 -0.009627  0.000975)
 45:    862.93   0.005299   26.78  0.001916  ( 0.015641 -0.037005 -0.017389)
 46:    864.74   0.000016    0.08  0.000006  (-0.002080 -0.001181  0.000435)
 47:    865.36   0.001017    5.14  0.000367  (-0.007360  0.015122  0.009166)
 48:    883.64   0.003910   19.76  0.001381  (-0.021668  0.028726  0.009288)
 49:    896.02   0.000226    1.14  0.000079  (-0.006453 -0.004113 -0.004484)
 50:    950.52   0.001138    5.75  0.000374  ( 0.007604 -0.015176 -0.009246)
 51:    958.95   0.004443   22.45  0.001446  (-0.033197 -0.000119  0.018543)
 52:    970.63   0.002464   12.45  0.000792  ( 0.007253  0.019577 -0.018874)
 53:    993.25   0.000005    0.02  0.000001  ( 0.000695 -0.000070 -0.000990)
 54:   1013.79   0.000073    0.37  0.000022  (-0.000150 -0.001310 -0.004538)
 55:   1023.05   0.000059    0.30  0.000018  ( 0.001870 -0.003378  0.001724)
 56:   1049.88   0.002584   13.06  0.000768  (-0.017721  0.015794 -0.014305)
 57:   1064.60   0.000043    0.22  0.000013  ( 0.000759  0.002085 -0.002792)
 58:   1072.38   0.000200    1.01  0.000058  (-0.003024 -0.006341 -0.002980)
 59:   1093.08   0.003326   16.81  0.000949  (-0.018367 -0.020283  0.014166)
 60:   1095.14   0.007738   39.10  0.002205  ( 0.040115  0.000032 -0.024407)
 61:   1115.59   0.002616   13.22  0.000732  (-0.022797  0.013468  0.005541)
 62:   1131.60   0.000138    0.70  0.000038  (-0.003518 -0.004425 -0.002452)
 63:   1132.66   0.000545    2.75  0.000150  (-0.011140 -0.003508  0.003707)
 64:   1141.28   0.000200    1.01  0.000055  (-0.006553 -0.000905  0.003315)
 65:   1141.99   0.002039   10.31  0.000557  (-0.007137  0.014656  0.017074)
 66:   1146.21   0.021193  107.10  0.005770  (-0.027595 -0.057907 -0.040686)
 67:   1177.80   0.000057    0.29  0.000015  ( 0.001123  0.002218 -0.002982)
 68:   1202.09   0.000156    0.79  0.000041  (-0.000825 -0.004928  0.003949)
 69:   1207.14   0.000140    0.71  0.000036  ( 0.001883  0.003608  0.004431)
 70:   1211.38   0.000005    0.03  0.000001  ( 0.000326  0.000229  0.001063)
 71:   1265.75   0.004925   24.89  0.001214  ( 0.012245  0.004481  0.032314)
 72:   1290.59   0.003459   17.48  0.000836  ( 0.020493  0.001785 -0.020327)
 73:   1317.82   0.000023    0.12  0.000006  ( 0.001227 -0.000678  0.001891)
 74:   1328.73   0.000151    0.76  0.000035  ( 0.003072  0.005089 -0.000130)
 75:   1338.08   0.005834   29.48  0.001361  (-0.011132 -0.028944 -0.019972)
 76:   1343.65   0.014266   72.09  0.003313  ( 0.019490  0.044528  0.030833)
 77:   1364.99   0.000101    0.51  0.000023  ( 0.001152 -0.004356 -0.001702)
 78:   1397.61   0.016052   81.12  0.003584  ( 0.025301 -0.053796 -0.007067)
 79:   1411.51   0.000187    0.94  0.000041  (-0.001857  0.005250 -0.003204)
 80:   1418.79   0.025026  126.47  0.005504  ( 0.041677 -0.047552 -0.038810)
 81:   1425.82   0.000003    0.02  0.000001  ( 0.000578 -0.000143  0.000615)
 82:   1469.58   0.002452   12.39  0.000521  ( 0.021476  0.006029 -0.004811)
 83:   1471.81   0.000035    0.18  0.000007  ( 0.000581  0.001833  0.001935)
 84:   1477.02   0.002496   12.61  0.000527  (-0.005307 -0.019993 -0.009972)
 85:   1482.86   0.000079    0.40  0.000017  ( 0.001060  0.002894 -0.002672)
 86:   1484.05   0.002936   14.84  0.000617  (-0.014306 -0.017961  0.009497)
 87:   1484.39   0.000319    1.61  0.000067  (-0.000457 -0.006499  0.004970)
 88:   1488.56   0.003025   15.29  0.000634  ( 0.000179 -0.013390  0.021327)
 89:   1495.29   0.000024    0.12  0.000005  (-0.001948  0.000225 -0.001073)
 90:   1522.40   0.002430   12.28  0.000498  ( 0.005690  0.018126  0.011710)
 91:   1530.77   0.003121   15.77  0.000636  ( 0.023857 -0.003908  0.007204)
 92:   1555.68   0.131271  663.39  0.026332  ( 0.076227  0.091264 -0.110421)
 93:   1589.65   0.022655  114.49  0.004447  ( 0.010123  0.060953 -0.025092)
 94:   1622.72   0.000107    0.54  0.000021  (-0.002827 -0.003100  0.001722)
 95:   1641.06   0.000171    0.86  0.000033  (-0.001372  0.003762 -0.004063)
 96:   2313.25   0.001120    5.66  0.000151  ( 0.007392  0.009811 -0.000448)
 97:   2920.74   0.021648  109.40  0.002313  ( 0.034769  0.032865  0.004899)
 98:   2926.08   0.023099  116.73  0.002464  (-0.028910  0.010651  0.038914)
 99:   2936.42   0.061523  310.91  0.006538  ( 0.058349  0.001829 -0.055949)
100:   2938.21   0.031339  158.37  0.003328  (-0.047767 -0.015287  0.028515)
101:   3053.33   0.001891    9.56  0.000193  ( 0.000287 -0.001106 -0.013854)
102:   3068.79   0.007344   37.11  0.000747  (-0.023670  0.013317  0.003029)
103:   3070.67   0.024488  123.75  0.002489  ( 0.006511 -0.042658 -0.025031)
104:   3073.56   0.011057   55.88  0.001123  (-0.026470 -0.014844 -0.014201)
105:   3095.23   0.011819   59.73  0.001192  (-0.025873 -0.016287 -0.016029)
106:   3119.76   0.002930   14.81  0.000293  ( 0.006476 -0.015598  0.002806)
107:   3137.71   0.002723   13.76  0.000271  ( 0.015942  0.003218  0.002512)
108:   3169.82   0.000048    0.24  0.000005  ( 0.001255  0.001713 -0.000436)
109:   3176.50   0.000928    4.69  0.000091  ( 0.007496  0.005654 -0.001739)
110:   3183.10   0.001462    7.39  0.000143  (-0.008312  0.006089 -0.006100)
111:   3188.92   0.003394   17.15  0.000332  (-0.004997 -0.015032  0.009013)
112:   3194.45   0.002163   10.93  0.000211  ( 0.013397 -0.002922  0.004821)
113:   3482.60   0.035073  177.25  0.003143  ( 0.021934 -0.036416  0.036545)
114:   3505.60   0.000698    3.53  0.000062  ( 0.001130 -0.004950  0.006030)
115:   3760.15   0.007983   40.34  0.000663  ( 0.006062  0.023242 -0.009252)
116:   3844.48   0.025602  129.38  0.002078  (-0.025569  0.018160  0.033085)

* The epsilon (eps) is given for a Dirac delta lineshape.
** The dipole moment derivative (T) already includes vibrational overlap.

The first frequency considered to be a vibration is 7
The total number of vibrations considered is 110


--------------------------
THERMOCHEMISTRY AT 298.15K
--------------------------

Temperature         ... 298.15 K
Pressure            ... 1.00 atm
Total Mass          ... 256.31 AMU

Throughout the following assumptions are being made:
  (1) The electronic state is orbitally nondegenerate
  (2) There are no thermally accessible electronically excited states
  (3) Hindered rotations indicated by low frequency modes are not
      treated as such but are treated as vibrations and this may
      cause some error
  (4) All equations used are the standard statistical mechanics
      equations for an ideal gas
  (5) All vibrations are strictly harmonic

freq.      10.32  E(vib)   ...       0.58 
freq.      19.84  E(vib)   ...       0.56 
freq.      26.83  E(vib)   ...       0.55 
freq.      31.54  E(vib)   ...       0.55 
freq.      43.35  E(vib)   ...       0.53 
freq.      45.30  E(vib)   ...       0.53 
freq.      50.78  E(vib)   ...       0.52 
freq.      52.27  E(vib)   ...       0.52 
freq.      66.84  E(vib)   ...       0.50 
freq.      72.26  E(vib)   ...       0.50 
freq.      98.48  E(vib)   ...       0.46 
freq.     113.03  E(vib)   ...       0.45 
freq.     121.17  E(vib)   ...       0.44 
freq.     171.82  E(vib)   ...       0.38 
freq.     203.87  E(vib)   ...       0.35 
freq.     215.95  E(vib)   ...       0.34 
freq.     249.94  E(vib)   ...       0.31 
freq.     271.15  E(vib)   ...       0.29 
freq.     278.53  E(vib)   ...       0.28 
freq.     297.75  E(vib)   ...       0.27 
freq.     356.89  E(vib)   ...       0.22 
freq.     418.49  E(vib)   ...       0.18 
freq.     419.41  E(vib)   ...       0.18 
freq.     465.74  E(vib)   ...       0.16 
freq.     466.45  E(vib)   ...       0.16 
freq.     472.89  E(vib)   ...       0.15 
freq.     512.66  E(vib)   ...       0.13 
freq.     577.75  E(vib)   ...       0.11 
freq.     587.02  E(vib)   ...       0.10 
freq.     626.17  E(vib)   ...       0.09 
freq.     647.23  E(vib)   ...       0.09 
freq.     715.51  E(vib)   ...       0.07 
freq.     738.01  E(vib)   ...       0.06 
freq.     778.98  E(vib)   ...       0.05 
freq.     795.32  E(vib)   ...       0.05 
freq.     812.96  E(vib)   ...       0.05 
freq.     832.72  E(vib)   ...       0.04 
freq.     854.00  E(vib)   ...       0.04 
freq.     862.93  E(vib)   ...       0.04 
freq.     864.74  E(vib)   ...       0.04 
freq.     865.36  E(vib)   ...       0.04 
freq.     883.64  E(vib)   ...       0.04 
freq.     896.02  E(vib)   ...       0.03 
freq.     950.52  E(vib)   ...       0.03 
freq.     958.95  E(vib)   ...       0.03 
freq.     970.63  E(vib)   ...       0.03 
freq.     993.25  E(vib)   ...       0.02 
freq.    1013.79  E(vib)   ...       0.02 
freq.    1023.05  E(vib)   ...       0.02 
freq.    1049.88  E(vib)   ...       0.02 
freq.    1064.60  E(vib)   ...       0.02 
freq.    1072.38  E(vib)   ...       0.02 
freq.    1093.08  E(vib)   ...       0.02 
freq.    1095.14  E(vib)   ...       0.02 
freq.    1115.59  E(vib)   ...       0.01 
freq.    1131.60  E(vib)   ...       0.01 
freq.    1132.66  E(vib)   ...       0.01 
freq.    1141.28  E(vib)   ...       0.01 
freq.    1141.99  E(vib)   ...       0.01 
freq.    1146.21  E(vib)   ...       0.01 
freq.    1177.80  E(vib)   ...       0.01 
freq.    1202.09  E(vib)   ...       0.01 
freq.    1207.14  E(vib)   ...       0.01 
freq.    1211.38  E(vib)   ...       0.01 
freq.    1265.75  E(vib)   ...       0.01 
freq.    1290.59  E(vib)   ...       0.01 
freq.    1317.82  E(vib)   ...       0.01 
freq.    1328.73  E(vib)   ...       0.01 
freq.    1338.08  E(vib)   ...       0.01 
freq.    1343.65  E(vib)   ...       0.01 
freq.    1364.99  E(vib)   ...       0.01 
freq.    1397.61  E(vib)   ...       0.00 
freq.    1411.51  E(vib)   ...       0.00 
freq.    1418.79  E(vib)   ...       0.00 
freq.    1425.82  E(vib)   ...       0.00 
freq.    1469.58  E(vib)   ...       0.00 
freq.    1471.81  E(vib)   ...       0.00 
freq.    1477.02  E(vib)   ...       0.00 
freq.    1482.86  E(vib)   ...       0.00 
freq.    1484.05  E(vib)   ...       0.00 
freq.    1484.39  E(vib)   ...       0.00 
freq.    1488.56  E(vib)   ...       0.00 
freq.    1495.29  E(vib)   ...       0.00 
freq.    1522.40  E(vib)   ...       0.00 
freq.    1530.77  E(vib)   ...       0.00 
freq.    1555.68  E(vib)   ...       0.00 
freq.    1589.65  E(vib)   ...       0.00 
freq.    1622.72  E(vib)   ...       0.00 
freq.    1641.06  E(vib)   ...       0.00 
freq.    2313.25  E(vib)   ...       0.00 
freq.    2920.74  E(vib)   ...       0.00 
freq.    2926.08  E(vib)   ...       0.00 
freq.    2936.42  E(vib)   ...       0.00 
freq.    2938.21  E(vib)   ...       0.00 
freq.    3053.33  E(vib)   ...       0.00 
freq.    3068.79  E(vib)   ...       0.00 
freq.    3070.67  E(vib)   ...       0.00 
freq.    3073.56  E(vib)   ...       0.00 
freq.    3095.23  E(vib)   ...       0.00 
freq.    3119.76  E(vib)   ...       0.00 
freq.    3137.71  E(vib)   ...       0.00 
freq.    3169.82  E(vib)   ...       0.00 
freq.    3176.50  E(vib)   ...       0.00 
freq.    3183.10  E(vib)   ...       0.00 
freq.    3188.92  E(vib)   ...       0.00 
freq.    3194.45  E(vib)   ...       0.00 
freq.    3482.60  E(vib)   ...       0.00 
freq.    3505.60  E(vib)   ...       0.00 
freq.    3760.15  E(vib)   ...       0.00 
freq.    3844.48  E(vib)   ...       0.00 

------------
INNER ENERGY
------------

The inner energy is: U= E(el) + E(ZPE) + E(vib) + E(rot) + E(trans)
    E(el)   - is the total energy from the electronic structure calculation
              = E(kin-el) + E(nuc-el) + E(el-el) + E(nuc-nuc)
    E(ZPE)  - the the zero temperature vibrational energy from the frequency calculation
    E(vib)  - the the finite temperature correction to E(ZPE) due to population
              of excited vibrational states
    E(rot)  - is the rotational thermal energy
    E(trans)- is the translational thermal energy

Summary of contributions to the inner energy U:
Electronic energy                ...   -859.67635899 Eh
Zero point energy                ...      0.32615040 Eh     204.66 kcal/mol
Thermal vibrational correction   ...      0.01831020 Eh      11.49 kcal/mol
Thermal rotational correction    ...      0.00141627 Eh       0.89 kcal/mol
Thermal translational correction ...      0.00141627 Eh       0.89 kcal/mol
-----------------------------------------------------------------------
Total thermal energy                   -859.32906584 Eh


Summary of corrections to the electronic energy:
(perhaps to be used in another calculation)
Total thermal correction                  0.02114274 Eh      13.27 kcal/mol
Non-thermal (ZPE) correction              0.32615040 Eh     204.66 kcal/mol
-----------------------------------------------------------------------
Total correction                          0.34729314 Eh     217.93 kcal/mol


--------
ENTHALPY
--------

The enthalpy is H = U + kB*T
                kB is Boltzmann's constant
Total free energy                 ...   -859.32906584 Eh 
Thermal Enthalpy correction       ...      0.00094421 Eh       0.59 kcal/mol
-----------------------------------------------------------------------
Total Enthalpy                    ...   -859.32812163 Eh


Note: Only C1 symmetry has been detected, increase convergence thresholds 
      if your molecule has a higher symmetry. Symmetry factor of 1.0 is   
      used for the rotational entropy correction. 
 

Note: Rotational entropy computed according to Herzberg 
Infrared and Raman Spectra, Chapter V,1, Van Nostrand Reinhold, 1945 
Point Group:  C1, Symmetry Number:   1  
Rotational constants in cm-1:     0.025809     0.005858     0.005344 

Vibrational entropy computed according to the QRRHO of S. Grimme
Chem.Eur.J. 2012 18 9955


-------
ENTROPY
-------

The entropy contributions are T*S = T*(S(el)+S(vib)+S(rot)+S(trans))
     S(el)   - electronic entropy
     S(vib)  - vibrational entropy
     S(rot)  - rotational entropy
     S(trans)- translational entropy
The entropies will be listed as multiplied by the temperature to get
units of energy

Electronic entropy                ...      0.00000000 Eh      0.00 kcal/mol
Vibrational entropy               ...      0.03460586 Eh     21.72 kcal/mol
Rotational entropy                ...      0.01613366 Eh     10.12 kcal/mol
Translational entropy             ...      0.02020426 Eh     12.68 kcal/mol
-----------------------------------------------------------------------
Final entropy term                ...      0.07094378 Eh     44.52 kcal/mol

In case the symmetry of your molecule has not been determined correctly
or in case you have a reason to use a different symmetry number we print 
out the resulting rotational entropy values for sn=1,12 :
 --------------------------------------------------------
|  sn= 1 | S(rot)=       0.01613366 Eh     10.12 kcal/mol|
|  sn= 2 | S(rot)=       0.01547920 Eh      9.71 kcal/mol|
|  sn= 3 | S(rot)=       0.01509637 Eh      9.47 kcal/mol|
|  sn= 4 | S(rot)=       0.01482475 Eh      9.30 kcal/mol|
|  sn= 5 | S(rot)=       0.01461406 Eh      9.17 kcal/mol|
|  sn= 6 | S(rot)=       0.01444191 Eh      9.06 kcal/mol|
|  sn= 7 | S(rot)=       0.01429637 Eh      8.97 kcal/mol|
|  sn= 8 | S(rot)=       0.01417029 Eh      8.89 kcal/mol|
|  sn= 9 | S(rot)=       0.01405908 Eh      8.82 kcal/mol|
|  sn=10 | S(rot)=       0.01395960 Eh      8.76 kcal/mol|
|  sn=11 | S(rot)=       0.01386961 Eh      8.70 kcal/mol|
|  sn=12 | S(rot)=       0.01378746 Eh      8.65 kcal/mol|
 --------------------------------------------------------


-------------------
GIBBS FREE ENERGY
-------------------

The Gibbs free energy is G = H - T*S

Total enthalpy                    ...   -859.32812163 Eh 
Total entropy correction          ...     -0.07094378 Eh    -44.52 kcal/mol
-----------------------------------------------------------------------
Final Gibbs free energy         ...   -859.39906542 Eh

For completeness - the Gibbs free energy minus the electronic energy
G-E(el)                           ...      0.27729357 Eh    174.00 kcal/mol



Timings for individual modules:

Sum of individual times         ...     4655.101 sec (=  77.585 min)
GTO integral calculation        ...       11.865 sec (=   0.198 min)   0.3 %
SCF iterations                  ...      186.680 sec (=   3.111 min)   4.0 %
SCF Gradient evaluation         ...       32.732 sec (=   0.546 min)   0.7 %
Numerical frequency calculation ...     4423.823 sec (=  73.730 min)  95.0 %
                             ****ORCA TERMINATED NORMALLY****
TOTAL RUN TIME: 0 days 1 hours 15 minutes 35 seconds 653 msec
