
                                 *****************
                                 * O   R   C   A *
                                 *****************

                                            #,                                       
                                            ###                                      
                                            ####                                     
                                            #####                                    
                                            ######                                   
                                           ########,                                 
                                     ,,################,,,,,                         
                               ,,#################################,,                 
                          ,,##########################################,,             
                       ,#########################################, ''#####,          
                    ,#############################################,,   '####,        
                  ,##################################################,,,,####,       
                ,###########''''           ''''###############################       
              ,#####''   ,,,,##########,,,,          '''####'''          '####       
            ,##' ,,,,###########################,,,                        '##       
           ' ,,###''''                  '''############,,,                           
         ,,##''                                '''############,,,,        ,,,,,,###''
      ,#''                                            '''#######################'''  
     '                                                          ''''####''''         
             ,#######,   #######,   ,#######,      ##                                
            ,#'     '#,  ##    ##  ,#'     '#,    #''#        ######   ,####,        
            ##       ##  ##   ,#'  ##            #'  '#       #        #'  '#        
            ##       ##  #######   ##           ,######,      #####,   #    #        
            '#,     ,#'  ##    ##  '#,     ,#' ,#      #,         ##   #,  ,#        
             '#######'   ##     ##  '#######'  #'      '#     #####' # '####'        



                  #######################################################
                  #                        -***-                        #
                  #          Department of theory and spectroscopy      #
                  #    Directorship and core code : Frank Neese         #
                  #        Max Planck Institute fuer Kohlenforschung    #
                  #                Kaiser Wilhelm Platz 1               #
                  #                 D-45470 Muelheim/Ruhr               #
                  #                      Germany                        #
                  #                                                     #
                  #                  All rights reserved                #
                  #                        -***-                        #
                  #######################################################


                         Program Version 5.0.4 -  RELEASE  -


 With contributions from (in alphabetic order):
   Daniel Aravena         : Magnetic Suceptibility
   Michael Atanasov       : Ab Initio Ligand Field Theory (pilot matlab implementation)
   Alexander A. Auer      : GIAO ZORA, VPT2 properties, NMR spectrum
   Ute Becker             : Parallelization
   Giovanni Bistoni       : ED, misc. LED, open-shell LED, HFLD
   Martin Brehm           : Molecular dynamics
   Dmytro Bykov           : SCF Hessian
   Vijay G. Chilkuri      : MRCI spin determinant printing, contributions to CSF-ICE
   Dipayan Datta          : RHF DLPNO-CCSD density
   Achintya Kumar Dutta   : EOM-CC, STEOM-CC
   Dmitry Ganyushin       : Spin-Orbit,Spin-Spin,Magnetic field MRCI
   Miquel Garcia          : C-PCM and meta-GGA Hessian, CC/C-PCM, Gaussian charge scheme
   Yang Guo               : DLPNO-NEVPT2, F12-NEVPT2, CIM, IAO-localization
   Andreas Hansen         : Spin unrestricted coupled pair/coupled cluster methods
   Benjamin Helmich-Paris : MC-RPA, TRAH-SCF, COSX integrals
   Lee Huntington         : MR-EOM, pCC
   Robert Izsak           : Overlap fitted RIJCOSX, COSX-SCS-MP3, EOM
   Marcus Kettner         : VPT2
   Christian Kollmar      : KDIIS, OOCD, Brueckner-CCSD(T), CCSD density, CASPT2, CASPT2-K
   Simone Kossmann        : Meta GGA functionals, TD-DFT gradient, OOMP2, MP2 Hessian
   Martin Krupicka        : Initial AUTO-CI
   Lucas Lang             : DCDCAS
   Marvin Lechner         : AUTO-CI (C++ implementation), FIC-MRCC
   Dagmar Lenk            : GEPOL surface, SMD
   Dimitrios Liakos       : Extrapolation schemes; Compound Job, initial MDCI parallelization
   Dimitrios Manganas     : Further ROCIS development; embedding schemes
   Dimitrios Pantazis     : SARC Basis sets
   Anastasios Papadopoulos: AUTO-CI, single reference methods and gradients
   Taras Petrenko         : DFT Hessian,TD-DFT gradient, ASA, ECA, R-Raman, ABS, FL, XAS/XES, NRVS
   Peter Pinski           : DLPNO-MP2, DLPNO-MP2 Gradient
   Christoph Reimann      : Effective Core Potentials
   Marius Retegan         : Local ZFS, SOC
   Christoph Riplinger    : Optimizer, TS searches, QM/MM, DLPNO-CCSD(T), (RO)-DLPNO pert. Triples
   Tobias Risthaus        : Range-separated hybrids, TD-DFT gradient, RPA, STAB
   Michael Roemelt        : Original ROCIS implementation
   Masaaki Saitow         : Open-shell DLPNO-CCSD energy and density
   Barbara Sandhoefer     : DKH picture change effects
   Avijit Sen             : IP-ROCIS
   Kantharuban Sivalingam : CASSCF convergence, NEVPT2, FIC-MRCI
   Bernardo de Souza      : ESD, SOC TD-DFT
   Georgi Stoychev        : AutoAux, RI-MP2 NMR, DLPNO-MP2 response
   Willem Van den Heuvel  : Paramagnetic NMR
   Boris Wezisla          : Elementary symmetry handling
   Frank Wennmohs         : Technical directorship


 We gratefully acknowledge several colleagues who have allowed us to
 interface, adapt or use parts of their codes:
   Stefan Grimme, W. Hujo, H. Kruse, P. Pracht,  : VdW corrections, initial TS optimization,
                  C. Bannwarth, S. Ehlert          DFT functionals, gCP, sTDA/sTD-DF
   Ed Valeev, F. Pavosevic, A. Kumar             : LibInt (2-el integral package), F12 methods
   Garnet Chan, S. Sharma, J. Yang, R. Olivares  : DMRG
   Ulf Ekstrom                                   : XCFun DFT Library
   Mihaly Kallay                                 : mrcc  (arbitrary order and MRCC methods)
   Jiri Pittner, Ondrej Demel                    : Mk-CCSD
   Frank Weinhold                                : gennbo (NPA and NBO analysis)
   Christopher J. Cramer and Donald G. Truhlar   : smd solvation model
   Lars Goerigk                                  : TD-DFT with DH, B97 family of functionals
   V. Asgeirsson, H. Jonsson                     : NEB implementation
   FAccTs GmbH                                   : IRC, NEB, NEB-TS, DLPNO-Multilevel, CI-OPT
                                                   MM, QMMM, 2- and 3-layer-ONIOM, Crystal-QMMM,
                                                   LR-CPCM, SF, NACMEs, symmetry and pop. for TD-DFT,
                                                   nearIR, NL-DFT gradient (VV10), updates on ESD,
                                                   ML-optimized integration grids
   S Lehtola, MJT Oliveira, MAL Marques          : LibXC Library
   Liviu Ungur et al                             : ANISO software


 Your calculation uses the libint2 library for the computation of 2-el integrals
 For citations please refer to: http://libint.valeyev.net

 Your ORCA version has been built with support for libXC version: 5.1.0
 For citations please refer to: https://tddft.org/programs/libxc/

 This ORCA versions uses:
   CBLAS   interface :  Fast vector & matrix operations
   LAPACKE interface :  Fast linear algebra routines
   SCALAPACK package :  Parallel linear algebra routines
   Shared memory     :  Shared parallel matrices
   BLAS/LAPACK       :  OpenBLAS 0.3.15  USE64BITINT DYNAMIC_ARCH NO_AFFINITY Prescott SINGLE_THREADED
        Core in use  :  Prescott
   Copyright (c) 2011-2014, The OpenBLAS Project


Your calculation utilizes the atom-pairwise dispersion correction
with the Becke-Johnson damping scheme (D3BJ)
Cite in your paper:
S.Grimme, S.Ehrlich, L.Goerigk, J Comput Chem, (2011), 32, 1456–1465 
S.Grimme, J.Antony, S.Ehrlich and H.Krieg, J.Chem.Phys., 132, (2010), 154104 
   

================================================================================

----- Orbital basis set information -----
Your calculation utilizes the basis: def2-TZVP
   F. Weigend and R. Ahlrichs, Phys. Chem. Chem. Phys. 7, 3297 (2005).

----- AuxJ basis set information -----
Your calculation utilizes the auxiliary basis: def2/J
   F. Weigend, Phys. Chem. Chem. Phys. 8, 1057 (2006).

================================================================================
                                        WARNINGS
                       Please study these warnings very carefully!
================================================================================

WARNING: Gradients needed for Numerical Frequencies
  ===> : Setting RunTyp to EnGrad

INFO   : the flag for use of the SHARK integral package has been found!

================================================================================
                                       INPUT FILE
================================================================================
NAME = /home/rudenko/mop_saddle_orca_4_serv/for_orca/CH2CHCH2NO2_picoline_from_lutidine/orca/start_freq_D/start_f_D.inp
|  1> !  NUMFREQ B3LYP def2-TZVP CPCM D3 
|  2> %pal nprocs 102 end
|  3> %cpcm epsilon 78.4 end 
|  4> *xyz 0 1 
|  5> C   1.07205215650549 0.19798073810576 -0.27497704010147
|  6> H   0.63028293626531 0.9677858080735 0.34854260628356
|  7> N   0.06002501587718 -1.72234945552987 0.87574051613548
|  8> O   -0.74501957584368 -1.22990243552094 1.64471618702646
|  9> O   0.73589739862737 -2.70812380971325 1.12965291123835
| 10> H   2.69751872458075 -0.39268835445276 -1.47526740170704
| 11> C   0.2614746448979 -1.04717996895982 -0.46184601462866
| 12> H   -0.7444604610412 -0.8301974531602 -0.81805711497307
| 13> H   0.76152704194248 -1.77063299246105 -1.0998164138414 M = 2
| 14> C   2.25070446483815 0.37443458851328 -0.8556014371618
| 15> H   2.8024369796413 1.29828061409241 -0.7332236425855
| 16> C   6.38470366512019 -2.97476581739349 -0.40381026962147
| 17> C   7.64831781816866 -2.48878363201367 -0.07372455738497
| 18> C   7.69947571379139 -1.24510220374899 0.55869475727935
| 19> C   6.52276870767386 -0.56282322898185 0.83194247357344
| 20> C   5.31639880510381 -1.1386906407236 0.45769105629091
| 21> N   5.2469449146324 -2.32256675436519 -0.15096485384861
| 22> H   6.28753488793315 -3.93527976017292 -0.90015346044661
| 23> H   6.53659537548178 0.40213998605886 1.32101267206919
| 24> H   4.37622241458846 -0.64101045132113 0.65196197898938
| 25> C   8.89227189845102 -3.27183182198279 -0.3822915559987
| 26> H   9.40658150624821 -3.5564029308224 0.53903424757821
| 27> H   9.59109840732525 -2.67697865712237 -0.97407873677041
| 28> H   8.65766478441985 -4.18132556825954 -0.93519728336804
| 29> H   8.656520901513 -0.8173116103768 0.83474590273378
| 30> H   2.20539042884407 -3.32489177529413 -0.15655797791178
| 31> O   2.82933550333978 -3.59808794919645 -0.84273634440006
| 32> H   3.66445494107355 -3.11212446327041 -0.63798120444852
| 33> *
| 34> 
| 35>                          ****END OF INPUT****
================================================================================

                     *******************************
                     * Energy+Gradient Calculation *
                     *******************************

---------------------------------
CARTESIAN COORDINATES (ANGSTROEM)
---------------------------------
  C      1.072052    0.197981   -0.274977
  H      0.630283    0.967786    0.348543
  N      0.060025   -1.722349    0.875741
  O     -0.745020   -1.229902    1.644716
  O      0.735897   -2.708124    1.129653
  H      2.697519   -0.392688   -1.475267
  C      0.261475   -1.047180   -0.461846
  H     -0.744460   -0.830197   -0.818057
  H      0.761527   -1.770633   -1.099816
  C      2.250704    0.374435   -0.855601
  H      2.802437    1.298281   -0.733224
  C      6.384704   -2.974766   -0.403810
  C      7.648318   -2.488784   -0.073725
  C      7.699476   -1.245102    0.558695
  C      6.522769   -0.562823    0.831942
  C      5.316399   -1.138691    0.457691
  N      5.246945   -2.322567   -0.150965
  H      6.287535   -3.935280   -0.900153
  H      6.536595    0.402140    1.321013
  H      4.376222   -0.641010    0.651962
  C      8.892272   -3.271832   -0.382292
  H      9.406582   -3.556403    0.539034
  H      9.591098   -2.676979   -0.974079
  H      8.657665   -4.181326   -0.935197
  H      8.656521   -0.817312    0.834746
  H      2.205390   -3.324892   -0.156558
  O      2.829336   -3.598088   -0.842736
  H      3.664455   -3.112124   -0.637981

----------------------------
CARTESIAN COORDINATES (A.U.)
----------------------------
  NO LB      ZA    FRAG     MASS         X           Y           Z
   0 C     6.0000    0    12.011    2.025885    0.374129   -0.519631
   1 H     1.0000    0     1.008    1.191062    1.828850    0.658650
   2 N     7.0000    0    14.007    0.113431   -3.254769    1.654910
   3 O     8.0000    0    15.999   -1.407883   -2.324179    3.108063
   4 O     8.0000    0    15.999    1.390645   -5.117612    2.134735
   5 H     1.0000    0     1.008    5.097572   -0.742073   -2.787851
   6 C     6.0000    0    12.011    0.494115   -1.978883   -0.872762
   7 H     1.0000    0     1.008   -1.406826   -1.568846   -1.545904
   8 H     1.0000    0     2.000    1.439078   -3.346011   -2.078352
   9 C     6.0000    0    12.011    4.253215    0.707579   -1.616852
  10 H     1.0000    0     1.008    5.295838    2.453395   -1.385592
  11 C     6.0000    0    12.011   12.065341   -5.621493   -0.763091
  12 C     6.0000    0    12.011   14.453226   -4.703119   -0.139319
  13 C     6.0000    0    12.011   14.549900   -2.352902    1.055780
  14 C     6.0000    0    12.011   12.326246   -1.063582    1.572143
  15 C     6.0000    0    12.011   10.046538   -2.151813    0.864911
  16 N     7.0000    0    14.007    9.915289   -4.389015   -0.285282
  17 H     1.0000    0     1.008   11.881719   -7.436601   -1.701044
  18 H     1.0000    0     1.008   12.352375    0.759934    2.496352
  19 H     1.0000    0     1.008    8.269862   -1.211334    1.232030
  20 C     6.0000    0    12.011   16.803959   -6.182866   -0.722426
  21 H     1.0000    0     1.008   17.775863   -6.720628    1.018627
  22 H     1.0000    0     1.008   18.124549   -5.058757   -1.840742
  23 H     1.0000    0     1.008   16.360615   -7.901560   -1.767267
  24 H     1.0000    0     1.008   16.358454   -1.544495    1.577441
  25 H     1.0000    0     1.008    4.167584   -6.283135   -0.295852
  26 O     8.0000    0    15.999    5.346669   -6.799401   -1.592541
  27 H     1.0000    0     1.008    6.924816   -5.881063   -1.205610

--------------------------------
INTERNAL COORDINATES (ANGSTROEM)
--------------------------------
 C      0   0   0     0.000000000000     0.00000000     0.00000000
 H      1   0   0     1.084682736623     0.00000000     0.00000000
 N      1   2   0     2.456830861128    96.76037448     0.00000000
 O      3   1   2     1.217343190968   104.60097538     8.96933533
 O      3   1   2     1.221894455146   120.00437495   223.91224107
 H      1   2   3     2.105167093843   147.28364288   209.99431385
 C      1   2   3     1.497458213903   116.19354825    31.16102206
 H      7   1   2     1.088978051906   112.03427759    53.46210537
 H      7   1   2     1.086481894591   112.19880609   179.71262652
 C      6   1   2     1.082638674697    32.45443206   359.57457235
 H     10   6   1     1.082994261977   117.31386923   180.42362942
 C      6   1   2     4.627145685654   129.77883801    96.79549014
 C     12   6   1     1.393504929921   125.64928176   261.31075916
 C     13  12   6     1.396178647185   116.81927916    30.32804928
 C     14  13  12     1.387374604105   119.74878334     0.28279100
 C     15  14  13     1.388169925143   118.68339199   359.61957472
 N     16  15  14     1.332984813230   122.46728808     0.15081685
 H     12   6   1     1.085534600375   108.45470276   108.99755618
 H     15  14  13     1.081912585277   121.11853067   180.00204128
 H     16  15  14     1.081368765784   121.07843502   179.98364993
 C     13  12   6     1.501932027190   121.36889500   210.14951307
 H     21  13  12     1.092856955413   110.63013090   243.84608635
 H     21  13  12     1.091980240011   110.93876494   124.86794122
 H     21  13  12     1.089919316201   111.16139429     4.03497075
 H     14  13  12     1.084040828579   119.94836196   180.22563713
 H      5   3   1     2.047962631639   120.62066123   324.81083660
 O     26   5   3     0.966842467033   173.66111481   316.38896246
 H     27  26   5     0.987678921650   105.04054707   131.32685606

---------------------------
INTERNAL COORDINATES (A.U.)
---------------------------
 C      0   0   0     0.000000000000     0.00000000     0.00000000
 H      1   0   0     2.049753314410     0.00000000     0.00000000
 N      1   2   0     4.642737484897    96.76037448     0.00000000
 O      3   1   2     2.300445241924   104.60097538     8.96933533
 O      3   1   2     2.309045884783   120.00437495   223.91224107
 H      1   2   3     3.978189273505   147.28364288   209.99431385
 C      1   2   3     2.829785921267   116.19354825    31.16102206
 H      7   1   2     2.057870283953   112.03427759    53.46210537
 H      7   1   2     2.053153230242   112.19880609   179.71262652
 C      6   1   2     2.045890597169    32.45443206   359.57457235
 H     10   6   1     2.046562559744   117.31386923   180.42362942
 C      6   1   2     8.744038127641   129.77883801    96.79549014
 C     12   6   1     2.633342683819   125.64928176   261.31075916
 C     13  12   6     2.638395277208   116.81927916    30.32804928
 C     14  13  12     2.621758046916   119.74878334     0.28279100
 C     15  14  13     2.623260985866   118.68339199   359.61957472
 N     16  15  14     2.518976237680   122.46728808     0.15081685
 H     12   6   1     2.051363103605   108.45470276   108.99755618
 H     15  14  13     2.044518487017   121.11853067   180.00204128
 H     16  15  14     2.043490817107   121.07843502   179.98364993
 C     13  12   6     2.838240203154   121.36889500   210.14951307
 H     21  13  12     2.065200349282   110.63013090   243.84608635
 H     21  13  12     2.063543597275   110.93876494   124.86794122
 H     21  13  12     2.059649015691   111.16139429     4.03497075
 H     14  13  12     2.048540284003   119.94836196   180.22563713
 H      5   3   1     3.870088506303   120.62066123   324.81083660
 O     26   5   3     1.827067477338   173.66111481   316.38896246
 H     27  26   5     1.866442670164   105.04054707   131.32685606

---------------------
BASIS SET INFORMATION
---------------------
There are 4 groups of distinct atoms

 Group   1 Type C   : 11s6p2d1f contracted to 5s3p2d1f pattern {62111/411/11/1}
 Group   2 Type H   : 5s1p contracted to 3s1p pattern {311/1}
 Group   3 Type N   : 11s6p2d1f contracted to 5s3p2d1f pattern {62111/411/11/1}
 Group   4 Type O   : 11s6p2d1f contracted to 5s3p2d1f pattern {62111/411/11/1}

Atom   0C    basis set group =>   1
Atom   1H    basis set group =>   2
Atom   2N    basis set group =>   3
Atom   3O    basis set group =>   4
Atom   4O    basis set group =>   4
Atom   5H    basis set group =>   2
Atom   6C    basis set group =>   1
Atom   7H    basis set group =>   2
Atom   8H    basis set group =>   2
Atom   9C    basis set group =>   1
Atom  10H    basis set group =>   2
Atom  11C    basis set group =>   1
Atom  12C    basis set group =>   1
Atom  13C    basis set group =>   1
Atom  14C    basis set group =>   1
Atom  15C    basis set group =>   1
Atom  16N    basis set group =>   3
Atom  17H    basis set group =>   2
Atom  18H    basis set group =>   2
Atom  19H    basis set group =>   2
Atom  20C    basis set group =>   1
Atom  21H    basis set group =>   2
Atom  22H    basis set group =>   2
Atom  23H    basis set group =>   2
Atom  24H    basis set group =>   2
Atom  25H    basis set group =>   2
Atom  26O    basis set group =>   4
Atom  27H    basis set group =>   2
---------------------------------
AUXILIARY/J BASIS SET INFORMATION
---------------------------------
There are 4 groups of distinct atoms

 Group   1 Type C   : 12s5p4d2f1g contracted to 6s4p3d1f1g pattern {711111/2111/211/2/1}
 Group   2 Type H   : 5s2p1d contracted to 3s1p1d pattern {311/2/1}
 Group   3 Type N   : 12s5p4d2f1g contracted to 6s4p3d1f1g pattern {711111/2111/211/2/1}
 Group   4 Type O   : 12s5p4d2f1g contracted to 6s4p3d1f1g pattern {711111/2111/211/2/1}

Atom   0C    basis set group =>   1
Atom   1H    basis set group =>   2
Atom   2N    basis set group =>   3
Atom   3O    basis set group =>   4
Atom   4O    basis set group =>   4
Atom   5H    basis set group =>   2
Atom   6C    basis set group =>   1
Atom   7H    basis set group =>   2
Atom   8H    basis set group =>   2
Atom   9C    basis set group =>   1
Atom  10H    basis set group =>   2
Atom  11C    basis set group =>   1
Atom  12C    basis set group =>   1
Atom  13C    basis set group =>   1
Atom  14C    basis set group =>   1
Atom  15C    basis set group =>   1
Atom  16N    basis set group =>   3
Atom  17H    basis set group =>   2
Atom  18H    basis set group =>   2
Atom  19H    basis set group =>   2
Atom  20C    basis set group =>   1
Atom  21H    basis set group =>   2
Atom  22H    basis set group =>   2
Atom  23H    basis set group =>   2
Atom  24H    basis set group =>   2
Atom  25H    basis set group =>   2
Atom  26O    basis set group =>   4
Atom  27H    basis set group =>   2


           ************************************************************
           *        Program running with 102 parallel MPI-processes   *
           *              working on a common directory               *
           ************************************************************
------------------------------------------------------------------------------
                           ORCA GTO INTEGRAL CALCULATION
                           -- RI-GTO INTEGRALS CHOSEN --
------------------------------------------------------------------------------
------------------------------------------------------------------------------
                   ___                                                        
                  /   \      - P O W E R E D   B Y -                         
                 /     \                                                     
                 |  |  |   _    _      __       _____    __    __             
                 |  |  |  | |  | |    /  \     |  _  \  |  |  /  |          
                  \  \/   | |  | |   /    \    | | | |  |  | /  /          
                 / \  \   | |__| |  /  /\  \   | |_| |  |  |/  /          
                |  |  |   |  __  | /  /__\  \  |    /   |      \           
                |  |  |   | |  | | |   __   |  |    \   |  |\   \          
                \     /   | |  | | |  |  |  |  | |\  \  |  | \   \       
                 \___/    |_|  |_| |__|  |__|  |_| \__\ |__|  \__/        
                                                                              
                      - O R C A' S   B I G   F R I E N D -                    
                                      &                                       
                       - I N T E G R A L  F E E D E R -                       
                                                                              
 v1 FN, 2020, v2 2021                                                         
------------------------------------------------------------------------------


Reading SHARK input file /home/rudenko/mop_saddle_orca_4_serv/for_orca/CH2CHCH2NO2_picoline_from_lutidine/orca/start_freq_D/start_f_D.SHARKINP.tmp ... ok
----------------------
SHARK INTEGRAL PACKAGE
----------------------

Number of atoms                             ...     28
Number of basis functions                   ...    518
Number of shells                            ...    210
Maximum angular momentum                    ...      3
Integral batch strategy                     ... SHARK/LIBINT Hybrid
RI-J (if used) integral strategy            ... SPLIT-RIJ (Revised 2003 algorithm where possible)
Printlevel                                  ...      1
Contraction scheme used                     ... SEGMENTED contraction
Coulomb Range Separation                    ... NOT USED
Exchange Range Separation                   ... NOT USED
Finite Nucleus Model                        ... NOT USED
Auxiliary Coulomb fitting basis             ... AVAILABLE
   # of basis functions in Aux-J            ...    840
   # of shells in Aux-J                     ...    280
   Maximum angular momentum in Aux-J        ...      4
Auxiliary J/K fitting basis                 ... NOT available
Auxiliary Correlation fitting basis         ... NOT available
Auxiliary 'external' fitting basis          ... NOT available
Integral threshold                          ...     2.500000e-11
Primitive cut-off                           ...     2.500000e-12
Primitive pair pre-selection threshold      ...     2.500000e-12

Calculating pre-screening integrals         ... done (  0.1 sec) Dimension = 210
Organizing shell pair data                  ... done (  0.4 sec)
Shell pair information
Total number of shell pairs                 ...     22155
Shell pairs after pre-screening             ...     15746
Total number of primitive shell pairs       ...     66780
Primitive shell pairs kept                  ...     32583
          la=0 lb=0:   4428 shell pairs
          la=1 lb=0:   4631 shell pairs
          la=1 lb=1:   1246 shell pairs
          la=2 lb=0:   2149 shell pairs
          la=2 lb=1:   1141 shell pairs
          la=2 lb=2:    268 shell pairs
          la=3 lb=0:   1019 shell pairs
          la=3 lb=1:    557 shell pairs
          la=3 lb=2:    244 shell pairs
          la=3 lb=3:     63 shell pairs

Calculating one electron integrals          ... done (  0.1 sec)
Calculating RI/J V-Matrix + Cholesky decomp.... done (  0.1 sec)
Calculating Nuclear repulsion               ... done (  0.0 sec) ENN=    831.242397439151 Eh

SHARK setup successfully completed in   1.1 seconds

Maximum memory used throughout the entire GTOINT-calculation: 27.9 MB


           ************************************************************
           *        Program running with 102 parallel MPI-processes   *
           *              working on a common directory               *
           ************************************************************
-------------------------------------------------------------------------------
                                 ORCA SCF
-------------------------------------------------------------------------------

------------
SCF SETTINGS
------------
Hamiltonian:
 Density Functional     Method          .... DFT(GTOs)
 Exchange Functional    Exchange        .... B88
   X-Alpha parameter    XAlpha          ....  0.666667
   Becke's b parameter  XBeta           ....  0.004200
 Correlation Functional Correlation     .... LYP
 LDA part of GGA corr.  LDAOpt          .... VWN-5
 Gradients option       PostSCFGGA      .... off
 Hybrid DFT is turned on
   Fraction HF Exchange ScalHFX         ....  0.200000
   Scaling of DF-GGA-X  ScalDFX         ....  0.720000
   Scaling of DF-GGA-C  ScalDFC         ....  0.810000
   Scaling of DF-LDA-C  ScalLDAC        ....  1.000000
   Perturbative correction              ....  0.000000
   Density functional embedding theory  .... OFF
   NL short-range parameter             ....  4.800000
 RI-approximation to the Coulomb term is turned on
   Number of AuxJ basis functions       .... 840
   RIJ-COSX (HFX calculated with COS-X)).... on


General Settings:
 Integral files         IntName         .... /home/rudenko/mop_saddle_orca_4_serv/for_orca/CH2CHCH2NO2_picoline_from_lutidine/orca/start_freq_D/start_f_D
 Hartree-Fock type      HFTyp           .... RHF
 Total Charge           Charge          ....    0
 Multiplicity           Mult            ....    1
 Number of Electrons    NEL             ....  106
 Basis Dimension        Dim             ....  518
 Nuclear Repulsion      ENuc            ....    831.2423974392 Eh

Convergence Acceleration:
 DIIS                   CNVDIIS         .... on
   Start iteration      DIISMaxIt       ....    12
   Startup error        DIISStart       ....  0.200000
   # of expansion vecs  DIISMaxEq       ....     5
   Bias factor          DIISBfac        ....   1.050
   Max. coefficient     DIISMaxC        ....  10.000
 Trust-Rad. Augm. Hess. CNVTRAH         .... auto
   Auto Start mean grad. ratio tolernc. ....  1.125000
   Auto Start start iteration           ....    20
   Auto Start num. interpolation iter.  ....    10
   Max. Number of Micro iterations      ....    16
   Max. Number of Macro iterations      .... Maxiter - #DIIS iter
   Number of Davidson start vectors     ....     2
   Converg. threshold I  (grad. norm)   ....   1.000e-05
   Converg. threshold II (energy diff.) ....   1.000e-08
   Grad. Scal. Fac. for Micro threshold ....   0.100
   Minimum threshold for Micro iter.    ....   0.010
   NR start threshold (gradient norm)   ....   0.001
   Initial trust radius                 ....   0.400
   Minimum AH scaling param. (alpha)    ....   1.000
   Maximum AH scaling param. (alpha)    .... 1000.000
   Orbital update algorithm             .... Taylor
   White noise on init. David. guess    .... on
   Maximum white noise                  ....   0.010
   Quad. conv. algorithm                .... NR
 SOSCF                  CNVSOSCF        .... on
   Start iteration      SOSCFMaxIt      ....   150
   Startup grad/error   SOSCFStart      ....  0.003300
 Level Shifting         CNVShift        .... on
   Level shift para.    LevelShift      ....    0.2500
   Turn off err/grad.   ShiftErr        ....    0.0010
 Zerner damping         CNVZerner       .... off
 Static damping         CNVDamp         .... on
   Fraction old density DampFac         ....    0.7000
   Max. Damping (<1)    DampMax         ....    0.9800
   Min. Damping (>=0)   DampMin         ....    0.0000
   Turn off err/grad.   DampErr         ....    0.1000
 Fernandez-Rico         CNVRico         .... off

SCF Procedure:
 Maximum # iterations   MaxIter         ....   125
 SCF integral mode      SCFMode         .... Direct
   Integral package                     .... SHARK and LIBINT hybrid scheme
 Reset frequency        DirectResetFreq ....    20
 Integral Threshold     Thresh          ....  2.500e-11 Eh
 Primitive CutOff       TCut            ....  2.500e-12 Eh

Convergence Tolerance:
 Convergence Check Mode ConvCheckMode   .... Total+1el-Energy
 Convergence forced     ConvForced      .... 0
 Energy Change          TolE            ....  1.000e-08 Eh
 1-El. energy change                    ....  1.000e-05 Eh
 Orbital Gradient       TolG            ....  1.000e-05
 Orbital Rotation angle TolX            ....  1.000e-05
 DIIS Error             TolErr          ....  5.000e-07


Diagonalization of the overlap matrix:
Smallest eigenvalue                        ... 4.789e-05
Time for diagonalization                   ...    0.085 sec
Threshold for overlap eigenvalues          ... 1.000e-08
Number of eigenvalues below threshold      ... 0
Time for construction of square roots      ...    0.190 sec
Total time needed                          ...    0.278 sec

Time for model grid setup =    0.195 sec

------------------------------
INITIAL GUESS: MODEL POTENTIAL
------------------------------
Loading Hartree-Fock densities                     ... done
Calculating cut-offs                               ... done
Initializing the effective Hamiltonian             ... done
Setting up the integral package (SHARK)            ... done
Starting the Coulomb interaction                   ... done (   0.0 sec)
Reading the grid                                   ... done
Mapping shells                                     ... done
Starting the XC term evaluation                    ... done (   0.0 sec)
  promolecular density results
     # of electrons  =    105.991852675
     EX              =    -88.123822146
     EC              =     -3.588413903
     EX+EC           =    -91.712236049
Transforming the Hamiltonian                       ... done (   0.2 sec)
Diagonalizing the Hamiltonian                      ... done (   0.2 sec)
Back transforming the eigenvectors                 ... done (   0.1 sec)
Now organizing SCF variables                       ... done
                      ------------------
                      INITIAL GUESS DONE (   0.8 sec)
                      ------------------
-------------------
DFT GRID GENERATION
-------------------

General Integration Accuracy     IntAcc      ... 4.388
Radial Grid Type                 RadialGrid  ... OptM3 with GC (2021)
Angular Grid (max. ang.)         AngularGrid ... 4 (Lebedev-302)
Angular grid pruning method      GridPruning ... 4 (adaptive)
Weight generation scheme         WeightScheme... Becke
Basis function cutoff            BFCut       ... 1.0000e-11
Integration weight cutoff        WCut        ... 1.0000e-14
Angular grids for H and He will be reduced by one unit
Partially contracted basis set               ... off
Rotationally invariant grid construction     ... off

Total number of grid points                  ...   129440
Total number of batches                      ...     2037
Average number of points per batch           ...       63
Average number of grid points per atom       ...     4623
Time for grid setup =    1.031 sec

--------------------
COSX GRID GENERATION
--------------------

GRIDX 1
-------
General Integration Accuracy     IntAcc      ... 3.816
Radial Grid Type                 RadialGrid  ... OptM3 with GC (2021)
Angular Grid (max. ang.)         AngularGrid ... 1 (Lebedev-50)
Angular grid pruning method      GridPruning ... 4 (adaptive)
Weight generation scheme         WeightScheme... Becke
Basis function cutoff            BFCut       ... 1.0000e-11
Integration weight cutoff        WCut        ... 1.0000e-14
Angular grids for H and He will be reduced by one unit
Partially contracted basis set               ... on
Rotationally invariant grid construction     ... off

Total number of grid points                  ...    16519
Total number of batches                      ...      271
Average number of points per batch           ...       60
Average number of grid points per atom       ...      590
UseSFitting                                  ... on

GRIDX 2
-------
General Integration Accuracy     IntAcc      ... 4.020
Radial Grid Type                 RadialGrid  ... OptM3 with GC (2021)
Angular Grid (max. ang.)         AngularGrid ... 2 (Lebedev-110)
Angular grid pruning method      GridPruning ... 4 (adaptive)
Weight generation scheme         WeightScheme... Becke
Basis function cutoff            BFCut       ... 1.0000e-11
Integration weight cutoff        WCut        ... 1.0000e-14
Angular grids for H and He will be reduced by one unit
Partially contracted basis set               ... on
Rotationally invariant grid construction     ... off

Total number of grid points                  ...    35697
Total number of batches                      ...      570
Average number of points per batch           ...       62
Average number of grid points per atom       ...     1275
UseSFitting                                  ... on

GRIDX 3
-------
General Integration Accuracy     IntAcc      ... 4.338
Radial Grid Type                 RadialGrid  ... OptM3 with GC (2021)
Angular Grid (max. ang.)         AngularGrid ... 3 (Lebedev-194)
Angular grid pruning method      GridPruning ... 4 (adaptive)
Weight generation scheme         WeightScheme... Becke
Basis function cutoff            BFCut       ... 1.0000e-11
Integration weight cutoff        WCut        ... 1.0000e-14
Angular grids for H and He will be reduced by one unit
Partially contracted basis set               ... on
Rotationally invariant grid construction     ... off

Total number of grid points                  ...    78104
Total number of batches                      ...     1234
Average number of points per batch           ...       63
Average number of grid points per atom       ...     2789
UseSFitting                                  ... on

Time for X-Grid setup             =    1.442 sec


--------------------
CPCM SOLVATION MODEL
--------------------
CPCM parameters:
  Epsilon                                         ...      78.4000
  Refrac                                          ...       1.3300
  Rsolv                                           ...       1.3000
  Surface type                                    ... GAUSSIAN VDW
  Epsilon function type                           ...         CPCM
Radii:
 Radius for C  used is    3.8550 Bohr (=   2.0400 Ang.)
 Radius for H  used is    2.4944 Bohr (=   1.3200 Ang.)
 Radius for N  used is    3.5149 Bohr (=   1.8600 Ang.)
 Radius for O  used is    3.4469 Bohr (=   1.8240 Ang.)
Calculating surface                               ...        done! (  0.0s)
GEPOL surface points                              ...         1669
GEPOL Volume                                      ...    1750.6577
GEPOL Surface-area                                ...    1007.9623
Calculating surface distance matrix               ...        done! (  0.1s)
Performing Cholesky decomposition & store         ...        done! (  0.6s)
Overall time for CPCM initialization              ...                 0.6s
--------------
SCF ITERATIONS
--------------
ITER       Energy         Delta-E        Max-DP      RMS-DP      [F,P]     Damp
               ***  Starting incremental Fock matrix formation  ***
  0   -685.8794767102   0.000000000000 0.05573212  0.00089835  0.3528056 0.7000
  1   -686.1091364495  -0.229659739258 0.04537943  0.00067944  0.1412643 0.7000
                               ***Turning on DIIS***
  2   -686.1935891463  -0.084452696864 0.06582626  0.00108082  0.0392981 0.0000
  3   -686.3340981467  -0.140509000388 0.04083888  0.00050587  0.0813118 0.0000
  4   -686.3615457718  -0.027447625038 0.01225622  0.00016588  0.0153205 0.0000
  5   -686.3634483183  -0.001902546520 0.00470466  0.00006842  0.0051200 0.0000
                      *** Initiating the SOSCF procedure ***
                           *** Shutting down DIIS ***
                      *** Re-Reading the Fockian *** 
                      *** Removing any level shift *** 
ITER      Energy       Delta-E        Grad      Rot      Max-DP    RMS-DP
  6   -686.36357341  -0.0001250956  0.000204  0.000204  0.002207  0.000031
               *** Restarting incremental Fock matrix formation ***
  7   -686.36359485  -0.0000214318  0.000217  0.000867  0.001095  0.000017
  8   -686.36359189   0.0000029594  0.000631  0.000894  0.000516  0.000008
  9   -686.36359709  -0.0000052048  0.000199  0.000554  0.000273  0.000004
 10   -686.36359620   0.0000008903  0.000322  0.000347  0.000191  0.000003
 11   -686.36359737  -0.0000011705  0.000016  0.000032  0.000035  0.000000
 12   -686.36359736   0.0000000127  0.000028  0.000021  0.000023  0.000000
                  ***Gradient check signals convergence***
              ***Rediagonalizing the Fockian in SOSCF/NRSCF***

               *****************************************************
               *                     SUCCESS                       *
               *           SCF CONVERGED AFTER  13 CYCLES          *
               *****************************************************

Old exchange energy                            =    -17.882804642 Eh
New exchange energy                            =    -17.882820787 Eh
Exchange energy change after final integration =     -0.000016145 Eh
Total energy after final integration           =   -686.363613521 Eh
Final COS-X integration done in                =     1.584 sec

----------------
TOTAL SCF ENERGY
----------------

Total Energy       :         -686.36361352 Eh          -18676.90344 eV

Components:
Nuclear Repulsion  :          831.24239744 Eh           22619.25558 eV
Electronic Energy  :        -1517.60601096 Eh          -41296.15901 eV
One Electron Energy:        -2582.48132296 Eh          -70272.88940 eV
Two Electron Energy:         1064.87531200 Eh           28976.73039 eV
Max COSX asymmetry :            0.00000096 Eh               0.00003 eV
CPCM Dielectric    :           -0.02571210 Eh              -0.69966 eV

Virial components:
Potential Energy   :        -1369.83551047 Eh          -37275.11927 eV
Kinetic Energy     :          683.47189695 Eh           18598.21583 eV
Virial Ratio       :            2.00423092


DFT components:
N(Alpha)           :       53.000063439823 electrons
N(Beta)            :       53.000063439823 electrons
N(Total)           :      106.000126879646 electrons
E(X)               :      -71.162416741284 Eh       
E(C)               :       -4.240856602419 Eh       
E(XC)              :      -75.403273343703 Eh       
DFET-embed. en.    :        0.000000000000 Eh       
CPCM Solvation Model Properties:
Surface-charge          :           -0.02859249
Charge-correction       :           -0.00024125 Eh              -0.00656 eV
Free-energy (cav+disp)  :  This term is not implemented in the current solvation scheme

---------------
SCF CONVERGENCE
---------------

  Last Energy change         ...   -1.6907e-08  Tolerance :   1.0000e-08
  Last MAX-Density change    ...    1.8874e-15  Tolerance :   1.0000e-07
  Last RMS-Density change    ...    1.2907e-17  Tolerance :   5.0000e-09
  Last Orbital Gradient      ...    1.3249e-06  Tolerance :   1.0000e-05
  Last Orbital Rotation      ...    3.8323e-06  Tolerance :   1.0000e-05

             **** THE GBW FILE WAS UPDATED (/home/rudenko/mop_saddle_orca_4_serv/for_orca/CH2CHCH2NO2_picoline_from_lutidine/orca/start_freq_D/start_f_D.gbw) ****
             **** DENSITY /home/rudenko/mop_saddle_orca_4_serv/for_orca/CH2CHCH2NO2_picoline_from_lutidine/orca/start_freq_D/start_f_D.scfp WAS UPDATED ****
             **** ENERGY FILE WAS UPDATED (/home/rudenko/mop_saddle_orca_4_serv/for_orca/CH2CHCH2NO2_picoline_from_lutidine/orca/start_freq_D/start_f_D.en.tmp) ****
             **** THE GBW FILE WAS UPDATED (/home/rudenko/mop_saddle_orca_4_serv/for_orca/CH2CHCH2NO2_picoline_from_lutidine/orca/start_freq_D/start_f_D.gbw) ****
             **** DENSITY /home/rudenko/mop_saddle_orca_4_serv/for_orca/CH2CHCH2NO2_picoline_from_lutidine/orca/start_freq_D/start_f_D.scfp WAS UPDATED ****
----------------
ORBITAL ENERGIES
----------------

  NO   OCC          E(Eh)            E(eV) 
   0   2.0000     -19.180233      -521.9207 
   1   2.0000     -19.178503      -521.8736 
   2   2.0000     -19.095294      -519.6094 
   3   2.0000     -14.562849      -396.2753 
   4   2.0000     -14.324946      -389.8016 
   5   2.0000     -10.233526      -278.4684 
   6   2.0000     -10.207392      -277.7572 
   7   2.0000     -10.207054      -277.7481 
   8   2.0000     -10.191938      -277.3367 
   9   2.0000     -10.191849      -277.3343 
  10   2.0000     -10.188379      -277.2399 
  11   2.0000     -10.181914      -277.0640 
  12   2.0000     -10.178040      -276.9585 
  13   2.0000     -10.164981      -276.6032 
  14   2.0000      -1.250400       -34.0251 
  15   2.0000      -1.077200       -29.3121 
  16   2.0000      -0.979103       -26.6427 
  17   2.0000      -0.952362       -25.9151 
  18   2.0000      -0.844169       -22.9710 
  19   2.0000      -0.818207       -22.2646 
  20   2.0000      -0.778439       -21.1824 
  21   2.0000      -0.759259       -20.6605 
  22   2.0000      -0.700587       -19.0640 
  23   2.0000      -0.637223       -17.3397 
  24   2.0000      -0.634173       -17.2567 
  25   2.0000      -0.610934       -16.6243 
  26   2.0000      -0.588679       -16.0188 
  27   2.0000      -0.560325       -15.2472 
  28   2.0000      -0.547011       -14.8849 
  29   2.0000      -0.534062       -14.5326 
  30   2.0000      -0.527837       -14.3632 
  31   2.0000      -0.500317       -13.6143 
  32   2.0000      -0.496205       -13.5024 
  33   2.0000      -0.479123       -13.0376 
  34   2.0000      -0.456570       -12.4239 
  35   2.0000      -0.445187       -12.1142 
  36   2.0000      -0.429757       -11.6943 
  37   2.0000      -0.420241       -11.4353 
  38   2.0000      -0.411688       -11.2026 
  39   2.0000      -0.406794       -11.0694 
  40   2.0000      -0.393205       -10.6996 
  41   2.0000      -0.390537       -10.6270 
  42   2.0000      -0.372905       -10.1473 
  43   2.0000      -0.368393       -10.0245 
  44   2.0000      -0.361131        -9.8269 
  45   2.0000      -0.338865        -9.2210 
  46   2.0000      -0.335824        -9.1382 
  47   2.0000      -0.317346        -8.6354 
  48   2.0000      -0.296954        -8.0805 
  49   2.0000      -0.290842        -7.9142 
  50   2.0000      -0.283563        -7.7161 
  51   2.0000      -0.273827        -7.4512 
  52   2.0000      -0.261909        -7.1269 
  53   0.0000      -0.088200        -2.4000 
  54   0.0000      -0.040075        -1.0905 
  55   0.0000      -0.020750        -0.5646 
  56   0.0000      -0.011543        -0.3141 
  57   0.0000       0.046850         1.2748 
  58   0.0000       0.057540         1.5658 
  59   0.0000       0.069262         1.8847 
  60   0.0000       0.076530         2.0825 
  61   0.0000       0.086003         2.3403 
  62   0.0000       0.092414         2.5147 
  63   0.0000       0.099446         2.7061 
  64   0.0000       0.102420         2.7870 
  65   0.0000       0.109033         2.9669 
  66   0.0000       0.112038         3.0487 
  67   0.0000       0.113241         3.0814 
  68   0.0000       0.122876         3.3436 
  69   0.0000       0.131125         3.5681 
  70   0.0000       0.139268         3.7897 
  71   0.0000       0.143873         3.9150 
  72   0.0000       0.151878         4.1328 
  73   0.0000       0.163588         4.4515 
  74   0.0000       0.165916         4.5148 
  75   0.0000       0.182236         4.9589 
  76   0.0000       0.193016         5.2522 
  77   0.0000       0.198747         5.4082 
  78   0.0000       0.201070         5.4714 
  79   0.0000       0.207568         5.6482 
  80   0.0000       0.217909         5.9296 
  81   0.0000       0.226956         6.1758 
  82   0.0000       0.230246         6.2653 
  83   0.0000       0.240237         6.5372 
  84   0.0000       0.256887         6.9903 
  85   0.0000       0.257430         7.0050 
  86   0.0000       0.265432         7.2228 
  87   0.0000       0.269633         7.3371 
  88   0.0000       0.272773         7.4225 
  89   0.0000       0.282048         7.6749 
  90   0.0000       0.290031         7.8921 
  91   0.0000       0.296247         8.0613 
  92   0.0000       0.303294         8.2530 
  93   0.0000       0.308510         8.3950 
  94   0.0000       0.313516         8.5312 
  95   0.0000       0.319624         8.6974 
  96   0.0000       0.333957         9.0874 
  97   0.0000       0.335967         9.1421 
  98   0.0000       0.341031         9.2799 
  99   0.0000       0.346453         9.4275 
 100   0.0000       0.350113         9.5270 
 101   0.0000       0.351730         9.5711 
 102   0.0000       0.358651         9.7594 
 103   0.0000       0.368175        10.0185 
 104   0.0000       0.385916        10.5013 
 105   0.0000       0.393062        10.6958 
 106   0.0000       0.394131        10.7249 
 107   0.0000       0.402868        10.9626 
 108   0.0000       0.412153        11.2152 
 109   0.0000       0.415694        11.3116 
 110   0.0000       0.425730        11.5847 
 111   0.0000       0.428240        11.6530 
 112   0.0000       0.433496        11.7960 
 113   0.0000       0.438132        11.9222 
 114   0.0000       0.439336        11.9549 
 115   0.0000       0.451781        12.2936 
 116   0.0000       0.454246        12.3607 
 117   0.0000       0.457859        12.4590 
 118   0.0000       0.462130        12.5752 
 119   0.0000       0.465979        12.6799 
 120   0.0000       0.471822        12.8389 
 121   0.0000       0.478257        13.0140 
 122   0.0000       0.488280        13.2868 
 123   0.0000       0.493482        13.4283 
 124   0.0000       0.500885        13.6298 
 125   0.0000       0.504903        13.7391 
 126   0.0000       0.511573        13.9206 
 127   0.0000       0.520165        14.1544 
 128   0.0000       0.531983        14.4760 
 129   0.0000       0.534209        14.5366 
 130   0.0000       0.539090        14.6694 
 131   0.0000       0.548303        14.9201 
 132   0.0000       0.563587        15.3360 
 133   0.0000       0.564683        15.3658 
 134   0.0000       0.578956        15.7542 
 135   0.0000       0.593167        16.1409 
 136   0.0000       0.597418        16.2566 
 137   0.0000       0.604518        16.4498 
 138   0.0000       0.611046        16.6274 
 139   0.0000       0.618799        16.8384 
 140   0.0000       0.634573        17.2676 
 141   0.0000       0.641628        17.4596 
 142   0.0000       0.649861        17.6836 
 143   0.0000       0.656536        17.8653 
 144   0.0000       0.664552        18.0834 
 145   0.0000       0.677402        18.4330 
 146   0.0000       0.688946        18.7472 
 147   0.0000       0.702220        19.1084 
 148   0.0000       0.707308        19.2468 
 149   0.0000       0.723412        19.6850 
 150   0.0000       0.731290        19.8994 
 151   0.0000       0.745129        20.2760 
 152   0.0000       0.771063        20.9817 
 153   0.0000       0.776331        21.1250 
 154   0.0000       0.778680        21.1890 
 155   0.0000       0.790556        21.5121 
 156   0.0000       0.795666        21.6512 
 157   0.0000       0.819753        22.3066 
 158   0.0000       0.821859        22.3639 
 159   0.0000       0.835933        22.7469 
 160   0.0000       0.851313        23.1654 
 161   0.0000       0.870661        23.6919 
 162   0.0000       0.874050        23.7841 
 163   0.0000       0.884973        24.0813 
 164   0.0000       0.908072        24.7099 
 165   0.0000       0.924814        25.1655 
 166   0.0000       0.932444        25.3731 
 167   0.0000       0.948794        25.8180 
 168   0.0000       0.960184        26.1279 
 169   0.0000       0.963773        26.2256 
 170   0.0000       0.968067        26.3424 
 171   0.0000       0.984697        26.7950 
 172   0.0000       1.011799        27.5325 
 173   0.0000       1.019492        27.7418 
 174   0.0000       1.029692        28.0193 
 175   0.0000       1.056088        28.7376 
 176   0.0000       1.066759        29.0280 
 177   0.0000       1.074447        29.2372 
 178   0.0000       1.084438        29.5091 
 179   0.0000       1.087447        29.5909 
 180   0.0000       1.102887        30.0111 
 181   0.0000       1.113530        30.3007 
 182   0.0000       1.144393        31.1405 
 183   0.0000       1.157390        31.4942 
 184   0.0000       1.172285        31.8995 
 185   0.0000       1.194896        32.5148 
 186   0.0000       1.208432        32.8831 
 187   0.0000       1.214849        33.0577 
 188   0.0000       1.220282        33.2056 
 189   0.0000       1.231671        33.5155 
 190   0.0000       1.242161        33.8009 
 191   0.0000       1.247544        33.9474 
 192   0.0000       1.250833        34.0369 
 193   0.0000       1.264358        34.4049 
 194   0.0000       1.282820        34.9073 
 195   0.0000       1.298677        35.3388 
 196   0.0000       1.304855        35.5069 
 197   0.0000       1.310392        35.6576 
 198   0.0000       1.322866        35.9970 
 199   0.0000       1.334146        36.3040 
 200   0.0000       1.341970        36.5169 
 201   0.0000       1.346373        36.6367 
 202   0.0000       1.356701        36.9177 
 203   0.0000       1.390060        37.8255 
 204   0.0000       1.400720        38.1155 
 205   0.0000       1.408671        38.3319 
 206   0.0000       1.429929        38.9103 
 207   0.0000       1.436241        39.0821 
 208   0.0000       1.451613        39.5004 
 209   0.0000       1.467437        39.9310 
 210   0.0000       1.490508        40.5588 
 211   0.0000       1.492646        40.6170 
 212   0.0000       1.495060        40.6827 
 213   0.0000       1.509046        41.0632 
 214   0.0000       1.526347        41.5340 
 215   0.0000       1.536571        41.8122 
 216   0.0000       1.539132        41.8819 
 217   0.0000       1.541701        41.9518 
 218   0.0000       1.553148        42.2633 
 219   0.0000       1.561150        42.4810 
 220   0.0000       1.574572        42.8463 
 221   0.0000       1.584746        43.1231 
 222   0.0000       1.595459        43.4147 
 223   0.0000       1.610356        43.8200 
 224   0.0000       1.619001        44.0553 
 225   0.0000       1.622523        44.1511 
 226   0.0000       1.624474        44.2042 
 227   0.0000       1.636410        44.5290 
 228   0.0000       1.649052        44.8730 
 229   0.0000       1.667843        45.3843 
 230   0.0000       1.685998        45.8783 
 231   0.0000       1.697523        46.1920 
 232   0.0000       1.712484        46.5990 
 233   0.0000       1.723884        46.9093 
 234   0.0000       1.741647        47.3926 
 235   0.0000       1.743089        47.4319 
 236   0.0000       1.754345        47.7382 
 237   0.0000       1.769670        48.1552 
 238   0.0000       1.778083        48.3841 
 239   0.0000       1.791020        48.7361 
 240   0.0000       1.798929        48.9513 
 241   0.0000       1.813871        49.3579 
 242   0.0000       1.817558        49.4583 
 243   0.0000       1.838735        50.0345 
 244   0.0000       1.848212        50.2924 
 245   0.0000       1.858756        50.5793 
 246   0.0000       1.870295        50.8933 
 247   0.0000       1.888153        51.3793 
 248   0.0000       1.907240        51.8986 
 249   0.0000       1.922910        52.3251 
 250   0.0000       1.941049        52.8186 
 251   0.0000       1.949253        53.0419 
 252   0.0000       1.963151        53.4201 
 253   0.0000       1.969401        53.5901 
 254   0.0000       1.974809        53.7373 
 255   0.0000       1.988215        54.1021 
 256   0.0000       1.999563        54.4109 
 257   0.0000       2.033129        55.3243 
 258   0.0000       2.035624        55.3921 
 259   0.0000       2.046424        55.6860 
 260   0.0000       2.072239        56.3885 
 261   0.0000       2.082027        56.6548 
 262   0.0000       2.096447        57.0472 
 263   0.0000       2.121210        57.7211 
 264   0.0000       2.123834        57.7925 
 265   0.0000       2.130949        57.9861 
 266   0.0000       2.145482        58.3815 
 267   0.0000       2.153694        58.6050 
 268   0.0000       2.169803        59.0433 
 269   0.0000       2.170859        59.0721 
 270   0.0000       2.188506        59.5523 
 271   0.0000       2.199111        59.8409 
 272   0.0000       2.233714        60.7824 
 273   0.0000       2.235984        60.8442 
 274   0.0000       2.245416        61.1009 
 275   0.0000       2.252141        61.2839 
 276   0.0000       2.262053        61.5536 
 277   0.0000       2.267203        61.6937 
 278   0.0000       2.275503        61.9196 
 279   0.0000       2.304161        62.6994 
 280   0.0000       2.323124        63.2154 
 281   0.0000       2.335859        63.5619 
 282   0.0000       2.338924        63.6454 
 283   0.0000       2.343054        63.7577 
 284   0.0000       2.355371        64.0929 
 285   0.0000       2.385546        64.9140 
 286   0.0000       2.389302        65.0162 
 287   0.0000       2.396443        65.2105 
 288   0.0000       2.426653        66.0326 
 289   0.0000       2.433622        66.2222 
 290   0.0000       2.454156        66.7810 
 291   0.0000       2.460669        66.9582 
 292   0.0000       2.491560        67.7988 
 293   0.0000       2.509269        68.2807 
 294   0.0000       2.519376        68.5557 
 295   0.0000       2.525732        68.7286 
 296   0.0000       2.544555        69.2409 
 297   0.0000       2.546376        69.2904 
 298   0.0000       2.548893        69.3589 
 299   0.0000       2.565562        69.8125 
 300   0.0000       2.573945        70.0406 
 301   0.0000       2.587866        70.4194 
 302   0.0000       2.593617        70.5759 
 303   0.0000       2.602720        70.8236 
 304   0.0000       2.619242        71.2732 
 305   0.0000       2.631131        71.5967 
 306   0.0000       2.634664        71.6928 
 307   0.0000       2.642563        71.9078 
 308   0.0000       2.659556        72.3702 
 309   0.0000       2.667374        72.5829 
 310   0.0000       2.679377        72.9096 
 311   0.0000       2.686722        73.1094 
 312   0.0000       2.699568        73.4590 
 313   0.0000       2.713227        73.8306 
 314   0.0000       2.719186        73.9928 
 315   0.0000       2.728320        74.2413 
 316   0.0000       2.733111        74.3717 
 317   0.0000       2.735493        74.4366 
 318   0.0000       2.741946        74.6121 
 319   0.0000       2.753680        74.9314 
 320   0.0000       2.764344        75.2216 
 321   0.0000       2.781280        75.6825 
 322   0.0000       2.803520        76.2877 
 323   0.0000       2.821186        76.7684 
 324   0.0000       2.824292        76.8529 
 325   0.0000       2.851331        77.5887 
 326   0.0000       2.855021        77.6891 
 327   0.0000       2.868148        78.0463 
 328   0.0000       2.885580        78.5206 
 329   0.0000       2.897658        78.8493 
 330   0.0000       2.916378        79.3587 
 331   0.0000       2.928456        79.6873 
 332   0.0000       2.932065        79.7855 
 333   0.0000       2.935431        79.8771 
 334   0.0000       2.947896        80.2163 
 335   0.0000       2.974010        80.9269 
 336   0.0000       2.986157        81.2575 
 337   0.0000       2.995488        81.5114 
 338   0.0000       2.999608        81.6235 
 339   0.0000       3.016518        82.0836 
 340   0.0000       3.031842        82.5006 
 341   0.0000       3.036846        82.6368 
 342   0.0000       3.050782        83.0160 
 343   0.0000       3.056418        83.1694 
 344   0.0000       3.069124        83.5151 
 345   0.0000       3.079885        83.8079 
 346   0.0000       3.094434        84.2038 
 347   0.0000       3.100959        84.3814 
 348   0.0000       3.109545        84.6150 
 349   0.0000       3.115267        84.7707 
 350   0.0000       3.121550        84.9417 
 351   0.0000       3.122322        84.9627 
 352   0.0000       3.132379        85.2364 
 353   0.0000       3.154913        85.8495 
 354   0.0000       3.161096        86.0178 
 355   0.0000       3.172238        86.3210 
 356   0.0000       3.199197        87.0546 
 357   0.0000       3.202483        87.1440 
 358   0.0000       3.208830        87.3167 
 359   0.0000       3.216913        87.5367 
 360   0.0000       3.226219        87.7899 
 361   0.0000       3.241295        88.2001 
 362   0.0000       3.246845        88.3511 
 363   0.0000       3.253920        88.5437 
 364   0.0000       3.266702        88.8915 
 365   0.0000       3.279895        89.2505 
 366   0.0000       3.294889        89.6585 
 367   0.0000       3.299253        89.7772 
 368   0.0000       3.305911        89.9584 
 369   0.0000       3.313657        90.1692 
 370   0.0000       3.321525        90.3833 
 371   0.0000       3.330276        90.6214 
 372   0.0000       3.349690        91.1497 
 373   0.0000       3.366932        91.6189 
 374   0.0000       3.377912        91.9176 
 375   0.0000       3.380810        91.9965 
 376   0.0000       3.394259        92.3625 
 377   0.0000       3.404448        92.6397 
 378   0.0000       3.447744        93.8179 
 379   0.0000       3.466996        94.3418 
 380   0.0000       3.472897        94.5023 
 381   0.0000       3.499509        95.2265 
 382   0.0000       3.502924        95.3194 
 383   0.0000       3.525488        95.9334 
 384   0.0000       3.532224        96.1167 
 385   0.0000       3.537408        96.2578 
 386   0.0000       3.538596        96.2901 
 387   0.0000       3.618071        98.4527 
 388   0.0000       3.642763        99.1246 
 389   0.0000       3.646654        99.2305 
 390   0.0000       3.662579        99.6638 
 391   0.0000       3.665169        99.7343 
 392   0.0000       3.715820       101.1126 
 393   0.0000       3.721730       101.2734 
 394   0.0000       3.737901       101.7135 
 395   0.0000       3.751675       102.0883 
 396   0.0000       3.758458       102.2728 
 397   0.0000       3.779037       102.8328 
 398   0.0000       3.804496       103.5256 
 399   0.0000       3.814850       103.8073 
 400   0.0000       3.838447       104.4495 
 401   0.0000       3.847973       104.7087 
 402   0.0000       3.869392       105.2915 
 403   0.0000       3.883880       105.6858 
 404   0.0000       3.899593       106.1133 
 405   0.0000       3.907641       106.3323 
 406   0.0000       3.986569       108.4801 
 407   0.0000       4.006852       109.0320 
 408   0.0000       4.021483       109.4301 
 409   0.0000       4.024499       109.5122 
 410   0.0000       4.061989       110.5323 
 411   0.0000       4.082021       111.0774 
 412   0.0000       4.094630       111.4205 
 413   0.0000       4.113690       111.9392 
 414   0.0000       4.121006       112.1383 
 415   0.0000       4.134124       112.4952 
 416   0.0000       4.158903       113.1695 
 417   0.0000       4.161098       113.2292 
 418   0.0000       4.181098       113.7735 
 419   0.0000       4.195366       114.1617 
 420   0.0000       4.258944       115.8918 
 421   0.0000       4.272804       116.2689 
 422   0.0000       4.304417       117.1291 
 423   0.0000       4.324401       117.6729 
 424   0.0000       4.341756       118.1452 
 425   0.0000       4.353827       118.4737 
 426   0.0000       4.369887       118.9107 
 427   0.0000       4.416509       120.1793 
 428   0.0000       4.424693       120.4020 
 429   0.0000       4.478826       121.8750 
 430   0.0000       4.499186       122.4291 
 431   0.0000       4.521181       123.0276 
 432   0.0000       4.541388       123.5775 
 433   0.0000       4.550713       123.8312 
 434   0.0000       4.554124       123.9240 
 435   0.0000       4.566518       124.2613 
 436   0.0000       4.571214       124.3891 
 437   0.0000       4.604676       125.2996 
 438   0.0000       4.622027       125.7717 
 439   0.0000       4.646952       126.4500 
 440   0.0000       4.662250       126.8663 
 441   0.0000       4.694722       127.7499 
 442   0.0000       4.757455       129.4569 
 443   0.0000       4.778444       130.0281 
 444   0.0000       4.809103       130.8623 
 445   0.0000       4.823024       131.2411 
 446   0.0000       4.848562       131.9361 
 447   0.0000       4.856370       132.1485 
 448   0.0000       4.884915       132.9253 
 449   0.0000       4.916012       133.7715 
 450   0.0000       4.928763       134.1185 
 451   0.0000       4.975040       135.3777 
 452   0.0000       5.041309       137.1810 
 453   0.0000       5.049062       137.3920 
 454   0.0000       5.072796       138.0378 
 455   0.0000       5.101496       138.8188 
 456   0.0000       5.107545       138.9834 
 457   0.0000       5.110412       139.0614 
 458   0.0000       5.121669       139.3677 
 459   0.0000       5.131797       139.6433 
 460   0.0000       5.160343       140.4201 
 461   0.0000       5.187851       141.1686 
 462   0.0000       5.222783       142.1192 
 463   0.0000       5.235417       142.4630 
 464   0.0000       5.243515       142.6833 
 465   0.0000       5.280474       143.6890 
 466   0.0000       5.283861       143.7812 
 467   0.0000       5.298376       144.1761 
 468   0.0000       5.343811       145.4125 
 469   0.0000       5.401681       146.9872 
 470   0.0000       5.430109       147.7608 
 471   0.0000       5.440933       148.0553 
 472   0.0000       5.486227       149.2878 
 473   0.0000       5.490417       149.4018 
 474   0.0000       5.554998       151.1592 
 475   0.0000       5.603860       152.4888 
 476   0.0000       5.646929       153.6608 
 477   0.0000       5.669079       154.2635 
 478   0.0000       5.682299       154.6232 
 479   0.0000       5.791192       157.5863 
 480   0.0000       5.922466       161.1585 
 481   0.0000       6.035926       164.2459 
 482   0.0000       6.110550       166.2765 
 483   0.0000       6.222185       169.3142 
 484   0.0000       6.275561       170.7667 
 485   0.0000       6.313471       171.7983 
 486   0.0000       6.314664       171.8308 
 487   0.0000       6.339616       172.5097 
 488   0.0000       6.349507       172.7789 
 489   0.0000       6.391016       173.9084 
 490   0.0000       6.407529       174.3577 
 491   0.0000       6.432603       175.0400 
 492   0.0000       6.456174       175.6814 
 493   0.0000       6.639336       180.6655 
 494   0.0000       6.832577       185.9239 
 495   0.0000       6.856200       186.5667 
 496   0.0000       6.922749       188.3776 
 497   0.0000       6.980049       189.9368 
 498   0.0000       7.080612       192.6733 
 499   0.0000       7.134883       194.1500 
 500   0.0000       7.230704       196.7575 
 501   0.0000       7.247433       197.2127 
 502   0.0000       7.317682       199.1243 
 503   0.0000       7.373317       200.6382 
 504   0.0000      22.111808       601.6929 
 505   0.0000      22.310215       607.0918 
 506   0.0000      22.391881       609.3140 
 507   0.0000      22.401521       609.5764 
 508   0.0000      22.624113       615.6334 
 509   0.0000      22.698975       617.6705 
 510   0.0000      22.747747       618.9977 
 511   0.0000      22.813230       620.7795 
 512   0.0000      23.134469       629.5209 
 513   0.0000      32.366808       880.7456 
 514   0.0000      32.447738       882.9478 
 515   0.0000      43.542646      1184.8556 
 516   0.0000      43.939502      1195.6546 
 517   0.0000      43.973991      1196.5931 

                    ********************************
                    * MULLIKEN POPULATION ANALYSIS *
                    ********************************

-----------------------
MULLIKEN ATOMIC CHARGES
-----------------------
   0 C :   -0.141680
   1 H :    0.154545
   2 N :    0.464745
   3 O :   -0.335091
   4 O :   -0.368716
   5 H :    0.155536
   6 C :   -0.113371
   7 H :    0.172207
   8 H :    0.161061
   9 C :   -0.313696
  10 H :    0.158105
  11 C :   -0.055987
  12 C :    0.110008
  13 C :   -0.164066
  14 C :   -0.133745
  15 C :   -0.021609
  16 N :   -0.334426
  17 H :    0.147168
  18 H :    0.151647
  19 H :    0.171698
  20 C :   -0.367203
  21 H :    0.137102
  22 H :    0.137212
  23 H :    0.133577
  24 H :    0.154106
  25 H :    0.335702
  26 O :   -0.734825
  27 H :    0.339997
Sum of atomic charges:   -0.0000000

--------------------------------
MULLIKEN REDUCED ORBITAL CHARGES
--------------------------------
  0 C s       :     3.226749  s :     3.226749
      pz      :     0.989266  p :     2.830408
      px      :     0.925752
      py      :     0.915390
      dz2     :     0.008848  d :     0.077412
      dxz     :     0.012843
      dyz     :     0.013024
      dx2y2   :     0.017343
      dxy     :     0.025355
      f0      :     0.000507  f :     0.007110
      f+1     :     0.001479
      f-1     :     0.000340
      f+2     :     0.000629
      f-2     :     0.001394
      f+3     :     0.001119
      f-3     :     0.001642
  1 H s       :     0.823315  s :     0.823315
      pz      :     0.007664  p :     0.022140
      px      :     0.005258
      py      :     0.009218
  2 N s       :     3.313118  s :     3.313118
      pz      :     1.054414  p :     2.971169
      px      :     0.956936
      py      :     0.959819
      dz2     :     0.051088  d :     0.236587
      dxz     :     0.033328
      dyz     :     0.053456
      dx2y2   :     0.060165
      dxy     :     0.038550
      f0      :     0.001927  f :     0.014382
      f+1     :     0.002384
      f-1     :     0.001722
      f+2     :     0.002126
      f-2     :     0.002362
      f+3     :     0.001636
      f-3     :     0.002225
  3 O s       :     3.878884  s :     3.878884
      pz      :     1.514153  p :     4.411131
      px      :     1.316349
      py      :     1.580630
      dz2     :     0.007237  d :     0.041769
      dxz     :     0.011969
      dyz     :     0.007898
      dx2y2   :     0.007722
      dxy     :     0.006942
      f0      :     0.000356  f :     0.003307
      f+1     :     0.000580
      f-1     :     0.000350
      f+2     :     0.000632
      f-2     :     0.000776
      f+3     :     0.000314
      f-3     :     0.000298
  4 O s       :     3.900257  s :     3.900257
      pz      :     1.775478  p :     4.424287
      px      :     1.409407
      py      :     1.239402
      dz2     :     0.005170  d :     0.040928
      dxz     :     0.004396
      dyz     :     0.006956
      dx2y2   :     0.011629
      dxy     :     0.012778
      f0      :     0.000344  f :     0.003244
      f+1     :     0.000222
      f-1     :     0.000444
      f+2     :     0.000131
      f-2     :     0.000527
      f+3     :     0.000804
      f-3     :     0.000773
  5 H s       :     0.822640  s :     0.822640
      pz      :     0.007511  p :     0.021824
      px      :     0.005486
      py      :     0.008827
  6 C s       :     3.245860  s :     3.245860
      pz      :     0.764385  p :     2.771748
      px      :     1.070069
      py      :     0.937294
      dz2     :     0.014117  d :     0.088672
      dxz     :     0.016658
      dyz     :     0.027756
      dx2y2   :     0.021407
      dxy     :     0.008734
      f0      :     0.001398  f :     0.007091
      f+1     :     0.000590
      f-1     :     0.001579
      f+2     :     0.000535
      f-2     :     0.001249
      f+3     :     0.000875
      f-3     :     0.000864
  7 H s       :     0.805760  s :     0.805760
      pz      :     0.004777  p :     0.022033
      px      :     0.012687
      py      :     0.004569
  8 H s       :     0.816572  s :     0.816572
      pz      :     0.007607  p :     0.022367
      px      :     0.006257
      py      :     0.008504
  9 C s       :     3.305881  s :     3.305881
      pz      :     0.970460  p :     2.956177
      px      :     0.941687
      py      :     1.044030
      dz2     :     0.007052  d :     0.046699
      dxz     :     0.009044
      dyz     :     0.006643
      dx2y2   :     0.005711
      dxy     :     0.018249
      f0      :     0.000259  f :     0.004938
      f+1     :     0.001432
      f-1     :     0.000241
      f+2     :     0.000421
      f-2     :     0.001000
      f+3     :     0.001000
      f-3     :     0.000586
 10 H s       :     0.819951  s :     0.819951
      pz      :     0.004318  p :     0.021944
      px      :     0.006453
      py      :     0.011173
 11 C s       :     3.198458  s :     3.198458
      pz      :     0.946668  p :     2.740817
      px      :     0.818553
      py      :     0.975595
      dz2     :     0.006218  d :     0.105901
      dxz     :     0.026004
      dyz     :     0.010989
      dx2y2   :     0.038358
      dxy     :     0.024332
      f0      :     0.001149  f :     0.010811
      f+1     :     0.001282
      f-1     :     0.000755
      f+2     :     0.001157
      f-2     :     0.001556
      f+3     :     0.003056
      f-3     :     0.001856
 12 C s       :     3.178704  s :     3.178704
      pz      :     0.890386  p :     2.572772
      px      :     0.839698
      py      :     0.842689
      dz2     :     0.012180  d :     0.128704
      dxz     :     0.027105
      dyz     :     0.019486
      dx2y2   :     0.035232
      dxy     :     0.034702
      f0      :     0.000773  f :     0.009811
      f+1     :     0.000896
      f-1     :     0.001476
      f+2     :     0.001050
      f-2     :     0.001474
      f+3     :     0.002640
      f-3     :     0.001502
 13 C s       :     3.251826  s :     3.251826
      pz      :     0.920865  p :     2.826860
      px      :     0.989857
      py      :     0.916138
      dz2     :     0.010325  d :     0.078091
      dxz     :     0.012609
      dyz     :     0.012527
      dx2y2   :     0.022303
      dxy     :     0.020326
      f0      :     0.000690  f :     0.007289
      f+1     :     0.000461
      f-1     :     0.001425
      f+2     :     0.000773
      f-2     :     0.001085
      f+3     :     0.001795
      f-3     :     0.001060
 14 C s       :     3.213877  s :     3.213877
      pz      :     0.969865  p :     2.833952
      px      :     0.889339
      py      :     0.974748
      dz2     :     0.006503  d :     0.078593
      dxz     :     0.018304
      dyz     :     0.009072
      dx2y2   :     0.027973
      dxy     :     0.016739
      f0      :     0.000893  f :     0.007323
      f+1     :     0.000838
      f-1     :     0.000677
      f+2     :     0.000989
      f-2     :     0.001009
      f+3     :     0.001950
      f-3     :     0.000967
 15 C s       :     3.177227  s :     3.177227
      pz      :     0.885481  p :     2.727189
      px      :     0.987319
      py      :     0.854389
      dz2     :     0.014300  d :     0.106368
      dxz     :     0.016571
      dyz     :     0.014935
      dx2y2   :     0.024361
      dxy     :     0.036201
      f0      :     0.000823  f :     0.010824
      f+1     :     0.000647
      f-1     :     0.002179
      f+2     :     0.001561
      f-2     :     0.001420
      f+3     :     0.002515
      f-3     :     0.001679
 16 N s       :     3.618489  s :     3.618489
      pz      :     1.156548  p :     3.649323
      px      :     1.378919
      py      :     1.113855
      dz2     :     0.008882  d :     0.062852
      dxz     :     0.011097
      dyz     :     0.010360
      dx2y2   :     0.016440
      dxy     :     0.016072
      f0      :     0.000346  f :     0.003762
      f+1     :     0.000236
      f-1     :     0.000751
      f+2     :     0.000452
      f-2     :     0.000595
      f+3     :     0.000855
      f-3     :     0.000527
 17 H s       :     0.831179  s :     0.831179
      pz      :     0.006410  p :     0.021654
      px      :     0.003135
      py      :     0.012109
 18 H s       :     0.826023  s :     0.826023
      pz      :     0.006568  p :     0.022330
      px      :     0.003500
      py      :     0.012262
 19 H s       :     0.806047  s :     0.806047
      pz      :     0.004504  p :     0.022255
      px      :     0.012085
      py      :     0.005666
 20 C s       :     3.314559  s :     3.314559
      pz      :     1.049615  p :     3.003494
      px      :     0.946678
      py      :     1.007200
      dz2     :     0.002871  d :     0.045491
      dxz     :     0.014843
      dyz     :     0.007824
      dx2y2   :     0.011654
      dxy     :     0.008299
      f0      :     0.000291  f :     0.003659
      f+1     :     0.000560
      f-1     :     0.000198
      f+2     :     0.000280
      f-2     :     0.001030
      f+3     :     0.000749
      f-3     :     0.000550
 21 H s       :     0.841428  s :     0.841428
      pz      :     0.009998  p :     0.021470
      px      :     0.006441
      py      :     0.005031
 22 H s       :     0.841376  s :     0.841376
      pz      :     0.006891  p :     0.021412
      px      :     0.008068
      py      :     0.006454
 23 H s       :     0.844702  s :     0.844702
      pz      :     0.006632  p :     0.021721
      px      :     0.004481
      py      :     0.010608
 24 H s       :     0.823915  s :     0.823915
      pz      :     0.004764  p :     0.021979
      px      :     0.011827
      py      :     0.005388
 25 H s       :     0.613912  s :     0.613912
      pz      :     0.019533  p :     0.050386
      px      :     0.016466
      py      :     0.014387
 26 O s       :     3.784407  s :     3.784407
      pz      :     1.702057  p :     4.931303
      px      :     1.413369
      py      :     1.815877
      dz2     :     0.003141  d :     0.017942
      dxz     :     0.005372
      dyz     :     0.003475
      dx2y2   :     0.000864
      dxy     :     0.005090
      f0      :     0.000065  f :     0.001174
      f+1     :     0.000269
      f-1     :     0.000093
      f+2     :     0.000164
      f-2     :     0.000186
      f+3     :     0.000054
      f-3     :     0.000343
 27 H s       :     0.604052  s :     0.604052
      pz      :     0.012225  p :     0.055952
      px      :     0.026529
      py      :     0.017198


                     *******************************
                     * LOEWDIN POPULATION ANALYSIS *
                     *******************************

----------------------
LOEWDIN ATOMIC CHARGES
----------------------
   0 C :   -0.204454
   1 H :    0.149968
   2 N :   -0.041936
   3 O :   -0.037260
   4 O :   -0.048936
   5 H :    0.130848
   6 C :   -0.195999
   7 H :    0.158619
   8 H :    0.148903
   9 C :   -0.175584
  10 H :    0.133582
  11 C :   -0.178374
  12 C :   -0.169048
  13 C :   -0.079794
  14 C :   -0.138133
  15 C :   -0.207810
  16 N :    0.108668
  17 H :    0.145743
  18 H :    0.154556
  19 H :    0.141453
  20 C :   -0.246483
  21 H :    0.135057
  22 H :    0.134364
  23 H :    0.131851
  24 H :    0.157826
  25 H :    0.135295
  26 O :   -0.376460
  27 H :    0.133537

-------------------------------
LOEWDIN REDUCED ORBITAL CHARGES
-------------------------------
  0 C s       :     2.795454  s :     2.795454
      pz      :     0.959930  p :     2.980782
      px      :     1.057819
      py      :     0.963034
      dz2     :     0.035582  d :     0.385772
      dxz     :     0.064787
      dyz     :     0.060749
      dx2y2   :     0.097211
      dxy     :     0.127442
      f0      :     0.003959  f :     0.042445
      f+1     :     0.005970
      f-1     :     0.001918
      f+2     :     0.006511
      f-2     :     0.006349
      f+3     :     0.006208
      f-3     :     0.011530
  1 H s       :     0.789584  s :     0.789584
      pz      :     0.020589  p :     0.060448
      px      :     0.014775
      py      :     0.025084
  2 N s       :     2.952250  s :     2.952250
      pz      :     1.144221  p :     3.275231
      px      :     1.052062
      py      :     1.078949
      dz2     :     0.152878  d :     0.741923
      dxz     :     0.119283
      dyz     :     0.158933
      dx2y2   :     0.161849
      dxy     :     0.148981
      f0      :     0.010212  f :     0.072532
      f+1     :     0.013068
      f-1     :     0.008946
      f+2     :     0.011791
      f-2     :     0.011006
      f+3     :     0.007851
      f-3     :     0.009657
  3 O s       :     3.499018  s :     3.499018
      pz      :     1.523404  p :     4.427057
      px      :     1.361566
      py      :     1.542087
      dz2     :     0.017513  d :     0.099985
      dxz     :     0.031433
      dyz     :     0.017365
      dx2y2   :     0.015535
      dxy     :     0.018139
      f0      :     0.001202  f :     0.011200
      f+1     :     0.002275
      f-1     :     0.000987
      f+2     :     0.001880
      f-2     :     0.002753
      f+3     :     0.000968
      f-3     :     0.001135
  4 O s       :     3.499075  s :     3.499075
      pz      :     1.679655  p :     4.439640
      px      :     1.423272
      py      :     1.336713
      dz2     :     0.012689  d :     0.099205
      dxz     :     0.009735
[...]
     28       0.000004   0.000848  -0.000816   0.090265   0.000180   0.000059
     29       0.000162  -0.000339   0.000060   0.039442   0.000105   0.000032
     30       0.001164  -0.009122   0.006550  -0.356955  -0.000842   0.000321
     31       0.001932  -0.014968   0.010612  -0.589881  -0.001526  -0.000025
     32       0.000297  -0.002420   0.001722  -0.075407  -0.000185   0.000083
     33       0.000837   0.000916  -0.000030  -0.000008  -0.000339  -0.000000
     34       0.001759  -0.002427   0.003234  -0.000008   0.003993  -0.000165
     35       0.000955  -0.001184   0.001653  -0.000006   0.001973  -0.000084
     36      -0.000716  -0.000170  -0.000189  -0.000002   0.000380  -0.000034
     37       0.002415   0.001002   0.000912  -0.000002  -0.000097   0.000011
     38       0.001184   0.000495   0.000453  -0.000003  -0.000039   0.000007
     39      -0.073461  -0.017956  -0.014857  -0.000019  -0.000444  -0.000010
     40      -0.033330  -0.006870  -0.004013   0.000008  -0.000222   0.000004
     41      -0.021449  -0.004596  -0.002951   0.000007  -0.000135  -0.000002
     42       0.002709   0.002064  -0.002467  -0.000039  -0.000004  -0.000004
     43       0.018814  -0.045864  -0.060499  -0.000088  -0.000649  -0.000020
     44       0.009695  -0.023099  -0.030823  -0.000057  -0.000358  -0.000020
     45       0.005061  -0.057462   0.050960   0.000906   0.004572  -0.000131
     46      -0.002411   0.029949  -0.022876  -0.000454  -0.002872   0.000119
     47      -0.000912   0.011686  -0.008455  -0.000196  -0.001175   0.000052
     48       0.000021   0.000041  -0.000332  -0.000011   0.000801  -0.000317
     49      -0.000247   0.000549   0.000253  -0.000022   0.000636  -0.000125
     50      -0.000133   0.000296   0.000093  -0.000012   0.000621  -0.000042
     51      -0.002748   0.001623  -0.003170   0.000010  -0.001369   0.000002
     52      -0.017382   0.019243  -0.027859   0.000173  -0.031200   0.000734
     53      -0.009074   0.009930  -0.014415   0.000083  -0.015981   0.000389
     54      -0.006102   0.004932   0.012768   0.000053   0.002368  -0.000177
     55      -0.234138   0.530580   0.673070   0.000974   0.014180  -0.000334
     56      -0.118956   0.268985   0.341576   0.000458   0.007315  -0.000192
     57      -0.059166   0.669068  -0.548832  -0.010427  -0.038549   0.000837
     58       0.030879  -0.352290   0.283514   0.005662   0.021815  -0.000513
     59       0.011959  -0.136605   0.109067   0.002383   0.008499  -0.000222
     60      -0.000499   0.000023  -0.000140  -0.000004   0.000012  -0.000008
     61      -0.000409  -0.000025   0.000116  -0.000006   0.000340  -0.000025
     62      -0.000045   0.000048   0.000057  -0.000002   0.000220   0.000001
     63       0.002625   0.000049   0.000944  -0.000003   0.001408  -0.000112
     64      -0.002043  -0.000297  -0.000571   0.000009  -0.000876   0.000069
     65       0.002888  -0.000497   0.001183   0.000015   0.000669  -0.000050
     66       0.005425   0.000304   0.001310   0.000007   0.001797  -0.000130
     67       0.002694  -0.000294   0.000675   0.000033   0.000155  -0.000002
     68      -0.004342  -0.000313  -0.000948  -0.000010  -0.001006   0.000068
     69       0.001397   0.000298  -0.000100   0.000006  -0.000633   0.000021
     70       0.000454  -0.000812  -0.002860   0.000046  -0.003101   0.000109
     71       0.000364  -0.000469  -0.001652   0.000027  -0.001872   0.000082
     72       0.845089   0.190911   0.141898   0.000025   0.005216  -0.000115
     73       0.379808   0.084578   0.060748   0.000009   0.002219  -0.000055
     74       0.244771   0.054721   0.039581   0.000025   0.001442  -0.000032
     75       0.000291  -0.001275   0.002083   0.000285  -0.061211  -0.659811
     76       0.000052  -0.000176   0.000279  -0.000250  -0.000772   0.266168
     77      -0.000090   0.000383  -0.000701  -0.000024   0.031618   0.698091
     78       0.000301  -0.001451   0.002399   0.000149  -0.052106   0.043728
     79       0.000179  -0.000830   0.001393   0.000160  -0.031116  -0.014610
     80       0.000071  -0.000325   0.000558   0.000042  -0.013532  -0.042209
     81      -0.004817   0.022971  -0.037881  -0.002649   0.854530  -0.025284
     82      -0.002713   0.013191  -0.021617  -0.001519   0.477211  -0.032741
     83      -0.000936   0.004587  -0.007540  -0.000560   0.172609  -0.029051


-----------
IR SPECTRUM
-----------

 Mode   freq       eps      Int      T**2         TX        TY        TZ
       cm**-1   L/(mol*cm) km/mol    a.u.
----------------------------------------------------------------------------
  7:      5.80   0.000259    1.31  0.013912  ( 0.051346  0.073303 -0.076823)
  8:     29.12   0.000183    0.92  0.001956  (-0.033085  0.027440 -0.010412)
  9:     31.12   0.000942    4.76  0.009442  (-0.004850  0.096747 -0.007650)
 10:     42.90   0.000012    0.06  0.000090  ( 0.005494 -0.004624 -0.006213)
 11:     50.10   0.000187    0.95  0.001166  (-0.016869 -0.026385 -0.013628)
 12:     51.47   0.000043    0.22  0.000260  ( 0.010517  0.012214  0.000640)
 13:     59.46   0.000294    1.48  0.001542  (-0.017075 -0.035003  0.005038)
 14:     65.70   0.005263   26.60  0.025000  (-0.100966  0.115078 -0.039535)
 15:     99.59   0.000262    1.32  0.000820  ( 0.002986  0.027930 -0.005553)
 16:    126.81   0.000827    4.18  0.002034  ( 0.022622 -0.038927  0.002680)
 17:    174.46   0.001290    6.52  0.002308  ( 0.045137  0.012946  0.010140)
 18:    214.98   0.000460    2.32  0.000668  ( 0.000283 -0.010527  0.023594)
 19:    245.20   0.001467    7.41  0.001866  ( 0.030864  0.029973  0.003938)
 20:    342.08   0.000069    0.35  0.000063  (-0.007251 -0.001163 -0.003048)
 21:    385.49   0.000419    2.12  0.000340  ( 0.012135 -0.007850  0.011432)
 22:    411.68   0.000214    1.08  0.000162  (-0.007720  0.000643 -0.010098)
 23:    452.93   0.000503    2.54  0.000346  (-0.006851  0.017226 -0.001673)
 24:    468.74   0.021497  108.64  0.014312  ( 0.004949 -0.094760  0.072856)
 25:    472.86   0.020432  103.25  0.013484  (-0.057538  0.091671 -0.042066)
 26:    503.05   0.018429   93.13  0.011432  ( 0.102362  0.012267 -0.028350)
 27:    546.11   0.000180    0.91  0.000103  ( 0.006400  0.005914  0.005168)
 28:    578.92   0.000978    4.94  0.000527  ( 0.020406  0.008258 -0.006510)
 29:    642.35   0.008667   43.80  0.004211  ( 0.008525 -0.017597  0.061873)
 30:    656.23   0.003428   17.32  0.001630  ( 0.034935  0.018079  0.009090)
 31:    724.10   0.010072   50.90  0.004341  (-0.052383  0.036209 -0.016900)
 32:    735.26   0.032738  165.44  0.013895  ( 0.037073 -0.066331  0.090114)
 33:    779.07   0.004521   22.85  0.001811  (-0.008001 -0.019337  0.037053)
 34:    810.66   0.004684   23.67  0.001803  (-0.003734 -0.014644  0.039681)
 35:    823.58   0.001935    9.78  0.000733  (-0.025502 -0.004839 -0.007718)
 36:    862.63   0.000417    2.11  0.000151  ( 0.006489  0.009253 -0.004812)
 37:    899.44   0.005481   27.70  0.001902  ( 0.002455  0.027000 -0.034157)
 38:    947.27   0.000064    0.32  0.000021  ( 0.002093  0.000707 -0.004026)
 39:    956.24   0.003131   15.82  0.001022  ( 0.017888 -0.020426  0.016867)
 40:    967.91   0.000203    1.02  0.000065  (-0.007354  0.001176 -0.003149)
 41:    989.65   0.014642   74.00  0.004617  ( 0.031696 -0.030924  0.051538)
 42:   1008.10   0.002386   12.06  0.000739  (-0.015025  0.021874  0.005867)
 43:   1008.28   0.000471    2.38  0.000146  (-0.009256  0.007508  0.001949)
 44:   1018.06   0.000033    0.17  0.000010  ( 0.001826  0.001231 -0.002313)
 45:   1037.86   0.003733   18.87  0.001122  ( 0.003140 -0.002156  0.033286)
 46:   1057.39   0.003216   16.25  0.000949  (-0.026608 -0.014153 -0.006400)
 47:   1069.56   0.001692    8.55  0.000494  (-0.005998  0.010327 -0.018740)
 48:   1073.78   0.002174   10.98  0.000632  (-0.023819 -0.007555 -0.002695)
 49:   1117.79   0.001339    6.77  0.000374  (-0.010805  0.001669  0.015950)
 50:   1141.50   0.005570   28.15  0.001523  (-0.029775 -0.021501 -0.013192)
 51:   1214.58   0.005096   25.75  0.001309  ( 0.035678  0.003703  0.004759)
 52:   1252.54   0.000533    2.69  0.000133  ( 0.010510 -0.004661 -0.000733)
 53:   1286.84   0.005181   26.18  0.001256  (-0.021936  0.027640 -0.003349)
 54:   1289.66   0.001695    8.56  0.000410  (-0.009787  0.015818  0.008006)
 55:   1310.98   0.002382   12.04  0.000567  ( 0.023197  0.005163 -0.001479)
 56:   1326.07   0.002089   10.56  0.000492  ( 0.013697 -0.002701  0.017224)
 57:   1371.58   0.000432    2.19  0.000098  (-0.009160  0.003641  0.001101)
 58:   1409.77   0.000335    1.69  0.000074  ( 0.008265 -0.002322  0.000613)
 59:   1419.73   0.025393  128.32  0.005581  (-0.009888 -0.044854  0.058922)
 60:   1445.16   0.004602   23.26  0.000994  (-0.024329  0.019028  0.006307)
 61:   1449.94   0.008226   41.57  0.001770  (-0.020606 -0.017811  0.032070)
 62:   1468.56   0.002300   11.62  0.000489  (-0.000979 -0.010152  0.019613)
 63:   1485.97   0.007505   37.93  0.001576  ( 0.008602 -0.035139 -0.016352)
 64:   1515.69   0.004724   23.87  0.000973  (-0.027492  0.014167  0.004018)
 65:   1563.64   0.145966  737.65  0.029131  ( 0.121341 -0.110921 -0.045871)
 66:   1617.34   0.004111   20.77  0.000793  ( 0.024945  0.012292  0.004454)
 67:   1634.18   0.007540   38.10  0.001440  ( 0.019028  0.026111  0.019900)
 68:   1644.71   0.019832  100.22  0.003763  (-0.005071 -0.041995 -0.044424)
 69:   1701.25   0.000828    4.19  0.000152  ( 0.011252  0.004175 -0.002815)
 70:   2318.46   0.000266    1.34  0.000036  ( 0.004296 -0.000220  0.004154)
 71:   3031.51   0.004974   25.14  0.000512  ( 0.019841 -0.010651 -0.002222)
 72:   3080.49   0.003057   15.45  0.000310  (-0.003316 -0.005911  0.016239)
 73:   3109.29   0.003906   19.74  0.000392  (-0.005694 -0.017023 -0.008352)
 74:   3112.03   0.000185    0.93  0.000019  (-0.001378 -0.004067  0.000296)
 75:   3142.91   0.000663    3.35  0.000066  (-0.007293  0.000519  0.003516)
 76:   3149.15   0.004778   24.15  0.000473  (-0.011490  0.016615  0.008087)
 77:   3164.37   0.000512    2.59  0.000051  (-0.000762  0.006876  0.001631)
 78:   3168.13   0.001918    9.69  0.000189  (-0.013344 -0.002535 -0.002114)
 79:   3187.46   0.000304    1.53  0.000030  (-0.003962  0.003149  0.002024)
 80:   3200.53   0.004152   20.98  0.000405  (-0.001831 -0.017644 -0.009496)
 81:   3230.01   0.000663    3.35  0.000064  (-0.000213  0.007216  0.003456)
 82:   3309.62   0.344366  1740.29  0.032470  ( 0.161818  0.070596  0.036073)
 83:   3744.35   0.078578  397.10  0.006549  (-0.068345  0.022997  0.036729)

* The epsilon (eps) is given for a Dirac delta lineshape.
** The dipole moment derivative (T) already includes vibrational overlap.

The first frequency considered to be a vibration is 7
The total number of vibrations considered is 77


--------------------------
THERMOCHEMISTRY AT 298.15K
--------------------------

Temperature         ... 298.15 K
Pressure            ... 1.00 atm
Total Mass          ... 199.21 AMU

Throughout the following assumptions are being made:
  (1) The electronic state is orbitally nondegenerate
  (2) There are no thermally accessible electronically excited states
  (3) Hindered rotations indicated by low frequency modes are not
      treated as such but are treated as vibrations and this may
      cause some error
  (4) All equations used are the standard statistical mechanics
      equations for an ideal gas
  (5) All vibrations are strictly harmonic

freq.       5.80  E(vib)   ...       0.58 
freq.      29.12  E(vib)   ...       0.55 
freq.      31.12  E(vib)   ...       0.55 
freq.      42.90  E(vib)   ...       0.53 
freq.      50.10  E(vib)   ...       0.52 
freq.      51.47  E(vib)   ...       0.52 
freq.      59.46  E(vib)   ...       0.51 
freq.      65.70  E(vib)   ...       0.50 
freq.      99.59  E(vib)   ...       0.46 
freq.     126.81  E(vib)   ...       0.43 
freq.     174.46  E(vib)   ...       0.38 
freq.     214.98  E(vib)   ...       0.34 
freq.     245.20  E(vib)   ...       0.31 
freq.     342.08  E(vib)   ...       0.23 
freq.     385.49  E(vib)   ...       0.20 
freq.     411.68  E(vib)   ...       0.19 
freq.     452.93  E(vib)   ...       0.16 
freq.     468.74  E(vib)   ...       0.16 
freq.     472.86  E(vib)   ...       0.15 
freq.     503.05  E(vib)   ...       0.14 
freq.     546.11  E(vib)   ...       0.12 
freq.     578.92  E(vib)   ...       0.11 
freq.     642.35  E(vib)   ...       0.09 
freq.     656.23  E(vib)   ...       0.08 
freq.     724.10  E(vib)   ...       0.06 
freq.     735.26  E(vib)   ...       0.06 
freq.     779.07  E(vib)   ...       0.05 
freq.     810.66  E(vib)   ...       0.05 
freq.     823.58  E(vib)   ...       0.05 
freq.     862.63  E(vib)   ...       0.04 
freq.     899.44  E(vib)   ...       0.03 
freq.     947.27  E(vib)   ...       0.03 
freq.     956.24  E(vib)   ...       0.03 
freq.     967.91  E(vib)   ...       0.03 
freq.     989.65  E(vib)   ...       0.02 
freq.    1008.10  E(vib)   ...       0.02 
freq.    1008.28  E(vib)   ...       0.02 
freq.    1018.06  E(vib)   ...       0.02 
freq.    1037.86  E(vib)   ...       0.02 
freq.    1057.39  E(vib)   ...       0.02 
freq.    1069.56  E(vib)   ...       0.02 
freq.    1073.78  E(vib)   ...       0.02 
freq.    1117.79  E(vib)   ...       0.01 
freq.    1141.50  E(vib)   ...       0.01 
freq.    1214.58  E(vib)   ...       0.01 
freq.    1252.54  E(vib)   ...       0.01 
freq.    1286.84  E(vib)   ...       0.01 
freq.    1289.66  E(vib)   ...       0.01 
freq.    1310.98  E(vib)   ...       0.01 
freq.    1326.07  E(vib)   ...       0.01 
freq.    1371.58  E(vib)   ...       0.01 
freq.    1409.77  E(vib)   ...       0.00 
freq.    1419.73  E(vib)   ...       0.00 
freq.    1445.16  E(vib)   ...       0.00 
freq.    1449.94  E(vib)   ...       0.00 
freq.    1468.56  E(vib)   ...       0.00 
freq.    1485.97  E(vib)   ...       0.00 
freq.    1515.69  E(vib)   ...       0.00 
freq.    1563.64  E(vib)   ...       0.00 
freq.    1617.34  E(vib)   ...       0.00 
freq.    1634.18  E(vib)   ...       0.00 
freq.    1644.71  E(vib)   ...       0.00 
freq.    1701.25  E(vib)   ...       0.00 
freq.    2318.46  E(vib)   ...       0.00 
freq.    3031.51  E(vib)   ...       0.00 
freq.    3080.49  E(vib)   ...       0.00 
freq.    3109.29  E(vib)   ...       0.00 
freq.    3112.03  E(vib)   ...       0.00 
freq.    3142.91  E(vib)   ...       0.00 
freq.    3149.15  E(vib)   ...       0.00 
freq.    3164.37  E(vib)   ...       0.00 
freq.    3168.13  E(vib)   ...       0.00 
freq.    3187.46  E(vib)   ...       0.00 
freq.    3200.53  E(vib)   ...       0.00 
freq.    3230.01  E(vib)   ...       0.00 
freq.    3309.62  E(vib)   ...       0.00 
freq.    3744.35  E(vib)   ...       0.00 

------------
INNER ENERGY
------------

The inner energy is: U= E(el) + E(ZPE) + E(vib) + E(rot) + E(trans)
    E(el)   - is the total energy from the electronic structure calculation
              = E(kin-el) + E(nuc-el) + E(el-el) + E(nuc-nuc)
    E(ZPE)  - the the zero temperature vibrational energy from the frequency calculation
    E(vib)  - the the finite temperature correction to E(ZPE) due to population
              of excited vibrational states
    E(rot)  - is the rotational thermal energy
    E(trans)- is the translational thermal energy

Summary of contributions to the inner energy U:
Electronic energy                ...   -686.40744544 Eh
Zero point energy                ...      0.22107749 Eh     138.73 kcal/mol
Thermal vibrational correction   ...      0.01359971 Eh       8.53 kcal/mol
Thermal rotational correction    ...      0.00141627 Eh       0.89 kcal/mol
Thermal translational correction ...      0.00141627 Eh       0.89 kcal/mol
-----------------------------------------------------------------------
Total thermal energy                   -686.16993570 Eh


Summary of corrections to the electronic energy:
(perhaps to be used in another calculation)
Total thermal correction                  0.01643225 Eh      10.31 kcal/mol
Non-thermal (ZPE) correction              0.22107749 Eh     138.73 kcal/mol
-----------------------------------------------------------------------
Total correction                          0.23750975 Eh     149.04 kcal/mol


--------
ENTHALPY
--------

The enthalpy is H = U + kB*T
                kB is Boltzmann's constant
Total free energy                 ...   -686.16993570 Eh 
Thermal Enthalpy correction       ...      0.00094421 Eh       0.59 kcal/mol
-----------------------------------------------------------------------
Total Enthalpy                    ...   -686.16899149 Eh


Note: Only C1 symmetry has been detected, increase convergence thresholds 
      if your molecule has a higher symmetry. Symmetry factor of 1.0 is   
      used for the rotational entropy correction. 
 

Note: Rotational entropy computed according to Herzberg 
Infrared and Raman Spectra, Chapter V,1, Van Nostrand Reinhold, 1945 
Point Group:  C1, Symmetry Number:   1  
Rotational constants in cm-1:     0.043170     0.007683     0.007159 

Vibrational entropy computed according to the QRRHO of S. Grimme
Chem.Eur.J. 2012 18 9955


-------
ENTROPY
-------

The entropy contributions are T*S = T*(S(el)+S(vib)+S(rot)+S(trans))
     S(el)   - electronic entropy
     S(vib)  - vibrational entropy
     S(rot)  - rotational entropy
     S(trans)- translational entropy
The entropies will be listed as multiplied by the temperature to get
units of energy

Electronic entropy                ...      0.00000000 Eh      0.00 kcal/mol
Vibrational entropy               ...      0.02596176 Eh     16.29 kcal/mol
Rotational entropy                ...      0.01562470 Eh      9.80 kcal/mol
Translational entropy             ...      0.01984735 Eh     12.45 kcal/mol
-----------------------------------------------------------------------
Final entropy term                ...      0.06143382 Eh     38.55 kcal/mol

In case the symmetry of your molecule has not been determined correctly
or in case you have a reason to use a different symmetry number we print 
out the resulting rotational entropy values for sn=1,12 :
 --------------------------------------------------------
|  sn= 1 | S(rot)=       0.01562470 Eh      9.80 kcal/mol|
|  sn= 2 | S(rot)=       0.01497025 Eh      9.39 kcal/mol|
|  sn= 3 | S(rot)=       0.01458741 Eh      9.15 kcal/mol|
|  sn= 4 | S(rot)=       0.01431579 Eh      8.98 kcal/mol|
|  sn= 5 | S(rot)=       0.01410510 Eh      8.85 kcal/mol|
|  sn= 6 | S(rot)=       0.01393296 Eh      8.74 kcal/mol|
|  sn= 7 | S(rot)=       0.01378741 Eh      8.65 kcal/mol|
|  sn= 8 | S(rot)=       0.01366133 Eh      8.57 kcal/mol|
|  sn= 9 | S(rot)=       0.01355013 Eh      8.50 kcal/mol|
|  sn=10 | S(rot)=       0.01345065 Eh      8.44 kcal/mol|
|  sn=11 | S(rot)=       0.01336066 Eh      8.38 kcal/mol|
|  sn=12 | S(rot)=       0.01327850 Eh      8.33 kcal/mol|
 --------------------------------------------------------


-------------------
GIBBS FREE ENERGY
-------------------

The Gibbs free energy is G = H - T*S

Total enthalpy                    ...   -686.16899149 Eh 
Total entropy correction          ...     -0.06143382 Eh    -38.55 kcal/mol
-----------------------------------------------------------------------
Final Gibbs free energy         ...   -686.23042530 Eh

For completeness - the Gibbs free energy minus the electronic energy
G-E(el)                           ...      0.17702014 Eh    111.08 kcal/mol



Timings for individual modules:

Sum of individual times         ...     1634.285 sec (=  27.238 min)
GTO integral calculation        ...        9.672 sec (=   0.161 min)   0.6 %
SCF iterations                  ...       84.175 sec (=   1.403 min)   5.2 %
SCF Gradient evaluation         ...       21.850 sec (=   0.364 min)   1.3 %
Numerical frequency calculation ...     1518.588 sec (=  25.310 min)  92.9 %
                             ****ORCA TERMINATED NORMALLY****
TOTAL RUN TIME: 0 days 0 hours 26 minutes 20 seconds 537 msec
