 *******************************************************************************
 **                                                                           **
 **                              MOPAC v22.1.0                                **
 **                                                                           **
 *******************************************************************************
 **          Digital Object Identifier (DOI): 10.5281/zenodo.6511958          **
 **    Visit the DOI location for information on how to cite this program.    **
 *******************************************************************************

                              PM7 CALCULATION RESULTS

 *******************************************************************************
 *  CALCULATION DONE:                                Sun Mar 24 01:27:30 2024  *
 *  PM7        - The PM7 Hamiltonian to be used
 *  SINGLET    - SPIN STATE DEFINED AS A SINGLET
 *
 *
 *
 *                 CHARGE ON SYSTEM = 0
 *
 *
 *
 *  EPS=78.4   - USE ANDREAS KLAMT'S COSMO IMPLICIT SOLVATION MODEL
 *  THREADS    - USE A MAXIMUM OF 40 THREADS
 *  T=         - A TIME OF 14.0 DAYS REQUESTED
 *  DUMP=N     - RESTART FILE WRITTEN EVERY 30.0 MINUTES REQUESTED
 *  ITRY=      - DO A MAXIMUM OF 15000 ITERATIONS FOR SCF
 *  AUX        - OUTPUT AUXILIARY INFORMATION
 *  PL         - MONITOR CONVERGENCE IN DENSITY MATRIX
 *******************************************************************************
PM7 CHARGE=0 SINGLET  AUX DUMP=30M ITRY=15000 eps=78.4 T=14D PL THREADS=40

 Mopac file generated by Gabedit
   ATOM   CHEMICAL          X               Y               Z
  NUMBER   SYMBOL      (ANGSTROMS)     (ANGSTROMS)     (ANGSTROMS)

     1       C          0.56394000  *  -0.78932000  *   0.40612000  *
     2       H          0.87302000  *  -1.45300000  *  -0.42740000  *
     3       H          1.04773000  *   0.19880000  *   0.23749000  *
     4       H          0.97752000  *  -1.20221000  *   1.34992000  *
     5       N         -0.88335000  *  -0.63870000  *   0.46568000  *
     6       O         -1.41996000  *  -0.44427000  *   1.54743000  *
     7       O         -1.53217000  *  -0.70145000  *  -0.56920000  *
     8       H          4.00752400  *  -1.65357500  *   0.20049700  *
     9       O          3.29775400  *  -1.16790500  *   0.63787700  *
    10       H          3.49293400  *  -0.24546500  *   0.43201700  *
    11       H          6.37107000  *  -1.97192200  *   0.16412300  *
    12       O          5.66130000  *  -1.48625200  *   0.60150300  *
    13       H          5.85648000  *  -0.56381200  *   0.39564300  *



          CARTESIAN COORDINATES 

    NO.       ATOM           X           Y           Z

     1         C          0.5639     -0.7893      0.4061
     2         H          0.8730     -1.4530     -0.4274
     3         H          1.0477      0.1988      0.2375
     4         H          0.9775     -1.2022      1.3499
     5         N         -0.8833     -0.6387      0.4657
     6         O         -1.4200     -0.4443      1.5474
     7         O         -1.5322     -0.7015     -0.5692
     8         H          4.0075     -1.6536      0.2005
     9         O          3.2978     -1.1679      0.6379
    10         H          3.4929     -0.2455      0.4320
    11         H          6.3711     -1.9719      0.1641
    12         O          5.6613     -1.4863      0.6015
    13         H          5.8565     -0.5638      0.3956

 General Reference for PM7:
 "Optimization of Parameters for Semiempirical Methods VI: More Modifications to the 
 NDDO Approximations and Re-optimization of Parameters", J. J. P. Stewart, J. Mol. Mod., 1:32, 19 (2013)
 https://link.springer.com/article/10.1007/s00894-012-1667-x

           Empirical Formula: C H7 N O4  =    13 atoms



      MOLECULAR POINT GROUP   :   C1  


 SINGLET STATE CALCULATION


      RHF CALCULATION, NO. OF DOUBLY OCCUPIED LEVELS = 20


          Geometry optimization using EF
 ITERATION   1 PLS= 0.100E+01 0.000E+00 ENERGY     5252.983409 DELTAE 5152.9834089
 ITERATION   2 PLS= 0.117E+01 0.000E+00 ENERGY       -4.724705 DELTAE-5257.7081142
 ITERATION   3 PLS= 0.101E+00 0.000E+00 ENERGY      -74.582880 DELTAE  -69.8581748
 ITERATION   4 PLS= 0.643E-01 0.000E+00 ENERGY     -211.391376 DELTAE -136.8084961
 ITERATION   5 PLS= 0.254E-01 0.000E+00 ENERGY     -129.826351 DELTAE   81.5650250
 ITERATION   6 PLS= 0.254E-01 0.000E+00 ENERGY     -132.560039 DELTAE   -2.7336874
 ITERATION   7 PLS= 0.137E-01 0.000E+00 ENERGY     -135.070466 DELTAE   -2.5104271
 ITERATION   8 PLS= 0.544E-02 0.000E+00 ENERGY     -133.644789 DELTAE    1.4256769
 ITERATION   9 PLS= 0.234E-02 0.000E+00 ENERGY     -133.651153 DELTAE   -0.0063645
 ITERATION  10 PLS= 0.966E-03 0.000E+00 ENERGY     -133.654245 DELTAE   -0.0030917
 ITERATION  11 PLS= 0.213E-03 0.000E+00 ENERGY     -133.652935 DELTAE    0.0013100
 ITERATION  12 PLS= 0.116E-03 0.000E+00 ENERGY     -133.652953 DELTAE   -0.0000181
 ITERATION   1 PLS= 0.659E-04 0.000E+00 ENERGY     -152.065297 DELTAE -252.0652973
 ITERATION   2 PLS= 0.272E-01 0.000E+00 ENERGY     -153.985811 DELTAE   -1.9205137
 ITERATION   3 PLS= 0.126E-01 0.000E+00 ENERGY     -154.478119 DELTAE   -0.4923082
 ITERATION   4 PLS= 0.659E-02 0.000E+00 ENERGY     -154.917297 DELTAE   -0.4391783
 ITERATION   5 PLS= 0.105E-02 0.000E+00 ENERGY     -154.701564 DELTAE    0.2157332
 ITERATION   6 PLS= 0.621E-03 0.000E+00 ENERGY     -154.703078 DELTAE   -0.0015137
 ITERATION   7 PLS= 0.375E-03 0.000E+00 ENERGY     -154.705193 DELTAE   -0.0021152
 ITERATION   8 PLS= 0.604E-04 0.000E+00 ENERGY     -154.703914 DELTAE    0.0012788

          DIAGONAL MATRIX USED AS START HESSIAN

 CYCLE:     1 TIME:   0.028 TIME LEFT:  2.00W  GRAD.:    40.656 HEAT: -154.7039
 ITERATION   1 PLS= 0.278E-04 0.000E+00 ENERGY     -155.235796 DELTAE -255.2357963
 ITERATION   2 PLS= 0.103E-01 0.000E+00 ENERGY     -155.748982 DELTAE   -0.5131857
 ITERATION   3 PLS= 0.546E-02 0.000E+00 ENERGY     -155.823326 DELTAE   -0.0743444
 ITERATION   4 PLS= 0.288E-02 0.000E+00 ENERGY     -155.866081 DELTAE   -0.0427549
 ITERATION   5 PLS= 0.420E-03 0.000E+00 ENERGY     -155.844452 DELTAE    0.0216294
 CYCLE:     2 TIME:   0.038 TIME LEFT:  2.00W  GRAD.:    29.625 HEAT: -155.8445
 ITERATION   1 PLS= 0.141E-03 0.000E+00 ENERGY     -154.279892 DELTAE -254.2798922
 ITERATION   2 PLS= 0.275E-01 0.000E+00 ENERGY     -156.579577 DELTAE   -2.2996844
 ITERATION   3 PLS= 0.141E-01 0.000E+00 ENERGY     -157.139379 DELTAE   -0.5598025
 ITERATION   4 PLS= 0.727E-02 0.000E+00 ENERGY     -157.534148 DELTAE   -0.3947690
 ITERATION   5 PLS= 0.338E-03 0.000E+00 ENERGY     -157.335487 DELTAE    0.1986611
 ITERATION   6 PLS= 0.132E-03 0.000E+00 ENERGY     -157.335549 DELTAE   -0.0000622
 CYCLE:     3 TIME:   0.016 TIME LEFT:  2.00W  GRAD.:    25.681 HEAT: -157.3356
 ITERATION   1 PLS= 0.708E-04 0.000E+00 ENERGY     -129.063905 DELTAE -229.0639050
 ITERATION   2 PLS= 0.650E-01 0.000E+00 ENERGY     -145.315749 DELTAE  -16.2518436
 ITERATION   3 PLS= 0.241E-01 0.000E+00 ENERGY     -147.711931 DELTAE   -2.3961822
 ITERATION   4 PLS= 0.114E-01 0.000E+00 ENERGY     -149.115327 DELTAE   -1.4033961
 ITERATION   5 PLS= 0.164E-02 0.000E+00 ENERGY     -148.471381 DELTAE    0.6439463
 ITERATION   6 PLS= 0.989E-03 0.000E+00 ENERGY     -148.473978 DELTAE   -0.0025980
 ITERATION   1 PLS= 0.613E-03 0.000E+00 ENERGY     -150.894786 DELTAE -250.8947860
 ITERATION   2 PLS= 0.253E-01 0.000E+00 ENERGY     -154.397739 DELTAE   -3.5029531
 ITERATION   3 PLS= 0.124E-01 0.000E+00 ENERGY     -155.006410 DELTAE   -0.6086710
 ITERATION   4 PLS= 0.650E-02 0.000E+00 ENERGY     -155.408448 DELTAE   -0.4020377
 ITERATION   5 PLS= 0.610E-03 0.000E+00 ENERGY     -155.207969 DELTAE    0.2004788
 ITERATION   6 PLS= 0.359E-03 0.000E+00 ENERGY     -155.208300 DELTAE   -0.0003306
 ITERATION   1 PLS= 0.216E-03 0.000E+00 ENERGY     -155.739087 DELTAE -255.7390866
 ITERATION   2 PLS= 0.155E-01 0.000E+00 ENERGY     -156.761115 DELTAE   -1.0220280
 ITERATION   3 PLS= 0.608E-02 0.000E+00 ENERGY     -156.919762 DELTAE   -0.1586472
 ITERATION   4 PLS= 0.309E-02 0.000E+00 ENERGY     -157.018906 DELTAE   -0.0991438
 ITERATION   5 PLS= 0.334E-03 0.000E+00 ENERGY     -156.970634 DELTAE    0.0482718
 ITERATION   1 PLS= 0.202E-03 0.000E+00 ENERGY     -157.074024 DELTAE -257.0740241
 ITERATION   2 PLS= 0.102E-01 0.000E+00 ENERGY     -157.400940 DELTAE   -0.3269156
 ITERATION   3 PLS= 0.394E-02 0.000E+00 ENERGY     -157.442988 DELTAE   -0.0420482
 ITERATION   4 PLS= 0.190E-02 0.000E+00 ENERGY     -157.467742 DELTAE   -0.0247539
 ITERATION   5 PLS= 0.211E-03 0.000E+00 ENERGY     -157.455929 DELTAE    0.0118132
 CYCLE:     4 TIME:   0.070 TIME LEFT:  2.00W  GRAD.:    38.050 HEAT: -157.4560
 ITERATION   1 PLS= 0.141E-03 0.000E+00 ENERGY     -157.528882 DELTAE -257.5288824
 ITERATION   2 PLS= 0.876E-02 0.000E+00 ENERGY     -157.793744 DELTAE   -0.2648611
 ITERATION   3 PLS= 0.323E-02 0.000E+00 ENERGY     -157.827752 DELTAE   -0.0340081
 ITERATION   4 PLS= 0.153E-02 0.000E+00 ENERGY     -157.846660 DELTAE   -0.0189086
 CYCLE:     5 TIME:   0.014 TIME LEFT:  2.00W  GRAD.:    13.753 HEAT: -157.8380
 ITERATION   1 PLS= 0.169E-03 0.000E+00 ENERGY     -157.581239 DELTAE -257.5812393
 ITERATION   2 PLS= 0.769E-02 0.000E+00 ENERGY     -157.891325 DELTAE   -0.3100854
 ITERATION   3 PLS= 0.409E-02 0.000E+00 ENERGY     -157.954283 DELTAE   -0.0629580
 ITERATION   4 PLS= 0.216E-02 0.000E+00 ENERGY     -157.995432 DELTAE   -0.0411491
 ITERATION   5 PLS= 0.144E-03 0.000E+00 ENERGY     -157.975100 DELTAE    0.0203314
 CYCLE:     6 TIME:   0.015 TIME LEFT:  2.00W  GRAD.:    32.237 HEAT: -157.9751
 ITERATION   1 PLS= 0.696E-04 0.000E+00 ENERGY     -157.850316 DELTAE -257.8503163
 ITERATION   2 PLS= 0.802E-02 0.000E+00 ENERGY     -158.132295 DELTAE   -0.2819783
 ITERATION   3 PLS= 0.432E-02 0.000E+00 ENERGY     -158.195702 DELTAE   -0.0634071
 ITERATION   4 PLS= 0.230E-02 0.000E+00 ENERGY     -158.240490 DELTAE   -0.0447879
 ITERATION   5 PLS= 0.187E-03 0.000E+00 ENERGY     -158.217658 DELTAE    0.0228312
 CYCLE:     7 TIME:   0.015 TIME LEFT:  2.00W  GRAD.:    12.211 HEAT: -158.2177
 ITERATION   1 PLS= 0.857E-04 0.000E+00 ENERGY     -157.824867 DELTAE -257.8248675
 ITERATION   2 PLS= 0.103E-01 0.000E+00 ENERGY     -158.306225 DELTAE   -0.4813575
 ITERATION   3 PLS= 0.506E-02 0.000E+00 ENERGY     -158.421015 DELTAE   -0.1147897
 ITERATION   4 PLS= 0.255E-02 0.000E+00 ENERGY     -158.498046 DELTAE   -0.0770310
 ITERATION   5 PLS= 0.115E-03 0.000E+00 ENERGY     -158.460539 DELTAE    0.0375062
 CYCLE:     8 TIME:   0.015 TIME LEFT:  2.00W  GRAD.:    14.547 HEAT: -158.4606
 ITERATION   1 PLS= 0.580E-04 0.000E+00 ENERGY     -157.302620 DELTAE -257.3026198
 ITERATION   2 PLS= 0.118E-01 0.000E+00 ENERGY     -158.289345 DELTAE   -0.9867251
 ITERATION   3 PLS= 0.582E-02 0.000E+00 ENERGY     -158.532128 DELTAE   -0.2427835
 ITERATION   4 PLS= 0.295E-02 0.000E+00 ENERGY     -158.697171 DELTAE   -0.1650425
 ITERATION   5 PLS= 0.191E-03 0.000E+00 ENERGY     -158.616494 DELTAE    0.0806770
 CYCLE:     9 TIME:   0.015 TIME LEFT:  2.00W  GRAD.:    20.013 HEAT: -158.6165
 ITERATION   1 PLS= 0.110E-03 0.000E+00 ENERGY     -157.877077 DELTAE -257.8770774
 ITERATION   2 PLS= 0.113E-01 0.000E+00 ENERGY     -158.468760 DELTAE   -0.5916830
 ITERATION   3 PLS= 0.650E-02 0.000E+00 ENERGY     -158.593957 DELTAE   -0.1251971
 ITERATION   4 PLS= 0.362E-02 0.000E+00 ENERGY     -158.680254 DELTAE   -0.0862964
 ITERATION   5 PLS= 0.530E-03 0.000E+00 ENERGY     -158.636696 DELTAE    0.0435578
 CYCLE:    10 TIME:   0.015 TIME LEFT:  2.00W  GRAD.:    22.999 HEAT: -158.6368
 ITERATION   1 PLS= 0.233E-03 0.000E+00 ENERGY     -158.321286 DELTAE -258.3212863
 ITERATION   2 PLS= 0.135E-01 0.000E+00 ENERGY     -158.730447 DELTAE   -0.4091611
 ITERATION   3 PLS= 0.732E-02 0.000E+00 ENERGY     -158.821267 DELTAE   -0.0908193
 ITERATION   4 PLS= 0.390E-02 0.000E+00 ENERGY     -158.889216 DELTAE   -0.0679494
 ITERATION   5 PLS= 0.546E-03 0.000E+00 ENERGY     -158.853835 DELTAE    0.0353813
 CYCLE:    11 TIME:   0.014 TIME LEFT:  2.00W  GRAD.:    14.041 HEAT: -158.8539
 ITERATION   1 PLS= 0.262E-03 0.000E+00 ENERGY     -158.658336 DELTAE -258.6583364
 ITERATION   2 PLS= 0.511E-02 0.000E+00 ENERGY     -158.926500 DELTAE   -0.2681635
 ITERATION   3 PLS= 0.283E-02 0.000E+00 ENERGY     -158.986345 DELTAE   -0.0598448
 ITERATION   4 PLS= 0.164E-02 0.000E+00 ENERGY     -159.029062 DELTAE   -0.0427170
 ITERATION   5 PLS= 0.323E-03 0.000E+00 ENERGY     -159.007021 DELTAE    0.0220405
 CYCLE:    12 TIME:   0.015 TIME LEFT:  2.00W  GRAD.:    10.325 HEAT: -159.0070
 ITERATION   1 PLS= 0.135E-03 0.000E+00 ENERGY     -158.841061 DELTAE -258.8410609
 ITERATION   2 PLS= 0.135E-02 0.000E+00 ENERGY     -159.092558 DELTAE   -0.2514967
 ITERATION   3 PLS= 0.705E-03 0.000E+00 ENERGY     -159.155322 DELTAE   -0.0627644
 ITERATION   4 PLS= 0.389E-03 0.000E+00 ENERGY     -159.194151 DELTAE   -0.0388295
 ITERATION   5 PLS= 0.670E-04 0.000E+00 ENERGY     -159.176979 DELTAE    0.0171725
 CYCLE:    13 TIME:   0.014 TIME LEFT:  2.00W  GRAD.:     8.581 HEAT: -159.1770
 ITERATION   1 PLS= 0.340E-04 0.000E+00 ENERGY     -157.385292 DELTAE -257.3852921
 ITERATION   2 PLS= 0.533E-02 0.000E+00 ENERGY     -158.921927 DELTAE   -1.5366351
 ITERATION   3 PLS= 0.339E-02 0.000E+00 ENERGY     -159.298499 DELTAE   -0.3765722
 ITERATION   4 PLS= 0.217E-02 0.000E+00 ENERGY     -159.621174 DELTAE   -0.3226743
 ITERATION   5 PLS= 0.245E-03 0.000E+00 ENERGY     -159.426078 DELTAE    0.1950960
 ITERATION   6 PLS= 0.183E-03 0.000E+00 ENERGY     -159.426678 DELTAE   -0.0006004
 CYCLE:    14 TIME:   0.015 TIME LEFT:  2.00W  GRAD.:    13.281 HEAT: -159.4271
 ITERATION   1 PLS= 0.933E-04 0.000E+00 ENERGY     -158.785839 DELTAE -258.7858394
 ITERATION   2 PLS= 0.529E-02 0.000E+00 ENERGY     -159.309945 DELTAE   -0.5241059
 ITERATION   3 PLS= 0.310E-02 0.000E+00 ENERGY     -159.429189 DELTAE   -0.1192436
 ITERATION   4 PLS= 0.169E-02 0.000E+00 ENERGY     -159.510820 DELTAE   -0.0816312
 ITERATION   5 PLS= 0.114E-03 0.000E+00 ENERGY     -159.467646 DELTAE    0.0431735
 CYCLE:    15 TIME:   0.014 TIME LEFT:  2.00W  GRAD.:    11.106 HEAT: -159.4677
 ITERATION   1 PLS= 0.497E-04 0.000E+00 ENERGY     -159.544279 DELTAE -259.5442792
 ITERATION   2 PLS= 0.313E-02 0.000E+00 ENERGY     -159.600151 DELTAE   -0.0558722
 ITERATION   3 PLS= 0.898E-03 0.000E+00 ENERGY     -159.608480 DELTAE   -0.0083288
 ITERATION   4 PLS= 0.324E-03 0.000E+00 ENERGY     -159.612009 DELTAE   -0.0035290
 CYCLE:    16 TIME:   0.014 TIME LEFT:  2.00W  GRAD.:     7.686 HEAT: -159.6107
 ITERATION   1 PLS= 0.126E-03 0.000E+00 ENERGY     -159.155678 DELTAE -259.1556785
 ITERATION   2 PLS= 0.621E-02 0.000E+00 ENERGY     -159.545030 DELTAE   -0.3893519
 ITERATION   3 PLS= 0.346E-02 0.000E+00 ENERGY     -159.633654 DELTAE   -0.0886233
 ITERATION   4 PLS= 0.185E-02 0.000E+00 ENERGY     -159.691048 DELTAE   -0.0573947
 ITERATION   5 PLS= 0.286E-03 0.000E+00 ENERGY     -159.661857 DELTAE    0.0291912
 CYCLE:    17 TIME:   0.015 TIME LEFT:  2.00W  GRAD.:     8.095 HEAT: -159.6619
 ITERATION   1 PLS= 0.135E-03 0.000E+00 ENERGY     -159.721668 DELTAE -259.7216678
 ITERATION   2 PLS= 0.226E-02 0.000E+00 ENERGY     -159.842103 DELTAE   -0.1204354
 ITERATION   3 PLS= 0.952E-03 0.000E+00 ENERGY     -159.864036 DELTAE   -0.0219332
 ITERATION   4 PLS= 0.419E-03 0.000E+00 ENERGY     -159.874123 DELTAE   -0.0100863
 CYCLE:    18 TIME:   0.013 TIME LEFT:  2.00W  GRAD.:     8.881 HEAT: -159.8695
 ITERATION   1 PLS= 0.749E-04 0.000E+00 ENERGY     -159.907854 DELTAE -259.9078542
 ITERATION   2 PLS= 0.229E-02 0.000E+00 ENERGY     -159.967943 DELTAE   -0.0600892
 ITERATION   3 PLS= 0.114E-02 0.000E+00 ENERGY     -159.980943 DELTAE   -0.0129991
 ITERATION   4 PLS= 0.576E-03 0.000E+00 ENERGY     -159.989135 DELTAE   -0.0081929
 CYCLE:    19 TIME:   0.014 TIME LEFT:  2.00W  GRAD.:     7.936 HEAT: -159.9849
 ITERATION   1 PLS= 0.816E-04 0.000E+00 ENERGY     -159.901959 DELTAE -259.9019586
 ITERATION   2 PLS= 0.390E-02 0.000E+00 ENERGY     -160.151711 DELTAE   -0.2497529
 ITERATION   3 PLS= 0.195E-02 0.000E+00 ENERGY     -160.204365 DELTAE   -0.0526539
 ITERATION   4 PLS= 0.996E-03 0.000E+00 ENERGY     -160.236566 DELTAE   -0.0322005
 ITERATION   5 PLS= 0.155E-03 0.000E+00 ENERGY     -160.219904 DELTAE    0.0166616
 CYCLE:    20 TIME:   0.015 TIME LEFT:  2.00W  GRAD.:     4.979 HEAT: -160.2199
 ITERATION   1 PLS= 0.880E-04 0.000E+00 ENERGY     -160.149817 DELTAE -260.1498166
 ITERATION   2 PLS= 0.322E-02 0.000E+00 ENERGY     -160.371441 DELTAE   -0.2216248
 ITERATION   3 PLS= 0.162E-02 0.000E+00 ENERGY     -160.415713 DELTAE   -0.0442718
 ITERATION   4 PLS= 0.820E-03 0.000E+00 ENERGY     -160.439108 DELTAE   -0.0233944
 ITERATION   5 PLS= 0.765E-04 0.000E+00 ENERGY     -160.427553 DELTAE    0.0115543
 CYCLE:    21 TIME:   0.013 TIME LEFT:  2.00W  GRAD.:     4.541 HEAT: -160.4276
 ITERATION   1 PLS= 0.393E-04 0.000E+00 ENERGY     -160.054572 DELTAE -260.0545722
 ITERATION   2 PLS= 0.376E-02 0.000E+00 ENERGY     -160.487781 DELTAE   -0.4332092
 ITERATION   3 PLS= 0.188E-02 0.000E+00 ENERGY     -160.571945 DELTAE   -0.0841637
 ITERATION   4 PLS= 0.947E-03 0.000E+00 ENERGY     -160.614274 DELTAE   -0.0423288
 ITERATION   5 PLS= 0.823E-04 0.000E+00 ENERGY     -160.593456 DELTAE    0.0208179
 CYCLE:    22 TIME:   0.015 TIME LEFT:  2.00W  GRAD.:     3.829 HEAT: -160.5935
 ITERATION   1 PLS= 0.412E-04 0.000E+00 ENERGY     -159.693389 DELTAE -259.6933893
 ITERATION   2 PLS= 0.567E-02 0.000E+00 ENERGY     -160.532154 DELTAE   -0.8387651
 ITERATION   3 PLS= 0.286E-02 0.000E+00 ENERGY     -160.692270 DELTAE   -0.1601157
 ITERATION   4 PLS= 0.145E-02 0.000E+00 ENERGY     -160.769097 DELTAE   -0.0768271
 ITERATION   5 PLS= 0.127E-03 0.000E+00 ENERGY     -160.732040 DELTAE    0.0370573
 CYCLE:    23 TIME:   0.015 TIME LEFT:  2.00W  GRAD.:     5.900 HEAT: -160.7321
 ITERATION   1 PLS= 0.460E-04 0.000E+00 ENERGY     -159.213488 DELTAE -259.2134878
 ITERATION   2 PLS= 0.605E-02 0.000E+00 ENERGY     -160.319237 DELTAE   -1.1057488
 ITERATION   3 PLS= 0.309E-02 0.000E+00 ENERGY     -160.529831 DELTAE   -0.2105945
 ITERATION   4 PLS= 0.157E-02 0.000E+00 ENERGY     -160.633763 DELTAE   -0.1039318
 ITERATION   5 PLS= 0.153E-03 0.000E+00 ENERGY     -160.581765 DELTAE    0.0519976
 ITERATION   1 PLS= 0.590E-04 0.000E+00 ENERGY     -160.244867 DELTAE -260.2448670
 ITERATION   2 PLS= 0.297E-02 0.000E+00 ENERGY     -160.533458 DELTAE   -0.2885906
 ITERATION   3 PLS= 0.150E-02 0.000E+00 ENERGY     -160.587579 DELTAE   -0.0541211
 ITERATION   4 PLS= 0.757E-03 0.000E+00 ENERGY     -160.612447 DELTAE   -0.0248684
 ITERATION   5 PLS= 0.672E-04 0.000E+00 ENERGY     -160.600775 DELTAE    0.0116725
 ITERATION   1 PLS= 0.304E-04 0.000E+00 ENERGY     -160.536388 DELTAE -260.5363879
 ITERATION   2 PLS= 0.153E-02 0.000E+00 ENERGY     -160.607730 DELTAE   -0.0713422
 ITERATION   3 PLS= 0.773E-03 0.000E+00 ENERGY     -160.621208 DELTAE   -0.0134783
 ITERATION   4 PLS= 0.391E-03 0.000E+00 ENERGY     -160.627668 DELTAE   -0.0064591
 ITERATION   1 PLS= 0.436E-04 0.000E+00 ENERGY     -160.572727 DELTAE -260.5727275
 ITERATION   2 PLS= 0.834E-03 0.000E+00 ENERGY     -160.591044 DELTAE   -0.0183161
 ITERATION   3 PLS= 0.419E-03 0.000E+00 ENERGY     -160.594522 DELTAE   -0.0034783
 ITERATION   4 PLS= 0.212E-03 0.000E+00 ENERGY     -160.596190 DELTAE   -0.0016681
 ITERATION   1 PLS= 0.144E-04 0.000E+00 ENERGY     -160.747421 DELTAE -260.7474209
 ITERATION   2 PLS= 0.154E-02 0.000E+00 ENERGY     -160.753552 DELTAE   -0.0061312
 ITERATION   3 PLS= 0.669E-03 0.000E+00 ENERGY     -160.754741 DELTAE   -0.0011890
 ITERATION   4 PLS= 0.313E-03 0.000E+00 ENERGY     -160.755362 DELTAE   -0.0006206
 CYCLE:    24 TIME:   0.063 TIME LEFT:  2.00W  GRAD.:     3.358 HEAT: -160.7551
 ITERATION   1 PLS= 0.408E-04 0.000E+00 ENERGY     -160.594961 DELTAE -260.5949612
 ITERATION   2 PLS= 0.168E-02 0.000E+00 ENERGY     -160.605239 DELTAE   -0.0102777
 ITERATION   3 PLS= 0.610E-03 0.000E+00 ENERGY     -160.607151 DELTAE   -0.0019126
 ITERATION   4 PLS= 0.233E-03 0.000E+00 ENERGY     -160.607973 DELTAE   -0.0008212
 ITERATION   1 PLS= 0.254E-04 0.000E+00 ENERGY     -160.595802 DELTAE -260.5958017
 ITERATION   2 PLS= 0.365E-03 0.000E+00 ENERGY     -160.598215 DELTAE   -0.0024136
 ITERATION   3 PLS= 0.182E-03 0.000E+00 ENERGY     -160.598698 DELTAE   -0.0004829
 ITERATION   4 PLS= 0.908E-04 0.000E+00 ENERGY     -160.598971 DELTAE   -0.0002729
 ITERATION   1 PLS= 0.179E-04 0.000E+00 ENERGY     -160.759225 DELTAE -260.7592248
 ITERATION   2 PLS= 0.156E-02 0.000E+00 ENERGY     -160.760921 DELTAE   -0.0016959
 ITERATION   3 PLS= 0.641E-03 0.000E+00 ENERGY     -160.761227 DELTAE   -0.0003059
 ITERATION   4 PLS= 0.284E-03 0.000E+00 ENERGY     -160.761377 DELTAE   -0.0001505
 CYCLE:    25 TIME:   0.030 TIME LEFT:  2.00W  GRAD.:     2.759 HEAT: -160.7613
 ITERATION   1 PLS= 0.336E-04 0.000E+00 ENERGY     -157.849423 DELTAE -257.8494233
 ITERATION   2 PLS= 0.856E-02 0.000E+00 ENERGY     -160.228895 DELTAE   -2.3794715
 ITERATION   3 PLS= 0.450E-02 0.000E+00 ENERGY     -160.692766 DELTAE   -0.4638708
 ITERATION   4 PLS= 0.231E-02 0.000E+00 ENERGY     -160.928150 DELTAE   -0.2353839
 ITERATION   5 PLS= 0.203E-03 0.000E+00 ENERGY     -160.811657 DELTAE    0.1164928
 ITERATION   6 PLS= 0.115E-03 0.000E+00 ENERGY     -160.811785 DELTAE   -0.0001283
 CYCLE:    26 TIME:   0.010 TIME LEFT:  2.00W  GRAD.:    11.144 HEAT: -160.8119
 ITERATION   1 PLS= 0.555E-04 0.000E+00 ENERGY     -160.796770 DELTAE -260.7967698
 ITERATION   2 PLS= 0.248E-02 0.000E+00 ENERGY     -160.842986 DELTAE   -0.0462160
 ITERATION   3 PLS= 0.122E-02 0.000E+00 ENERGY     -160.849663 DELTAE   -0.0066767
 ITERATION   4 PLS= 0.598E-03 0.000E+00 ENERGY     -160.852724 DELTAE   -0.0030618
 CYCLE:    27 TIME:   0.010 TIME LEFT:  2.00W  GRAD.:     5.945 HEAT: -160.8515
 ITERATION   1 PLS= 0.128E-03 0.000E+00 ENERGY     -160.787945 DELTAE -260.7879447
 ITERATION   2 PLS= 0.206E-02 0.000E+00 ENERGY     -160.839411 DELTAE   -0.0514660
 ITERATION   3 PLS= 0.110E-02 0.000E+00 ENERGY     -160.851810 DELTAE   -0.0123989
 ITERATION   4 PLS= 0.576E-03 0.000E+00 ENERGY     -160.860283 DELTAE   -0.0084733
 CYCLE:    28 TIME:   0.010 TIME LEFT:  2.00W  GRAD.:     4.083 HEAT: -160.8560
 ITERATION   1 PLS= 0.428E-04 0.000E+00 ENERGY     -160.810278 DELTAE -260.8102785
 ITERATION   2 PLS= 0.228E-02 0.000E+00 ENERGY     -160.868044 DELTAE   -0.0577654
 ITERATION   3 PLS= 0.121E-02 0.000E+00 ENERGY     -160.881850 DELTAE   -0.0138061
 ITERATION   4 PLS= 0.630E-03 0.000E+00 ENERGY     -160.890976 DELTAE   -0.0091262
 CYCLE:    29 TIME:   0.009 TIME LEFT:  2.00W  GRAD.:     3.548 HEAT: -160.8864
 ITERATION   1 PLS= 0.218E-04 0.000E+00 ENERGY     -160.613700 DELTAE -260.6137002
 ITERATION   2 PLS= 0.376E-02 0.000E+00 ENERGY     -160.816746 DELTAE   -0.2030460
 ITERATION   3 PLS= 0.202E-02 0.000E+00 ENERGY     -160.864657 DELTAE   -0.0479107
 ITERATION   4 PLS= 0.106E-02 0.000E+00 ENERGY     -160.896634 DELTAE   -0.0319776
 ITERATION   5 PLS= 0.460E-04 0.000E+00 ENERGY     -160.880045 DELTAE    0.0165895
 ITERATION   1 PLS= 0.256E-04 0.000E+00 ENERGY     -160.772042 DELTAE -260.7720416
 ITERATION   2 PLS= 0.195E-02 0.000E+00 ENERGY     -160.837638 DELTAE   -0.0655960
 ITERATION   3 PLS= 0.979E-03 0.000E+00 ENERGY     -160.852146 DELTAE   -0.0145084
 ITERATION   4 PLS= 0.496E-03 0.000E+00 ENERGY     -160.860915 DELTAE   -0.0087685
 ITERATION   1 PLS= 0.364E-04 0.000E+00 ENERGY     -160.884607 DELTAE -260.8846067
 ITERATION   2 PLS= 0.136E-02 0.000E+00 ENERGY     -160.902784 DELTAE   -0.0181772
 ITERATION   3 PLS= 0.684E-03 0.000E+00 ENERGY     -160.907191 DELTAE   -0.0044075
 ITERATION   4 PLS= 0.348E-03 0.000E+00 ENERGY     -160.910137 DELTAE   -0.0029460
 CYCLE:    30 TIME:   0.028 TIME LEFT:  2.00W  GRAD.:     3.561 HEAT: -160.9086
 ITERATION   1 PLS= 0.114E-04 0.000E+00 ENERGY     -160.892682 DELTAE -260.8926816
 ITERATION   2 PLS= 0.186E-02 0.000E+00 ENERGY     -160.943392 DELTAE   -0.0507105
 ITERATION   3 PLS= 0.950E-03 0.000E+00 ENERGY     -160.954096 DELTAE   -0.0107039
 ITERATION   4 PLS= 0.485E-03 0.000E+00 ENERGY     -160.960666 DELTAE   -0.0065696
 CYCLE:    31 TIME:   0.010 TIME LEFT:  2.00W  GRAD.:     2.541 HEAT: -160.9572
 ITERATION   1 PLS= 0.770E-04 0.000E+00 ENERGY     -160.916206 DELTAE -260.9162057
 ITERATION   2 PLS= 0.156E-02 0.000E+00 ENERGY     -160.957012 DELTAE   -0.0408066
 ITERATION   3 PLS= 0.844E-03 0.000E+00 ENERGY     -160.965961 DELTAE   -0.0089490
 ITERATION   4 PLS= 0.445E-03 0.000E+00 ENERGY     -160.971709 DELTAE   -0.0057473
 ITERATION   5 PLS= 0.343E-04 0.000E+00 ENERGY     -160.968617 DELTAE    0.0030912
 CYCLE:    32 TIME:   0.014 TIME LEFT:  2.00W  GRAD.:     2.008 HEAT: -160.9686
 ITERATION   1 PLS= 0.172E-04 0.000E+00 ENERGY     -160.937318 DELTAE -260.9373183
 ITERATION   2 PLS= 0.182E-02 0.000E+00 ENERGY     -160.979395 DELTAE   -0.0420766
 ITERATION   3 PLS= 0.954E-03 0.000E+00 ENERGY     -160.988970 DELTAE   -0.0095747
 ITERATION   4 PLS= 0.492E-03 0.000E+00 ENERGY     -160.995583 DELTAE   -0.0066133
 ITERATION   5 PLS= 0.228E-04 0.000E+00 ENERGY     -160.991916 DELTAE    0.0036665
 CYCLE:    33 TIME:   0.014 TIME LEFT:  2.00W  GRAD.:     1.411 HEAT: -160.9919
 ITERATION   1 PLS= 0.149E-04 0.000E+00 ENERGY     -160.951675 DELTAE -260.9516746
 ITERATION   2 PLS= 0.256E-02 0.000E+00 ENERGY     -161.028446 DELTAE   -0.0767713
 ITERATION   3 PLS= 0.134E-02 0.000E+00 ENERGY     -161.046067 DELTAE   -0.0176207
 ITERATION   4 PLS= 0.692E-03 0.000E+00 ENERGY     -161.057725 DELTAE   -0.0116581
 ITERATION   5 PLS= 0.453E-04 0.000E+00 ENERGY     -161.051500 DELTAE    0.0062244
 ITERATION   6 PLS= 0.265E-04 0.000E+00 ENERGY     -161.051506 DELTAE   -0.0000062
 CYCLE:    34 TIME:   0.015 TIME LEFT:  2.00W  GRAD.:     1.463 HEAT: -161.0515
 ITERATION   1 PLS= 0.148E-04 0.000E+00 ENERGY     -160.775772 DELTAE -260.7757721
 ITERATION   2 PLS= 0.309E-02 0.000E+00 ENERGY     -160.930581 DELTAE   -0.1548092
 ITERATION   3 PLS= 0.168E-02 0.000E+00 ENERGY     -160.965876 DELTAE   -0.0352944
 ITERATION   4 PLS= 0.886E-03 0.000E+00 ENERGY     -160.989027 DELTAE   -0.0231510
 ITERATION   5 PLS= 0.345E-04 0.000E+00 ENERGY     -160.976624 DELTAE    0.0124024
 ITERATION   6 PLS= 0.210E-04 0.000E+00 ENERGY     -160.976638 DELTAE   -0.0000132
 ITERATION   1 PLS= 0.115E-04 0.000E+00 ENERGY     -160.892523 DELTAE -260.8925233
 ITERATION   2 PLS= 0.201E-02 0.000E+00 ENERGY     -160.932783 DELTAE   -0.0402599
 ITERATION   3 PLS= 0.101E-02 0.000E+00 ENERGY     -160.941832 DELTAE   -0.0090491
 ITERATION   4 PLS= 0.509E-03 0.000E+00 ENERGY     -160.947291 DELTAE   -0.0054590
 ITERATION   5 PLS= 0.232E-04 0.000E+00 ENERGY     -160.944558 DELTAE    0.0027335
 ITERATION   1 PLS= 0.135E-04 0.000E+00 ENERGY     -160.927406 DELTAE -260.9274061
 ITERATION   2 PLS= 0.961E-03 0.000E+00 ENERGY     -160.937220 DELTAE   -0.0098135
 ITERATION   3 PLS= 0.490E-03 0.000E+00 ENERGY     -160.939463 DELTAE   -0.0022434
 ITERATION   4 PLS= 0.249E-03 0.000E+00 ENERGY     -160.940868 DELTAE   -0.0014047
 ITERATION   5 PLS= 0.141E-04 0.000E+00 ENERGY     -160.940150 DELTAE    0.0007178
 ITERATION   1 PLS= 0.796E-05 0.000E+00 ENERGY     -160.933746 DELTAE -260.9337456
 ITERATION   2 PLS= 0.468E-03 0.000E+00 ENERGY     -160.936214 DELTAE   -0.0024687
 ITERATION   3 PLS= 0.242E-03 0.000E+00 ENERGY     -160.936783 DELTAE   -0.0005691
 ITERATION   4 PLS= 0.124E-03 0.000E+00 ENERGY     -160.937150 DELTAE   -0.0003667
 ITERATION   1 PLS= 0.822E-05 0.000E+00 ENERGY     -160.934666 DELTAE -260.9346659
 ITERATION   2 PLS= 0.231E-03 0.000E+00 ENERGY     -160.935301 DELTAE   -0.0006351
 ITERATION   3 PLS= 0.121E-03 0.000E+00 ENERGY     -160.935448 DELTAE   -0.0001470
 ITERATION   4 PLS= 0.638E-04 0.000E+00 ENERGY     -160.935546 DELTAE   -0.0000981
 ITERATION   1 PLS= 0.517E-05 0.000E+00 ENERGY     -161.048962 DELTAE -261.0489624
 ITERATION   2 PLS= 0.958E-03 0.000E+00 ENERGY     -161.049617 DELTAE   -0.0006542
 ITERATION   3 PLS= 0.402E-03 0.000E+00 ENERGY     -161.049746 DELTAE   -0.0001295
 ITERATION   4 PLS= 0.182E-03 0.000E+00 ENERGY     -161.049817 DELTAE   -0.0000711
 CYCLE:    35 TIME:   0.078 TIME LEFT:  2.00W  GRAD.:     1.099 HEAT: -161.0498
 ITERATION   1 PLS= 0.198E-04 0.000E+00 ENERGY     -159.427885 DELTAE -259.4278846
 ITERATION   2 PLS= 0.106E-01 0.000E+00 ENERGY     -160.632653 DELTAE   -1.2047689
 ITERATION   3 PLS= 0.585E-02 0.000E+00 ENERGY     -160.904420 DELTAE   -0.2717666
 ITERATION   4 PLS= 0.310E-02 0.000E+00 ENERGY     -161.084411 DELTAE   -0.1799911
 ITERATION   5 PLS= 0.144E-03 0.000E+00 ENERGY     -160.986191 DELTAE    0.0982198
 ITERATION   6 PLS= 0.919E-04 0.000E+00 ENERGY     -160.986339 DELTAE   -0.0001476
 ITERATION   1 PLS= 0.498E-04 0.000E+00 ENERGY     -160.591069 DELTAE -260.5910692
 ITERATION   2 PLS= 0.634E-02 0.000E+00 ENERGY     -160.903535 DELTAE   -0.3124654
 ITERATION   3 PLS= 0.318E-02 0.000E+00 ENERGY     -160.973094 DELTAE   -0.0695591
 ITERATION   4 PLS= 0.160E-02 0.000E+00 ENERGY     -161.014179 DELTAE   -0.0410857
 ITERATION   5 PLS= 0.738E-04 0.000E+00 ENERGY     -160.993834 DELTAE    0.0203450
 ITERATION   6 PLS= 0.422E-04 0.000E+00 ENERGY     -160.993846 DELTAE   -0.0000113
 ITERATION   1 PLS= 0.249E-04 0.000E+00 ENERGY     -160.853394 DELTAE -260.8533944
 ITERATION   2 PLS= 0.291E-02 0.000E+00 ENERGY     -160.931365 DELTAE   -0.0779706
 ITERATION   3 PLS= 0.148E-02 0.000E+00 ENERGY     -160.948948 DELTAE   -0.0175830
 ITERATION   4 PLS= 0.757E-03 0.000E+00 ENERGY     -160.959681 DELTAE   -0.0107333
 ITERATION   5 PLS= 0.466E-04 0.000E+00 ENERGY     -160.954257 DELTAE    0.0054245
 ITERATION   6 PLS= 0.264E-04 0.000E+00 ENERGY     -160.954260 DELTAE   -0.0000033
 ITERATION   1 PLS= 0.152E-04 0.000E+00 ENERGY     -160.918388 DELTAE -260.9183880
 ITERATION   2 PLS= 0.136E-02 0.000E+00 ENERGY     -160.937618 DELTAE   -0.0192296
 ITERATION   3 PLS= 0.702E-03 0.000E+00 ENERGY     -160.942006 DELTAE   -0.0043886
 ITERATION   4 PLS= 0.361E-03 0.000E+00 ENERGY     -160.944757 DELTAE   -0.0027508
 ITERATION   5 PLS= 0.249E-04 0.000E+00 ENERGY     -160.943347 DELTAE    0.0014101
 ITERATION   6 PLS= 0.138E-04 0.000E+00 ENERGY     -160.943348 DELTAE   -0.0000009
 ITERATION   1 PLS= 0.784E-05 0.000E+00 ENERGY     -160.934758 DELTAE -260.9347579
 ITERATION   2 PLS= 0.653E-03 0.000E+00 ENERGY     -160.939500 DELTAE   -0.0047424
 ITERATION   3 PLS= 0.340E-03 0.000E+00 ENERGY     -160.940590 DELTAE   -0.0010897
 ITERATION   4 PLS= 0.177E-03 0.000E+00 ENERGY     -160.941286 DELTAE   -0.0006956
 ITERATION   5 PLS= 0.135E-04 0.000E+00 ENERGY     -160.940926 DELTAE    0.0003598
 ITERATION   1 PLS= 0.740E-05 0.000E+00 ENERGY     -160.935547 DELTAE -260.9355466
 ITERATION   2 PLS= 0.327E-03 0.000E+00 ENERGY     -160.936694 DELTAE   -0.0011474
 ITERATION   3 PLS= 0.172E-03 0.000E+00 ENERGY     -160.936957 DELTAE   -0.0002629
 ITERATION   4 PLS= 0.903E-04 0.000E+00 ENERGY     -160.937126 DELTAE   -0.0001690
 ITERATION   1 PLS= 0.845E-05 0.000E+00 ENERGY     -160.935497 DELTAE -260.9354974
 ITERATION   2 PLS= 0.147E-03 0.000E+00 ENERGY     -160.935759 DELTAE   -0.0002618
 ITERATION   3 PLS= 0.796E-04 0.000E+00 ENERGY     -160.935818 DELTAE   -0.0000584
 ITERATION   4 PLS= 0.430E-04 0.000E+00 ENERGY     -160.935854 DELTAE   -0.0000365
 ITERATION   1 PLS= 0.526E-05 0.000E+00 ENERGY     -160.935163 DELTAE -260.9351634
 ITERATION   2 PLS= 0.700E-04 0.000E+00 ENERGY     -160.935224 DELTAE   -0.0000605
 ITERATION   3 PLS= 0.351E-04 0.000E+00 ENERGY     -160.935237 DELTAE   -0.0000127
 ITERATION   4 PLS= 0.199E-04 0.000E+00 ENERGY     -160.935244 DELTAE   -0.0000075
 ITERATION   1 PLS= 0.371E-05 0.000E+00 ENERGY     -160.934922 DELTAE -260.9349219
 ITERATION   2 PLS= 0.468E-04 0.000E+00 ENERGY     -160.934937 DELTAE   -0.0000150
 ITERATION   3 PLS= 0.155E-04 0.000E+00 ENERGY     -160.934940 DELTAE   -0.0000029
 ITERATION   4 PLS= 0.940E-05 0.000E+00 ENERGY     -160.934942 DELTAE   -0.0000017
 ITERATION   1 PLS= 0.243E-05 0.000E+00 ENERGY     -161.049359 DELTAE -261.0493591
 ITERATION   2 PLS= 0.949E-03 0.000E+00 ENERGY     -161.049830 DELTAE   -0.0004707
 ITERATION   3 PLS= 0.405E-03 0.000E+00 ENERGY     -161.049922 DELTAE   -0.0000919
 ITERATION   4 PLS= 0.187E-03 0.000E+00 ENERGY     -161.049975 DELTAE   -0.0000536
 CYCLE:    36 TIME:   0.129 TIME LEFT:  2.00W  GRAD.:     1.053 HEAT: -161.0500
 ITERATION   1 PLS= 0.239E-04 0.000E+00 ENERGY     -158.028624 DELTAE -258.0286239
 ITERATION   2 PLS= 0.158E-01 0.000E+00 ENERGY     -160.293363 DELTAE   -2.2647390
 ITERATION   3 PLS= 0.873E-02 0.000E+00 ENERGY     -160.802894 DELTAE   -0.5095313
 ITERATION   4 PLS= 0.460E-02 0.000E+00 ENERGY     -161.143277 DELTAE   -0.3403825
 ITERATION   5 PLS= 0.182E-03 0.000E+00 ENERGY     -160.956015 DELTAE    0.1872621
 ITERATION   6 PLS= 0.123E-03 0.000E+00 ENERGY     -160.956327 DELTAE   -0.0003125
 ITERATION   7 PLS= 0.657E-04 0.000E+00 ENERGY     -160.956521 DELTAE   -0.0001933
 ITERATION   1 PLS= 0.415E-05 0.000E+00 ENERGY     -160.245190 DELTAE -260.2451900
 ITERATION   2 PLS= 0.968E-02 0.000E+00 ENERGY     -160.846835 DELTAE   -0.6016446
 ITERATION   3 PLS= 0.479E-02 0.000E+00 ENERGY     -160.979656 DELTAE   -0.1328214
 ITERATION   4 PLS= 0.237E-02 0.000E+00 ENERGY     -161.056644 DELTAE   -0.0769884
 ITERATION   5 PLS= 0.836E-04 0.000E+00 ENERGY     -161.019069 DELTAE    0.0375752
 ITERATION   6 PLS= 0.491E-04 0.000E+00 ENERGY     -161.019090 DELTAE   -0.0000204
 ITERATION   1 PLS= 0.296E-04 0.000E+00 ENERGY     -160.770202 DELTAE -260.7702021
 ITERATION   2 PLS= 0.420E-02 0.000E+00 ENERGY     -160.919762 DELTAE   -0.1495601
 ITERATION   3 PLS= 0.211E-02 0.000E+00 ENERGY     -160.953367 DELTAE   -0.0336045
 ITERATION   4 PLS= 0.106E-02 0.000E+00 ENERGY     -160.973553 DELTAE   -0.0201866
 ITERATION   5 PLS= 0.503E-04 0.000E+00 ENERGY     -160.963480 DELTAE    0.0100734
 ITERATION   6 PLS= 0.289E-04 0.000E+00 ENERGY     -160.963485 DELTAE   -0.0000053
 ITERATION   1 PLS= 0.168E-04 0.000E+00 ENERGY     -160.903170 DELTAE -260.9031697
 ITERATION   2 PLS= 0.198E-02 0.000E+00 ENERGY     -160.939864 DELTAE   -0.0366948
 ITERATION   3 PLS= 0.101E-02 0.000E+00 ENERGY     -160.948236 DELTAE   -0.0083712
 ITERATION   4 PLS= 0.514E-03 0.000E+00 ENERGY     -160.953419 DELTAE   -0.0051830
 ITERATION   5 PLS= 0.313E-04 0.000E+00 ENERGY     -160.950791 DELTAE    0.0026277
 ITERATION   6 PLS= 0.175E-04 0.000E+00 ENERGY     -160.950792 DELTAE   -0.0000014
 ITERATION   1 PLS= 0.993E-05 0.000E+00 ENERGY     -160.929855 DELTAE -260.9298554
 ITERATION   2 PLS= 0.929E-03 0.000E+00 ENERGY     -160.938619 DELTAE   -0.0087631
 ITERATION   3 PLS= 0.481E-03 0.000E+00 ENERGY     -160.940629 DELTAE   -0.0020101
 ITERATION   4 PLS= 0.249E-03 0.000E+00 ENERGY     -160.941898 DELTAE   -0.0012694
 ITERATION   5 PLS= 0.189E-04 0.000E+00 ENERGY     -160.941247 DELTAE    0.0006508
 ITERATION   1 PLS= 0.103E-04 0.000E+00 ENERGY     -160.937441 DELTAE -260.9374405
 ITERATION   2 PLS= 0.411E-03 0.000E+00 ENERGY     -160.939409 DELTAE   -0.0019684
 ITERATION   3 PLS= 0.218E-03 0.000E+00 ENERGY     -160.939854 DELTAE   -0.0004451
 ITERATION   4 PLS= 0.115E-03 0.000E+00 ENERGY     -160.940129 DELTAE   -0.0002749
 ITERATION   5 PLS= 0.103E-04 0.000E+00 ENERGY     -160.939991 DELTAE    0.0001380
 ITERATION   1 PLS= 0.554E-05 0.000E+00 ENERGY     -160.936014 DELTAE -260.9360135
 ITERATION   2 PLS= 0.188E-03 0.000E+00 ENERGY     -160.936453 DELTAE   -0.0004393
 ITERATION   3 PLS= 0.102E-03 0.000E+00 ENERGY     -160.936549 DELTAE   -0.0000959
 ITERATION   4 PLS= 0.551E-04 0.000E+00 ENERGY     -160.936606 DELTAE   -0.0000571
 ITERATION   1 PLS= 0.719E-05 0.000E+00 ENERGY     -160.935536 DELTAE -260.9355361
 ITERATION   2 PLS= 0.902E-04 0.000E+00 ENERGY     -160.935638 DELTAE   -0.0001020
 ITERATION   3 PLS= 0.450E-04 0.000E+00 ENERGY     -160.935659 DELTAE   -0.0000213
 ITERATION   4 PLS= 0.254E-04 0.000E+00 ENERGY     -160.935672 DELTAE   -0.0000123
 ITERATION   1 PLS= 0.463E-05 0.000E+00 ENERGY     -160.935196 DELTAE -260.9351956
 ITERATION   2 PLS= 0.552E-04 0.000E+00 ENERGY     -160.935221 DELTAE   -0.0000252
 ITERATION   3 PLS= 0.204E-04 0.000E+00 ENERGY     -160.935226 DELTAE   -0.0000051
 ITERATION   4 PLS= 0.121E-04 0.000E+00 ENERGY     -160.935229 DELTAE   -0.0000029
 ITERATION   1 PLS= 0.279E-05 0.000E+00 ENERGY     -160.935000 DELTAE -260.9349999
 ITERATION   2 PLS= 0.320E-04 0.000E+00 ENERGY     -160.935006 DELTAE   -0.0000065
 ITERATION   3 PLS= 0.104E-04 0.000E+00 ENERGY     -160.935008 DELTAE   -0.0000013
 ITERATION   4 PLS= 0.594E-05 0.000E+00 ENERGY     -160.935008 DELTAE   -0.0000007

     TRUST RADIUS NOW LESS THAN  0.00010 OPTIMIZATION TERMINATING
      THE GEOMETRY MAY NOT BE COMPLETELY OPTIMIZED
      (TO CONTINUE, ADD 'LET DDMIN=0.0' TO THE KEYWORD LINE)
 ITERATION   1 PLS= 0.162E-05 0.000E+00 ENERGY     -161.050457 DELTAE -261.0504569
 ITERATION   2 PLS= 0.108E-02 0.000E+00 ENERGY     -161.051332 DELTAE   -0.0008747
 ITERATION   3 PLS= 0.415E-03 0.000E+00 ENERGY     -161.051472 DELTAE   -0.0001402
 ITERATION   4 PLS= 0.174E-03 0.000E+00 ENERGY     -161.051532 DELTAE   -0.0000602

 -------------------------------------------------------------------------------
 PM7 CHARGE=0 SINGLET  AUX DUMP=30M ITRY=15000 eps=78.4 T=14D PL THREADS=40

 Mopac file generated by Gabedit


     GEOMETRY OPTIMISED USING EIGENVECTOR FOLLOWING (EF).     
     SCF FIELD WAS ACHIEVED                                   


                              PM7 CALCULATION
                                                       MOPAC v22.1.0 Linux
                                                       Sun Mar 24 01:27:31 2024




          FINAL HEAT OF FORMATION =       -161.05151 KCAL/MOL =    -673.83951 KJ/MOL
          VAN DER WAALS AREA      =        146.54 SQUARE ANGSTROMS



          DIELECTRIC ENERGY       =         -1.02305 EV
          COSMO AREA              =        146.54 SQUARE ANGSTROMS
          COSMO VOLUME            =        118.67 CUBIC ANGSTROMS

          GRADIENT NORM           =          1.46260          =       0.40565 PER ATOM
          IONIZATION POTENTIAL    =         11.735801 EV
          HOMO LUMO ENERGIES (EV) =        -11.736 -0.388
          NO. OF FILLED LEVELS    =         20
          MOLECULAR WEIGHT        =         97.0706         POINT GROUP:  C1  

          MOLECULAR DIMENSIONS (Angstroms)

            Atom       Atom       Distance
            H    11    O     6     8.03144
            H    13    O     7     3.08755
            H     3    H     4     1.77978


          SCF CALCULATIONS        =         73

          WALL-CLOCK TIME         =      1.001 SECONDS
          COMPUTATION TIME        =     12.949 SECONDS




   ATOM   CHEMICAL          X               Y               Z
  NUMBER   SYMBOL      (ANGSTROMS)     (ANGSTROMS)     (ANGSTROMS)

     1       C          0.52781568  *  -0.77705508  *   0.43277166  *
     2       H          0.84879254  *  -1.44668458  *  -0.39237604  *
     3       H          1.00008542  *   0.21492905  *   0.25429422  *
     4       H          0.93770299  *  -1.17700752  *   1.38396313  *
     5       N         -0.92134109  *  -0.63666579  *   0.48412086  *
     6       O         -1.46181868  *  -0.42899608  *   1.56109168  *
     7       O         -1.56445533  *  -0.71934256  *  -0.55260169  *
     8       H          4.18777412  *  -1.36812324  *   0.47068327  *
     9       O          3.24019593  *  -1.18847128  *   0.34009831  *
    10       H          3.16070186  *  -0.24618710  *   0.51822168  *
    11       H          6.24746707  *  -2.03104011  *  -0.02145145  *
    12       O          5.87178826  *  -1.52885246  *   0.71997602  *
    13       H          6.19618201  *  -0.62488989  *   0.57203716  *

                             CARTESIAN COORDINATES

   1    C        0.527815676    -0.777055085     0.432771660
   2    H        0.848792536    -1.446684583    -0.392376041
   3    H        1.000085416     0.214929052     0.254294215
   4    H        0.937702992    -1.177007522     1.383963135
   5    N       -0.921341088    -0.636665791     0.484120862
   6    O       -1.461818677    -0.428996076     1.561091677
   7    O       -1.564455327    -0.719342561    -0.552601688
   8    H        4.187774125    -1.368123237     0.470683273
   9    O        3.240195927    -1.188471284     0.340098313
  10    H        3.160701859    -0.246187103     0.518221677
  11    H        6.247467072    -2.031040111    -0.021451453
  12    O        5.871788264    -1.528852459     0.719976021
  13    H        6.196182009    -0.624889888     0.572037156


           Empirical Formula: C H7 N O4  =    13 atoms



      MOLECULAR POINT GROUP   :   C1  


                  EIGENVALUES  
 -37.41907 -30.74935 -29.68135 -28.78522 -27.78114 -23.04793 -18.49486 -18.43463
 -17.95611 -17.73846 -17.36231 -14.82074 -14.40732 -14.28546 -13.91347 -12.45680
 -12.24314 -12.02029 -11.90593 -11.73580  -0.38772   0.58132   3.78100   3.98948
   4.07408   4.73104   4.93916   5.10656   5.79209   6.39301   6.83355


              NET ATOMIC CHARGES AND DIPOLE CONTRIBUTIONS

  ATOM NO.   TYPE          CHARGE      No. of ELECS.   s-Pop       p-Pop       
    1          C          -0.397581        4.3976     1.08611     3.31147
    2          H           0.216664        0.7833     0.78334
    3          H           0.221775        0.7782     0.77823
    4          H           0.216602        0.7834     0.78340
    5          N           0.703182        4.2968     1.44773     2.84909
    6          O          -0.479549        6.4795     1.93990     4.53965
    7          O          -0.479803        6.4798     1.93988     4.53992
    8          H           0.375140        0.6249     0.62486
    9          O          -0.772145        6.7721     1.81846     4.95369
   10          H           0.368069        0.6319     0.63193
   11          H           0.383154        0.6168     0.61685
   12          O          -0.738722        6.7387     1.81597     4.92275
   13          H           0.383214        0.6168     0.61679
 DIPOLE           X         Y         Z       TOTAL
 POINT-CHG.     8.962     1.522    -1.249     9.176
 HYBRID        -0.066     0.371    -0.143     0.403
 SUM            8.896     1.893    -1.392     9.201


          ATOMIC ORBITAL ELECTRON POPULATIONS

     Atom    s        px        py        pz   
    1  C   1.08611   0.84501   1.22614   1.24033
    2  H   0.78334
    3  H   0.77823
    4  H   0.78340
    5  N   1.44773   1.01890   0.88833   0.94186
    6  O   1.93990   1.77571   1.56307   1.20087
    7  O   1.93988   1.70470   1.58443   1.25078
    8  H   0.62486
    9  O   1.81846   1.50979   1.47565   1.96825
   10  H   0.63193
   11  H   0.61685
   12  O   1.81597   1.82037   1.45228   1.65010
   13  H   0.61679

 **********************
 *                    *
 * JOB ENDED NORMALLY *
 *                    *
 **********************



 TOTAL JOB TIME:             1.00 SECONDS

 == MOPAC DONE ==
