 *******************************************************************************
 **                                                                           **
 **                              MOPAC v22.1.0                                **
 **                                                                           **
 *******************************************************************************
 **          Digital Object Identifier (DOI): 10.5281/zenodo.6511958          **
 **    Visit the DOI location for information on how to cite this program.    **
 *******************************************************************************

                              PM7 CALCULATION RESULTS

 *******************************************************************************
 *  CALCULATION DONE:                                Sun Mar 24 13:56:02 2024  *
 *  PM7        - The PM7 Hamiltonian to be used
 *  SINGLET    - SPIN STATE DEFINED AS A SINGLET
 *
 *
 *
 *                 CHARGE ON SYSTEM = 0
 *
 *
 *
 *  EPS=78.4   - USE ANDREAS KLAMT'S COSMO IMPLICIT SOLVATION MODEL
 *  THREADS    - USE A MAXIMUM OF 40 THREADS
 *  T=         - A TIME OF 14.0 DAYS REQUESTED
 *  DUMP=N     - RESTART FILE WRITTEN EVERY 30.0 MINUTES REQUESTED
 *  ITRY=      - DO A MAXIMUM OF 15000 ITERATIONS FOR SCF
 *  AUX        - OUTPUT AUXILIARY INFORMATION
 *  PL         - MONITOR CONVERGENCE IN DENSITY MATRIX
 *******************************************************************************
PM7 CHARGE=0 SINGLET AUX DUMP=30M ITRY=15000 eps=78.4 T=14D PL THREADS=40

 Mopac file generated by Gabedit
   ATOM   CHEMICAL          X               Y               Z
  NUMBER   SYMBOL      (ANGSTROMS)     (ANGSTROMS)     (ANGSTROMS)

     1       C          1.31229000  *   3.00108000  *   2.05717000  *
     2       C          1.68832000  *   1.67759000  *   1.83338000  *
     3       C          0.72277000  *   0.70811000  *   1.55688000  *
     4       C         -0.62856000  *   1.05868000  *   1.49581000  *
     5       C         -0.96783000  *   2.38393000  *   1.72042000  *
     6       C         -0.03114000  *   3.36882000  *   2.00383000  *
     7       H          2.07375000  *   3.75371000  *   2.27743000  *
     8       H          2.74592000  *   1.40172000  *   1.87873000  *
     9       H         -1.38939000  *   0.30344000  *   1.27473000  *
    10      Cl         -2.62631000  *   2.82243000  *   1.64653000  *
    11       H         -0.32732000  *   4.40531000  *   2.18290000  *
    12       C          1.15763000  *  -0.71845000  *   1.35286000  *
    13       C          0.45850000  *  -1.67465000  *   2.31071000  *
    14       H          0.79899000  *  -2.71278000  *   2.18394000  *
    15       H         -0.63483000  *  -1.66552000  *   2.20322000  *
    16       H          0.68703000  *  -1.39598000  *   3.35387000  *
    17       N          0.83908000  *  -1.11407000  *  -0.06187000  *
    18       O          1.77003000  *  -1.34854000  *  -0.81633000  *
    19       O         -0.32516000  *  -1.17964000  *  -0.42077000  *
    20       N          7.48074400  *  -1.24556100  *   2.26505400  *
    21       C          7.90245600  *  -2.48889900  *   1.57406800  *
    22       C          9.31908100  *  -2.93960900  *   1.97607000  *
    23       C         10.32506000  *  -1.81021000  *   1.71966700  *
    24       C          9.88378300  *  -0.51969400  *   2.42188300  *
    25       C          8.44907600  *  -0.15272000  *   2.00135500  *
    26       H          2.28288000  *  -0.81760000  *   1.48344000  *
    27       H          7.16123200  *  -3.28363100  *   1.80493100  *
    28       H          7.85236200  *  -2.31289500  *   0.47702200  *
    29       H          9.60440700  *  -3.84566400  *   1.41041700  *
    30       H          9.33655300  *  -3.23190800  *   3.04268100  *
    31       H         11.33070400  *  -2.10935400  *   2.07028800  *
    32       H         10.42403000  *  -1.63211600  *   0.63140200  *
    33       H         10.57485600  *   0.30797600  *   2.17861300  *
    34       H          9.93809700  *  -0.64441700  *   3.51949000  *
    35       H          8.10391400  *   0.75433800  *   2.54211600  *
    36       H          8.41708700  *   0.08896100  *   0.91592100  *
    37       H          7.41900400  *  -1.41633000  *   3.27491400  *
    38       H          4.51005600  *  -0.82554200  *   2.67379000  *
    39       H          5.73789600  *  -1.53522200  *   2.08271000  *
    40       O          4.76156600  *  -1.58037200  *   2.14070000  *



          CARTESIAN COORDINATES 

    NO.       ATOM           X           Y           Z

     1         C          1.3123      3.0011      2.0572
     2         C          1.6883      1.6776      1.8334
     3         C          0.7228      0.7081      1.5569
     4         C         -0.6286      1.0587      1.4958
     5         C         -0.9678      2.3839      1.7204
     6         C         -0.0311      3.3688      2.0038
     7         H          2.0737      3.7537      2.2774
     8         H          2.7459      1.4017      1.8787
     9         H         -1.3894      0.3034      1.2747
    10        Cl         -2.6263      2.8224      1.6465
    11         H         -0.3273      4.4053      2.1829
    12         C          1.1576     -0.7185      1.3529
    13         C          0.4585     -1.6747      2.3107
    14         H          0.7990     -2.7128      2.1839
    15         H         -0.6348     -1.6655      2.2032
    16         H          0.6870     -1.3960      3.3539
    17         N          0.8391     -1.1141     -0.0619
    18         O          1.7700     -1.3485     -0.8163
    19         O         -0.3252     -1.1796     -0.4208
    20         N          7.4807     -1.2456      2.2651
    21         C          7.9025     -2.4889      1.5741
    22         C          9.3191     -2.9396      1.9761
    23         C         10.3251     -1.8102      1.7197
    24         C          9.8838     -0.5197      2.4219
    25         C          8.4491     -0.1527      2.0014
    26         H          2.2829     -0.8176      1.4834
    27         H          7.1612     -3.2836      1.8049
    28         H          7.8524     -2.3129      0.4770
    29         H          9.6044     -3.8457      1.4104
    30         H          9.3366     -3.2319      3.0427
    31         H         11.3307     -2.1094      2.0703
    32         H         10.4240     -1.6321      0.6314
    33         H         10.5749      0.3080      2.1786
    34         H          9.9381     -0.6444      3.5195
    35         H          8.1039      0.7543      2.5421
    36         H          8.4171      0.0890      0.9159
    37         H          7.4190     -1.4163      3.2749
    38         H          4.5101     -0.8255      2.6738
    39         H          5.7379     -1.5352      2.0827
    40         O          4.7616     -1.5804      2.1407

 General Reference for PM7:
 "Optimization of Parameters for Semiempirical Methods VI: More Modifications to the 
 NDDO Approximations and Re-optimization of Parameters", J. J. P. Stewart, J. Mol. Mod., 1:32, 19 (2013)
 https://link.springer.com/article/10.1007/s00894-012-1667-x

           Empirical Formula: C13 H21 N2 O3 Cl  =    40 atoms



      MOLECULAR POINT GROUP   :   C1  


 SINGLET STATE CALCULATION


      RHF CALCULATION, NO. OF DOUBLY OCCUPIED LEVELS = 54


          Geometry optimization using L-BFGS
 ITERATION   1 PLS= 0.100E+01 0.000E+00 ENERGY    17493.214668 DELTAE    0.0000000
 ITERATION   2 PLS= 0.117E+01 0.000E+00 ENERGY       97.970436 DELTAE    0.0000000
 ITERATION   3 PLS= 0.975E-01 0.000E+00 ENERGY        3.142254 DELTAE  -94.8281825
 ITERATION   4 PLS= 0.699E-01 0.000E+00 ENERGY     -188.782440 DELTAE -191.9246941
 ITERATION   5 PLS= 0.220E-01 0.000E+00 ENERGY      -74.874332 DELTAE  113.9081087
 ITERATION   6 PLS= 0.114E-01 0.000E+00 ENERGY      -77.091372 DELTAE   -2.2170405
 ITERATION   7 PLS= 0.252E-01 0.000E+00 ENERGY      -90.728554 DELTAE  -13.6371820
 ITERATION   8 PLS= 0.157E-01 0.000E+00 ENERGY      -80.950049 DELTAE    9.7785050
 ITERATION   9 PLS= 0.627E-02 0.000E+00 ENERGY      -81.082044 DELTAE   -0.1319950
 ITERATION  10 PLS= 0.251E-02 0.000E+00 ENERGY      -81.145783 DELTAE   -0.0637387
 ITERATION  11 PLS= 0.626E-03 0.000E+00 ENERGY      -81.114615 DELTAE    0.0311680
 ITERATION  12 PLS= 0.344E-03 0.000E+00 ENERGY      -81.114806 DELTAE   -0.0001917
 ITERATION  13 PLS= 0.200E-03 0.000E+00 ENERGY      -81.114994 DELTAE   -0.0001873
 ITERATION  14 PLS= 0.933E-04 0.000E+00 ENERGY      -81.114893 DELTAE    0.0001006
 ITERATION   1 PLS= 0.552E-04 0.000E+00 ENERGY      -95.157590 DELTAE -195.1575904
 ITERATION   2 PLS= 0.262E-01 0.000E+00 ENERGY      -96.654413 DELTAE   -1.4968222
 ITERATION   3 PLS= 0.103E-01 0.000E+00 ENERGY      -96.950026 DELTAE   -0.2956129
 ITERATION   4 PLS= 0.505E-02 0.000E+00 ENERGY      -97.209237 DELTAE   -0.2592112
 ITERATION   5 PLS= 0.113E-02 0.000E+00 ENERGY      -97.078624 DELTAE    0.1306130
 ITERATION   6 PLS= 0.833E-03 0.000E+00 ENERGY      -97.079783 DELTAE   -0.0011589
 ITERATION   7 PLS= 0.627E-03 0.000E+00 ENERGY      -97.083710 DELTAE   -0.0039273
 ITERATION   8 PLS= 0.116E-03 0.000E+00 ENERGY      -97.080861 DELTAE    0.0028487
 ITERATION   9 PLS= 0.865E-04 0.000E+00 ENERGY      -97.080882 DELTAE   -0.0000208
 CYCLE:     1 TIME:   0.277 TIME LEFT:  2.00W  GRAD.:    18.789 HEAT: -97.08093
 ITERATION   1 PLS= 0.656E-04 0.000E+00 ENERGY      -97.084365 DELTAE -197.0843654
 ITERATION   2 PLS= 0.440E-04 0.000E+00 ENERGY      -97.084336 DELTAE    0.0000292
 ITERATION   3 PLS= 0.193E-04 0.000E+00 ENERGY      -97.084337 DELTAE   -0.0000012
 ITERATION   4 PLS= 0.958E-05 0.000E+00 ENERGY      -97.084339 DELTAE   -0.0000012
 CYCLE:     2 TIME:   0.113 TIME LEFT:  2.00W  GRAD.:    18.677 HEAT: -97.08434
 ITERATION   1 PLS= 0.396E-05 0.000E+00 ENERGY      -97.225991 DELTAE -197.2259914
 ITERATION   2 PLS= 0.105E-01 0.000E+00 ENERGY      -97.527002 DELTAE   -0.3010110
 ITERATION   3 PLS= 0.459E-02 0.000E+00 ENERGY      -97.577186 DELTAE   -0.0501832
 ITERATION   4 PLS= 0.207E-02 0.000E+00 ENERGY      -97.605443 DELTAE   -0.0282572
 ITERATION   5 PLS= 0.241E-03 0.000E+00 ENERGY      -97.591377 DELTAE    0.0140657
 CYCLE:     3 TIME:   0.070 TIME LEFT:  2.00W  GRAD.:    17.428 HEAT: -97.59143
 ITERATION   1 PLS= 0.142E-03 0.000E+00 ENERGY      -97.324244 DELTAE -197.3242444
 ITERATION   2 PLS= 0.969E-02 0.000E+00 ENERGY      -97.627713 DELTAE   -0.3034682
 ITERATION   3 PLS= 0.327E-02 0.000E+00 ENERGY      -97.659242 DELTAE   -0.0315299
 ITERATION   4 PLS= 0.150E-02 0.000E+00 ENERGY      -97.675004 DELTAE   -0.0157614
 CYCLE:     4 TIME:   0.066 TIME LEFT:  2.00W  GRAD.:    37.844 HEAT: -97.66775
 ITERATION   1 PLS= 0.290E-03 0.000E+00 ENERGY      -97.805157 DELTAE -197.8051569
 ITERATION   2 PLS= 0.521E-02 0.000E+00 ENERGY      -97.865130 DELTAE   -0.0599727
 ITERATION   3 PLS= 0.170E-02 0.000E+00 ENERGY      -97.869101 DELTAE   -0.0039710
 ITERATION   4 PLS= 0.751E-03 0.000E+00 ENERGY      -97.870549 DELTAE   -0.0014482
 CYCLE:     5 TIME:   0.062 TIME LEFT:  2.00W  GRAD.:    17.664 HEAT: -97.86995
 ITERATION   1 PLS= 0.118E-03 0.000E+00 ENERGY      -97.975171 DELTAE -197.9751709
 ITERATION   2 PLS= 0.399E-02 0.000E+00 ENERGY      -98.036195 DELTAE   -0.0610244
 ITERATION   3 PLS= 0.136E-02 0.000E+00 ENERGY      -98.043464 DELTAE   -0.0072684
 ITERATION   4 PLS= 0.619E-03 0.000E+00 ENERGY      -98.047288 DELTAE   -0.0038239
 CYCLE:     6 TIME:   0.121 TIME LEFT:  2.00W  GRAD.:    13.447 HEAT: -98.04548
 ITERATION   1 PLS= 0.107E-03 0.000E+00 ENERGY      -98.139259 DELTAE -198.1392587
 ITERATION   2 PLS= 0.209E-02 0.000E+00 ENERGY      -98.204996 DELTAE   -0.0657374
 ITERATION   3 PLS= 0.901E-03 0.000E+00 ENERGY      -98.216209 DELTAE   -0.0112126
 ITERATION   4 PLS= 0.473E-03 0.000E+00 ENERGY      -98.222752 DELTAE   -0.0065436
 CYCLE:     7 TIME:   0.062 TIME LEFT:  2.00W  GRAD.:    18.678 HEAT: -98.21941
 ITERATION   1 PLS= 0.982E-04 0.000E+00 ENERGY      -98.315210 DELTAE -198.3152099
 ITERATION   2 PLS= 0.368E-02 0.000E+00 ENERGY      -98.502113 DELTAE   -0.1869030
 ITERATION   3 PLS= 0.183E-02 0.000E+00 ENERGY      -98.536525 DELTAE   -0.0344118
 ITERATION   4 PLS= 0.903E-03 0.000E+00 ENERGY      -98.554842 DELTAE   -0.0183171
 CYCLE:     8 TIME:   0.062 TIME LEFT:  2.00W  GRAD.:    21.381 HEAT: -98.54593
 ITERATION   1 PLS= 0.782E-04 0.000E+00 ENERGY      -98.026698 DELTAE -198.0266977
 ITERATION   2 PLS= 0.798E-02 0.000E+00 ENERGY      -98.554312 DELTAE   -0.5276141
 ITERATION   3 PLS= 0.393E-02 0.000E+00 ENERGY      -98.639604 DELTAE   -0.0852921
 ITERATION   4 PLS= 0.191E-02 0.000E+00 ENERGY      -98.684684 DELTAE   -0.0450799
 ITERATION   5 PLS= 0.132E-03 0.000E+00 ENERGY      -98.662249 DELTAE    0.0224344
 CYCLE:     9 TIME:   0.070 TIME LEFT:  2.00W  GRAD.:    39.423 HEAT: -98.66230
 ITERATION   1 PLS= 0.648E-04 0.000E+00 ENERGY      -98.742056 DELTAE -198.7420556
 ITERATION   2 PLS= 0.303E-02 0.000E+00 ENERGY      -98.907008 DELTAE   -0.1649527
 ITERATION   3 PLS= 0.144E-02 0.000E+00 ENERGY      -98.929336 DELTAE   -0.0223282
 ITERATION   4 PLS= 0.753E-03 0.000E+00 ENERGY      -98.940821 DELTAE   -0.0114843
 CYCLE:    10 TIME:   0.062 TIME LEFT:  2.00W  GRAD.:    10.740 HEAT: -98.93507
 ITERATION   1 PLS= 0.104E-03 0.000E+00 ENERGY      -98.966201 DELTAE -198.9662009
 ITERATION   2 PLS= 0.141E-02 0.000E+00 ENERGY      -98.978744 DELTAE   -0.0125429
 ITERATION   3 PLS= 0.790E-03 0.000E+00 ENERGY      -98.980734 DELTAE   -0.0019898
 ITERATION   4 PLS= 0.441E-03 0.000E+00 ENERGY      -98.982041 DELTAE   -0.0013071
 CYCLE:    11 TIME:   0.066 TIME LEFT:  2.00W  GRAD.:     6.874 HEAT: -98.98137
 ITERATION   1 PLS= 0.682E-04 0.000E+00 ENERGY      -99.075186 DELTAE -199.0751861
 ITERATION   2 PLS= 0.315E-02 0.000E+00 ENERGY      -99.097179 DELTAE   -0.0219925
 ITERATION   3 PLS= 0.172E-02 0.000E+00 ENERGY      -99.101653 DELTAE   -0.0044743
 ITERATION   4 PLS= 0.941E-03 0.000E+00 ENERGY      -99.104963 DELTAE   -0.0033100
 CYCLE:    12 TIME:   0.062 TIME LEFT:  2.00W  GRAD.:     8.157 HEAT: -99.10322
 ITERATION   1 PLS= 0.114E-03 0.000E+00 ENERGY      -99.123135 DELTAE -199.1231349
 ITERATION   2 PLS= 0.417E-02 0.000E+00 ENERGY      -99.149272 DELTAE   -0.0261372
 ITERATION   3 PLS= 0.219E-02 0.000E+00 ENERGY      -99.155269 DELTAE   -0.0059973
 ITERATION   4 PLS= 0.115E-02 0.000E+00 ENERGY      -99.159530 DELTAE   -0.0042606
 CYCLE:    13 TIME:   0.062 TIME LEFT:  2.00W  GRAD.:     9.838 HEAT: -99.15732
 ITERATION   1 PLS= 0.746E-04 0.000E+00 ENERGY      -98.911720 DELTAE -198.9117198
 ITERATION   2 PLS= 0.122E-01 0.000E+00 ENERGY      -99.149282 DELTAE   -0.2375626
 ITERATION   3 PLS= 0.625E-02 0.000E+00 ENERGY      -99.204964 DELTAE   -0.0556820
 ITERATION   4 PLS= 0.322E-02 0.000E+00 ENERGY      -99.243814 DELTAE   -0.0388497
 ITERATION   5 PLS= 0.867E-04 0.000E+00 ENERGY      -99.223876 DELTAE    0.0199384
 CYCLE:    14 TIME:   0.070 TIME LEFT:  2.00W  GRAD.:    14.824 HEAT: -99.22389
 ITERATION   1 PLS= 0.403E-04 0.000E+00 ENERGY      -99.119449 DELTAE -199.1194489
 ITERATION   2 PLS= 0.101E-01 0.000E+00 ENERGY      -99.305996 DELTAE   -0.1865474
 ITERATION   3 PLS= 0.506E-02 0.000E+00 ENERGY      -99.349321 DELTAE   -0.0433250
 ITERATION   4 PLS= 0.255E-02 0.000E+00 ENERGY      -99.379726 DELTAE   -0.0304048
 ITERATION   5 PLS= 0.806E-04 0.000E+00 ENERGY      -99.364049 DELTAE    0.0156767
 CYCLE:    15 TIME:   0.074 TIME LEFT:  2.00W  GRAD.:    10.368 HEAT: -99.36406
 ITERATION   1 PLS= 0.523E-04 0.000E+00 ENERGY      -99.233004 DELTAE -199.2330044
 ITERATION   2 PLS= 0.714E-02 0.000E+00 ENERGY      -99.336141 DELTAE   -0.1031365
 ITERATION   3 PLS= 0.383E-02 0.000E+00 ENERGY      -99.361102 DELTAE   -0.0249609
 ITERATION   4 PLS= 0.204E-02 0.000E+00 ENERGY      -99.379887 DELTAE   -0.0187856
 CYCLE:    16 TIME:   0.062 TIME LEFT:  2.00W  GRAD.:     9.375 HEAT: -99.36998
 ITERATION   1 PLS= 0.130E-03 0.000E+00 ENERGY      -99.261221 DELTAE -199.2612207
 ITERATION   2 PLS= 0.103E-01 0.000E+00 ENERGY      -99.442499 DELTAE   -0.1812785
 ITERATION   3 PLS= 0.512E-02 0.000E+00 ENERGY      -99.486535 DELTAE   -0.0440356
 ITERATION   4 PLS= 0.270E-02 0.000E+00 ENERGY      -99.518363 DELTAE   -0.0318282
 ITERATION   5 PLS= 0.144E-03 0.000E+00 ENERGY      -99.501870 DELTAE    0.0164927
 CYCLE:    17 TIME:   0.070 TIME LEFT:  2.00W  GRAD.:     8.248 HEAT: -99.50188
 ITERATION   1 PLS= 0.675E-04 0.000E+00 ENERGY      -99.166973 DELTAE -199.1669727
 ITERATION   2 PLS= 0.105E-01 0.000E+00 ENERGY      -99.427103 DELTAE   -0.2601300
 ITERATION   3 PLS= 0.549E-02 0.000E+00 ENERGY      -99.487095 DELTAE   -0.0599928
 ITERATION   4 PLS= 0.292E-02 0.000E+00 ENERGY      -99.529519 DELTAE   -0.0424234
 ITERATION   5 PLS= 0.139E-03 0.000E+00 ENERGY      -99.507267 DELTAE    0.0222518
 CYCLE:    18 TIME:   0.066 TIME LEFT:  2.00W  GRAD.:    18.021 HEAT: -99.50729
 ITERATION   1 PLS= 0.655E-04 0.000E+00 ENERGY      -99.556678 DELTAE -199.5566777
 ITERATION   2 PLS= 0.107E-02 0.000E+00 ENERGY      -99.577681 DELTAE   -0.0210029
 ITERATION   3 PLS= 0.606E-03 0.000E+00 ENERGY      -99.580613 DELTAE   -0.0029326
 ITERATION   4 PLS= 0.337E-03 0.000E+00 ENERGY      -99.582075 DELTAE   -0.0014621
 CYCLE:    19 TIME:   0.062 TIME LEFT:  2.00W  GRAD.:     5.823 HEAT: -99.58126
 ITERATION   1 PLS= 0.579E-04 0.000E+00 ENERGY      -99.593907 DELTAE -199.5939071
 ITERATION   2 PLS= 0.191E-02 0.000E+00 ENERGY      -99.603075 DELTAE   -0.0091675
 ITERATION   3 PLS= 0.101E-02 0.000E+00 ENERGY      -99.605050 DELTAE   -0.0019752
 ITERATION   4 PLS= 0.534E-03 0.000E+00 ENERGY      -99.606450 DELTAE   -0.0014006
 CYCLE:    20 TIME:   0.062 TIME LEFT:  2.00W  GRAD.:     4.776 HEAT: -99.60571
 ITERATION   1 PLS= 0.582E-04 0.000E+00 ENERGY      -99.447917 DELTAE -199.4479174
 ITERATION   2 PLS= 0.771E-02 0.000E+00 ENERGY      -99.546744 DELTAE   -0.0988267
 ITERATION   3 PLS= 0.392E-02 0.000E+00 ENERGY      -99.570916 DELTAE   -0.0241719
 ITERATION   4 PLS= 0.202E-02 0.000E+00 ENERGY      -99.587876 DELTAE   -0.0169604
 CYCLE:    21 TIME:   0.109 TIME LEFT:  2.00W  GRAD.:     5.536 HEAT: -99.57924
 ITERATION   1 PLS= 0.755E-04 0.000E+00 ENERGY      -99.357318 DELTAE -199.3573177
 ITERATION   2 PLS= 0.103E-01 0.000E+00 ENERGY      -99.533842 DELTAE   -0.1765246
 ITERATION   3 PLS= 0.523E-02 0.000E+00 ENERGY      -99.577504 DELTAE   -0.0436612
 ITERATION   4 PLS= 0.267E-02 0.000E+00 ENERGY      -99.608171 DELTAE   -0.0306673
 ITERATION   5 PLS= 0.922E-04 0.000E+00 ENERGY      -99.592622 DELTAE    0.0155490
 CYCLE:    22 TIME:   0.066 TIME LEFT:  2.00W  GRAD.:     6.247 HEAT: -99.59263
 ITERATION   1 PLS= 0.475E-04 0.000E+00 ENERGY      -99.017737 DELTAE -199.0177366
 ITERATION   2 PLS= 0.187E-01 0.000E+00 ENERGY      -99.661441 DELTAE   -0.6437048
 ITERATION   3 PLS= 0.908E-02 0.000E+00 ENERGY      -99.813123 DELTAE   -0.1516817
 ITERATION   4 PLS= 0.452E-02 0.000E+00 ENERGY      -99.917442 DELTAE   -0.1043187
 ITERATION   5 PLS= 0.117E-03 0.000E+00 ENERGY      -99.865314 DELTAE    0.0521273
 CYCLE:    23 TIME:   0.070 TIME LEFT:  2.00W  GRAD.:    17.107 HEAT: -99.86539
 ITERATION   1 PLS= 0.458E-04 0.000E+00 ENERGY      -99.850930 DELTAE -199.8509302
 ITERATION   2 PLS= 0.372E-02 0.000E+00 ENERGY      -99.908443 DELTAE   -0.0575126
 ITERATION   3 PLS= 0.195E-02 0.000E+00 ENERGY      -99.918633 DELTAE   -0.0101904
 ITERATION   4 PLS= 0.102E-02 0.000E+00 ENERGY      -99.925196 DELTAE   -0.0065629
 CYCLE:    24 TIME:   0.062 TIME LEFT:  2.00W  GRAD.:     4.451 HEAT: -99.92200
 ITERATION   1 PLS= 0.464E-04 0.000E+00 ENERGY      -99.940687 DELTAE -199.9406874
 ITERATION   2 PLS= 0.190E-02 0.000E+00 ENERGY      -99.948702 DELTAE   -0.0080142
 ITERATION   3 PLS= 0.955E-03 0.000E+00 ENERGY      -99.950547 DELTAE   -0.0018459
 ITERATION   4 PLS= 0.482E-03 0.000E+00 ENERGY      -99.951815 DELTAE   -0.0012676
 CYCLE:    25 TIME:   0.066 TIME LEFT:  2.00W  GRAD.:     4.106 HEAT: -99.95117
 ITERATION   1 PLS= 0.161E-04 0.000E+00 ENERGY      -99.859029 DELTAE -199.8590291
 ITERATION   2 PLS= 0.569E-02 0.000E+00 ENERGY      -99.958555 DELTAE   -0.0995256
 ITERATION   3 PLS= 0.287E-02 0.000E+00 ENERGY      -99.980060 DELTAE   -0.0215051
 ITERATION   4 PLS= 0.145E-02 0.000E+00 ENERGY      -99.993695 DELTAE   -0.0136351
 CYCLE:    26 TIME:   0.062 TIME LEFT:  2.00W  GRAD.:     7.431 HEAT: -99.98679
 ITERATION   1 PLS= 0.531E-04 0.000E+00 ENERGY      -99.191945 DELTAE -199.1919450
 ITERATION   2 PLS= 0.164E-01 0.000E+00 ENERGY      -99.828424 DELTAE   -0.6364786
 ITERATION   3 PLS= 0.855E-02 0.000E+00 ENERGY      -99.979306 DELTAE   -0.1508827
 ITERATION   4 PLS= 0.457E-02 0.000E+00 ENERGY     -100.084420 DELTAE   -0.1051132
 ITERATION   5 PLS= 0.294E-03 0.000E+00 ENERGY     -100.030143 DELTAE    0.0542765
 CYCLE:    27 TIME:   0.070 TIME LEFT:  2.00W  GRAD.:    13.507 HEAT: -100.0302
 ITERATION   1 PLS= 0.106E-03 0.000E+00 ENERGY      -99.872401 DELTAE -199.8724007
 ITERATION   2 PLS= 0.611E-02 0.000E+00 ENERGY      -99.987774 DELTAE   -0.1153731
 ITERATION   3 PLS= 0.344E-02 0.000E+00 ENERGY     -100.012841 DELTAE   -0.0250675
 ITERATION   4 PLS= 0.188E-02 0.000E+00 ENERGY     -100.030759 DELTAE   -0.0179179
 CYCLE:    28 TIME:   0.066 TIME LEFT:  2.00W  GRAD.:     8.165 HEAT: -100.0215
 ITERATION   1 PLS= 0.196E-03 0.000E+00 ENERGY     -100.006432 DELTAE -200.0064319
 ITERATION   2 PLS= 0.334E-02 0.000E+00 ENERGY     -100.040605 DELTAE   -0.0341734
 ITERATION   3 PLS= 0.168E-02 0.000E+00 ENERGY     -100.048028 DELTAE   -0.0074226
 ITERATION   4 PLS= 0.847E-03 0.000E+00 ENERGY     -100.052865 DELTAE   -0.0048366
 CYCLE:    29 TIME:   0.066 TIME LEFT:  2.00W  GRAD.:     4.868 HEAT: -100.0504
 ITERATION   1 PLS= 0.451E-04 0.000E+00 ENERGY      -99.747157 DELTAE -199.7471566
 ITERATION   2 PLS= 0.102E-01 0.000E+00 ENERGY     -100.028176 DELTAE   -0.2810196
 ITERATION   3 PLS= 0.495E-02 0.000E+00 ENERGY     -100.094140 DELTAE   -0.0659636
 ITERATION   4 PLS= 0.249E-02 0.000E+00 ENERGY     -100.138127 DELTAE   -0.0439875
 ITERATION   5 PLS= 0.661E-04 0.000E+00 ENERGY     -100.115755 DELTAE    0.0223725
 CYCLE:    30 TIME:   0.074 TIME LEFT:  2.00W  GRAD.:     6.265 HEAT: -100.1158
 ITERATION   1 PLS= 0.338E-04 0.000E+00 ENERGY     -100.027440 DELTAE -200.0274404
 ITERATION   2 PLS= 0.441E-02 0.000E+00 ENERGY     -100.089151 DELTAE   -0.0617102
 ITERATION   3 PLS= 0.220E-02 0.000E+00 ENERGY     -100.103433 DELTAE   -0.0142827
 ITERATION   4 PLS= 0.111E-02 0.000E+00 ENERGY     -100.112728 DELTAE   -0.0092950
 CYCLE:    31 TIME:   0.066 TIME LEFT:  2.00W  GRAD.:     6.363 HEAT: -100.1081
 ITERATION   1 PLS= 0.521E-04 0.000E+00 ENERGY      -99.077270 DELTAE -199.0772698
 ITERATION   2 PLS= 0.137E-01 0.000E+00 ENERGY      -99.724490 DELTAE   -0.6472203
 ITERATION   3 PLS= 0.682E-02 0.000E+00 ENERGY      -99.877423 DELTAE   -0.1529333
 ITERATION   4 PLS= 0.354E-02 0.000E+00 ENERGY      -99.980006 DELTAE   -0.1025828
 ITERATION   5 PLS= 0.110E-03 0.000E+00 ENERGY      -99.927974 DELTAE    0.0520326
 CYCLE:    32 TIME:   0.066 TIME LEFT:  2.00W  GRAD.:    11.846 HEAT: -99.92802
 ITERATION   1 PLS= 0.574E-04 0.000E+00 ENERGY      -99.757446 DELTAE -199.7574460
 ITERATION   2 PLS= 0.645E-02 0.000E+00 ENERGY      -99.943447 DELTAE   -0.1860008
 ITERATION   3 PLS= 0.379E-02 0.000E+00 ENERGY      -99.983435 DELTAE   -0.0399884
 ITERATION   4 PLS= 0.212E-02 0.000E+00 ENERGY     -100.012491 DELTAE   -0.0290554
 ITERATION   5 PLS= 0.227E-03 0.000E+00 ENERGY      -99.996705 DELTAE    0.0157850
 CYCLE:    33 TIME:   0.070 TIME LEFT:  2.00W  GRAD.:     7.929 HEAT: -99.99673
 ITERATION   1 PLS= 0.959E-04 0.000E+00 ENERGY      -99.993021 DELTAE -199.9930207
 ITERATION   2 PLS= 0.118E-02 0.000E+00 ENERGY     -100.006101 DELTAE   -0.0130800
 ITERATION   3 PLS= 0.583E-03 0.000E+00 ENERGY     -100.008623 DELTAE   -0.0025222
 ITERATION   4 PLS= 0.368E-03 0.000E+00 ENERGY     -100.011023 DELTAE   -0.0023997
 CYCLE:    34 TIME:   0.066 TIME LEFT:  2.00W  GRAD.:     4.417 HEAT: -100.0098
 ITERATION   1 PLS= 0.980E-04 0.000E+00 ENERGY     -100.019178 DELTAE -200.0191777
 ITERATION   2 PLS= 0.786E-03 0.000E+00 ENERGY     -100.022748 DELTAE   -0.0035699
 ITERATION   3 PLS= 0.432E-03 0.000E+00 ENERGY     -100.023392 DELTAE   -0.0006448
 ITERATION   4 PLS= 0.234E-03 0.000E+00 ENERGY     -100.023806 DELTAE   -0.0004131
 CYCLE:    35 TIME:   0.062 TIME LEFT:  2.00W  GRAD.:     3.112 HEAT: -100.0236
 ITERATION   1 PLS= 0.212E-04 0.000E+00 ENERGY      -99.994044 DELTAE -199.9940440
 ITERATION   2 PLS= 0.277E-02 0.000E+00 ENERGY     -100.021359 DELTAE   -0.0273153
 ITERATION   3 PLS= 0.147E-02 0.000E+00 ENERGY     -100.027743 DELTAE   -0.0063840
 ITERATION   4 PLS= 0.774E-03 0.000E+00 ENERGY     -100.032192 DELTAE   -0.0044488
 CYCLE:    36 TIME:   0.090 TIME LEFT:  2.00W  GRAD.:     4.547 HEAT: -100.0299
 ITERATION   1 PLS= 0.374E-04 0.000E+00 ENERGY      -99.905273 DELTAE -199.9052733
 ITERATION   2 PLS= 0.487E-02 0.000E+00 ENERGY     -100.007160 DELTAE   -0.1018867
 ITERATION   3 PLS= 0.238E-02 0.000E+00 ENERGY     -100.030180 DELTAE   -0.0230204
 ITERATION   4 PLS= 0.118E-02 0.000E+00 ENERGY     -100.045108 DELTAE   -0.0149278
 CYCLE:    37 TIME:   0.066 TIME LEFT:  2.00W  GRAD.:     6.841 HEAT: -100.0376
 ITERATION   1 PLS= 0.739E-04 0.000E+00 ENERGY      -99.391763 DELTAE -199.3917631
 ITERATION   2 PLS= 0.874E-02 0.000E+00 ENERGY      -99.785617 DELTAE   -0.3938544
 ITERATION   3 PLS= 0.427E-02 0.000E+00 ENERGY      -99.873408 DELTAE   -0.0877908
 ITERATION   4 PLS= 0.218E-02 0.000E+00 ENERGY      -99.930236 DELTAE   -0.0568278
 ITERATION   5 PLS= 0.140E-03 0.000E+00 ENERGY      -99.901913 DELTAE    0.0283234
 CYCLE:    38 TIME:   0.066 TIME LEFT:  2.00W  GRAD.:    17.249 HEAT: -99.90194
 ITERATION   1 PLS= 0.880E-04 0.000E+00 ENERGY     -100.099564 DELTAE -200.0995641
 ITERATION   2 PLS= 0.319E-02 0.000E+00 ENERGY     -100.135033 DELTAE   -0.0354693
 ITERATION   3 PLS= 0.182E-02 0.000E+00 ENERGY     -100.141679 DELTAE   -0.0066459
 ITERATION   4 PLS= 0.102E-02 0.000E+00 ENERGY     -100.146809 DELTAE   -0.0051295
 CYCLE:    39 TIME:   0.066 TIME LEFT:  2.00W  GRAD.:     6.000 HEAT: -100.1439
 ITERATION   1 PLS= 0.101E-03 0.000E+00 ENERGY      -99.996792 DELTAE -199.9967921
 ITERATION   2 PLS= 0.492E-02 0.000E+00 ENERGY     -100.146847 DELTAE   -0.1500550
 ITERATION   3 PLS= 0.235E-02 0.000E+00 ENERGY     -100.181649 DELTAE   -0.0348019
 ITERATION   4 PLS= 0.115E-02 0.000E+00 ENERGY     -100.203896 DELTAE   -0.0222470
 ITERATION   5 PLS= 0.414E-04 0.000E+00 ENERGY     -100.192960 DELTAE    0.0109361
 CYCLE:    40 TIME:   0.070 TIME LEFT:  2.00W  GRAD.:     6.171 HEAT: -100.1930
 ITERATION   1 PLS= 0.243E-04 0.000E+00 ENERGY     -100.151959 DELTAE -200.1519594
 ITERATION   2 PLS= 0.204E-02 0.000E+00 ENERGY     -100.207684 DELTAE   -0.0557245
 ITERATION   3 PLS= 0.100E-02 0.000E+00 ENERGY     -100.219119 DELTAE   -0.0114348
 ITERATION   4 PLS= 0.498E-03 0.000E+00 ENERGY     -100.225842 DELTAE   -0.0067229
 CYCLE:    41 TIME:   0.062 TIME LEFT:  2.00W  GRAD.:     5.818 HEAT: -100.2227
 ITERATION   1 PLS= 0.967E-04 0.000E+00 ENERGY      -99.935802 DELTAE -199.9358025
 ITERATION   2 PLS= 0.529E-02 0.000E+00 ENERGY     -100.220009 DELTAE   -0.2842061
 ITERATION   3 PLS= 0.281E-02 0.000E+00 ENERGY     -100.285106 DELTAE   -0.0650975
 ITERATION   4 PLS= 0.149E-02 0.000E+00 ENERGY     -100.328057 DELTAE   -0.0429514
 ITERATION   5 PLS= 0.132E-03 0.000E+00 ENERGY     -100.306645 DELTAE    0.0214128
 CYCLE:    42 TIME:   0.070 TIME LEFT:  2.00W  GRAD.:     9.897 HEAT: -100.3067
 ITERATION   1 PLS= 0.561E-04 0.000E+00 ENERGY     -100.184578 DELTAE -200.1845776
 ITERATION   2 PLS= 0.279E-02 0.000E+00 ENERGY     -100.322966 DELTAE   -0.1383879
 ITERATION   3 PLS= 0.143E-02 0.000E+00 ENERGY     -100.354420 DELTAE   -0.0314540
 ITERATION   4 PLS= 0.741E-03 0.000E+00 ENERGY     -100.374543 DELTAE   -0.0201235
 CYCLE:    43 TIME:   0.062 TIME LEFT:  2.00W  GRAD.:     6.775 HEAT: -100.3648
 ITERATION   1 PLS= 0.515E-04 0.000E+00 ENERGY     -100.368821 DELTAE -200.3688208
 ITERATION   2 PLS= 0.115E-02 0.000E+00 ENERGY     -100.383652 DELTAE   -0.0148308
 ITERATION   3 PLS= 0.360E-03 0.000E+00 ENERGY     -100.386090 DELTAE   -0.0024388
 ITERATION   4 PLS= 0.162E-03 0.000E+00 ENERGY     -100.387288 DELTAE   -0.0011975
 CYCLE:    44 TIME:   0.098 TIME LEFT:  2.00W  GRAD.:     7.345 HEAT: -100.3868
 ITERATION   1 PLS= 0.579E-04 0.000E+00 ENERGY     -100.060812 DELTAE -200.0608121
 ITERATION   2 PLS= 0.300E-02 0.000E+00 ENERGY     -100.358381 DELTAE   -0.2975690
 ITERATION   3 PLS= 0.150E-02 0.000E+00 ENERGY     -100.429448 DELTAE   -0.0710671
 ITERATION   4 PLS= 0.766E-03 0.000E+00 ENERGY     -100.475435 DELTAE   -0.0459867
 ITERATION   5 PLS= 0.878E-04 0.000E+00 ENERGY     -100.453188 DELTAE    0.0222471
 CYCLE:    45 TIME:   0.070 TIME LEFT:  2.00W  GRAD.:     9.376 HEAT: -100.4532
 ITERATION   1 PLS= 0.372E-04 0.000E+00 ENERGY     -100.325711 DELTAE -200.3257111
 ITERATION   2 PLS= 0.141E-02 0.000E+00 ENERGY     -100.422185 DELTAE   -0.0964743
 ITERATION   3 PLS= 0.595E-03 0.000E+00 ENERGY     -100.443470 DELTAE   -0.0212846
 ITERATION   4 PLS= 0.278E-03 0.000E+00 ENERGY     -100.457054 DELTAE   -0.0135841
 CYCLE:    46 TIME:   0.066 TIME LEFT:  2.00W  GRAD.:     9.318 HEAT: -100.4504
 ITERATION   1 PLS= 0.646E-04 0.000E+00 ENERGY     -100.384501 DELTAE -200.3845008
 ITERATION   2 PLS= 0.152E-02 0.000E+00 ENERGY     -100.456169 DELTAE   -0.0716687
 ITERATION   3 PLS= 0.514E-03 0.000E+00 ENERGY     -100.472574 DELTAE   -0.0164041
 ITERATION   4 PLS= 0.245E-03 0.000E+00 ENERGY     -100.482888 DELTAE   -0.0103142
 CYCLE:    47 TIME:   0.062 TIME LEFT:  2.00W  GRAD.:     4.203 HEAT: -100.4781
 ITERATION   1 PLS= 0.369E-04 0.000E+00 ENERGY     -100.464071 DELTAE -200.4640708
 ITERATION   2 PLS= 0.665E-03 0.000E+00 ENERGY     -100.476456 DELTAE   -0.0123849
 ITERATION   3 PLS= 0.306E-03 0.000E+00 ENERGY     -100.479334 DELTAE   -0.0028787
 ITERATION   4 PLS= 0.145E-03 0.000E+00 ENERGY     -100.481276 DELTAE   -0.0019415
 CYCLE:    48 TIME:   0.066 TIME LEFT:  2.00W  GRAD.:     4.722 HEAT: -100.4803
 ITERATION   1 PLS= 0.196E-04 0.000E+00 ENERGY     -100.204081 DELTAE -200.2040809
 ITERATION   2 PLS= 0.160E-02 0.000E+00 ENERGY     -100.408583 DELTAE   -0.2045021
 ITERATION   3 PLS= 0.754E-03 0.000E+00 ENERGY     -100.459489 DELTAE   -0.0509059
 ITERATION   4 PLS= 0.400E-03 0.000E+00 ENERGY     -100.496457 DELTAE   -0.0369679
 ITERATION   5 PLS= 0.436E-04 0.000E+00 ENERGY     -100.477127 DELTAE    0.0193295
 CYCLE:    49 TIME:   0.070 TIME LEFT:  2.00W  GRAD.:     7.129 HEAT: -100.4771
 ITERATION   1 PLS= 0.176E-04 0.000E+00 ENERGY     -100.306655 DELTAE -200.3066548
 ITERATION   2 PLS= 0.176E-02 0.000E+00 ENERGY     -100.410374 DELTAE   -0.1037188
 ITERATION   3 PLS= 0.102E-02 0.000E+00 ENERGY     -100.436326 DELTAE   -0.0259521
 ITERATION   4 PLS= 0.550E-03 0.000E+00 ENERGY     -100.455584 DELTAE   -0.0192587
 ITERATION   5 PLS= 0.666E-04 0.000E+00 ENERGY     -100.445387 DELTAE    0.0101973
 CYCLE:    50 TIME:   0.078 TIME LEFT:  2.00W  GRAD.:     8.732 HEAT: -100.4454
 ITERATION   1 PLS= 0.289E-04 0.000E+00 ENERGY      -99.953124 DELTAE -199.9531236
 ITERATION   2 PLS= 0.487E-02 0.000E+00 ENERGY     -100.329024 DELTAE   -0.3759007
 ITERATION   3 PLS= 0.292E-02 0.000E+00 ENERGY     -100.423709 DELTAE   -0.0946842
 ITERATION   4 PLS= 0.160E-02 0.000E+00 ENERGY     -100.496197 DELTAE   -0.0724888
 ITERATION   5 PLS= 0.820E-04 0.000E+00 ENERGY     -100.456781 DELTAE    0.0394160
 CYCLE:    51 TIME:   0.074 TIME LEFT:  2.00W  GRAD.:     7.369 HEAT: -100.4568
 ITERATION   1 PLS= 0.427E-04 0.000E+00 ENERGY     -100.381157 DELTAE -200.3811570
 ITERATION   2 PLS= 0.241E-02 0.000E+00 ENERGY     -100.445468 DELTAE   -0.0643112
 ITERATION   3 PLS= 0.129E-02 0.000E+00 ENERGY     -100.460270 DELTAE   -0.0148014
 ITERATION   4 PLS= 0.680E-03 0.000E+00 ENERGY     -100.470224 DELTAE   -0.0099539
 CYCLE:    52 TIME:   0.066 TIME LEFT:  2.00W  GRAD.:     4.874 HEAT: -100.4654
 ITERATION   1 PLS= 0.661E-04 0.000E+00 ENERGY     -100.395209 DELTAE -200.3952093
 ITERATION   2 PLS= 0.136E-02 0.000E+00 ENERGY     -100.420578 DELTAE   -0.0253687
 ITERATION   3 PLS= 0.527E-03 0.000E+00 ENERGY     -100.425642 DELTAE   -0.0050644
 ITERATION   4 PLS= 0.248E-03 0.000E+00 ENERGY     -100.428527 DELTAE   -0.0028842
 CYCLE:    53 TIME:   0.062 TIME LEFT:  2.00W  GRAD.:     4.560 HEAT: -100.4272
 ITERATION   1 PLS= 0.841E-04 0.000E+00 ENERGY     -100.296035 DELTAE -200.2960347
 ITERATION   2 PLS= 0.312E-02 0.000E+00 ENERGY     -100.390222 DELTAE   -0.0941874
 ITERATION   3 PLS= 0.171E-02 0.000E+00 ENERGY     -100.413138 DELTAE   -0.0229157
 ITERATION   4 PLS= 0.910E-03 0.000E+00 ENERGY     -100.429397 DELTAE   -0.0162588
 CYCLE:    54 TIME:   0.066 TIME LEFT:  2.00W  GRAD.:     4.190 HEAT: -100.4211
 ITERATION   1 PLS= 0.123E-03 0.000E+00 ENERGY     -100.483480 DELTAE -200.4834795
 ITERATION   2 PLS= 0.711E-03 0.000E+00 ENERGY     -100.490416 DELTAE   -0.0069365
 ITERATION   3 PLS= 0.371E-03 0.000E+00 ENERGY     -100.491832 DELTAE   -0.0014158
 ITERATION   4 PLS= 0.192E-03 0.000E+00 ENERGY     -100.492702 DELTAE   -0.0008706
 CYCLE:    55 TIME:   0.066 TIME LEFT:  2.00W  GRAD.:     3.110 HEAT: -100.4923
 ITERATION   1 PLS= 0.233E-04 0.000E+00 ENERGY     -100.444026 DELTAE -200.4440263
 ITERATION   2 PLS= 0.516E-03 0.000E+00 ENERGY     -100.447058 DELTAE   -0.0030315
 ITERATION   3 PLS= 0.265E-03 0.000E+00 ENERGY     -100.447689 DELTAE   -0.0006312
 ITERATION   4 PLS= 0.136E-03 0.000E+00 ENERGY     -100.448100 DELTAE   -0.0004106
 CYCLE:    56 TIME:   0.062 TIME LEFT:  2.00W  GRAD.:     2.395 HEAT: -100.4479
 ITERATION   1 PLS= 0.197E-04 0.000E+00 ENERGY     -100.406342 DELTAE -200.4063424
 ITERATION   2 PLS= 0.203E-02 0.000E+00 ENERGY     -100.430535 DELTAE   -0.0241927
 ITERATION   3 PLS= 0.106E-02 0.000E+00 ENERGY     -100.436481 DELTAE   -0.0059454
 ITERATION   4 PLS= 0.549E-03 0.000E+00 ENERGY     -100.440871 DELTAE   -0.0043902
 ITERATION   5 PLS= 0.266E-04 0.000E+00 ENERGY     -100.438535 DELTAE    0.0023361
 CYCLE:    57 TIME:   0.070 TIME LEFT:  2.00W  GRAD.:     2.422 HEAT: -100.4385
 ITERATION   1 PLS= 0.171E-04 0.000E+00 ENERGY     -100.275462 DELTAE -200.2754621
 ITERATION   2 PLS= 0.387E-02 0.000E+00 ENERGY     -100.352943 DELTAE   -0.0774808
 ITERATION   3 PLS= 0.206E-02 0.000E+00 ENERGY     -100.371905 DELTAE   -0.0189622
 ITERATION   4 PLS= 0.108E-02 0.000E+00 ENERGY     -100.385535 DELTAE   -0.0136294
 ITERATION   5 PLS= 0.351E-04 0.000E+00 ENERGY     -100.378442 DELTAE    0.0070920
 CYCLE:    58 TIME:   0.070 TIME LEFT:  2.00W  GRAD.:     4.529 HEAT: -100.3784
 ITERATION   1 PLS= 0.169E-04 0.000E+00 ENERGY     -100.256969 DELTAE -200.2569691
 ITERATION   2 PLS= 0.409E-02 0.000E+00 ENERGY     -100.326706 DELTAE   -0.0697367
 ITERATION   3 PLS= 0.218E-02 0.000E+00 ENERGY     -100.344044 DELTAE   -0.0173385
 ITERATION   4 PLS= 0.114E-02 0.000E+00 ENERGY     -100.356520 DELTAE   -0.0124753
 CYCLE:    59 TIME:   0.062 TIME LEFT:  2.00W  GRAD.:     3.338 HEAT: -100.3501
 ITERATION   1 PLS= 0.427E-04 0.000E+00 ENERGY     -100.386607 DELTAE -200.3866071
 ITERATION   2 PLS= 0.109E-02 0.000E+00 ENERGY     -100.395452 DELTAE   -0.0088450
 ITERATION   3 PLS= 0.429E-03 0.000E+00 ENERGY     -100.396980 DELTAE   -0.0015276
 ITERATION   4 PLS= 0.242E-03 0.000E+00 ENERGY     -100.397985 DELTAE   -0.0010051
 CYCLE:    60 TIME:   0.066 TIME LEFT:  2.00W  GRAD.:     3.993 HEAT: -100.3975
 ITERATION   1 PLS= 0.698E-04 0.000E+00 ENERGY     -100.394641 DELTAE -200.3946406
 ITERATION   2 PLS= 0.408E-03 0.000E+00 ENERGY     -100.397476 DELTAE   -0.0028352
 ITERATION   3 PLS= 0.198E-03 0.000E+00 ENERGY     -100.398029 DELTAE   -0.0005535
 ITERATION   4 PLS= 0.105E-03 0.000E+00 ENERGY     -100.398384 DELTAE   -0.0003552
 CYCLE:    61 TIME:   0.062 TIME LEFT:  2.00W  GRAD.:     2.390 HEAT: -100.3982
 ITERATION   1 PLS= 0.271E-04 0.000E+00 ENERGY     -100.357804 DELTAE -200.3578037
 ITERATION   2 PLS= 0.126E-02 0.000E+00 ENERGY     -100.372489 DELTAE   -0.0146855
 ITERATION   3 PLS= 0.670E-03 0.000E+00 ENERGY     -100.375724 DELTAE   -0.0032350
 ITERATION   4 PLS= 0.352E-03 0.000E+00 ENERGY     -100.377864 DELTAE   -0.0021401
 CYCLE:    62 TIME:   0.062 TIME LEFT:  2.00W  GRAD.:     2.032 HEAT: -100.3768
 ITERATION   1 PLS= 0.285E-04 0.000E+00 ENERGY     -100.373895 DELTAE -200.3738953
 ITERATION   2 PLS= 0.799E-03 0.000E+00 ENERGY     -100.382233 DELTAE   -0.0083374
 ITERATION   3 PLS= 0.451E-03 0.000E+00 ENERGY     -100.383877 DELTAE   -0.0016440
 ITERATION   4 PLS= 0.246E-03 0.000E+00 ENERGY     -100.384947 DELTAE   -0.0010701
 CYCLE:    63 TIME:   0.066 TIME LEFT:  2.00W  GRAD.:     3.568 HEAT: -100.3844
 ITERATION   1 PLS= 0.200E-04 0.000E+00 ENERGY     -100.512474 DELTAE -200.5124738
 ITERATION   2 PLS= 0.249E-02 0.000E+00 ENERGY     -100.534847 DELTAE   -0.0223727
 ITERATION   3 PLS= 0.125E-02 0.000E+00 ENERGY     -100.539856 DELTAE   -0.0050091
 ITERATION   4 PLS= 0.639E-03 0.000E+00 ENERGY     -100.543162 DELTAE   -0.0033068
 CYCLE:    64 TIME:   0.066 TIME LEFT:  2.00W  GRAD.:     2.920 HEAT: -100.5415
 ITERATION   1 PLS= 0.209E-04 0.000E+00 ENERGY     -100.511813 DELTAE -200.5118129
 ITERATION   2 PLS= 0.193E-02 0.000E+00 ENERGY     -100.544214 DELTAE   -0.0324011
 ITERATION   3 PLS= 0.974E-03 0.000E+00 ENERGY     -100.551038 DELTAE   -0.0068242
 ITERATION   4 PLS= 0.506E-03 0.000E+00 ENERGY     -100.555476 DELTAE   -0.0044377
 CYCLE:    65 TIME:   0.109 TIME LEFT:  2.00W  GRAD.:     3.173 HEAT: -100.5531
 ITERATION   1 PLS= 0.383E-04 0.000E+00 ENERGY     -100.623838 DELTAE -200.6238378
 ITERATION   2 PLS= 0.119E-02 0.000E+00 ENERGY     -100.635173 DELTAE   -0.0113348
 ITERATION   3 PLS= 0.624E-03 0.000E+00 ENERGY     -100.637422 DELTAE   -0.0022499
 ITERATION   4 PLS= 0.328E-03 0.000E+00 ENERGY     -100.638861 DELTAE   -0.0014386
 CYCLE:    66 TIME:   0.066 TIME LEFT:  2.00W  GRAD.:     2.875 HEAT: -100.6381
 ITERATION   1 PLS= 0.180E-04 0.000E+00 ENERGY     -100.550605 DELTAE -200.5506050
 ITERATION   2 PLS= 0.255E-02 0.000E+00 ENERGY     -100.573231 DELTAE   -0.0226260
 ITERATION   3 PLS= 0.132E-02 0.000E+00 ENERGY     -100.578542 DELTAE   -0.0053111
 ITERATION   4 PLS= 0.682E-03 0.000E+00 ENERGY     -100.582180 DELTAE   -0.0036378
 CYCLE:    67 TIME:   0.062 TIME LEFT:  2.00W  GRAD.:     3.119 HEAT: -100.5803
 ITERATION   1 PLS= 0.235E-04 0.000E+00 ENERGY     -100.543496 DELTAE -200.5434956
 ITERATION   2 PLS= 0.374E-02 0.000E+00 ENERGY     -100.594563 DELTAE   -0.0510677
 ITERATION   3 PLS= 0.188E-02 0.000E+00 ENERGY     -100.606437 DELTAE   -0.0118737
 ITERATION   4 PLS= 0.958E-03 0.000E+00 ENERGY     -100.614259 DELTAE   -0.0078221
 ITERATION   5 PLS= 0.408E-04 0.000E+00 ENERGY     -100.610369 DELTAE    0.0038905
 CYCLE:    68 TIME:   0.070 TIME LEFT:  2.00W  GRAD.:     5.075 HEAT: -100.6104
 ITERATION   1 PLS= 0.207E-04 0.000E+00 ENERGY     -100.519373 DELTAE -200.5193729
 ITERATION   2 PLS= 0.114E-02 0.000E+00 ENERGY     -100.537934 DELTAE   -0.0185608
 ITERATION   3 PLS= 0.569E-03 0.000E+00 ENERGY     -100.541519 DELTAE   -0.0035855
 ITERATION   4 PLS= 0.321E-03 0.000E+00 ENERGY     -100.543765 DELTAE   -0.0022457
 CYCLE:    69 TIME:   0.066 TIME LEFT:  2.00W  GRAD.:     2.868 HEAT: -100.5425
 ITERATION   1 PLS= 0.269E-04 0.000E+00 ENERGY     -100.501024 DELTAE -200.5010238
 ITERATION   2 PLS= 0.255E-02 0.000E+00 ENERGY     -100.541026 DELTAE   -0.0400018
 ITERATION   3 PLS= 0.128E-02 0.000E+00 ENERGY     -100.549620 DELTAE   -0.0085940
 ITERATION   4 PLS= 0.647E-03 0.000E+00 ENERGY     -100.555122 DELTAE   -0.0055026
 ITERATION   5 PLS= 0.283E-04 0.000E+00 ENERGY     -100.552257 DELTAE    0.0028655
 CYCLE:    70 TIME:   0.070 TIME LEFT:  2.00W  GRAD.:     2.820 HEAT: -100.5523
 ITERATION   1 PLS= 0.116E-04 0.000E+00 ENERGY     -100.535106 DELTAE -200.5351057
 ITERATION   2 PLS= 0.573E-03 0.000E+00 ENERGY     -100.546429 DELTAE   -0.0113228
 ITERATION   3 PLS= 0.300E-03 0.000E+00 ENERGY     -100.548499 DELTAE   -0.0020705
 ITERATION   4 PLS= 0.168E-03 0.000E+00 ENERGY     -100.549671 DELTAE   -0.0011723
 CYCLE:    71 TIME:   0.062 TIME LEFT:  2.00W  GRAD.:     3.967 HEAT: -100.5490
 ITERATION   1 PLS= 0.291E-04 0.000E+00 ENERGY     -100.550668 DELTAE -200.5506684
 ITERATION   2 PLS= 0.418E-03 0.000E+00 ENERGY     -100.557830 DELTAE   -0.0071615
 ITERATION   3 PLS= 0.216E-03 0.000E+00 ENERGY     -100.559151 DELTAE   -0.0013210
 ITERATION   4 PLS= 0.119E-03 0.000E+00 ENERGY     -100.559915 DELTAE   -0.0007643
 CYCLE:    72 TIME:   0.066 TIME LEFT:  2.00W  GRAD.:     2.814 HEAT: -100.5595
 ITERATION   1 PLS= 0.132E-04 0.000E+00 ENERGY     -100.404849 DELTAE -200.4048487
 ITERATION   2 PLS= 0.141E-02 0.000E+00 ENERGY     -100.421897 DELTAE   -0.0170485
 ITERATION   3 PLS= 0.734E-03 0.000E+00 ENERGY     -100.425086 DELTAE   -0.0031885
 ITERATION   4 PLS= 0.394E-03 0.000E+00 ENERGY     -100.427003 DELTAE   -0.0019171
 CYCLE:    73 TIME:   0.062 TIME LEFT:  2.00W  GRAD.:     3.688 HEAT: -100.4260
 ITERATION   1 PLS= 0.404E-04 0.000E+00 ENERGY     -100.520810 DELTAE -200.5208104
 ITERATION   2 PLS= 0.603E-03 0.000E+00 ENERGY     -100.528657 DELTAE   -0.0078464
 ITERATION   3 PLS= 0.286E-03 0.000E+00 ENERGY     -100.530273 DELTAE   -0.0016157
 ITERATION   4 PLS= 0.141E-03 0.000E+00 ENERGY     -100.531245 DELTAE   -0.0009724
 CYCLE:    74 TIME:   0.066 TIME LEFT:  2.00W  GRAD.:     3.619 HEAT: -100.5307
 ITERATION   1 PLS= 0.232E-04 0.000E+00 ENERGY     -100.281482 DELTAE -200.2814822
 ITERATION   2 PLS= 0.473E-02 0.000E+00 ENERGY     -100.476479 DELTAE   -0.1949967
 ITERATION   3 PLS= 0.228E-02 0.000E+00 ENERGY     -100.521774 DELTAE   -0.0452948
 ITERATION   4 PLS= 0.114E-02 0.000E+00 ENERGY     -100.551768 DELTAE   -0.0299940
 ITERATION   5 PLS= 0.400E-04 0.000E+00 ENERGY     -100.536474 DELTAE    0.0152940
 CYCLE:    75 TIME:   0.070 TIME LEFT:  2.00W  GRAD.:     6.982 HEAT: -100.5365
 ITERATION   1 PLS= 0.252E-04 0.000E+00 ENERGY     -100.536740 DELTAE -200.5367397
 ITERATION   2 PLS= 0.885E-03 0.000E+00 ENERGY     -100.551174 DELTAE   -0.0144343
 ITERATION   3 PLS= 0.447E-03 0.000E+00 ENERGY     -100.553927 DELTAE   -0.0027528
 ITERATION   4 PLS= 0.225E-03 0.000E+00 ENERGY     -100.555661 DELTAE   -0.0017337
 CYCLE:    76 TIME:   0.066 TIME LEFT:  2.00W  GRAD.:     6.499 HEAT: -100.5547
 ITERATION   1 PLS= 0.294E-04 0.000E+00 ENERGY     -100.515115 DELTAE -200.5151152
 ITERATION   2 PLS= 0.932E-03 0.000E+00 ENERGY     -100.557300 DELTAE   -0.0421849
 ITERATION   3 PLS= 0.475E-03 0.000E+00 ENERGY     -100.565282 DELTAE   -0.0079823
 ITERATION   4 PLS= 0.255E-03 0.000E+00 ENERGY     -100.569840 DELTAE   -0.0045580
 CYCLE:    77 TIME:   0.062 TIME LEFT:  2.00W  GRAD.:     4.400 HEAT: -100.5674
 ITERATION   1 PLS= 0.244E-04 0.000E+00 ENERGY     -100.494018 DELTAE -200.4940178
 ITERATION   2 PLS= 0.853E-03 0.000E+00 ENERGY     -100.559821 DELTAE   -0.0658035
 ITERATION   3 PLS= 0.471E-03 0.000E+00 ENERGY     -100.572807 DELTAE   -0.0129859
 ITERATION   4 PLS= 0.243E-03 0.000E+00 ENERGY     -100.580799 DELTAE   -0.0079920
 CYCLE:    78 TIME:   0.066 TIME LEFT:  2.00W  GRAD.:     4.633 HEAT: -100.5764
 ITERATION   1 PLS= 0.232E-04 0.000E+00 ENERGY     -100.408348 DELTAE -200.4083476
 ITERATION   2 PLS= 0.220E-02 0.000E+00 ENERGY     -100.554015 DELTAE   -0.1456670
 ITERATION   3 PLS= 0.114E-02 0.000E+00 ENERGY     -100.585555 DELTAE   -0.0315409
 ITERATION   4 PLS= 0.599E-03 0.000E+00 ENERGY     -100.605597 DELTAE   -0.0200414
 ITERATION   5 PLS= 0.237E-04 0.000E+00 ENERGY     -100.595135 DELTAE    0.0104619
 CYCLE:    79 TIME:   0.066 TIME LEFT:  2.00W  GRAD.:     5.212 HEAT: -100.5951
 ITERATION   1 PLS= 0.168E-04 0.000E+00 ENERGY     -100.318362 DELTAE -200.3183617
 ITERATION   2 PLS= 0.240E-02 0.000E+00 ENERGY     -100.512905 DELTAE   -0.1945434
 ITERATION   3 PLS= 0.131E-02 0.000E+00 ENERGY     -100.554897 DELTAE   -0.0419914
 ITERATION   4 PLS= 0.696E-03 0.000E+00 ENERGY     -100.581292 DELTAE   -0.0263956
 ITERATION   5 PLS= 0.406E-04 0.000E+00 ENERGY     -100.567746 DELTAE    0.0135466
 CYCLE:    80 TIME:   0.086 TIME LEFT:  2.00W  GRAD.:     9.120 HEAT: -100.5678
 ITERATION   1 PLS= 0.284E-04 0.000E+00 ENERGY     -100.557616 DELTAE -200.5576163
 ITERATION   2 PLS= 0.135E-02 0.000E+00 ENERGY     -100.602505 DELTAE   -0.0448892
 ITERATION   3 PLS= 0.609E-03 0.000E+00 ENERGY     -100.611295 DELTAE   -0.0087899
 ITERATION   4 PLS= 0.277E-03 0.000E+00 ENERGY     -100.616047 DELTAE   -0.0047512
 CYCLE:    81 TIME:   0.066 TIME LEFT:  2.00W  GRAD.:     8.073 HEAT: -100.6138
 ITERATION   1 PLS= 0.312E-04 0.000E+00 ENERGY     -100.299914 DELTAE -200.2999139
 ITERATION   2 PLS= 0.238E-02 0.000E+00 ENERGY     -100.597878 DELTAE   -0.2979641
 ITERATION   3 PLS= 0.116E-02 0.000E+00 ENERGY     -100.658602 DELTAE   -0.0607241
 ITERATION   4 PLS= 0.592E-03 0.000E+00 ENERGY     -100.693564 DELTAE   -0.0349620
 ITERATION   5 PLS= 0.874E-04 0.000E+00 ENERGY     -100.676533 DELTAE    0.0170307
 CYCLE:    82 TIME:   0.066 TIME LEFT:  2.00W  GRAD.:    12.188 HEAT: -100.6766
 ITERATION   1 PLS= 0.644E-04 0.000E+00 ENERGY     -100.717408 DELTAE -200.7174085
 ITERATION   2 PLS= 0.223E-02 0.000E+00 ENERGY     -100.809608 DELTAE   -0.0921999
 ITERATION   3 PLS= 0.773E-03 0.000E+00 ENERGY     -100.826571 DELTAE   -0.0169628
 ITERATION   4 PLS= 0.372E-03 0.000E+00 ENERGY     -100.835357 DELTAE   -0.0087858
 CYCLE:    83 TIME:   0.066 TIME LEFT:  2.00W  GRAD.:     7.643 HEAT: -100.8315
 ITERATION   1 PLS= 0.322E-04 0.000E+00 ENERGY     -100.729155 DELTAE -200.7291555
 ITERATION   2 PLS= 0.124E-02 0.000E+00 ENERGY     -100.767731 DELTAE   -0.0385757
 ITERATION   3 PLS= 0.497E-03 0.000E+00 ENERGY     -100.775837 DELTAE   -0.0081062
 ITERATION   4 PLS= 0.270E-03 0.000E+00 ENERGY     -100.780708 DELTAE   -0.0048709
 CYCLE:    84 TIME:   0.062 TIME LEFT:  2.00W  GRAD.:     5.146 HEAT: -100.7784
 ITERATION   1 PLS= 0.337E-04 0.000E+00 ENERGY     -100.696560 DELTAE -200.6965598
 ITERATION   2 PLS= 0.155E-02 0.000E+00 ENERGY     -100.817500 DELTAE   -0.1209407
 ITERATION   3 PLS= 0.796E-03 0.000E+00 ENERGY     -100.841378 DELTAE   -0.0238771
 ITERATION   4 PLS= 0.402E-03 0.000E+00 ENERGY     -100.854086 DELTAE   -0.0127089
 CYCLE:    85 TIME:   0.062 TIME LEFT:  2.00W  GRAD.:     5.556 HEAT: -100.8481
 ITERATION   1 PLS= 0.442E-04 0.000E+00 ENERGY     -100.904627 DELTAE -200.9046271
 ITERATION   2 PLS= 0.610E-03 0.000E+00 ENERGY     -100.915624 DELTAE   -0.0109969
 ITERATION   3 PLS= 0.306E-03 0.000E+00 ENERGY     -100.917500 DELTAE   -0.0018759
 ITERATION   4 PLS= 0.150E-03 0.000E+00 ENERGY     -100.918447 DELTAE   -0.0009469
 CYCLE:    86 TIME:   0.066 TIME LEFT:  2.00W  GRAD.:     3.815 HEAT: -100.9180
 ITERATION   1 PLS= 0.269E-04 0.000E+00 ENERGY     -100.921869 DELTAE -200.9218690
 ITERATION   2 PLS= 0.119E-02 0.000E+00 ENERGY     -100.954747 DELTAE   -0.0328780
 ITERATION   3 PLS= 0.679E-03 0.000E+00 ENERGY     -100.960692 DELTAE   -0.0059448
 ITERATION   4 PLS= 0.387E-03 0.000E+00 ENERGY     -100.964184 DELTAE   -0.0034925
 CYCLE:    87 TIME:   0.062 TIME LEFT:  2.00W  GRAD.:     4.352 HEAT: -100.9623
 ITERATION   1 PLS= 0.550E-04 0.000E+00 ENERGY     -100.847179 DELTAE -200.8471785
 ITERATION   2 PLS= 0.206E-02 0.000E+00 ENERGY     -100.956753 DELTAE   -0.1095747
 ITERATION   3 PLS= 0.930E-03 0.000E+00 ENERGY     -100.977957 DELTAE   -0.0212035
 ITERATION   4 PLS= 0.454E-03 0.000E+00 ENERGY     -100.990557 DELTAE   -0.0126006
 CYCLE:    88 TIME:   0.066 TIME LEFT:  2.00W  GRAD.:     5.989 HEAT: -100.9838
 ITERATION   1 PLS= 0.801E-04 0.000E+00 ENERGY     -100.723631 DELTAE -200.7236314
 ITERATION   2 PLS= 0.264E-02 0.000E+00 ENERGY     -100.987021 DELTAE   -0.2633896
 ITERATION   3 PLS= 0.131E-02 0.000E+00 ENERGY     -101.036769 DELTAE   -0.0497479
 ITERATION   4 PLS= 0.690E-03 0.000E+00 ENERGY     -101.066914 DELTAE   -0.0301452
 ITERATION   5 PLS= 0.139E-03 0.000E+00 ENERGY     -101.050545 DELTAE    0.0163695
 CYCLE:    89 TIME:   0.066 TIME LEFT:  2.00W  GRAD.:     9.482 HEAT: -101.0506
 ITERATION   1 PLS= 0.885E-04 0.000E+00 ENERGY     -101.019863 DELTAE -201.0198634
 ITERATION   2 PLS= 0.130E-02 0.000E+00 ENERGY     -101.099360 DELTAE   -0.0794970
 ITERATION   3 PLS= 0.650E-03 0.000E+00 ENERGY     -101.113731 DELTAE   -0.0143709
 ITERATION   4 PLS= 0.328E-03 0.000E+00 ENERGY     -101.122194 DELTAE   -0.0084629
 CYCLE:    90 TIME:   0.066 TIME LEFT:  2.00W  GRAD.:     5.739 HEAT: -101.1176
 ITERATION   1 PLS= 0.632E-04 0.000E+00 ENERGY     -101.128715 DELTAE -201.1287148
 ITERATION   2 PLS= 0.553E-03 0.000E+00 ENERGY     -101.135335 DELTAE   -0.0066201
 ITERATION   3 PLS= 0.274E-03 0.000E+00 ENERGY     -101.136501 DELTAE   -0.0011662
 ITERATION   4 PLS= 0.148E-03 0.000E+00 ENERGY     -101.137200 DELTAE   -0.0006987
 CYCLE:    91 TIME:   0.062 TIME LEFT:  2.00W  GRAD.:     4.076 HEAT: -101.1368
 ITERATION   1 PLS= 0.342E-04 0.000E+00 ENERGY     -101.130877 DELTAE -201.1308771
 ITERATION   2 PLS= 0.146E-02 0.000E+00 ENERGY     -101.160919 DELTAE   -0.0300421
 ITERATION   3 PLS= 0.782E-03 0.000E+00 ENERGY     -101.166695 DELTAE   -0.0057758
 ITERATION   4 PLS= 0.417E-03 0.000E+00 ENERGY     -101.170454 DELTAE   -0.0037594
 CYCLE:    92 TIME:   0.066 TIME LEFT:  2.00W  GRAD.:     4.501 HEAT: -101.1684
 ITERATION   1 PLS= 0.583E-04 0.000E+00 ENERGY     -101.031385 DELTAE -201.0313853
 ITERATION   2 PLS= 0.914E-03 0.000E+00 ENERGY     -101.128640 DELTAE   -0.0972547
 ITERATION   3 PLS= 0.468E-03 0.000E+00 ENERGY     -101.149701 DELTAE   -0.0210612
 ITERATION   4 PLS= 0.239E-03 0.000E+00 ENERGY     -101.162837 DELTAE   -0.0131355
 CYCLE:    93 TIME:   0.062 TIME LEFT:  2.00W  GRAD.:     8.687 HEAT: -101.1562
 ITERATION   1 PLS= 0.454E-04 0.000E+00 ENERGY     -101.110941 DELTAE -201.1109411
 ITERATION   2 PLS= 0.104E-02 0.000E+00 ENERGY     -101.142729 DELTAE   -0.0317877
 ITERATION   3 PLS= 0.468E-03 0.000E+00 ENERGY     -101.148722 DELTAE   -0.0059934
 ITERATION   4 PLS= 0.233E-03 0.000E+00 ENERGY     -101.152062 DELTAE   -0.0033397
 CYCLE:    94 TIME:   0.066 TIME LEFT:  2.00W  GRAD.:     5.259 HEAT: -101.1504
 ITERATION   1 PLS= 0.242E-04 0.000E+00 ENERGY     -101.093457 DELTAE -201.0934574
 ITERATION   2 PLS= 0.973E-03 0.000E+00 ENERGY     -101.141136 DELTAE   -0.0476786
 ITERATION   3 PLS= 0.464E-03 0.000E+00 ENERGY     -101.150674 DELTAE   -0.0095378
 ITERATION   4 PLS= 0.221E-03 0.000E+00 ENERGY     -101.156289 DELTAE   -0.0056149
 CYCLE:    95 TIME:   0.066 TIME LEFT:  2.00W  GRAD.:     3.492 HEAT: -101.1534
 ITERATION   1 PLS= 0.259E-04 0.000E+00 ENERGY     -101.155664 DELTAE -201.1556636
 ITERATION   2 PLS= 0.569E-03 0.000E+00 ENERGY     -101.162375 DELTAE   -0.0067110
 ITERATION   3 PLS= 0.203E-03 0.000E+00 ENERGY     -101.163463 DELTAE   -0.0010881
 ITERATION   4 PLS= 0.923E-04 0.000E+00 ENERGY     -101.163990 DELTAE   -0.0005274
 CYCLE:    96 TIME:   0.066 TIME LEFT:  2.00W  GRAD.:     4.295 HEAT: -101.1637
 ITERATION   1 PLS= 0.122E-04 0.000E+00 ENERGY     -101.074082 DELTAE -201.0740824
 ITERATION   2 PLS= 0.164E-02 0.000E+00 ENERGY     -101.144082 DELTAE   -0.0699992
 ITERATION   3 PLS= 0.783E-03 0.000E+00 ENERGY     -101.158377 DELTAE   -0.0142954
 ITERATION   4 PLS= 0.385E-03 0.000E+00 ENERGY     -101.166514 DELTAE   -0.0081365
 CYCLE:    97 TIME:   0.062 TIME LEFT:  2.00W  GRAD.:     5.458 HEAT: -101.1626
 ITERATION   1 PLS= 0.461E-04 0.000E+00 ENERGY     -101.174937 DELTAE -201.1749367
 ITERATION   2 PLS= 0.988E-03 0.000E+00 ENERGY     -101.193896 DELTAE   -0.0189596
 ITERATION   3 PLS= 0.433E-03 0.000E+00 ENERGY     -101.197177 DELTAE   -0.0032803
 ITERATION   4 PLS= 0.221E-03 0.000E+00 ENERGY     -101.198961 DELTAE   -0.0017847
 CYCLE:    98 TIME:   0.066 TIME LEFT:  2.00W  GRAD.:     5.901 HEAT: -101.1981
 ITERATION   1 PLS= 0.409E-04 0.000E+00 ENERGY     -101.164215 DELTAE -201.1642153
 ITERATION   2 PLS= 0.731E-03 0.000E+00 ENERGY     -101.175414 DELTAE   -0.0111986
 ITERATION   3 PLS= 0.263E-03 0.000E+00 ENERGY     -101.177356 DELTAE   -0.0019425
 ITERATION   4 PLS= 0.125E-03 0.000E+00 ENERGY     -101.178287 DELTAE   -0.0009307
 CYCLE:    99 TIME:   0.062 TIME LEFT:  2.00W  GRAD.:     3.261 HEAT: -101.1779
 ITERATION   1 PLS= 0.195E-04 0.000E+00 ENERGY     -101.196424 DELTAE -201.1964240
 ITERATION   2 PLS= 0.817E-03 0.000E+00 ENERGY     -101.215462 DELTAE   -0.0190385
 ITERATION   3 PLS= 0.401E-03 0.000E+00 ENERGY     -101.219316 DELTAE   -0.0038534
 ITERATION   4 PLS= 0.194E-03 0.000E+00 ENERGY     -101.221634 DELTAE   -0.0023186
 CYCLE:   100 TIME:   0.066 TIME LEFT:  2.00W  GRAD.:     3.495 HEAT: -101.2205
 ITERATION   1 PLS= 0.347E-04 0.000E+00 ENERGY     -101.210950 DELTAE -201.2109498
 ITERATION   2 PLS= 0.691E-03 0.000E+00 ENERGY     -101.221376 DELTAE   -0.0104264
 ITERATION   3 PLS= 0.336E-03 0.000E+00 ENERGY     -101.223533 DELTAE   -0.0021564
 ITERATION   4 PLS= 0.166E-03 0.000E+00 ENERGY     -101.224956 DELTAE   -0.0014234
 CYCLE:   101 TIME:   0.062 TIME LEFT:  2.00W  GRAD.:     3.709 HEAT: -101.2242
 ITERATION   1 PLS= 0.326E-04 0.000E+00 ENERGY     -101.094665 DELTAE -201.0946654
 ITERATION   2 PLS= 0.230E-02 0.000E+00 ENERGY     -101.189365 DELTAE   -0.0946997
 ITERATION   3 PLS= 0.116E-02 0.000E+00 ENERGY     -101.209762 DELTAE   -0.0203972
 ITERATION   4 PLS= 0.574E-03 0.000E+00 ENERGY     -101.223083 DELTAE   -0.0133211
 ITERATION   5 PLS= 0.628E-04 0.000E+00 ENERGY     -101.216162 DELTAE    0.0069217
 CYCLE:   102 TIME:   0.066 TIME LEFT:  2.00W  GRAD.:     5.209 HEAT: -101.2162
 ITERATION   1 PLS= 0.397E-04 0.000E+00 ENERGY     -101.196862 DELTAE -201.1968619
 ITERATION   2 PLS= 0.136E-02 0.000E+00 ENERGY     -101.223930 DELTAE   -0.0270678
 ITERATION   3 PLS= 0.667E-03 0.000E+00 ENERGY     -101.229362 DELTAE   -0.0054325
 ITERATION   4 PLS= 0.324E-03 0.000E+00 ENERGY     -101.232883 DELTAE   -0.0035211
 CYCLE:   103 TIME:   0.066 TIME LEFT:  2.00W  GRAD.:     3.615 HEAT: -101.2311
 ITERATION   1 PLS= 0.514E-04 0.000E+00 ENERGY     -101.232820 DELTAE -201.2328200
 ITERATION   2 PLS= 0.353E-03 0.000E+00 ENERGY     -101.235301 DELTAE   -0.0024806
 ITERATION   3 PLS= 0.158E-03 0.000E+00 ENERGY     -101.235721 DELTAE   -0.0004202
 ITERATION   4 PLS= 0.838E-04 0.000E+00 ENERGY     -101.235948 DELTAE   -0.0002270
 CYCLE:   104 TIME:   0.086 TIME LEFT:  2.00W  GRAD.:     2.577 HEAT: -101.2358
 ITERATION   1 PLS= 0.188E-04 0.000E+00 ENERGY     -101.283878 DELTAE -201.2838785
 ITERATION   2 PLS= 0.782E-03 0.000E+00 ENERGY     -101.292066 DELTAE   -0.0081871
 ITERATION   3 PLS= 0.405E-03 0.000E+00 ENERGY     -101.293858 DELTAE   -0.0017926
 ITERATION   4 PLS= 0.218E-03 0.000E+00 ENERGY     -101.295091 DELTAE   -0.0012323
 CYCLE:   105 TIME:   0.062 TIME LEFT:  2.00W  GRAD.:     2.328 HEAT: -101.2944
 ITERATION   1 PLS= 0.159E-04 0.000E+00 ENERGY     -101.242281 DELTAE -201.2422813
 ITERATION   2 PLS= 0.155E-02 0.000E+00 ENERGY     -101.270449 DELTAE   -0.0281673
 ITERATION   3 PLS= 0.772E-03 0.000E+00 ENERGY     -101.276802 DELTAE   -0.0063536
 ITERATION   4 PLS= 0.380E-03 0.000E+00 ENERGY     -101.281131 DELTAE   -0.0043286
 ITERATION   5 PLS= 0.502E-04 0.000E+00 ENERGY     -101.278864 DELTAE    0.0022668
 CYCLE:   106 TIME:   0.070 TIME LEFT:  2.00W  GRAD.:     3.310 HEAT: -101.2789
 ITERATION   1 PLS= 0.315E-04 0.000E+00 ENERGY     -101.251616 DELTAE -201.2516161
 ITERATION   2 PLS= 0.209E-02 0.000E+00 ENERGY     -101.295492 DELTAE   -0.0438764
 ITERATION   3 PLS= 0.105E-02 0.000E+00 ENERGY     -101.305290 DELTAE   -0.0097978
 ITERATION   4 PLS= 0.520E-03 0.000E+00 ENERGY     -101.311836 DELTAE   -0.0065457
 CYCLE:   107 TIME:   0.062 TIME LEFT:  2.00W  GRAD.:     2.775 HEAT: -101.3085
 ITERATION   1 PLS= 0.635E-04 0.000E+00 ENERGY     -101.299311 DELTAE -201.2993111
 ITERATION   2 PLS= 0.151E-02 0.000E+00 ENERGY     -101.317741 DELTAE   -0.0184300
 ITERATION   3 PLS= 0.749E-03 0.000E+00 ENERGY     -101.321862 DELTAE   -0.0041212
 ITERATION   4 PLS= 0.369E-03 0.000E+00 ENERGY     -101.324557 DELTAE   -0.0026946
 CYCLE:   108 TIME:   0.066 TIME LEFT:  2.00W  GRAD.:     2.391 HEAT: -101.3232
 ITERATION   1 PLS= 0.380E-04 0.000E+00 ENERGY     -101.152288 DELTAE -201.1522884
 ITERATION   2 PLS= 0.280E-02 0.000E+00 ENERGY     -101.205593 DELTAE   -0.0533045
 ITERATION   3 PLS= 0.142E-02 0.000E+00 ENERGY     -101.217572 DELTAE   -0.0119795
 ITERATION   4 PLS= 0.706E-03 0.000E+00 ENERGY     -101.225076 DELTAE   -0.0075036
 ITERATION   5 PLS= 0.498E-04 0.000E+00 ENERGY     -101.221389 DELTAE    0.0036867
 CYCLE:   109 TIME:   0.066 TIME LEFT:  2.00W  GRAD.:     2.815 HEAT: -101.2214
 ITERATION   1 PLS= 0.316E-04 0.000E+00 ENERGY     -101.200602 DELTAE -201.2006021
 ITERATION   2 PLS= 0.884E-03 0.000E+00 ENERGY     -101.211338 DELTAE   -0.0107358
 ITERATION   3 PLS= 0.441E-03 0.000E+00 ENERGY     -101.213442 DELTAE   -0.0021041
 ITERATION   4 PLS= 0.219E-03 0.000E+00 ENERGY     -101.214649 DELTAE   -0.0012067
 CYCLE:   110 TIME:   0.074 TIME LEFT:  2.00W  GRAD.:     3.477 HEAT: -101.2141
 ITERATION   1 PLS= 0.128E-04 0.000E+00 ENERGY     -101.207630 DELTAE -201.2076304
 ITERATION   2 PLS= 0.143E-02 0.000E+00 ENERGY     -101.222722 DELTAE   -0.0150912
 ITERATION   3 PLS= 0.707E-03 0.000E+00 ENERGY     -101.226162 DELTAE   -0.0034402
 ITERATION   4 PLS= 0.349E-03 0.000E+00 ENERGY     -101.228325 DELTAE   -0.0021634
 CYCLE:   111 TIME:   0.062 TIME LEFT:  2.00W  GRAD.:     2.620 HEAT: -101.2273
 ITERATION   1 PLS= 0.108E-04 0.000E+00 ENERGY     -101.115953 DELTAE -201.1159535
 ITERATION   2 PLS= 0.348E-02 0.000E+00 ENERGY     -101.197982 DELTAE   -0.0820289
 ITERATION   3 PLS= 0.175E-02 0.000E+00 ENERGY     -101.217169 DELTAE   -0.0191868
 ITERATION   4 PLS= 0.872E-03 0.000E+00 ENERGY     -101.229732 DELTAE   -0.0125629
 ITERATION   5 PLS= 0.303E-04 0.000E+00 ENERGY     -101.223399 DELTAE    0.0063328
 CYCLE:   112 TIME:   0.070 TIME LEFT:  2.00W  GRAD.:     3.008 HEAT: -101.2234
 ITERATION   1 PLS= 0.146E-04 0.000E+00 ENERGY     -101.174839 DELTAE -201.1748391
 ITERATION   2 PLS= 0.230E-02 0.000E+00 ENERGY     -101.222561 DELTAE   -0.0477224
 ITERATION   3 PLS= 0.114E-02 0.000E+00 ENERGY     -101.233166 DELTAE   -0.0106041
 ITERATION   4 PLS= 0.566E-03 0.000E+00 ENERGY     -101.239891 DELTAE   -0.0067253
 ITERATION   5 PLS= 0.203E-04 0.000E+00 ENERGY     -101.236480 DELTAE    0.0034110
 CYCLE:   113 TIME:   0.070 TIME LEFT:  2.00W  GRAD.:     3.970 HEAT: -101.2365
 ITERATION   1 PLS= 0.127E-04 0.000E+00 ENERGY     -101.185178 DELTAE -201.1851780
 ITERATION   2 PLS= 0.304E-02 0.000E+00 ENERGY     -101.254050 DELTAE   -0.0688722
 ITERATION   3 PLS= 0.153E-02 0.000E+00 ENERGY     -101.269940 DELTAE   -0.0158896
 ITERATION   4 PLS= 0.763E-03 0.000E+00 ENERGY     -101.280264 DELTAE   -0.0103243
 CYCLE:   114 TIME:   0.062 TIME LEFT:  2.00W  GRAD.:     3.135 HEAT: -101.2750
 ITERATION   1 PLS= 0.275E-04 0.000E+00 ENERGY     -101.222833 DELTAE -201.2228332
 ITERATION   2 PLS= 0.840E-03 0.000E+00 ENERGY     -101.258762 DELTAE   -0.0359286
 ITERATION   3 PLS= 0.548E-03 0.000E+00 ENERGY     -101.265834 DELTAE   -0.0070724
 ITERATION   4 PLS= 0.320E-03 0.000E+00 ENERGY     -101.270197 DELTAE   -0.0043633
 CYCLE:   115 TIME:   0.062 TIME LEFT:  2.00W  GRAD.:     3.314 HEAT: -101.2678
 ITERATION   1 PLS= 0.285E-04 0.000E+00 ENERGY     -101.078180 DELTAE -201.0781796
 ITERATION   2 PLS= 0.471E-02 0.000E+00 ENERGY     -101.209952 DELTAE   -0.1317726
 ITERATION   3 PLS= 0.242E-02 0.000E+00 ENERGY     -101.240801 DELTAE   -0.0308493
 ITERATION   4 PLS= 0.122E-02 0.000E+00 ENERGY     -101.261190 DELTAE   -0.0203882
 ITERATION   5 PLS= 0.785E-04 0.000E+00 ENERGY     -101.250882 DELTAE    0.0103078
 CYCLE:   116 TIME:   0.070 TIME LEFT:  2.00W  GRAD.:     3.890 HEAT: -101.2509
 ITERATION   1 PLS= 0.367E-04 0.000E+00 ENERGY     -101.278881 DELTAE -201.2788805
 ITERATION   2 PLS= 0.830E-03 0.000E+00 ENERGY     -101.288674 DELTAE   -0.0097932
 ITERATION   3 PLS= 0.476E-03 0.000E+00 ENERGY     -101.290594 DELTAE   -0.0019203
 ITERATION   4 PLS= 0.262E-03 0.000E+00 ENERGY     -101.291786 DELTAE   -0.0011924
 CYCLE:   117 TIME:   0.066 TIME LEFT:  2.00W  GRAD.:     3.521 HEAT: -101.2912
 ITERATION   1 PLS= 0.194E-04 0.000E+00 ENERGY     -101.271435 DELTAE -201.2714347
 ITERATION   2 PLS= 0.334E-03 0.000E+00 ENERGY     -101.273337 DELTAE   -0.0019026
 ITERATION   3 PLS= 0.170E-03 0.000E+00 ENERGY     -101.273698 DELTAE   -0.0003603
 ITERATION   4 PLS= 0.998E-04 0.000E+00 ENERGY     -101.273927 DELTAE   -0.0002298
 CYCLE:   118 TIME:   0.062 TIME LEFT:  2.00W  GRAD.:     2.206 HEAT: -101.2738
 ITERATION   1 PLS= 0.148E-04 0.000E+00 ENERGY     -101.270483 DELTAE -201.2704828
 ITERATION   2 PLS= 0.648E-03 0.000E+00 ENERGY     -101.276599 DELTAE   -0.0061161
 ITERATION   3 PLS= 0.361E-03 0.000E+00 ENERGY     -101.277828 DELTAE   -0.0012294
 ITERATION   4 PLS= 0.196E-03 0.000E+00 ENERGY     -101.278622 DELTAE   -0.0007942
 CYCLE:   119 TIME:   0.066 TIME LEFT:  2.00W  GRAD.:     2.269 HEAT: -101.2782
 ITERATION   1 PLS= 0.189E-04 0.000E+00 ENERGY     -101.486487 DELTAE -201.4864871
 ITERATION   2 PLS= 0.192E-02 0.000E+00 ENERGY     -101.492477 DELTAE   -0.0059898
 ITERATION   3 PLS= 0.971E-03 0.000E+00 ENERGY     -101.493798 DELTAE   -0.0013206
 ITERATION   4 PLS= 0.506E-03 0.000E+00 ENERGY     -101.494683 DELTAE   -0.0008851
 CYCLE:   120 TIME:   0.066 TIME LEFT:  2.00W  GRAD.:     2.135 HEAT: -101.4942
 ITERATION   1 PLS= 0.401E-04 0.000E+00 ENERGY     -101.485767 DELTAE -201.4857665
 ITERATION   2 PLS= 0.125E-02 0.000E+00 ENERGY     -101.495487 DELTAE   -0.0097202
 ITERATION   3 PLS= 0.616E-03 0.000E+00 ENERGY     -101.497765 DELTAE   -0.0022780
 ITERATION   4 PLS= 0.307E-03 0.000E+00 ENERGY     -101.499316 DELTAE   -0.0015512
 CYCLE:   121 TIME:   0.062 TIME LEFT:  2.00W  GRAD.:     2.308 HEAT: -101.4985
 ITERATION   1 PLS= 0.177E-04 0.000E+00 ENERGY     -101.492275 DELTAE -201.4922751
 ITERATION   2 PLS= 0.135E-02 0.000E+00 ENERGY     -101.497556 DELTAE   -0.0052810
 ITERATION   3 PLS= 0.655E-03 0.000E+00 ENERGY     -101.498683 DELTAE   -0.0011272
 ITERATION   4 PLS= 0.320E-03 0.000E+00 ENERGY     -101.499347 DELTAE   -0.0006636
 CYCLE:   122 TIME:   0.062 TIME LEFT:  2.00W  GRAD.:     2.079 HEAT: -101.4990
 ITERATION   1 PLS= 0.991E-05 0.000E+00 ENERGY     -101.488198 DELTAE -201.4881977
 ITERATION   2 PLS= 0.172E-02 0.000E+00 ENERGY     -101.498184 DELTAE   -0.0099864
 ITERATION   3 PLS= 0.818E-03 0.000E+00 ENERGY     -101.500197 DELTAE   -0.0020127
 ITERATION   4 PLS= 0.391E-03 0.000E+00 ENERGY     -101.501409 DELTAE   -0.0012122
 CYCLE:   123 TIME:   0.066 TIME LEFT:  2.00W  GRAD.:     3.034 HEAT: -101.5008
 ITERATION   1 PLS= 0.245E-04 0.000E+00 ENERGY     -101.501392 DELTAE -201.5013917
 ITERATION   2 PLS= 0.384E-03 0.000E+00 ENERGY     -101.502704 DELTAE   -0.0013127
 ITERATION   3 PLS= 0.168E-03 0.000E+00 ENERGY     -101.502903 DELTAE   -0.0001990
 ITERATION   4 PLS= 0.934E-04 0.000E+00 ENERGY     -101.503016 DELTAE   -0.0001124
 CYCLE:   124 TIME:   0.066 TIME LEFT:  2.00W  GRAD.:     2.066 HEAT: -101.5030
 ITERATION   1 PLS= 0.147E-04 0.000E+00 ENERGY     -101.473942 DELTAE -201.4739420
 ITERATION   2 PLS= 0.485E-03 0.000E+00 ENERGY     -101.476223 DELTAE   -0.0022809
 ITERATION   3 PLS= 0.268E-03 0.000E+00 ENERGY     -101.476676 DELTAE   -0.0004528
 ITERATION   4 PLS= 0.144E-03 0.000E+00 ENERGY     -101.476958 DELTAE   -0.0002818
 CYCLE:   125 TIME:   0.109 TIME LEFT:  2.00W  GRAD.:     2.253 HEAT: -101.4768
 ITERATION   1 PLS= 0.119E-04 0.000E+00 ENERGY     -101.471296 DELTAE -201.4712959
 ITERATION   2 PLS= 0.102E-02 0.000E+00 ENERGY     -101.476439 DELTAE   -0.0051436
 ITERATION   3 PLS= 0.500E-03 0.000E+00 ENERGY     -101.477479 DELTAE   -0.0010395
 ITERATION   4 PLS= 0.245E-03 0.000E+00 ENERGY     -101.478053 DELTAE   -0.0005735
 CYCLE:   126 TIME:   0.066 TIME LEFT:  2.00W  GRAD.:     2.108 HEAT: -101.4778
 ITERATION   1 PLS= 0.160E-04 0.000E+00 ENERGY     -101.482947 DELTAE -201.4829473
 ITERATION   2 PLS= 0.157E-02 0.000E+00 ENERGY     -101.498903 DELTAE   -0.0159559
 ITERATION   3 PLS= 0.759E-03 0.000E+00 ENERGY     -101.502487 DELTAE   -0.0035834
 ITERATION   4 PLS= 0.366E-03 0.000E+00 ENERGY     -101.504754 DELTAE   -0.0022674
 ITERATION   5 PLS= 0.205E-04 0.000E+00 ENERGY     -101.503650 DELTAE    0.0011036
 CYCLE:   127 TIME:   0.066 TIME LEFT:  2.00W  GRAD.:     3.161 HEAT: -101.5037
 ITERATION   1 PLS= 0.139E-04 0.000E+00 ENERGY     -101.388698 DELTAE -201.3886979
 ITERATION   2 PLS= 0.153E-02 0.000E+00 ENERGY     -101.408000 DELTAE   -0.0193021
 ITERATION   3 PLS= 0.760E-03 0.000E+00 ENERGY     -101.412590 DELTAE   -0.0045897
 ITERATION   4 PLS= 0.378E-03 0.000E+00 ENERGY     -101.415715 DELTAE   -0.0031249
 CYCLE:   128 TIME:   0.066 TIME LEFT:  2.00W  GRAD.:     2.514 HEAT: -101.4141
 ITERATION   1 PLS= 0.151E-04 0.000E+00 ENERGY     -101.217521 DELTAE -201.2175213
 ITERATION   2 PLS= 0.136E-02 0.000E+00 ENERGY     -101.240698 DELTAE   -0.0231767
 ITERATION   3 PLS= 0.663E-03 0.000E+00 ENERGY     -101.246063 DELTAE   -0.0053653
 ITERATION   4 PLS= 0.364E-03 0.000E+00 ENERGY     -101.249602 DELTAE   -0.0035387
 ITERATION   5 PLS= 0.321E-04 0.000E+00 ENERGY     -101.247866 DELTAE    0.0017358
 CYCLE:   129 TIME:   0.070 TIME LEFT:  2.00W  GRAD.:     2.735 HEAT: -101.2479
 ITERATION   1 PLS= 0.125E-04 0.000E+00 ENERGY     -101.182310 DELTAE -201.1823101
 ITERATION   2 PLS= 0.258E-02 0.000E+00 ENERGY     -101.211585 DELTAE   -0.0292752
 ITERATION   3 PLS= 0.137E-02 0.000E+00 ENERGY     -101.218281 DELTAE   -0.0066954
 ITERATION   4 PLS= 0.729E-03 0.000E+00 ENERGY     -101.222903 DELTAE   -0.0046219
 ITERATION   5 PLS= 0.311E-04 0.000E+00 ENERGY     -101.220510 DELTAE    0.0023926
 CYCLE:   130 TIME:   0.066 TIME LEFT:  2.00W  GRAD.:     2.831 HEAT: -101.2205
 ITERATION   1 PLS= 0.154E-04 0.000E+00 ENERGY     -101.178099 DELTAE -201.1780990
 ITERATION   2 PLS= 0.282E-02 0.000E+00 ENERGY     -101.212902 DELTAE   -0.0348030
 ITERATION   3 PLS= 0.150E-02 0.000E+00 ENERGY     -101.220784 DELTAE   -0.0078825
 ITERATION   4 PLS= 0.796E-03 0.000E+00 ENERGY     -101.226180 DELTAE   -0.0053953
 ITERATION   5 PLS= 0.360E-04 0.000E+00 ENERGY     -101.223367 DELTAE    0.0028130
 CYCLE:   131 TIME:   0.070 TIME LEFT:  2.00W  GRAD.:     2.700 HEAT: -101.2234
 ITERATION   1 PLS= 0.188E-04 0.000E+00 ENERGY     -101.263054 DELTAE -201.2630538
 ITERATION   2 PLS= 0.146E-02 0.000E+00 ENERGY     -101.276425 DELTAE   -0.0133713
 ITERATION   3 PLS= 0.723E-03 0.000E+00 ENERGY     -101.279116 DELTAE   -0.0026914
 ITERATION   4 PLS= 0.358E-03 0.000E+00 ENERGY     -101.280710 DELTAE   -0.0015933
 CYCLE:   132 TIME:   0.062 TIME LEFT:  2.00W  GRAD.:     2.626 HEAT: -101.2799
 ITERATION   1 PLS= 0.151E-04 0.000E+00 ENERGY     -101.280527 DELTAE -201.2805265
 ITERATION   2 PLS= 0.522E-03 0.000E+00 ENERGY     -101.286852 DELTAE   -0.0063252
 ITERATION   3 PLS= 0.243E-03 0.000E+00 ENERGY     -101.288121 DELTAE   -0.0012690
 ITERATION   4 PLS= 0.121E-03 0.000E+00 ENERGY     -101.288925 DELTAE   -0.0008046
 CYCLE:   133 TIME:   0.066 TIME LEFT:  2.00W  GRAD.:     2.528 HEAT: -101.2885
 ITERATION   1 PLS= 0.154E-04 0.000E+00 ENERGY     -101.224713 DELTAE -201.2247125
 ITERATION   2 PLS= 0.167E-02 0.000E+00 ENERGY     -101.265381 DELTAE   -0.0406684
 ITERATION   3 PLS= 0.800E-03 0.000E+00 ENERGY     -101.273852 DELTAE   -0.0084709
 ITERATION   4 PLS= 0.385E-03 0.000E+00 ENERGY     -101.279085 DELTAE   -0.0052332
 ITERATION   5 PLS= 0.291E-04 0.000E+00 ENERGY     -101.276484 DELTAE    0.0026012
 CYCLE:   134 TIME:   0.070 TIME LEFT:  2.00W  GRAD.:     2.939 HEAT: -101.2765
 ITERATION   1 PLS= 0.202E-04 0.000E+00 ENERGY     -101.052486 DELTAE -201.0524857
 ITERATION   2 PLS= 0.319E-02 0.000E+00 ENERGY     -101.105185 DELTAE   -0.0526992
 ITERATION   3 PLS= 0.172E-02 0.000E+00 ENERGY     -101.116620 DELTAE   -0.0114352
 ITERATION   4 PLS= 0.926E-03 0.000E+00 ENERGY     -101.124915 DELTAE   -0.0082947
 ITERATION   5 PLS= 0.499E-04 0.000E+00 ENERGY     -101.120401 DELTAE    0.0045135
 CYCLE:   135 TIME:   0.066 TIME LEFT:  2.00W  GRAD.:     6.664 HEAT: -101.1204
 ITERATION   1 PLS= 0.337E-04 0.000E+00 ENERGY     -101.132764 DELTAE -201.1327639
 ITERATION   2 PLS= 0.956E-03 0.000E+00 ENERGY     -101.143729 DELTAE   -0.0109651
 ITERATION   3 PLS= 0.432E-03 0.000E+00 ENERGY     -101.145946 DELTAE   -0.0022169
 ITERATION   4 PLS= 0.199E-03 0.000E+00 ENERGY     -101.147438 DELTAE   -0.0014920
 CYCLE:   136 TIME:   0.062 TIME LEFT:  2.00W  GRAD.:     2.182 HEAT: -101.1467
 ITERATION   1 PLS= 0.312E-04 0.000E+00 ENERGY     -101.151172 DELTAE -201.1511718
 ITERATION   2 PLS= 0.343E-03 0.000E+00 ENERGY     -101.152506 DELTAE   -0.0013338
 ITERATION   3 PLS= 0.148E-03 0.000E+00 ENERGY     -101.152749 DELTAE   -0.0002437
 ITERATION   4 PLS= 0.733E-04 0.000E+00 ENERGY     -101.152909 DELTAE   -0.0001602
 CYCLE:   137 TIME:   0.066 TIME LEFT:  2.00W  GRAD.:     1.345 HEAT: -101.1528
 ITERATION   1 PLS= 0.180E-04 0.000E+00 ENERGY     -101.135468 DELTAE -201.1354684
 ITERATION   2 PLS= 0.217E-02 0.000E+00 ENERGY     -101.156660 DELTAE   -0.0211913
 ITERATION   3 PLS= 0.110E-02 0.000E+00 ENERGY     -101.161856 DELTAE   -0.0051961
 ITERATION   4 PLS= 0.558E-03 0.000E+00 ENERGY     -101.165458 DELTAE   -0.0036022
 ITERATION   5 PLS= 0.158E-04 0.000E+00 ENERGY     -101.163642 DELTAE    0.0018158
 CYCLE:   138 TIME:   0.066 TIME LEFT:  2.00W  GRAD.:     1.800 HEAT: -101.1636
 ITERATION   1 PLS= 0.950E-05 0.000E+00 ENERGY     -101.212286 DELTAE -201.2122861
 ITERATION   2 PLS= 0.966E-03 0.000E+00 ENERGY     -101.224523 DELTAE   -0.0122366
 ITERATION   3 PLS= 0.498E-03 0.000E+00 ENERGY     -101.227393 DELTAE   -0.0028700
 ITERATION   4 PLS= 0.257E-03 0.000E+00 ENERGY     -101.229478 DELTAE   -0.0020856
 ITERATION   5 PLS= 0.320E-04 0.000E+00 ENERGY     -101.228372 DELTAE    0.0011059
 CYCLE:   139 TIME:   0.070 TIME LEFT:  2.00W  GRAD.:     2.354 HEAT: -101.2284
 ITERATION   1 PLS= 0.165E-04 0.000E+00 ENERGY     -101.052210 DELTAE -201.0522101
 ITERATION   2 PLS= 0.446E-02 0.000E+00 ENERGY     -101.155482 DELTAE   -0.1032723
 ITERATION   3 PLS= 0.231E-02 0.000E+00 ENERGY     -101.180998 DELTAE   -0.0255160
 ITERATION   4 PLS= 0.119E-02 0.000E+00 ENERGY     -101.198803 DELTAE   -0.0178046
 ITERATION   5 PLS= 0.223E-04 0.000E+00 ENERGY     -101.189746 DELTAE    0.0090569
 CYCLE:   140 TIME:   0.082 TIME LEFT:  2.00W  GRAD.:     2.591 HEAT: -101.1898
 ITERATION   1 PLS= 0.107E-04 0.000E+00 ENERGY     -101.183698 DELTAE -201.1836979
 ITERATION   2 PLS= 0.127E-02 0.000E+00 ENERGY     -101.194020 DELTAE   -0.0103221
 ITERATION   3 PLS= 0.632E-03 0.000E+00 ENERGY     -101.196300 DELTAE   -0.0022797
 ITERATION   4 PLS= 0.315E-03 0.000E+00 ENERGY     -101.197810 DELTAE   -0.0015102
 CYCLE:   141 TIME:   0.062 TIME LEFT:  2.00W  GRAD.:     2.864 HEAT: -101.1970
 ITERATION   1 PLS= 0.419E-04 0.000E+00 ENERGY     -101.187556 DELTAE -201.1875559
 ITERATION   2 PLS= 0.577E-03 0.000E+00 ENERGY     -101.190562 DELTAE   -0.0030060
 ITERATION   3 PLS= 0.303E-03 0.000E+00 ENERGY     -101.191262 DELTAE   -0.0007004
 ITERATION   4 PLS= 0.157E-03 0.000E+00 ENERGY     -101.191752 DELTAE   -0.0004902
 CYCLE:   142 TIME:   0.062 TIME LEFT:  2.00W  GRAD.:     1.458 HEAT: -101.1915
 ITERATION   1 PLS= 0.652E-05 0.000E+00 ENERGY     -101.200012 DELTAE -201.2000121
 ITERATION   2 PLS= 0.512E-03 0.000E+00 ENERGY     -101.201222 DELTAE   -0.0012095
 ITERATION   3 PLS= 0.276E-03 0.000E+00 ENERGY     -101.201490 DELTAE   -0.0002682
 ITERATION   4 PLS= 0.147E-03 0.000E+00 ENERGY     -101.201676 DELTAE   -0.0001860
 CYCLE:   143 TIME:   0.066 TIME LEFT:  2.00W  GRAD.:     1.136 HEAT: -101.2016
 ITERATION   1 PLS= 0.107E-04 0.000E+00 ENERGY     -101.195472 DELTAE -201.1954720
 ITERATION   2 PLS= 0.113E-02 0.000E+00 ENERGY     -101.200860 DELTAE   -0.0053885
 ITERATION   3 PLS= 0.589E-03 0.000E+00 ENERGY     -101.202178 DELTAE   -0.0013177
 ITERATION   4 PLS= 0.307E-03 0.000E+00 ENERGY     -101.203101 DELTAE   -0.0009225
 ITERATION   5 PLS= 0.108E-04 0.000E+00 ENERGY     -101.202630 DELTAE    0.0004710
 CYCLE:   144 TIME:   0.137 TIME LEFT:  2.00W  GRAD.:     1.484 HEAT: -101.2026
 ITERATION   1 PLS= 0.560E-05 0.000E+00 ENERGY     -101.259483 DELTAE -201.2594830
 ITERATION   2 PLS= 0.196E-02 0.000E+00 ENERGY     -101.281804 DELTAE   -0.0223210
 ITERATION   3 PLS= 0.101E-02 0.000E+00 ENERGY     -101.287105 DELTAE   -0.0053012
 ITERATION   4 PLS= 0.524E-03 0.000E+00 ENERGY     -101.290670 DELTAE   -0.0035654
 ITERATION   5 PLS= 0.202E-04 0.000E+00 ENERGY     -101.288902 DELTAE    0.0017681
 CYCLE:   145 TIME:   0.082 TIME LEFT:  2.00W  GRAD.:     2.719 HEAT: -101.2889
 ITERATION   1 PLS= 0.115E-04 0.000E+00 ENERGY     -101.225158 DELTAE -201.2251579
 ITERATION   2 PLS= 0.638E-03 0.000E+00 ENERGY     -101.244107 DELTAE   -0.0189496
 ITERATION   3 PLS= 0.308E-03 0.000E+00 ENERGY     -101.247887 DELTAE   -0.0037791
 ITERATION   4 PLS= 0.159E-03 0.000E+00 ENERGY     -101.250020 DELTAE   -0.0021337
 CYCLE:   146 TIME:   0.094 TIME LEFT:  2.00W  GRAD.:     2.437 HEAT: -101.2490
 ITERATION   1 PLS= 0.257E-04 0.000E+00 ENERGY     -101.314110 DELTAE -201.3141099
 ITERATION   2 PLS= 0.153E-02 0.000E+00 ENERGY     -101.340305 DELTAE   -0.0261947
 ITERATION   3 PLS= 0.802E-03 0.000E+00 ENERGY     -101.346391 DELTAE   -0.0060859
 ITERATION   4 PLS= 0.420E-03 0.000E+00 ENERGY     -101.350486 DELTAE   -0.0040951
 ITERATION   5 PLS= 0.286E-04 0.000E+00 ENERGY     -101.348452 DELTAE    0.0020335
 CYCLE:   147 TIME:   0.137 TIME LEFT:  2.00W  GRAD.:     2.287 HEAT: -101.3485
 ITERATION   1 PLS= 0.200E-04 0.000E+00 ENERGY     -101.305908 DELTAE -201.3059080
 ITERATION   2 PLS= 0.975E-03 0.000E+00 ENERGY     -101.323465 DELTAE   -0.0175570
 ITERATION   3 PLS= 0.336E-03 0.000E+00 ENERGY     -101.326830 DELTAE   -0.0033651
 ITERATION   4 PLS= 0.167E-03 0.000E+00 ENERGY     -101.328851 DELTAE   -0.0020205
 CYCLE:   148 TIME:   0.129 TIME LEFT:  2.00W  GRAD.:     3.239 HEAT: -101.3279
 ITERATION   1 PLS= 0.339E-04 0.000E+00 ENERGY     -101.350471 DELTAE -201.3504707
 ITERATION   2 PLS= 0.681E-03 0.000E+00 ENERGY     -101.354135 DELTAE   -0.0036642
 ITERATION   3 PLS= 0.371E-03 0.000E+00 ENERGY     -101.354949 DELTAE   -0.0008139
 ITERATION   4 PLS= 0.199E-03 0.000E+00 ENERGY     -101.355505 DELTAE   -0.0005567
 CYCLE:   149 TIME:   0.105 TIME LEFT:  2.00W  GRAD.:     1.450 HEAT: -101.3552
 ITERATION   1 PLS= 0.134E-04 0.000E+00 ENERGY     -101.355485 DELTAE -201.3554849
 ITERATION   2 PLS= 0.323E-03 0.000E+00 ENERGY     -101.356354 DELTAE   -0.0008687
 ITERATION   3 PLS= 0.123E-03 0.000E+00 ENERGY     -101.356489 DELTAE   -0.0001357
 ITERATION   4 PLS= 0.634E-04 0.000E+00 ENERGY     -101.356568 DELTAE   -0.0000790
 CYCLE:   150 TIME:   0.086 TIME LEFT:  2.00W  GRAD.:     1.277 HEAT: -101.3565
 ITERATION   1 PLS= 0.133E-04 0.000E+00 ENERGY     -101.353407 DELTAE -201.3534075
 ITERATION   2 PLS= 0.957E-03 0.000E+00 ENERGY     -101.359025 DELTAE   -0.0056173
 ITERATION   3 PLS= 0.470E-03 0.000E+00 ENERGY     -101.360265 DELTAE   -0.0012403
 ITERATION   4 PLS= 0.232E-03 0.000E+00 ENERGY     -101.361043 DELTAE   -0.0007775
 ITERATION   5 PLS= 0.158E-04 0.000E+00 ENERGY     -101.360656 DELTAE    0.0003862
 CYCLE:   151 TIME:   0.070 TIME LEFT:  2.00W  GRAD.:     1.918 HEAT: -101.3607
 ITERATION   1 PLS= 0.993E-05 0.000E+00 ENERGY     -101.239976 DELTAE -201.2399759
 ITERATION   2 PLS= 0.202E-02 0.000E+00 ENERGY     -101.265765 DELTAE   -0.0257890
 ITERATION   3 PLS= 0.983E-03 0.000E+00 ENERGY     -101.271521 DELTAE   -0.0057557
 ITERATION   4 PLS= 0.482E-03 0.000E+00 ENERGY     -101.275153 DELTAE   -0.0036320
 ITERATION   5 PLS= 0.274E-04 0.000E+00 ENERGY     -101.273337 DELTAE    0.0018160
 CYCLE:   152 TIME:   0.066 TIME LEFT:  2.00W  GRAD.:     2.412 HEAT: -101.2733
 ITERATION   1 PLS= 0.175E-04 0.000E+00 ENERGY     -101.265415 DELTAE -201.2654150
 ITERATION   2 PLS= 0.285E-02 0.000E+00 ENERGY     -101.331695 DELTAE   -0.0662805
 ITERATION   3 PLS= 0.138E-02 0.000E+00 ENERGY     -101.345997 DELTAE   -0.0143016
 ITERATION   4 PLS= 0.674E-03 0.000E+00 ENERGY     -101.354819 DELTAE   -0.0088217
 ITERATION   5 PLS= 0.649E-04 0.000E+00 ENERGY     -101.350452 DELTAE    0.0043670
 CYCLE:   153 TIME:   0.070 TIME LEFT:  2.00W  GRAD.:     4.130 HEAT: -101.3505
 ITERATION   1 PLS= 0.408E-04 0.000E+00 ENERGY     -101.334005 DELTAE -201.3340052
 ITERATION   2 PLS= 0.779E-03 0.000E+00 ENERGY     -101.342940 DELTAE   -0.0089351
 ITERATION   3 PLS= 0.380E-03 0.000E+00 ENERGY     -101.344612 DELTAE   -0.0016721
 ITERATION   4 PLS= 0.185E-03 0.000E+00 ENERGY     -101.345530 DELTAE   -0.0009177
 CYCLE:   154 TIME:   0.066 TIME LEFT:  2.00W  GRAD.:     2.702 HEAT: -101.3451
 ITERATION   1 PLS= 0.202E-04 0.000E+00 ENERGY     -101.346212 DELTAE -201.3462123
 ITERATION   2 PLS= 0.244E-03 0.000E+00 ENERGY     -101.346970 DELTAE   -0.0007578
 ITERATION   3 PLS= 0.875E-04 0.000E+00 ENERGY     -101.347088 DELTAE   -0.0001177
 ITERATION   4 PLS= 0.459E-04 0.000E+00 ENERGY     -101.347152 DELTAE   -0.0000643
 CYCLE:   155 TIME:   0.066 TIME LEFT:  2.00W  GRAD.:     1.473 HEAT: -101.3471
 ITERATION   1 PLS= 0.944E-05 0.000E+00 ENERGY     -101.368484 DELTAE -201.3684844
 ITERATION   2 PLS= 0.233E-03 0.000E+00 ENERGY     -101.370100 DELTAE   -0.0016158
 ITERATION   3 PLS= 0.110E-03 0.000E+00 ENERGY     -101.370412 DELTAE   -0.0003121
 ITERATION   4 PLS= 0.554E-04 0.000E+00 ENERGY     -101.370596 DELTAE   -0.0001837
 CYCLE:   156 TIME:   0.066 TIME LEFT:  2.00W  GRAD.:     1.590 HEAT: -101.3705
 ITERATION   1 PLS= 0.120E-04 0.000E+00 ENERGY     -101.337100 DELTAE -201.3371001
 ITERATION   2 PLS= 0.720E-03 0.000E+00 ENERGY     -101.342744 DELTAE   -0.0056442
 ITERATION   3 PLS= 0.377E-03 0.000E+00 ENERGY     -101.343943 DELTAE   -0.0011985
 ITERATION   4 PLS= 0.201E-03 0.000E+00 ENERGY     -101.344749 DELTAE   -0.0008060
 ITERATION   5 PLS= 0.156E-04 0.000E+00 ENERGY     -101.344317 DELTAE    0.0004320
 CYCLE:   157 TIME:   0.070 TIME LEFT:  2.00W  GRAD.:     2.107 HEAT: -101.3443
 ITERATION   1 PLS= 0.838E-05 0.000E+00 ENERGY     -101.310667 DELTAE -201.3106672
 ITERATION   2 PLS= 0.182E-02 0.000E+00 ENERGY     -101.343619 DELTAE   -0.0329519
 ITERATION   3 PLS= 0.877E-03 0.000E+00 ENERGY     -101.350666 DELTAE   -0.0070465
 ITERATION   4 PLS= 0.425E-03 0.000E+00 ENERGY     -101.355083 DELTAE   -0.0044174
 ITERATION   5 PLS= 0.234E-04 0.000E+00 ENERGY     -101.352840 DELTAE    0.0022428


           HEAT OF FORMATION IS ESSENTIALLY STATIONARY
 ITERATION   1 PLS= 0.147E-04 0.000E+00 ENERGY      -95.824833 DELTAE -195.8248331
 ITERATION   2 PLS= 0.180E-01 0.000E+00 ENERGY     -100.204046 DELTAE   -4.3792130
 ITERATION   3 PLS= 0.101E-01 0.000E+00 ENERGY     -101.182232 DELTAE   -0.9781864
 ITERATION   4 PLS= 0.533E-02 0.000E+00 ENERGY     -101.853478 DELTAE   -0.6712458
 ITERATION   5 PLS= 0.272E-03 0.000E+00 ENERGY     -101.503008 DELTAE    0.3504707
 ITERATION   6 PLS= 0.166E-03 0.000E+00 ENERGY     -101.503470 DELTAE   -0.0004629


          CURRENT BEST VALUE OF HEAT OF FORMATION =   -101.504022

* ===============================
* Input file for Mopac
* ===============================
 PM7 CHARGE=0 SINGLET AUX DUMP=30M ITRY=15000 eps=78.4 T=14D PL THREADS=40

 Mopac file generated by Gabedit
  C     1.62543893 +1   2.87248301 +1   2.05246021 +1
  C     1.98972127 +1   1.55577059 +1   1.76940187 +1
  C     1.01244671 +1   0.60038455 +1   1.48151124 +1
  C    -0.33595168 +1   0.96124571 +1   1.46460101 +1
  C    -0.66321252 +1   2.28026430 +1   1.73928418 +1
  C     0.28431340 +1   3.25008751 +1   2.03861691 +1
  H     2.39707312 +1   3.61042390 +1   2.28506878 +1
  H     3.04931031 +1   1.28026219 +1   1.77628551 +1
  H    -1.10834964 +1   0.21888366 +1   1.24006933 +1
 Cl    -2.31963963 +1   2.72968732 +1   1.70565327 +1
  H    -0.00120991 +1   4.28152710 +1   2.25821016 +1
  C     1.43301654 +1  -0.82141563 +1   1.21954068 +1
  C     0.80251640 +1  -1.79302115 +1   2.20865704 +1
  H     1.15293105 +1  -2.82484177 +1   2.05904916 +1
  H    -0.29591878 +1  -1.80575690 +1   2.15682803 +1
  H     1.07141525 +1  -1.51838560 +1   3.24203232 +1
  N     1.02123766 +1  -1.19860651 +1  -0.17473001 +1
[...]
     13          5  C    CARTESIAN X    -0.663213     -0.174751  KCAL/ANGSTROM
     14          5  C    CARTESIAN Y     2.280264      0.034086  KCAL/ANGSTROM
     15          5  C    CARTESIAN Z     1.739284     -0.070126  KCAL/ANGSTROM
     16          6  C    CARTESIAN X     0.284313      0.499221  KCAL/ANGSTROM
     17          6  C    CARTESIAN Y     3.250088     -0.002108  KCAL/ANGSTROM
     18          6  C    CARTESIAN Z     2.038617      0.034242  KCAL/ANGSTROM
     19          7  H    CARTESIAN X     2.397073      0.033954  KCAL/ANGSTROM
     20          7  H    CARTESIAN Y     3.610424     -0.228249  KCAL/ANGSTROM
     21          7  H    CARTESIAN Z     2.285069      0.050101  KCAL/ANGSTROM
     22          8  H    CARTESIAN X     3.049310     -0.211215  KCAL/ANGSTROM
     23          8  H    CARTESIAN Y     1.280262      0.158958  KCAL/ANGSTROM
     24          8  H    CARTESIAN Z     1.776286      0.136052  KCAL/ANGSTROM
     25          9  H    CARTESIAN X    -1.108350     -0.093616  KCAL/ANGSTROM
     26          9  H    CARTESIAN Y     0.218884      0.040993  KCAL/ANGSTROM
     27          9  H    CARTESIAN Z     1.240069      0.065745  KCAL/ANGSTROM
     28         10 Cl    CARTESIAN X    -2.319640     -0.094966  KCAL/ANGSTROM
     29         10 Cl    CARTESIAN Y     2.729687      0.021724  KCAL/ANGSTROM
     30         10 Cl    CARTESIAN Z     1.705653     -0.079293  KCAL/ANGSTROM
     31         11  H    CARTESIAN X    -0.001210     -0.049697  KCAL/ANGSTROM
     32         11  H    CARTESIAN Y     4.281527     -0.076097  KCAL/ANGSTROM
     33         11  H    CARTESIAN Z     2.258210      0.047420  KCAL/ANGSTROM
     34         12  C    CARTESIAN X     1.433017      0.138228  KCAL/ANGSTROM
     35         12  C    CARTESIAN Y    -0.821416     -0.003747  KCAL/ANGSTROM
     36         12  C    CARTESIAN Z     1.219541      0.020664  KCAL/ANGSTROM
     37         13  C    CARTESIAN X     0.802516     -0.064109  KCAL/ANGSTROM
     38         13  C    CARTESIAN Y    -1.793021      0.100003  KCAL/ANGSTROM
     39         13  C    CARTESIAN Z     2.208657      0.037895  KCAL/ANGSTROM
     40         14  H    CARTESIAN X     1.152931      0.111149  KCAL/ANGSTROM
     41         14  H    CARTESIAN Y    -2.824842      0.081264  KCAL/ANGSTROM
     42         14  H    CARTESIAN Z     2.059049      0.019282  KCAL/ANGSTROM
     43         15  H    CARTESIAN X    -0.295919     -0.034410  KCAL/ANGSTROM
     44         15  H    CARTESIAN Y    -1.805757     -0.038419  KCAL/ANGSTROM
     45         15  H    CARTESIAN Z     2.156828     -0.034964  KCAL/ANGSTROM
     46         16  H    CARTESIAN X     1.071415      0.205698  KCAL/ANGSTROM
     47         16  H    CARTESIAN Y    -1.518386      0.044755  KCAL/ANGSTROM
     48         16  H    CARTESIAN Z     3.242032     -0.108356  KCAL/ANGSTROM
     49         17  N    CARTESIAN X     1.021238     -0.052573  KCAL/ANGSTROM
     50         17  N    CARTESIAN Y    -1.198607      0.055872  KCAL/ANGSTROM
     51         17  N    CARTESIAN Z    -0.174730      0.045149  KCAL/ANGSTROM
     52         18  O    CARTESIAN X     1.901904      0.022751  KCAL/ANGSTROM
     53         18  O    CARTESIAN Y    -1.416474      0.007706  KCAL/ANGSTROM
     54         18  O    CARTESIAN Z    -0.992387      0.238232  KCAL/ANGSTROM
     55         19  O    CARTESIAN X    -0.162796      0.013768  KCAL/ANGSTROM
     56         19  O    CARTESIAN Y    -1.271679      0.035518  KCAL/ANGSTROM
     57         19  O    CARTESIAN Z    -0.454704      0.171872  KCAL/ANGSTROM
     58         20  N    CARTESIAN X     7.220382     -0.222380  KCAL/ANGSTROM
     59         20  N    CARTESIAN Y    -1.366363      0.301439  KCAL/ANGSTROM
     60         20  N    CARTESIAN Z     2.550725     -0.210844  KCAL/ANGSTROM
     61         21  C    CARTESIAN X     7.622683     -0.136890  KCAL/ANGSTROM
     62         21  C    CARTESIAN Y    -2.566499      0.000706  KCAL/ANGSTROM
     63         21  C    CARTESIAN Z     1.777945      0.099499  KCAL/ANGSTROM
     64         22  C    CARTESIAN X     9.109952     -0.032870  KCAL/ANGSTROM
     65         22  C    CARTESIAN Y    -2.918010      0.026195  KCAL/ANGSTROM
     66         22  C    CARTESIAN Z     1.964995      0.019408  KCAL/ANGSTROM
     67         23  C    CARTESIAN X     9.985061     -0.115731  KCAL/ANGSTROM
     68         23  C    CARTESIAN Y    -1.717185     -0.012937  KCAL/ANGSTROM
     69         23  C    CARTESIAN Z     1.585159      0.045354  KCAL/ANGSTROM
     70         24  C    CARTESIAN X     9.566102     -0.088223  KCAL/ANGSTROM
     71         24  C    CARTESIAN Y    -0.474803      0.016135  KCAL/ANGSTROM
     72         24  C    CARTESIAN Z     2.380947      0.009701  KCAL/ANGSTROM
     73         25  C    CARTESIAN X     8.063630     -0.268303  KCAL/ANGSTROM
     74         25  C    CARTESIAN Y    -0.201990     -0.141836  KCAL/ANGSTROM
     75         25  C    CARTESIAN Z     2.186041      0.049667  KCAL/ANGSTROM
     76         26  H    CARTESIAN X     2.565185     -0.035040  KCAL/ANGSTROM
     77         26  H    CARTESIAN Y    -0.922057     -0.275217  KCAL/ANGSTROM
     78         26  H    CARTESIAN Z     1.265372      0.006721  KCAL/ANGSTROM
     79         27  H    CARTESIAN X     6.978650      0.037788  KCAL/ANGSTROM
     80         27  H    CARTESIAN Y    -3.415052     -0.072470  KCAL/ANGSTROM
     81         27  H    CARTESIAN Z     2.093901     -0.051390  KCAL/ANGSTROM
     82         28  H    CARTESIAN X     7.406117      0.157608  KCAL/ANGSTROM
     83         28  H    CARTESIAN Y    -2.381423     -0.105707  KCAL/ANGSTROM
     84         28  H    CARTESIAN Z     0.703117      0.037461  KCAL/ANGSTROM
     85         29  H    CARTESIAN X     9.372279     -0.042945  KCAL/ANGSTROM
     86         29  H    CARTESIAN Y    -3.798618     -0.075843  KCAL/ANGSTROM
     87         29  H    CARTESIAN Z     1.350809     -0.028212  KCAL/ANGSTROM
     88         30  H    CARTESIAN X     9.302724      0.112719  KCAL/ANGSTROM
     89         30  H    CARTESIAN Y    -3.211163      0.153580  KCAL/ANGSTROM
     90         30  H    CARTESIAN Z     3.013912      0.090956  KCAL/ANGSTROM
     91         31  H    CARTESIAN X    11.050650      0.002052  KCAL/ANGSTROM
     92         31  H    CARTESIAN Y    -1.947041      0.063135  KCAL/ANGSTROM
     93         31  H    CARTESIAN Z     1.772193      0.038127  KCAL/ANGSTROM
     94         32  H    CARTESIAN X     9.904620      0.072260  KCAL/ANGSTROM
     95         32  H    CARTESIAN Y    -1.517751     -0.074695  KCAL/ANGSTROM
     96         32  H    CARTESIAN Z     0.499473     -0.012496  KCAL/ANGSTROM
     97         33  H    CARTESIAN X    10.155917      0.034496  KCAL/ANGSTROM
     98         33  H    CARTESIAN Y     0.404649      0.023240  KCAL/ANGSTROM
     99         33  H    CARTESIAN Z     2.064793      0.016463  KCAL/ANGSTROM
    100         34  H    CARTESIAN X     9.789417     -0.015781  KCAL/ANGSTROM
    101         34  H    CARTESIAN Y    -0.618750     -0.145782  KCAL/ANGSTROM
    102         34  H    CARTESIAN Z     3.454696      0.043484  KCAL/ANGSTROM
    103         35  H    CARTESIAN X     7.742632      0.037913  KCAL/ANGSTROM
    104         35  H    CARTESIAN Y     0.664766     -0.014746  KCAL/ANGSTROM
    105         35  H    CARTESIAN Z     2.803365      0.122234  KCAL/ANGSTROM
    106         36  H    CARTESIAN X     7.855600     -0.068593  KCAL/ANGSTROM
    107         36  H    CARTESIAN Y     0.063773      0.085641  KCAL/ANGSTROM
    108         36  H    CARTESIAN Z     1.126555      0.020229  KCAL/ANGSTROM
    109         37  H    CARTESIAN X     7.310031      0.333583  KCAL/ANGSTROM
    110         37  H    CARTESIAN Y    -1.555808     -0.014667  KCAL/ANGSTROM
    111         37  H    CARTESIAN Z     3.555236     -0.159068  KCAL/ANGSTROM
    112         38  H    CARTESIAN X     4.331048      0.627027  KCAL/ANGSTROM
    113         38  H    CARTESIAN Y    -0.210408     -0.001894  KCAL/ANGSTROM
    114         38  H    CARTESIAN Z     2.894525     -0.068407  KCAL/ANGSTROM
    115         39  H    CARTESIAN X     5.443448     -0.105783  KCAL/ANGSTROM
    116         39  H    CARTESIAN Y    -0.882565      0.145470  KCAL/ANGSTROM
    117         39  H    CARTESIAN Z     2.092908     -0.076620  KCAL/ANGSTROM
    118         40  O    CARTESIAN X     4.508250     -0.310276  KCAL/ANGSTROM
    119         40  O    CARTESIAN Y    -0.584239     -0.321495  KCAL/ANGSTROM
    120         40  O    CARTESIAN Z     2.027457     -0.468041  KCAL/ANGSTROM




   ATOM   CHEMICAL          X               Y               Z
  NUMBER   SYMBOL      (ANGSTROMS)     (ANGSTROMS)     (ANGSTROMS)

     1       C          1.62543893  *   2.87248301  *   2.05246021  *
     2       C          1.98972127  *   1.55577059  *   1.76940187  *
     3       C          1.01244671  *   0.60038455  *   1.48151124  *
     4       C         -0.33595168  *   0.96124571  *   1.46460101  *
     5       C         -0.66321252  *   2.28026430  *   1.73928418  *
     6       C          0.28431340  *   3.25008751  *   2.03861691  *
     7       H          2.39707312  *   3.61042390  *   2.28506878  *
     8       H          3.04931031  *   1.28026219  *   1.77628551  *
     9       H         -1.10834964  *   0.21888366  *   1.24006933  *
    10      Cl         -2.31963963  *   2.72968732  *   1.70565327  *
    11       H         -0.00120991  *   4.28152710  *   2.25821016  *
    12       C          1.43301654  *  -0.82141563  *   1.21954068  *
    13       C          0.80251640  *  -1.79302115  *   2.20865704  *
    14       H          1.15293105  *  -2.82484177  *   2.05904916  *
    15       H         -0.29591878  *  -1.80575690  *   2.15682803  *
    16       H          1.07141525  *  -1.51838560  *   3.24203232  *
    17       N          1.02123766  *  -1.19860651  *  -0.17473001  *
    18       O          1.90190445  *  -1.41647448  *  -0.99238748  *
    19       O         -0.16279637  *  -1.27167919  *  -0.45470368  *
    20       N          7.22038235  *  -1.36636317  *   2.55072469  *
    21       C          7.62268297  *  -2.56649881  *   1.77794459  *
    22       C          9.10995248  *  -2.91800972  *   1.96499503  *
    23       C          9.98506051  *  -1.71718468  *   1.58515927  *
    24       C          9.56610239  *  -0.47480296  *   2.38094659  *
    25       C          8.06363031  *  -0.20199033  *   2.18604132  *
    26       H          2.56518522  *  -0.92205747  *   1.26537215  *
    27       H          6.97864967  *  -3.41505238  *   2.09390141  *
    28       H          7.40611724  *  -2.38142262  *   0.70311660  *
    29       H          9.37227946  *  -3.79861811  *   1.35080890  *
    30       H          9.30272418  *  -3.21116256  *   3.01391210  *
    31       H         11.05065019  *  -1.94704096  *   1.77219262  *
    32       H          9.90461963  *  -1.51775062  *   0.49947273  *
    33       H         10.15591714  *   0.40464922  *   2.06479301  *
    34       H          9.78941696  *  -0.61874969  *   3.45469583  *
    35       H          7.74263208  *   0.66476601  *   2.80336496  *
    36       H          7.85560014  *   0.06377276  *   1.12655468  *
    37       H          7.31003118  *  -1.55580817  *   3.55523632  *
    38       H          4.33104762  *  -0.21040849  *   2.89452468  *
    39       H          5.44344823  *  -0.88256539  *   2.09290827  *
    40       O          4.50825032  *  -0.58423854  *   2.02745694  *

                             CARTESIAN COORDINATES

   1    C        1.625438925     2.872483010     2.052460209
   2    C        1.989721274     1.555770588     1.769401871
   3    C        1.012446712     0.600384551     1.481511237
   4    C       -0.335951684     0.961245708     1.464601012
   5    C       -0.663212518     2.280264298     1.739284180
   6    C        0.284313402     3.250087507     2.038616909
   7    H        2.397073121     3.610423902     2.285068776
   8    H        3.049310306     1.280262195     1.776285513
   9    H       -1.108349639     0.218883660     1.240069327
  10   Cl       -2.319639627     2.729687321     1.705653270
  11    H       -0.001209912     4.281527097     2.258210157
  12    C        1.433016541    -0.821415625     1.219540677
  13    C        0.802516401    -1.793021148     2.208657042
  14    H        1.152931049    -2.824841771     2.059049156
  15    H       -0.295918785    -1.805756897     2.156828025
  16    H        1.071415246    -1.518385596     3.242032320
  17    N        1.021237656    -1.198606514    -0.174730015
  18    O        1.901904447    -1.416474480    -0.992387483
  19    O       -0.162796367    -1.271679187    -0.454703684
  20    N        7.220382345    -1.366363170     2.550724694
  21    C        7.622682968    -2.566498806     1.777944586
  22    C        9.109952478    -2.918009723     1.964995029
  23    C        9.985060506    -1.717184684     1.585159272
  24    C        9.566102394    -0.474802962     2.380946591
  25    C        8.063630307    -0.201990333     2.186041323
  26    H        2.565185220    -0.922057467     1.265372150
  27    H        6.978649674    -3.415052384     2.093901407
  28    H        7.406117244    -2.381422618     0.703116597
  29    H        9.372279462    -3.798618107     1.350808902
  30    H        9.302724180    -3.211162560     3.013912098
  31    H       11.050650186    -1.947040959     1.772192624
  32    H        9.904619629    -1.517750618     0.499472728
  33    H       10.155917136     0.404649222     2.064793006
  34    H        9.789416957    -0.618749689     3.454695828
  35    H        7.742632080     0.664766007     2.803364958
  36    H        7.855600142     0.063772756     1.126554682
  37    H        7.310031185    -1.555808171     3.555236319
  38    H        4.331047620    -0.210408487     2.894524684
  39    H        5.443448233    -0.882565389     2.092908275
  40    O        4.508250321    -0.584238541     2.027456941


           Empirical Formula: C13 H21 N2 O3 Cl  =    40 atoms



      MOLECULAR POINT GROUP   :   C1  


                  EIGENVALUES  
 -37.48206 -35.47631 -31.60430 -30.94979 -29.35575 -28.73038 -28.15804 -27.49152
 -26.15574 -26.09730 -25.07468 -24.95355 -22.51844 -22.34187 -21.28852 -21.23267
 -20.53299 -19.73317 -18.60397 -18.50172 -17.70726 -17.38054 -17.25478 -16.81552
 -16.38756 -15.66261 -15.53235 -15.46536 -15.17783 -15.01402 -14.76370 -14.60479
 -14.27511 -14.10680 -14.08333 -13.83094 -13.14466 -13.13877 -12.99723 -12.75892
 -12.50414 -12.21058 -12.12759 -12.06416 -12.04922 -12.01483 -11.90875 -11.60458
 -11.49731 -11.37320 -11.30826 -10.45378 -10.12086  -9.50919  -0.77781  -0.49743
  -0.47600   0.41471   0.62282   1.82118   2.77217   3.03777   3.15240   3.60484
   3.79415   3.91344   4.00422   4.02372   4.20963   4.26294   4.30966   4.39540
   4.46556   4.61372   4.74048   4.74779   5.07866   5.15733   5.32642   5.39933
   5.44702   5.49872   5.57076   5.65111   5.66883   5.78666   5.86127   5.86855
   5.96695   6.13997   6.31651   6.49715   6.51167   6.60547   6.64271   6.70858
   7.00791  69.36993  69.38412  69.41467  69.65618  69.67143


              NET ATOMIC CHARGES AND DIPOLE CONTRIBUTIONS

  ATOM NO.   TYPE          CHARGE      No. of ELECS.   s-Pop       p-Pop       d-Pop       
    1          C          -0.131058        4.1311     1.08875     3.04231
    2          C          -0.140179        4.1402     1.09356     3.04662
    3          C          -0.046680        4.0467     1.06765     2.97903
    4          C          -0.159640        4.1596     1.08773     3.07191
    5          C           0.012492        3.9875     1.09421     2.89329
    6          C          -0.154622        4.1546     1.08905     3.06557
    7          H           0.177813        0.8222     0.82219
    8          H           0.187323        0.8127     0.81268
    9          H           0.196589        0.8034     0.80341
   10         Cl          -0.111206        7.1112     1.98055     5.12423     0.00642
   11          H           0.187539        0.8125     0.81246
   12          C          -0.052300        4.0523     1.09791     2.95439
   13          C          -0.466849        4.4668     1.05817     3.40868
   14          H           0.178376        0.8216     0.82162
   15          H           0.179065        0.8209     0.82094
   16          H           0.186269        0.8137     0.81373
   17          N           0.622216        4.3778     1.47942     2.89837
   18          O          -0.453956        6.4540     1.93985     4.51410
   19          O          -0.438360        6.4384     1.93907     4.49929
   20          N          -0.554537        5.5545     1.66774     3.88680
   21          C          -0.118104        4.1181     1.07001     3.04810
   22          C          -0.313653        4.3137     1.06478     3.24887
   23          C          -0.262722        4.2627     1.05769     3.20503
   24          C          -0.314859        4.3149     1.06475     3.25011
   25          C          -0.119518        4.1195     1.07012     3.04940
   26          H           0.225011        0.7750     0.77499
   27          H           0.141343        0.8587     0.85866
   28          H           0.147859        0.8521     0.85214
   29          H           0.147746        0.8523     0.85225
   30          H           0.144993        0.8550     0.85501
   31          H           0.139108        0.8609     0.86089
   32          H           0.142276        0.8577     0.85772
   33          H           0.146784        0.8532     0.85322
   34          H           0.145051        0.8549     0.85495
   35          H           0.141334        0.8587     0.85867
   36          H           0.147533        0.8525     0.85247
   37          H           0.270963        0.7290     0.72904
   38          H           0.368175        0.6318     0.63183
   39          H           0.387935        0.6121     0.61207
   40          O          -0.785550        6.7856     1.81940     4.96615
 DIPOLE           X         Y         Z       TOTAL
 POINT-CHG.     7.363     0.645     7.168    10.296
 HYBRID         0.610    -0.323     0.327     0.764
 SUM            7.974     0.322     7.495    10.948


          ATOMIC ORBITAL ELECTRON POPULATIONS

     Atom    s        px        py        pz      x^2-y^2     xz        z^2       yz        xy
    1  C   1.08875   1.03029   1.03239   0.97962
    2  C   1.09356   1.08838   0.98509   0.97315
    3  C   1.06765   0.98322   0.95771   1.03811
    4  C   1.08773   1.04314   1.02491   1.00386
    5  C   1.09421   0.85645   0.98712   1.04972
    6  C   1.08905   0.99211   1.08040   0.99306
    7  H   0.82219
    8  H   0.81268
    9  H   0.80341
   10 Cl   1.98055   1.21912   1.93452   1.97059   0.00232   0.00071   0.00122   0.00011   0.00206
   11  H   0.81246
   12  C   1.09791   1.14174   0.98796   0.82470
   13  C   1.05817   1.17571   1.11573   1.11724
   14  H   0.82162
   15  H   0.82094
   16  H   0.81373
   17  N   1.47942   0.95905   0.91510   1.02421
   18  O   1.93985   1.42863   1.55981   1.52566
   19  O   1.93907   1.05743   1.57605   1.86581
   20  N   1.66774   1.53972   1.12904   1.21804
   21  C   1.07001   1.00435   0.96074   1.08300
   22  C   1.06478   1.01792   1.06812   1.16284
   23  C   1.05769   1.09432   0.99670   1.11402
   24  C   1.06475   1.03866   1.07818   1.13326
   25  C   1.07012   0.94660   0.95866   1.14414
   26  H   0.77499
   27  H   0.85866
   28  H   0.85214
   29  H   0.85225
   30  H   0.85501
   31  H   0.86089
   32  H   0.85772
   33  H   0.85322
   34  H   0.85495
   35  H   0.85867
   36  H   0.85247
   37  H   0.72904
   38  H   0.63183
   39  H   0.61207
   40  O   1.81940   1.54161   1.88405   1.54049

 **********************
 *                    *
 * JOB ENDED NORMALLY *
 *                    *
 **********************



 TOTAL JOB TIME:            11.41 SECONDS

 == MOPAC DONE ==
