
                                 *****************
                                 * O   R   C   A *
                                 *****************

                                            #,                                       
                                            ###                                      
                                            ####                                     
                                            #####                                    
                                            ######                                   
                                           ########,                                 
                                     ,,################,,,,,                         
                               ,,#################################,,                 
                          ,,##########################################,,             
                       ,#########################################, ''#####,          
                    ,#############################################,,   '####,        
                  ,##################################################,,,,####,       
                ,###########''''           ''''###############################       
              ,#####''   ,,,,##########,,,,          '''####'''          '####       
            ,##' ,,,,###########################,,,                        '##       
           ' ,,###''''                  '''############,,,                           
         ,,##''                                '''############,,,,        ,,,,,,###''
      ,#''                                            '''#######################'''  
     '                                                          ''''####''''         
             ,#######,   #######,   ,#######,      ##                                
            ,#'     '#,  ##    ##  ,#'     '#,    #''#        ######   ,####,        
            ##       ##  ##   ,#'  ##            #'  '#       #        #'  '#        
            ##       ##  #######   ##           ,######,      #####,   #    #        
            '#,     ,#'  ##    ##  '#,     ,#' ,#      #,         ##   #,  ,#        
             '#######'   ##     ##  '#######'  #'      '#     #####' # '####'        



                  #######################################################
                  #                        -***-                        #
                  #          Department of theory and spectroscopy      #
                  #    Directorship and core code : Frank Neese         #
                  #        Max Planck Institute fuer Kohlenforschung    #
                  #                Kaiser Wilhelm Platz 1               #
                  #                 D-45470 Muelheim/Ruhr               #
                  #                      Germany                        #
                  #                                                     #
                  #                  All rights reserved                #
                  #                        -***-                        #
                  #######################################################


                         Program Version 5.0.4 -  RELEASE  -


 With contributions from (in alphabetic order):
   Daniel Aravena         : Magnetic Suceptibility
   Michael Atanasov       : Ab Initio Ligand Field Theory (pilot matlab implementation)
   Alexander A. Auer      : GIAO ZORA, VPT2 properties, NMR spectrum
   Ute Becker             : Parallelization
   Giovanni Bistoni       : ED, misc. LED, open-shell LED, HFLD
   Martin Brehm           : Molecular dynamics
   Dmytro Bykov           : SCF Hessian
   Vijay G. Chilkuri      : MRCI spin determinant printing, contributions to CSF-ICE
   Dipayan Datta          : RHF DLPNO-CCSD density
   Achintya Kumar Dutta   : EOM-CC, STEOM-CC
   Dmitry Ganyushin       : Spin-Orbit,Spin-Spin,Magnetic field MRCI
   Miquel Garcia          : C-PCM and meta-GGA Hessian, CC/C-PCM, Gaussian charge scheme
   Yang Guo               : DLPNO-NEVPT2, F12-NEVPT2, CIM, IAO-localization
   Andreas Hansen         : Spin unrestricted coupled pair/coupled cluster methods
   Benjamin Helmich-Paris : MC-RPA, TRAH-SCF, COSX integrals
   Lee Huntington         : MR-EOM, pCC
   Robert Izsak           : Overlap fitted RIJCOSX, COSX-SCS-MP3, EOM
   Marcus Kettner         : VPT2
   Christian Kollmar      : KDIIS, OOCD, Brueckner-CCSD(T), CCSD density, CASPT2, CASPT2-K
   Simone Kossmann        : Meta GGA functionals, TD-DFT gradient, OOMP2, MP2 Hessian
   Martin Krupicka        : Initial AUTO-CI
   Lucas Lang             : DCDCAS
   Marvin Lechner         : AUTO-CI (C++ implementation), FIC-MRCC
   Dagmar Lenk            : GEPOL surface, SMD
   Dimitrios Liakos       : Extrapolation schemes; Compound Job, initial MDCI parallelization
   Dimitrios Manganas     : Further ROCIS development; embedding schemes
   Dimitrios Pantazis     : SARC Basis sets
   Anastasios Papadopoulos: AUTO-CI, single reference methods and gradients
   Taras Petrenko         : DFT Hessian,TD-DFT gradient, ASA, ECA, R-Raman, ABS, FL, XAS/XES, NRVS
   Peter Pinski           : DLPNO-MP2, DLPNO-MP2 Gradient
   Christoph Reimann      : Effective Core Potentials
   Marius Retegan         : Local ZFS, SOC
   Christoph Riplinger    : Optimizer, TS searches, QM/MM, DLPNO-CCSD(T), (RO)-DLPNO pert. Triples
   Tobias Risthaus        : Range-separated hybrids, TD-DFT gradient, RPA, STAB
   Michael Roemelt        : Original ROCIS implementation
   Masaaki Saitow         : Open-shell DLPNO-CCSD energy and density
   Barbara Sandhoefer     : DKH picture change effects
   Avijit Sen             : IP-ROCIS
   Kantharuban Sivalingam : CASSCF convergence, NEVPT2, FIC-MRCI
   Bernardo de Souza      : ESD, SOC TD-DFT
   Georgi Stoychev        : AutoAux, RI-MP2 NMR, DLPNO-MP2 response
   Willem Van den Heuvel  : Paramagnetic NMR
   Boris Wezisla          : Elementary symmetry handling
   Frank Wennmohs         : Technical directorship


 We gratefully acknowledge several colleagues who have allowed us to
 interface, adapt or use parts of their codes:
   Stefan Grimme, W. Hujo, H. Kruse, P. Pracht,  : VdW corrections, initial TS optimization,
                  C. Bannwarth, S. Ehlert          DFT functionals, gCP, sTDA/sTD-DF
   Ed Valeev, F. Pavosevic, A. Kumar             : LibInt (2-el integral package), F12 methods
   Garnet Chan, S. Sharma, J. Yang, R. Olivares  : DMRG
   Ulf Ekstrom                                   : XCFun DFT Library
   Mihaly Kallay                                 : mrcc  (arbitrary order and MRCC methods)
   Jiri Pittner, Ondrej Demel                    : Mk-CCSD
   Frank Weinhold                                : gennbo (NPA and NBO analysis)
   Christopher J. Cramer and Donald G. Truhlar   : smd solvation model
   Lars Goerigk                                  : TD-DFT with DH, B97 family of functionals
   V. Asgeirsson, H. Jonsson                     : NEB implementation
   FAccTs GmbH                                   : IRC, NEB, NEB-TS, DLPNO-Multilevel, CI-OPT
                                                   MM, QMMM, 2- and 3-layer-ONIOM, Crystal-QMMM,
                                                   LR-CPCM, SF, NACMEs, symmetry and pop. for TD-DFT,
                                                   nearIR, NL-DFT gradient (VV10), updates on ESD,
                                                   ML-optimized integration grids
   S Lehtola, MJT Oliveira, MAL Marques          : LibXC Library
   Liviu Ungur et al                             : ANISO software


 Your calculation uses the libint2 library for the computation of 2-el integrals
 For citations please refer to: http://libint.valeyev.net

 Your ORCA version has been built with support for libXC version: 5.1.0
 For citations please refer to: https://tddft.org/programs/libxc/

 This ORCA versions uses:
   CBLAS   interface :  Fast vector & matrix operations
   LAPACKE interface :  Fast linear algebra routines
   SCALAPACK package :  Parallel linear algebra routines
   Shared memory     :  Shared parallel matrices
   BLAS/LAPACK       :  OpenBLAS 0.3.15  USE64BITINT DYNAMIC_ARCH NO_AFFINITY Prescott SINGLE_THREADED
        Core in use  :  Prescott
   Copyright (c) 2011-2014, The OpenBLAS Project


Your calculation utilizes the atom-pairwise dispersion correction
with the Becke-Johnson damping scheme (D3BJ)
Cite in your paper:
S.Grimme, S.Ehrlich, L.Goerigk, J Comput Chem, (2011), 32, 1456–1465 
S.Grimme, J.Antony, S.Ehrlich and H.Krieg, J.Chem.Phys., 132, (2010), 154104 
   

================================================================================

----- Orbital basis set information -----
Your calculation utilizes the basis: def2-TZVP
   F. Weigend and R. Ahlrichs, Phys. Chem. Chem. Phys. 7, 3297 (2005).

----- AuxJ basis set information -----
Your calculation utilizes the auxiliary basis: def2/J
   F. Weigend, Phys. Chem. Chem. Phys. 8, 1057 (2006).

================================================================================
                                        WARNINGS
                       Please study these warnings very carefully!
================================================================================

WARNING: Gradients needed for Numerical Frequencies
  ===> : Setting RunTyp to EnGrad

INFO   : the flag for use of the SHARK integral package has been found!

================================================================================
                                       INPUT FILE
================================================================================
NAME = /home/rudenko/mop_saddle_orca_4_serv/for_orca/CH3NO2_ch2clcoo_near_freez/orca/start_freq_H/start_f_H.inp
|  1> !  NUMFREQ B3LYP def2-TZVP CPCM D3 
|  2> %pal nprocs 102 end
|  3> %cpcm epsilon 78.4 end 
|  4> *xyz -1 1 
|  5> C   0.61600701316811 -0.75974943440403 0.8076304862956
|  6> H   1.01628057920438 -1.34876058358563 -0.0096197419624
|  7> H   0.13813457886498 0.14208267885365 0.42900100289256
|  8> H   1.35985572597066 -0.514883715081 1.55576966511797
|  9> N   -0.46145672384236 -1.5617388820096 1.45904961985919
| 10> O   -0.60784390158529 -1.45761623886671 2.66653399512089
| 11> O   -1.1591816359717 -2.26233918139371 0.74188336832721
| 12> C   5.85994168214957 0.65408994571187 -0.08573859017254
| 13> O   7.05168622414637 0.77195877907729 -0.43935073074221
| 14> O   4.88633449611077 0.28896772111761 -0.7908451243144
| 15> C   5.64647676994369 1.03806138649963 1.39054957471386
| 16> Cl   4.01078754204012 0.66963585422958 2.08632364524707
| 17> H   5.79427820675061 2.10944967286172 1.51265413669294
| 18> H   6.36310516471322 0.50672178172719 2.00961099184192
| 19> H   2.29473482940093 1.83818551000727 0.03834689392802
| 20> O   2.47411661484361 1.55585743835217 -0.86687230613355
| 21> H   3.33148640409223 1.07041823690268 -0.79773371671216
| 22> *
| 23> 
| 24>                          ****END OF INPUT****
================================================================================

                     *******************************
                     * Energy+Gradient Calculation *
                     *******************************

---------------------------------
CARTESIAN COORDINATES (ANGSTROEM)
---------------------------------
  C      0.616007   -0.759749    0.807630
  H      1.016281   -1.348761   -0.009620
  H      0.138135    0.142083    0.429001
  H      1.359856   -0.514884    1.555770
  N     -0.461457   -1.561739    1.459050
  O     -0.607844   -1.457616    2.666534
  O     -1.159182   -2.262339    0.741883
  C      5.859942    0.654090   -0.085739
  O      7.051686    0.771959   -0.439351
  O      4.886334    0.288968   -0.790845
  C      5.646477    1.038061    1.390550
  Cl     4.010788    0.669636    2.086324
  H      5.794278    2.109450    1.512654
  H      6.363105    0.506722    2.009611
  H      2.294735    1.838186    0.038347
  O      2.474117    1.555857   -0.866872
  H      3.331486    1.070418   -0.797734

----------------------------
CARTESIAN COORDINATES (A.U.)
----------------------------
  NO LB      ZA    FRAG     MASS         X           Y           Z
   0 C     6.0000    0    12.011    1.164085   -1.435718    1.526200
   1 H     1.0000    0     1.008    1.920492   -2.548788   -0.018179
   2 H     1.0000    0     1.008    0.261037    0.268497    0.810694
   3 H     1.0000    0     1.008    2.569755   -0.972989    2.939979
   4 N     7.0000    0    14.007   -0.872027   -2.951259    2.757204
   5 O     8.0000    0    15.999   -1.148659   -2.754495    5.039019
   6 O     8.0000    0    15.999   -2.190536   -4.275201    1.401956
   7 C     6.0000    0    12.011   11.073685    1.236051   -0.162022
   8 O     8.0000    0    15.999   13.325756    1.458791   -0.830253
   9 O     8.0000    0    15.999    9.233834    0.546070   -1.494481
  10 C     6.0000    0    12.011   10.670295    1.961652    2.627758
  11 Cl   17.0000    0    35.453    7.579290    1.265428    3.942580
  12 H     1.0000    0     1.008   10.949599    3.986282    2.858502
  13 H     1.0000    0     1.008   12.024526    0.957565    3.797614
  14 H     1.0000    0     1.008    4.336420    3.473667    0.072465
  15 O     8.0000    0    15.999    4.675403    2.940144   -1.638151
  16 H     1.0000    0     1.008    6.295597    2.022797   -1.507498

--------------------------------
INTERNAL COORDINATES (ANGSTROEM)
--------------------------------
 C      0   0   0     0.000000000000     0.00000000     0.00000000
 H      1   0   0     1.083997692394     0.00000000     0.00000000
 H      1   2   0     1.088587851150   110.48858449     0.00000000
 H      1   2   3     1.083043101140   112.95642066   235.30441792
 N      1   2   3     1.492803425176   107.67350366   115.64386034
 O      5   1   2     1.220774036062   118.18698052   145.59982793
 O      5   1   2     1.221469715073   117.65997314   324.18320715
 C      4   1   2     4.930702017443   116.77342140    39.44181948
 O      8   4   1     1.248675162409   171.00901841   254.92310647
 O      8   4   1     1.256344067558    53.89054372   356.82030576
 C      8   4   1     1.540268834284    67.26489202   165.54206173
 Cl    11   8   4     1.815301126627   116.20884298   359.19950446
 H     11   8   4     1.088406012907   109.51766328   238.89569620
 H     11   8   4     1.085870650661   109.44970762   119.26986461
 H      3   1   2     2.771335433922   102.38270917   278.55652767
 O     15   3   1     0.965043400658    95.61385218    88.89860140
 H     16  15   3     0.987681283799   103.85600180   249.30821142

---------------------------
INTERNAL COORDINATES (A.U.)
---------------------------
 C      0   0   0     0.000000000000     0.00000000     0.00000000
 H      1   0   0     2.048458768427     0.00000000     0.00000000
 H      1   2   0     2.057132911388   110.48858449     0.00000000
 H      1   2   3     2.046654852387   112.95642066   235.30441792
 N      1   2   3     2.820989645361   107.67350366   115.64386034
 O      5   1   2     2.306928599559   118.18698052   145.59982793
 O      5   1   2     2.308243242366   117.65997314   324.18320715
 C      4   1   2     9.317676460940   116.77342140    39.44181948
 O      8   4   1     2.359654087182   171.00901841   254.92310647
 O      8   4   1     2.374146217662    53.89054372   356.82030576
 C      8   4   1     2.910686269411    67.26489202   165.54206173
 Cl    11   8   4     3.430421979924   116.20884298   359.19950446
 H     11   8   4     2.056789286907   109.51766328   238.89569620
 H     11   8   4     2.051998146612   109.44970762   119.26986461
 H      3   1   2     5.237064995344   102.38270917   278.55652767
 O     15   3   1     1.823667734591    95.61385218    88.89860140
 H     16  15   3     1.866447133980   103.85600180   249.30821142

---------------------
BASIS SET INFORMATION
---------------------
There are 5 groups of distinct atoms

 Group   1 Type C   : 11s6p2d1f contracted to 5s3p2d1f pattern {62111/411/11/1}
 Group   2 Type H   : 5s1p contracted to 3s1p pattern {311/1}
 Group   3 Type N   : 11s6p2d1f contracted to 5s3p2d1f pattern {62111/411/11/1}
 Group   4 Type O   : 11s6p2d1f contracted to 5s3p2d1f pattern {62111/411/11/1}
 Group   5 Type Cl  : 14s9p3d1f contracted to 5s5p2d1f pattern {73211/51111/21/1}

Atom   0C    basis set group =>   1
Atom   1H    basis set group =>   2
Atom   2H    basis set group =>   2
Atom   3H    basis set group =>   2
Atom   4N    basis set group =>   3
Atom   5O    basis set group =>   4
Atom   6O    basis set group =>   4
Atom   7C    basis set group =>   1
Atom   8O    basis set group =>   4
Atom   9O    basis set group =>   4
Atom  10C    basis set group =>   1
Atom  11Cl   basis set group =>   5
Atom  12H    basis set group =>   2
Atom  13H    basis set group =>   2
Atom  14H    basis set group =>   2
Atom  15O    basis set group =>   4
Atom  16H    basis set group =>   2
---------------------------------
AUXILIARY/J BASIS SET INFORMATION
---------------------------------
There are 5 groups of distinct atoms

 Group   1 Type C   : 12s5p4d2f1g contracted to 6s4p3d1f1g pattern {711111/2111/211/2/1}
 Group   2 Type H   : 5s2p1d contracted to 3s1p1d pattern {311/2/1}
 Group   3 Type N   : 12s5p4d2f1g contracted to 6s4p3d1f1g pattern {711111/2111/211/2/1}
 Group   4 Type O   : 12s5p4d2f1g contracted to 6s4p3d1f1g pattern {711111/2111/211/2/1}
 Group   5 Type Cl  : 14s5p5d2f1g contracted to 8s4p3d1f1g pattern {71111111/2111/311/2/1}

Atom   0C    basis set group =>   1
Atom   1H    basis set group =>   2
Atom   2H    basis set group =>   2
Atom   3H    basis set group =>   2
Atom   4N    basis set group =>   3
Atom   5O    basis set group =>   4
Atom   6O    basis set group =>   4
Atom   7C    basis set group =>   1
Atom   8O    basis set group =>   4
Atom   9O    basis set group =>   4
Atom  10C    basis set group =>   1
Atom  11Cl   basis set group =>   5
Atom  12H    basis set group =>   2
Atom  13H    basis set group =>   2
Atom  14H    basis set group =>   2
Atom  15O    basis set group =>   4
Atom  16H    basis set group =>   2


           ************************************************************
           *        Program running with 102 parallel MPI-processes   *
           *              working on a common directory               *
           ************************************************************
------------------------------------------------------------------------------
                           ORCA GTO INTEGRAL CALCULATION
                           -- RI-GTO INTEGRALS CHOSEN --
------------------------------------------------------------------------------
------------------------------------------------------------------------------
                   ___                                                        
                  /   \      - P O W E R E D   B Y -                         
                 /     \                                                     
                 |  |  |   _    _      __       _____    __    __             
                 |  |  |  | |  | |    /  \     |  _  \  |  |  /  |          
                  \  \/   | |  | |   /    \    | | | |  |  | /  /          
                 / \  \   | |__| |  /  /\  \   | |_| |  |  |/  /          
                |  |  |   |  __  | /  /__\  \  |    /   |      \           
                |  |  |   | |  | | |   __   |  |    \   |  |\   \          
                \     /   | |  | | |  |  |  |  | |\  \  |  | \   \       
                 \___/    |_|  |_| |__|  |__|  |_| \__\ |__|  \__/        
                                                                              
                      - O R C A' S   B I G   F R I E N D -                    
                                      &                                       
                       - I N T E G R A L  F E E D E R -                       
                                                                              
 v1 FN, 2020, v2 2021                                                         
------------------------------------------------------------------------------


Reading SHARK input file /home/rudenko/mop_saddle_orca_4_serv/for_orca/CH3NO2_ch2clcoo_near_freez/orca/start_freq_H/start_f_H.SHARKINP.tmp ... ok
----------------------
SHARK INTEGRAL PACKAGE
----------------------

Number of atoms                             ...     17
Number of basis functions                   ...    358
Number of shells                            ...    140
Maximum angular momentum                    ...      3
Integral batch strategy                     ... SHARK/LIBINT Hybrid
RI-J (if used) integral strategy            ... SPLIT-RIJ (Revised 2003 algorithm where possible)
Printlevel                                  ...      1
Contraction scheme used                     ... SEGMENTED contraction
Coulomb Range Separation                    ... NOT USED
Exchange Range Separation                   ... NOT USED
Finite Nucleus Model                        ... NOT USED
Auxiliary Coulomb fitting basis             ... AVAILABLE
   # of basis functions in Aux-J            ...    569
   # of shells in Aux-J                     ...    187
   Maximum angular momentum in Aux-J        ...      4
Auxiliary J/K fitting basis                 ... NOT available
Auxiliary Correlation fitting basis         ... NOT available
Auxiliary 'external' fitting basis          ... NOT available
Integral threshold                          ...     2.500000e-11
Primitive cut-off                           ...     2.500000e-12
Primitive pair pre-selection threshold      ...     2.500000e-12

Calculating pre-screening integrals         ... done (  0.1 sec) Dimension = 140
Organizing shell pair data                  ... done (  0.2 sec)
Shell pair information
Total number of shell pairs                 ...      9870
Shell pairs after pre-screening             ...      7055
Total number of primitive shell pairs       ...     31380
Primitive shell pairs kept                  ...     15567
          la=0 lb=0:   1829 shell pairs
          la=1 lb=0:   2078 shell pairs
          la=1 lb=1:    624 shell pairs
          la=2 lb=0:    951 shell pairs
          la=2 lb=1:    557 shell pairs
          la=2 lb=2:    134 shell pairs
          la=3 lb=0:    465 shell pairs
          la=3 lb=1:    266 shell pairs
          la=3 lb=2:    119 shell pairs
          la=3 lb=3:     32 shell pairs

Calculating one electron integrals          ... done (  0.0 sec)
Calculating RI/J V-Matrix + Cholesky decomp.... done (  0.0 sec)
Calculating Nuclear repulsion               ... done (  0.0 sec) ENN=    581.919431874455 Eh

SHARK setup successfully completed in   0.6 seconds

Maximum memory used throughout the entire GTOINT-calculation: 21.8 MB


           ************************************************************
           *        Program running with 102 parallel MPI-processes   *
           *              working on a common directory               *
           ************************************************************
-------------------------------------------------------------------------------
                                 ORCA SCF
-------------------------------------------------------------------------------

------------
SCF SETTINGS
------------
Hamiltonian:
 Density Functional     Method          .... DFT(GTOs)
 Exchange Functional    Exchange        .... B88
   X-Alpha parameter    XAlpha          ....  0.666667
   Becke's b parameter  XBeta           ....  0.004200
 Correlation Functional Correlation     .... LYP
 LDA part of GGA corr.  LDAOpt          .... VWN-5
 Gradients option       PostSCFGGA      .... off
 Hybrid DFT is turned on
   Fraction HF Exchange ScalHFX         ....  0.200000
   Scaling of DF-GGA-X  ScalDFX         ....  0.720000
   Scaling of DF-GGA-C  ScalDFC         ....  0.810000
   Scaling of DF-LDA-C  ScalLDAC        ....  1.000000
   Perturbative correction              ....  0.000000
   Density functional embedding theory  .... OFF
   NL short-range parameter             ....  4.800000
 RI-approximation to the Coulomb term is turned on
   Number of AuxJ basis functions       .... 569
   RIJ-COSX (HFX calculated with COS-X)).... on


General Settings:
 Integral files         IntName         .... /home/rudenko/mop_saddle_orca_4_serv/for_orca/CH3NO2_ch2clcoo_near_freez/orca/start_freq_H/start_f_H
 Hartree-Fock type      HFTyp           .... RHF
 Total Charge           Charge          ....   -1
 Multiplicity           Mult            ....    1
 Number of Electrons    NEL             ....   90
 Basis Dimension        Dim             ....  358
 Nuclear Repulsion      ENuc            ....    581.9194318745 Eh

Convergence Acceleration:
 DIIS                   CNVDIIS         .... on
   Start iteration      DIISMaxIt       ....    12
   Startup error        DIISStart       ....  0.200000
   # of expansion vecs  DIISMaxEq       ....     5
   Bias factor          DIISBfac        ....   1.050
   Max. coefficient     DIISMaxC        ....  10.000
 Trust-Rad. Augm. Hess. CNVTRAH         .... auto
   Auto Start mean grad. ratio tolernc. ....  1.125000
   Auto Start start iteration           ....    20
   Auto Start num. interpolation iter.  ....    10
   Max. Number of Micro iterations      ....    16
   Max. Number of Macro iterations      .... Maxiter - #DIIS iter
   Number of Davidson start vectors     ....     2
   Converg. threshold I  (grad. norm)   ....   1.000e-05
   Converg. threshold II (energy diff.) ....   1.000e-08
   Grad. Scal. Fac. for Micro threshold ....   0.100
   Minimum threshold for Micro iter.    ....   0.010
   NR start threshold (gradient norm)   ....   0.001
   Initial trust radius                 ....   0.400
   Minimum AH scaling param. (alpha)    ....   1.000
   Maximum AH scaling param. (alpha)    .... 1000.000
   Orbital update algorithm             .... Taylor
   White noise on init. David. guess    .... on
   Maximum white noise                  ....   0.010
   Quad. conv. algorithm                .... NR
 SOSCF                  CNVSOSCF        .... on
   Start iteration      SOSCFMaxIt      ....   150
   Startup grad/error   SOSCFStart      ....  0.003300
 Level Shifting         CNVShift        .... on
   Level shift para.    LevelShift      ....    0.2500
   Turn off err/grad.   ShiftErr        ....    0.0010
 Zerner damping         CNVZerner       .... off
 Static damping         CNVDamp         .... on
   Fraction old density DampFac         ....    0.7000
   Max. Damping (<1)    DampMax         ....    0.9800
   Min. Damping (>=0)   DampMin         ....    0.0000
   Turn off err/grad.   DampErr         ....    0.1000
 Fernandez-Rico         CNVRico         .... off

SCF Procedure:
 Maximum # iterations   MaxIter         ....   125
 SCF integral mode      SCFMode         .... Direct
   Integral package                     .... SHARK and LIBINT hybrid scheme
 Reset frequency        DirectResetFreq ....    20
 Integral Threshold     Thresh          ....  2.500e-11 Eh
 Primitive CutOff       TCut            ....  2.500e-12 Eh

Convergence Tolerance:
 Convergence Check Mode ConvCheckMode   .... Total+1el-Energy
 Convergence forced     ConvForced      .... 0
 Energy Change          TolE            ....  1.000e-08 Eh
 1-El. energy change                    ....  1.000e-05 Eh
 Orbital Gradient       TolG            ....  1.000e-05
 Orbital Rotation angle TolX            ....  1.000e-05
 DIIS Error             TolErr          ....  5.000e-07


Diagonalization of the overlap matrix:
Smallest eigenvalue                        ... 5.987e-04
Time for diagonalization                   ...    0.052 sec
Threshold for overlap eigenvalues          ... 1.000e-08
Number of eigenvalues below threshold      ... 0
Time for construction of square roots      ...    0.065 sec
Total time needed                          ...    0.119 sec

Time for model grid setup =    0.128 sec

------------------------------
INITIAL GUESS: MODEL POTENTIAL
------------------------------
Loading Hartree-Fock densities                     ... done
Calculating cut-offs                               ... done
Initializing the effective Hamiltonian             ... done
Setting up the integral package (SHARK)            ... done
Starting the Coulomb interaction                   ... done (   0.0 sec)
Reading the grid                                   ... done
Mapping shells                                     ... done
Starting the XC term evaluation                    ... done (   0.0 sec)
  promolecular density results
     # of electrons  =     88.996878853
     EX              =    -92.500379461
     EC              =     -3.223482859
     EX+EC           =    -95.723862320
Transforming the Hamiltonian                       ... done (   0.1 sec)
Diagonalizing the Hamiltonian                      ... done (   0.1 sec)
Back transforming the eigenvectors                 ... done (   0.0 sec)
Now organizing SCF variables                       ... done
                      ------------------
                      INITIAL GUESS DONE (   0.3 sec)
                      ------------------
-------------------
DFT GRID GENERATION
-------------------

General Integration Accuracy     IntAcc      ... 4.388
Radial Grid Type                 RadialGrid  ... OptM3 with GC (2021)
Angular Grid (max. ang.)         AngularGrid ... 4 (Lebedev-302)
Angular grid pruning method      GridPruning ... 4 (adaptive)
Weight generation scheme         WeightScheme... Becke
Basis function cutoff            BFCut       ... 1.0000e-11
Integration weight cutoff        WCut        ... 1.0000e-14
Angular grids for H and He will be reduced by one unit
Partially contracted basis set               ... off
Rotationally invariant grid construction     ... off

Total number of grid points                  ...    84770
Total number of batches                      ...     1334
Average number of points per batch           ...       63
Average number of grid points per atom       ...     4986
Time for grid setup =    0.702 sec

--------------------
COSX GRID GENERATION
--------------------

GRIDX 1
-------
General Integration Accuracy     IntAcc      ... 3.816
Radial Grid Type                 RadialGrid  ... OptM3 with GC (2021)
Angular Grid (max. ang.)         AngularGrid ... 1 (Lebedev-50)
Angular grid pruning method      GridPruning ... 4 (adaptive)
Weight generation scheme         WeightScheme... Becke
Basis function cutoff            BFCut       ... 1.0000e-11
Integration weight cutoff        WCut        ... 1.0000e-14
Angular grids for H and He will be reduced by one unit
Partially contracted basis set               ... on
Rotationally invariant grid construction     ... off

Total number of grid points                  ...    10704
Total number of batches                      ...      176
Average number of points per batch           ...       60
Average number of grid points per atom       ...      630
UseSFitting                                  ... on

GRIDX 2
-------
General Integration Accuracy     IntAcc      ... 4.020
Radial Grid Type                 RadialGrid  ... OptM3 with GC (2021)
Angular Grid (max. ang.)         AngularGrid ... 2 (Lebedev-110)
Angular grid pruning method      GridPruning ... 4 (adaptive)
Weight generation scheme         WeightScheme... Becke
Basis function cutoff            BFCut       ... 1.0000e-11
Integration weight cutoff        WCut        ... 1.0000e-14
Angular grids for H and He will be reduced by one unit
Partially contracted basis set               ... on
Rotationally invariant grid construction     ... off

Total number of grid points                  ...    23818
Total number of batches                      ...      381
Average number of points per batch           ...       62
Average number of grid points per atom       ...     1401
UseSFitting                                  ... on

GRIDX 3
-------
General Integration Accuracy     IntAcc      ... 4.338
Radial Grid Type                 RadialGrid  ... OptM3 with GC (2021)
Angular Grid (max. ang.)         AngularGrid ... 3 (Lebedev-194)
Angular grid pruning method      GridPruning ... 4 (adaptive)
Weight generation scheme         WeightScheme... Becke
Basis function cutoff            BFCut       ... 1.0000e-11
Integration weight cutoff        WCut        ... 1.0000e-14
Angular grids for H and He will be reduced by one unit
Partially contracted basis set               ... on
Rotationally invariant grid construction     ... off

Total number of grid points                  ...    53050
Total number of batches                      ...      837
Average number of points per batch           ...       63
Average number of grid points per atom       ...     3121
UseSFitting                                  ... on

Time for X-Grid setup             =    0.762 sec


--------------------
CPCM SOLVATION MODEL
--------------------
CPCM parameters:
  Epsilon                                         ...      78.4000
  Refrac                                          ...       1.3300
  Rsolv                                           ...       1.3000
  Surface type                                    ... GAUSSIAN VDW
  Epsilon function type                           ...         CPCM
Radii:
 Radius for C  used is    3.8550 Bohr (=   2.0400 Ang.)
 Radius for H  used is    2.4944 Bohr (=   1.3200 Ang.)
 Radius for N  used is    3.5149 Bohr (=   1.8600 Ang.)
 Radius for O  used is    3.4469 Bohr (=   1.8240 Ang.)
 Radius for Cl used is    3.9684 Bohr (=   2.1000 Ang.)
Calculating surface                               ...        done! (  0.0s)
GEPOL surface points                              ...         1116
GEPOL Volume                                      ...    1322.6466
GEPOL Surface-area                                ...     812.0404
Calculating surface distance matrix               ...        done! (  0.1s)
Performing Cholesky decomposition & store         ...        done! (  0.2s)
Overall time for CPCM initialization              ...                 0.3s
--------------
SCF ITERATIONS
--------------
ITER       Energy         Delta-E        Max-DP      RMS-DP      [F,P]     Damp
               ***  Starting incremental Fock matrix formation  ***
  0  -1009.1561546291   0.000000000000 0.10509833  0.00130605  0.3455204 0.7000
  1  -1009.3938215329  -0.237666903727 0.10880388  0.00097909  0.1389205 0.7000
                               ***Turning on DIIS***
  2  -1009.4698787963  -0.076057263456 0.15334238  0.00144105  0.0336669 0.0000
  3  -1009.6107296795  -0.140850883200 0.09133660  0.00070401  0.0804408 0.0000
  4  -1009.6341171089  -0.023387429341 0.04056314  0.00029386  0.0148969 0.0000
                      *** Initiating the SOSCF procedure ***
                           *** Shutting down DIIS ***
                      *** Re-Reading the Fockian *** 
                      *** Removing any level shift *** 
ITER      Energy       Delta-E        Grad      Rot      Max-DP    RMS-DP
  5  -1009.63566057  -0.0015434631  0.001121  0.001121  0.014389  0.000100
               *** Restarting incremental Fock matrix formation ***
  6  -1009.63571381  -0.0000532333  0.000678  0.001600  0.008316  0.000066
  7  -1009.63569819   0.0000156112  0.001674  0.001279  0.000965  0.000016
  8  -1009.63572827  -0.0000300778  0.000105  0.000267  0.000692  0.000008
  9  -1009.63572740   0.0000008669  0.000178  0.000188  0.000322  0.000004
 10  -1009.63572874  -0.0000013334  0.000042  0.000090  0.000124  0.000001
 11  -1009.63572869   0.0000000480  0.000077  0.000063  0.000063  0.000001
 12  -1009.63572876  -0.0000000691  0.000013  0.000044  0.000032  0.000000
 13  -1009.63572875   0.0000000045  0.000028  0.000034  0.000016  0.000000
 14  -1009.63572876  -0.0000000044  0.000003  0.000006  0.000012  0.000000
 15  -1009.63572876   0.0000000023  0.000003  0.000003  0.000008  0.000000
                  ***Gradient check signals convergence***
              ***Rediagonalizing the Fockian in SOSCF/NRSCF***

               *****************************************************
               *                     SUCCESS                       *
               *           SCF CONVERGED AFTER  16 CYCLES          *
               *****************************************************

Old exchange energy                            =    -18.683533370 Eh
New exchange energy                            =    -18.683546280 Eh
Exchange energy change after final integration =     -0.000012910 Eh
Total energy after final integration           =  -1009.635741667 Eh
Final COS-X integration done in                =     0.610 sec

----------------
TOTAL SCF ENERGY
----------------

Total Energy       :        -1009.63574167 Eh          -27473.58526 eV

Components:
Nuclear Repulsion  :          581.91943187 Eh           15834.83277 eV
Electronic Energy  :        -1591.55517354 Eh          -43308.41803 eV
One Electron Energy:        -2557.67139996 Eh          -69597.77708 eV
Two Electron Energy:          966.11622641 Eh           26289.35905 eV
Max COSX asymmetry :            0.00000164 Eh               0.00004 eV
CPCM Dielectric    :           -0.10014545 Eh              -2.72510 eV

Virial components:
Potential Energy   :        -2016.53649634 Eh          -54872.74774 eV
Kinetic Energy     :         1006.90075467 Eh           27399.16248 eV
Virial Ratio       :            2.00271624


DFT components:
N(Alpha)           :       44.999996479337 electrons
N(Beta)            :       44.999996479337 electrons
N(Total)           :       89.999992958673 electrons
E(X)               :      -74.401472714866 Eh       
E(C)               :       -3.831078072884 Eh       
E(XC)              :      -78.232550787750 Eh       
DFET-embed. en.    :        0.000000000000 Eh       
CPCM Solvation Model Properties:
Surface-charge          :            0.97668063
Charge-correction       :           -0.00269354 Eh              -0.07329 eV
Free-energy (cav+disp)  :  This term is not implemented in the current solvation scheme

---------------
SCF CONVERGENCE
---------------

  Last Energy change         ...    2.6637e-10  Tolerance :   1.0000e-08
  Last MAX-Density change    ...    3.5527e-15  Tolerance :   1.0000e-07
  Last RMS-Density change    ...    2.3226e-17  Tolerance :   5.0000e-09
  Last Orbital Gradient      ...    3.0522e-07  Tolerance :   1.0000e-05
  Last Orbital Rotation      ...    6.3932e-07  Tolerance :   1.0000e-05

             **** THE GBW FILE WAS UPDATED (/home/rudenko/mop_saddle_orca_4_serv/for_orca/CH3NO2_ch2clcoo_near_freez/orca/start_freq_H/start_f_H.gbw) ****
             **** DENSITY /home/rudenko/mop_saddle_orca_4_serv/for_orca/CH3NO2_ch2clcoo_near_freez/orca/start_freq_H/start_f_H.scfp WAS UPDATED ****
             **** ENERGY FILE WAS UPDATED (/home/rudenko/mop_saddle_orca_4_serv/for_orca/CH3NO2_ch2clcoo_near_freez/orca/start_freq_H/start_f_H.en.tmp) ****
             **** THE GBW FILE WAS UPDATED (/home/rudenko/mop_saddle_orca_4_serv/for_orca/CH3NO2_ch2clcoo_near_freez/orca/start_freq_H/start_f_H.gbw) ****
             **** DENSITY /home/rudenko/mop_saddle_orca_4_serv/for_orca/CH3NO2_ch2clcoo_near_freez/orca/start_freq_H/start_f_H.scfp WAS UPDATED ****
----------------
ORBITAL ENERGIES
----------------

  NO   OCC          E(Eh)            E(eV) 
   0   2.0000    -101.505614     -2762.1082 
   1   2.0000     -19.169980      -521.6417 
   2   2.0000     -19.169115      -521.6181 
   3   2.0000     -19.097221      -519.6618 
   4   2.0000     -19.072586      -518.9914 
   5   2.0000     -19.068240      -518.8732 
   6   2.0000     -14.557399      -396.1270 
   7   2.0000     -10.261699      -279.2350 
   8   2.0000     -10.217928      -278.0439 
   9   2.0000     -10.214765      -277.9579 
  10   2.0000      -9.438012      -256.8214 
  11   2.0000      -7.199071      -195.8967 
  12   2.0000      -7.191194      -195.6823 
  13   2.0000      -7.191132      -195.6806 
  14   2.0000      -1.241398       -33.7801 
  15   2.0000      -1.067433       -29.0463 
  16   2.0000      -1.032603       -28.0986 
  17   2.0000      -0.980512       -26.6811 
  18   2.0000      -0.944351       -25.6971 
  19   2.0000      -0.839375       -22.8406 
  20   2.0000      -0.811110       -22.0714 
  21   2.0000      -0.683622       -18.6023 
  22   2.0000      -0.622990       -16.9524 
  23   2.0000      -0.553933       -15.0733 
  24   2.0000      -0.542932       -14.7739 
  25   2.0000      -0.532846       -14.4995 
  26   2.0000      -0.519165       -14.1272 
  27   2.0000      -0.496968       -13.5232 
  28   2.0000      -0.459898       -12.5145 
  29   2.0000      -0.442674       -12.0458 
  30   2.0000      -0.438193       -11.9238 
  31   2.0000      -0.428081       -11.6487 
  32   2.0000      -0.419476       -11.4145 
  33   2.0000      -0.391845       -10.6626 
  34   2.0000      -0.378188       -10.2910 
  35   2.0000      -0.368479       -10.0268 
  36   2.0000      -0.330785        -9.0011 
  37   2.0000      -0.323910        -8.8140 
  38   2.0000      -0.308914        -8.4060 
  39   2.0000      -0.305990        -8.3264 
  40   2.0000      -0.296065        -8.0563 
  41   2.0000      -0.294534        -8.0147 
  42   2.0000      -0.261571        -7.1177 
  43   2.0000      -0.252476        -6.8702 
  44   2.0000      -0.242317        -6.5938 
  45   0.0000      -0.079997        -2.1768 
  46   0.0000       0.021820         0.5938 
  47   0.0000       0.042645         1.1604 
  48   0.0000       0.047503         1.2926 
  49   0.0000       0.072267         1.9665 
  50   0.0000       0.082837         2.2541 
  51   0.0000       0.112012         3.0480 
  52   0.0000       0.125295         3.4094 
  53   0.0000       0.132410         3.6031 
  54   0.0000       0.137748         3.7483 
  55   0.0000       0.142622         3.8809 
  56   0.0000       0.166689         4.5358 
  57   0.0000       0.177024         4.8171 
  58   0.0000       0.186165         5.0658 
  59   0.0000       0.197479         5.3737 
  60   0.0000       0.211854         5.7648 
  61   0.0000       0.225375         6.1328 
  62   0.0000       0.236252         6.4288 
  63   0.0000       0.246322         6.7028 
  64   0.0000       0.265530         7.2254 
  65   0.0000       0.288865         7.8604 
  66   0.0000       0.290953         7.9172 
  67   0.0000       0.302333         8.2269 
  68   0.0000       0.306576         8.3424 
  69   0.0000       0.329019         8.9531 
  70   0.0000       0.351209         9.5569 
  71   0.0000       0.360914         9.8210 
  72   0.0000       0.364033         9.9058 
  73   0.0000       0.376265        10.2387 
  74   0.0000       0.385719        10.4960 
  75   0.0000       0.397556        10.8180 
  76   0.0000       0.412148        11.2151 
  77   0.0000       0.416020        11.3205 
  78   0.0000       0.418406        11.3854 
  79   0.0000       0.424554        11.5527 
  80   0.0000       0.433649        11.8002 
  81   0.0000       0.442541        12.0421 
  82   0.0000       0.443755        12.0752 
  83   0.0000       0.452267        12.3068 
  84   0.0000       0.456212        12.4141 
  85   0.0000       0.463652        12.6166 
  86   0.0000       0.475296        12.9335 
  87   0.0000       0.488560        13.2944 
  88   0.0000       0.494901        13.4670 
  89   0.0000       0.501085        13.6352 
  90   0.0000       0.506292        13.7769 
  91   0.0000       0.517061        14.0699 
  92   0.0000       0.528555        14.3827 
  93   0.0000       0.533186        14.5087 
  94   0.0000       0.536411        14.5965 
  95   0.0000       0.547962        14.9108 
  96   0.0000       0.561427        15.2772 
  97   0.0000       0.574911        15.6441 
  98   0.0000       0.591782        16.1032 
  99   0.0000       0.599468        16.3124 
 100   0.0000       0.616740        16.7823 
 101   0.0000       0.633288        17.2326 
 102   0.0000       0.647218        17.6117 
 103   0.0000       0.661359        17.9965 
 104   0.0000       0.689102        18.7514 
 105   0.0000       0.696634        18.9564 
 106   0.0000       0.729073        19.8391 
 107   0.0000       0.766654        20.8617 
 108   0.0000       0.780429        21.2366 
 109   0.0000       0.786267        21.3954 
 110   0.0000       0.824516        22.4362 
 111   0.0000       0.830606        22.6019 
 112   0.0000       0.850897        23.1541 
 113   0.0000       0.873822        23.7779 
 114   0.0000       0.880475        23.9589 
 115   0.0000       0.897795        24.4302 
 116   0.0000       0.940160        25.5830 
 117   0.0000       0.950390        25.8614 
 118   0.0000       0.984272        26.7834 
 119   0.0000       0.988430        26.8965 
 120   0.0000       1.017775        27.6951 
 121   0.0000       1.031533        28.0695 
 122   0.0000       1.051518        28.6133 
 123   0.0000       1.093344        29.7514 
 124   0.0000       1.104599        30.0577 
 125   0.0000       1.113085        30.2886 
 126   0.0000       1.143674        31.1210 
 127   0.0000       1.157809        31.5056 
 128   0.0000       1.217036        33.1172 
 129   0.0000       1.240759        33.7628 
 130   0.0000       1.255349        34.1598 
 131   0.0000       1.318096        35.8672 
 132   0.0000       1.327726        36.1293 
 133   0.0000       1.360114        37.0106 
 134   0.0000       1.376391        37.4535 
 135   0.0000       1.385217        37.6937 
 136   0.0000       1.410718        38.3876 
 137   0.0000       1.452819        39.5332 
 138   0.0000       1.479339        40.2549 
 139   0.0000       1.491816        40.5944 
 140   0.0000       1.494177        40.6586 
 141   0.0000       1.500398        40.8279 
 142   0.0000       1.511774        41.1375 
 143   0.0000       1.553343        42.2686 
 144   0.0000       1.562305        42.5125 
 145   0.0000       1.584160        43.1072 
 146   0.0000       1.605918        43.6992 
 147   0.0000       1.608402        43.7669 
 148   0.0000       1.613737        43.9120 
 149   0.0000       1.639896        44.6238 
 150   0.0000       1.647585        44.8331 
 151   0.0000       1.681242        45.7489 
 152   0.0000       1.692126        46.0451 
 153   0.0000       1.721502        46.8444 
 154   0.0000       1.730720        47.0953 
 155   0.0000       1.737150        47.2702 
 156   0.0000       1.762448        47.9586 
 157   0.0000       1.774156        48.2772 
 158   0.0000       1.779204        48.4146 
 159   0.0000       1.802311        49.0434 
 160   0.0000       1.820507        49.5385 
 161   0.0000       1.833077        49.8806 
 162   0.0000       1.846094        50.2348 
 163   0.0000       1.865958        50.7753 
 164   0.0000       1.888528        51.3895 
 165   0.0000       1.903487        51.7965 
 166   0.0000       1.905215        51.8435 
 167   0.0000       1.920518        52.2600 
 168   0.0000       1.933765        52.6204 
 169   0.0000       1.940543        52.8049 
 170   0.0000       1.956428        53.2371 
 171   0.0000       1.971479        53.6467 
 172   0.0000       2.023544        55.0634 
 173   0.0000       2.031590        55.2824 
 174   0.0000       2.045298        55.6554 
 175   0.0000       2.056103        55.9494 
 176   0.0000       2.061640        56.1001 
 177   0.0000       2.087818        56.8124 
 178   0.0000       2.095666        57.0260 
 179   0.0000       2.111571        57.4588 
 180   0.0000       2.115784        57.5734 
 181   0.0000       2.119340        57.6702 
 182   0.0000       2.145009        58.3687 
 183   0.0000       2.154810        58.6354 
 184   0.0000       2.176520        59.2261 
 185   0.0000       2.185188        59.4620 
 186   0.0000       2.195330        59.7380 
 187   0.0000       2.206395        60.0391 
 188   0.0000       2.224071        60.5201 
 189   0.0000       2.228067        60.6288 
 190   0.0000       2.242949        61.0337 
 191   0.0000       2.245721        61.1092 
 192   0.0000       2.262341        61.5614 
 193   0.0000       2.277133        61.9639 
 194   0.0000       2.312874        62.9365 
 195   0.0000       2.333420        63.4956 
 196   0.0000       2.337626        63.6100 
 197   0.0000       2.348756        63.9129 
 198   0.0000       2.356127        64.1135 
 199   0.0000       2.362486        64.2865 
 200   0.0000       2.410263        65.5866 
 201   0.0000       2.473604        67.3102 
 202   0.0000       2.511649        68.3454 
 203   0.0000       2.529636        68.8349 
 204   0.0000       2.543867        69.2221 
 205   0.0000       2.557125        69.5829 
 206   0.0000       2.577877        70.1476 
 207   0.0000       2.580947        70.2311 
 208   0.0000       2.595691        70.6323 
 209   0.0000       2.635138        71.7058 
 210   0.0000       2.653754        72.2123 
 211   0.0000       2.666803        72.5674 
 212   0.0000       2.675793        72.8120 
 213   0.0000       2.694642        73.3249 
 214   0.0000       2.704430        73.5913 
 215   0.0000       2.720495        74.0284 
 216   0.0000       2.742267        74.6209 
 217   0.0000       2.779356        75.6301 
 218   0.0000       2.792572        75.9898 
 219   0.0000       2.853314        77.6426 
 220   0.0000       2.875650        78.2504 
 221   0.0000       2.891971        78.6945 
 222   0.0000       2.907532        79.1180 
 223   0.0000       2.922822        79.5340 
 224   0.0000       2.939980        80.0009 
 225   0.0000       2.953110        80.3582 
 226   0.0000       2.985936        81.2514 
 227   0.0000       2.992454        81.4288 
 228   0.0000       3.003005        81.7159 
 229   0.0000       3.023253        82.2669 
 230   0.0000       3.049770        82.9885 
 231   0.0000       3.069168        83.5163 
 232   0.0000       3.118947        84.8709 
 233   0.0000       3.124361        85.0182 
 234   0.0000       3.138605        85.4058 
 235   0.0000       3.188574        86.7655 
 236   0.0000       3.213050        87.4315 
 237   0.0000       3.217914        87.5639 
 238   0.0000       3.222734        87.6951 
 239   0.0000       3.237902        88.1078 
 240   0.0000       3.285145        89.3933 
 241   0.0000       3.313343        90.1606 
 242   0.0000       3.341179        90.9181 
 243   0.0000       3.354420        91.2784 
 244   0.0000       3.377181        91.8978 
 245   0.0000       3.408124        92.7398 
 246   0.0000       3.456071        94.0445 
 247   0.0000       3.466549        94.3296 
 248   0.0000       3.485454        94.8440 
 249   0.0000       3.501857        95.2904 
 250   0.0000       3.523802        95.8875 
 251   0.0000       3.557675        96.8093 
 252   0.0000       3.613151        98.3188 
 253   0.0000       3.686639       100.3185 
 254   0.0000       3.731305       101.5340 
 255   0.0000       3.737536       101.7035 
 256   0.0000       3.755183       102.1837 
 257   0.0000       3.763108       102.3994 
 258   0.0000       3.835051       104.3570 
 259   0.0000       3.870047       105.3093 
 260   0.0000       3.953029       107.5674 
 261   0.0000       3.979858       108.2974 
 262   0.0000       4.000948       108.8713 
 263   0.0000       4.015931       109.2791 
 264   0.0000       4.069825       110.7456 
 265   0.0000       4.097417       111.4964 
 266   0.0000       4.144312       112.7725 
 267   0.0000       4.198537       114.2480 
 268   0.0000       4.263229       116.0084 
 269   0.0000       4.300828       117.0315 
 270   0.0000       4.369086       118.8889 
 271   0.0000       4.410836       120.0250 
 272   0.0000       4.427311       120.4733 
 273   0.0000       4.499200       122.4295 
 274   0.0000       4.537458       123.4705 
 275   0.0000       4.545387       123.6863 
 276   0.0000       4.613984       125.5529 
 277   0.0000       4.662923       126.8846 
 278   0.0000       4.706530       128.0712 
 279   0.0000       4.749992       129.2539 
 280   0.0000       4.800740       130.6348 
 281   0.0000       4.886162       132.9592 
 282   0.0000       5.061225       137.7229 
 283   0.0000       5.076490       138.1383 
 284   0.0000       5.113163       139.1362 
 285   0.0000       5.118946       139.2936 
 286   0.0000       5.128155       139.5442 
 287   0.0000       5.132714       139.6683 
 288   0.0000       5.183013       141.0369 
 289   0.0000       5.201131       141.5300 
 290   0.0000       5.208695       141.7358 
 291   0.0000       5.227239       142.2404 
 292   0.0000       5.231240       142.3493 
 293   0.0000       5.277283       143.6022 
 294   0.0000       5.286891       143.8636 
 295   0.0000       5.297765       144.1595 
 296   0.0000       5.374978       146.2606 
 297   0.0000       5.390911       146.6941 
 298   0.0000       5.427705       147.6954 
 299   0.0000       5.467452       148.7769 
 300   0.0000       5.555813       151.1813 
 301   0.0000       5.557442       151.2257 
 302   0.0000       5.568436       151.5249 
 303   0.0000       5.601096       152.4136 
 304   0.0000       5.625736       153.0841 
 305   0.0000       5.676127       154.4553 
 306   0.0000       5.823928       158.4771 
 307   0.0000       5.923074       161.1750 
 308   0.0000       6.013546       163.6369 
 309   0.0000       6.063763       165.0034 
 310   0.0000       6.091464       165.7572 
 311   0.0000       6.160456       167.6345 
 312   0.0000       6.221339       169.2912 
 313   0.0000       6.245516       169.9491 
 314   0.0000       6.261785       170.3918 
 315   0.0000       6.310000       171.7038 
 316   0.0000       6.325785       172.1334 
 317   0.0000       6.330629       172.2652 
 318   0.0000       6.337878       172.4624 
 319   0.0000       6.370476       173.3495 
 320   0.0000       6.381608       173.6524 
 321   0.0000       6.400875       174.1767 
 322   0.0000       6.416212       174.5940 
 323   0.0000       6.434296       175.0861 
 324   0.0000       6.448571       175.4745 
 325   0.0000       6.492241       176.6628 
 326   0.0000       6.541746       178.0100 
 327   0.0000       6.624787       180.2696 
 328   0.0000       6.737305       183.3314 
 329   0.0000       6.818212       185.5330 
 330   0.0000       6.836767       186.0379 
 331   0.0000       6.856343       186.5706 
 332   0.0000       6.891142       187.5175 
 333   0.0000       6.912260       188.0922 
 334   0.0000       6.944088       188.9582 
 335   0.0000       6.968995       189.6360 
 336   0.0000       7.068716       192.3496 
 337   0.0000       7.072199       192.4443 
 338   0.0000       7.137974       194.2341 
 339   0.0000       7.172158       195.1644 
 340   0.0000       7.208018       196.1401 
 341   0.0000       7.240348       197.0199 
 342   0.0000       7.251860       197.3332 
 343   0.0000       7.293936       198.4781 
 344   0.0000       7.368991       200.5204 
 345   0.0000      10.743983       292.3586 
 346   0.0000      10.801707       293.9294 
 347   0.0000      11.222228       305.3723 
 348   0.0000      22.171929       603.3288 
 349   0.0000      22.333824       607.7342 
 350   0.0000      23.414266       637.1346 
 351   0.0000      25.189246       685.4342 
 352   0.0000      32.306836       879.1137 
 353   0.0000      43.463548      1182.7033 
 354   0.0000      43.804762      1191.9882 
 355   0.0000      43.831590      1192.7182 
 356   0.0000      43.883002      1194.1172 
 357   0.0000      43.912038      1194.9073 

                    ********************************
                    * MULLIKEN POPULATION ANALYSIS *
                    ********************************

-----------------------
MULLIKEN ATOMIC CHARGES
-----------------------
   0 C :   -0.263923
   1 H :    0.167703
   2 H :    0.176937
   3 H :    0.160599
   4 N :    0.431200
   5 O :   -0.348244
   6 O :   -0.349537
   7 C :    0.280177
   8 O :   -0.546823
   9 O :   -0.567169
  10 C :   -0.165401
  11 Cl:   -0.228514
  12 H :    0.152903
  13 H :    0.147757
  14 H :    0.336089
  15 O :   -0.737917
  16 H :    0.354163
Sum of atomic charges:   -1.0000000

--------------------------------
MULLIKEN REDUCED ORBITAL CHARGES
--------------------------------
  0 C s       :     3.289647  s :     3.289647
      pz      :     1.032675  p :     2.920478
      px      :     0.893602
      py      :     0.994201
      dz2     :     0.006698  d :     0.048649
      dxz     :     0.012858
      dyz     :     0.008431
      dx2y2   :     0.008207
      dxy     :     0.012455
      f0      :     0.000369  f :     0.005149
      f+1     :     0.000788
      f-1     :     0.000392
      f+2     :     0.000708
      f-2     :     0.001647
      f+3     :     0.000705
      f-3     :     0.000540
  1 H s       :     0.810680  s :     0.810680
      pz      :     0.010044  p :     0.021617
      px      :     0.005234
      py      :     0.006338
  2 H s       :     0.801073  s :     0.801073
      pz      :     0.005659  p :     0.021990
      px      :     0.004982
      py      :     0.011348
  3 H s       :     0.817419  s :     0.817419
      pz      :     0.008147  p :     0.021982
      px      :     0.009084
      py      :     0.004751
  4 N s       :     3.314519  s :     3.314519
      pz      :     0.896346  p :     3.002316
      px      :     1.060296
      py      :     1.045674
      dz2     :     0.059576  d :     0.237588
      dxz     :     0.066684
      dyz     :     0.064234
      dx2y2   :     0.028033
      dxy     :     0.019061
      f0      :     0.002183  f :     0.014377
      f+1     :     0.003783
      f-1     :     0.003468
      f+2     :     0.001609
      f-2     :     0.001218
      f+3     :     0.001031
      f-3     :     0.001086
  5 O s       :     3.877845  s :     3.877845
      pz      :     1.147973  p :     4.425929
      px      :     1.681841
      py      :     1.596115
      dz2     :     0.019312  d :     0.041200
      dxz     :     0.010272
      dyz     :     0.010780
      dx2y2   :     0.000307
      dxy     :     0.000529
      f0      :     0.001459  f :     0.003270
      f+1     :     0.000831
      f-1     :     0.000851
      f+2     :     0.000043
      f-2     :     0.000071
      f+3     :     0.000006
      f-3     :     0.000009
  6 O s       :     3.877361  s :     3.877361
      pz      :     1.603948  p :     4.427803
      px      :     1.456732
      py      :     1.367123
      dz2     :     0.006030  d :     0.041106
      dxz     :     0.009631
      dyz     :     0.009124
      dx2y2   :     0.008140
      dxy     :     0.008182
      f0      :     0.000388  f :     0.003266
      f+1     :     0.000427
      f-1     :     0.000398
      f+2     :     0.000582
      f-2     :     0.000846
      f+3     :     0.000326
      f-3     :     0.000299
  7 C s       :     3.042705  s :     3.042705
      pz      :     0.909123  p :     2.423102
      px      :     0.738916
      py      :     0.775063
      dz2     :     0.044174  d :     0.228816
      dxz     :     0.060409
      dyz     :     0.022173
      dx2y2   :     0.038388
      dxy     :     0.063674
      f0      :     0.002903  f :     0.025199
      f+1     :     0.007285
      f-1     :     0.001372
      f+2     :     0.004070
      f-2     :     0.002997
      f+3     :     0.002932
      f-3     :     0.003640
  8 O s       :     3.780744  s :     3.780744
      pz      :     1.755988  p :     4.737986
      px      :     1.409221
      py      :     1.572777
      dz2     :     0.003336  d :     0.026434
      dxz     :     0.007161
      dyz     :     0.000936
      dx2y2   :     0.007253
      dxy     :     0.007749
      f0      :     0.000176  f :     0.001660
      f+1     :     0.000329
      f-1     :     0.000025
      f+2     :     0.000295
      f-2     :     0.000123
      f+3     :     0.000309
      f-3     :     0.000403
  9 O s       :     3.810835  s :     3.810835
      pz      :     1.671384  p :     4.730083
      px      :     1.487687
      py      :     1.571011
      dz2     :     0.004425  d :     0.024648
      dxz     :     0.006852
      dyz     :     0.003354
      dx2y2   :     0.004485
      dxy     :     0.005533
      f0      :     0.000161  f :     0.001603
      f+1     :     0.000391
      f-1     :     0.000048
      f+2     :     0.000313
      f-2     :     0.000308
      f+3     :     0.000196
      f-3     :     0.000187
 10 C s       :     3.218813  s :     3.218813
      pz      :     0.997310  p :     2.852897
      px      :     0.794476
      py      :     1.061111
      dz2     :     0.016632  d :     0.087856
      dxz     :     0.027854
      dyz     :     0.011835
      dx2y2   :     0.017172
      dxy     :     0.014363
      f0      :     0.001141  f :     0.005834
      f+1     :     0.001270
      f-1     :     0.000755
      f+2     :     0.000661
      f-2     :     0.000547
      f+3     :     0.000577
      f-3     :     0.000883
 11 Cls       :     5.907922  s :     5.907922
      pz      :     3.873562  p :    11.262854
      px      :     3.448585
      py      :     3.940706
      dz2     :     0.006963  d :     0.053110
      dxz     :     0.016974
      dyz     :     0.002426
      dx2y2   :     0.015423
      dxy     :     0.011324
      f0      :     0.000569  f :     0.004629
      f+1     :     0.000749
      f-1     :     0.000065
      f+2     :     0.001055
      f-2     :     0.000426
      f+3     :     0.000983
      f-3     :     0.000781
 12 H s       :     0.824849  s :     0.824849
      pz      :     0.004747  p :     0.022248
      px      :     0.003963
      py      :     0.013539
 13 H s       :     0.830054  s :     0.830054
      pz      :     0.007572  p :     0.022190
      px      :     0.008167
      py      :     0.006450
 14 H s       :     0.617070  s :     0.617070
      pz      :     0.018878  p :     0.046841
      px      :     0.012284
      py      :     0.015679
 15 O s       :     3.795475  s :     3.795475
      pz      :     1.520375  p :     4.922718
      px      :     1.609806
      py      :     1.792538
      dz2     :     0.008918  d :     0.018538
      dxz     :     0.001620
      dyz     :     0.002415
      dx2y2   :     0.001998
      dxy     :     0.003588
      f0      :     0.000205  f :     0.001185
      f+1     :     0.000122
      f-1     :     0.000267
      f+2     :     0.000019
      f-2     :     0.000082
      f+3     :     0.000071
      f-3     :     0.000420
 16 H s       :     0.589943  s :     0.589943
      pz      :     0.009829  p :     0.055894
      px      :     0.028759
      py      :     0.017306


                     *******************************
                     * LOEWDIN POPULATION ANALYSIS *
                     *******************************

----------------------
LOEWDIN ATOMIC CHARGES
----------------------
   0 C :   -0.245593
   1 H :    0.134660
   2 H :    0.143128
   3 H :    0.122550
   4 N :   -0.067400
   5 O :   -0.059993
   6 O :   -0.061829
   7 C :   -0.700217
   8 O :   -0.095645
   9 O :   -0.102911
  10 C :   -0.455337
  11 Cl:    0.206235
  12 H :    0.134364
  13 H :    0.132132
  14 H :    0.147072
  15 O :   -0.366936
  16 H :    0.135718

-------------------------------
LOEWDIN REDUCED ORBITAL CHARGES
-------------------------------
  0 C s       :     2.871082  s :     2.871082
      pz      :     1.070739  p :     3.089726
      px      :     0.979719
      py      :     1.039268
      dz2     :     0.027500  d :     0.251322
      dxz     :     0.071067
      dyz     :     0.048720
      dx2y2   :     0.039191
      dxy     :     0.064844
      f0      :     0.004739  f :     0.033462
      f+1     :     0.004025
      f-1     :     0.003714
      f+2     :     0.003102
      f-2     :     0.006474
      f+3     :     0.005976
      f-3     :     0.005432
  1 H s       :     0.800725  s :     0.800725
      pz      :     0.029635  p :     0.064615
      px      :     0.015247
      py      :     0.019733
  2 H s       :     0.792015  s :     0.792015
      pz      :     0.016688  p :     0.064857
      px      :     0.016125
      py      :     0.032044
  3 H s       :     0.812288  s :     0.812288
      pz      :     0.025191  p :     0.065162
      px      :     0.025696
      py      :     0.014275
  4 N s       :     2.953150  s :     2.953150
      pz      :     1.120854  p :     3.292915
      px      :     1.105096
      py      :     1.066966
      dz2     :     0.213228  d :     0.748682
      dxz     :     0.200123
      dyz     :     0.189334
      dx2y2   :     0.073894
      dxy     :     0.072104
      f0      :     0.011313  f :     0.072652
      f+1     :     0.019584
      f-1     :     0.017931
      f+2     :     0.008033
      f-2     :     0.006522
      f+3     :     0.004404
      f-3     :     0.004865
  5 O s       :     3.504385  s :     3.504385
      pz      :     1.314485  p :     4.445771
      px      :     1.604550
      py      :     1.526736
      dz2     :     0.050569  d :     0.098798
      dxz     :     0.024125
      dyz     :     0.022666
      dx2y2   :     0.000640
      dxy     :     0.000798
      f0      :     0.005167  f :     0.011039
      f+1     :     0.002865
      f-1     :     0.002675
      f+2     :     0.000159
      f-2     :     0.000157
      f+3     :     0.000006
      f-3     :     0.000009
  6 O s       :     3.504520  s :     3.504520
      pz      :     1.596963  p :     4.447638
      px      :     1.464908
      py      :     1.385767
      dz2     :     0.015968  d :     0.098656
      dxz     :     0.023101
      dyz     :     0.022899
      dx2y2   :     0.014229
      dxy     :     0.022459
      f0      :     0.001275  f :     0.011015
      f+1     :     0.001450
      f-1     :     0.001480
      f+2     :     0.001497
      f-2     :     0.003074
      f+3     :     0.001107
      f-3     :     0.001131
  7 C s       :     2.782775  s :     2.782775
      pz      :     0.984158  p :     2.735437
      px      :     0.982552
      py      :     0.768727
      dz2     :     0.237020  d :     1.025280
      dxz     :     0.290858
      dyz     :     0.085722
      dx2y2   :     0.193057
      dxy     :     0.218623
      f0      :     0.017354  f :     0.156723
      f+1     :     0.047064
      f-1     :     0.008771
      f+2     :     0.024655
      f-2     :     0.021034
      f+3     :     0.018401
      f-3     :     0.019445
  8 O s       :     3.427251  s :     3.427251
      pz      :     1.628074  p :     4.602439
      px      :     1.505409
      py      :     1.468956
      dz2     :     0.008190  d :     0.060579
      dxz     :     0.019660
      dyz     :     0.001088
      dx2y2   :     0.019560
      dxy     :     0.012082
      f0      :     0.000606  f :     0.005375
      f+1     :     0.001144
      f-1     :     0.000058
      f+2     :     0.001176
      f-2     :     0.000201
      f+3     :     0.001249
      f-3     :     0.000941
  9 O s       :     3.422570  s :     3.422570
      pz      :     1.607568  p :     4.614552
      px      :     1.531006
      py      :     1.475977
      dz2     :     0.010875  d :     0.060527
      dxz     :     0.019543
      dyz     :     0.006191
      dx2y2   :     0.012443
      dxy     :     0.011476
      f0      :     0.000574  f :     0.005261
      f+1     :     0.001285
      f-1     :     0.000210
      f+2     :     0.001014
      f-2     :     0.000887
      f+3     :     0.000597
      f-3     :     0.000695
 10 C s       :     2.895888  s :     2.895888
      pz      :     1.075592  p :     3.108874
      px      :     0.940442
      py      :     1.092841
      dz2     :     0.089108  d :     0.413419
      dxz     :     0.119610
      dyz     :     0.048308
      dx2y2   :     0.093073
      dxy     :     0.063320
      f0      :     0.005747  f :     0.037155
      f+1     :     0.006975
      f-1     :     0.004849
      f+2     :     0.004409
      f-2     :     0.006395
      f+3     :     0.003405
      f-3     :     0.005375
 11 Cls       :     5.609501  s :     5.609501
      pz      :     3.794198  p :    11.085942
      px      :     3.413973
      py      :     3.877771
      dz2     :     0.011659  d :     0.088703
      dxz     :     0.026771
      dyz     :     0.004339
      dx2y2   :     0.025454
      dxy     :     0.020479
      f0      :     0.001046  f :     0.009620
      f+1     :     0.001751
      f-1     :     0.000142
      f+2     :     0.001948
      f-2     :     0.001006
      f+3     :     0.001963
      f-3     :     0.001763
 12 H s       :     0.801753  s :     0.801753
      pz      :     0.013703  p :     0.063883
      px      :     0.011342
      py      :     0.038839
 13 H s       :     0.803766  s :     0.803766
      pz      :     0.020673  p :     0.064103
      px      :     0.023675
      py      :     0.019755
 14 H s       :     0.690273  s :     0.690273
      pz      :     0.081160  p :     0.162654
      px      :     0.035969
      py      :     0.045525
 15 O s       :     3.463024  s :     3.463024
      pz      :     1.541937  p :     4.874434
      px      :     1.580677
      py      :     1.751821
      dz2     :     0.014240  d :     0.027313
      dxz     :     0.001490
      dyz     :     0.003153
      dx2y2   :     0.002604
      dxy     :     0.005825
      f0      :     0.000579  f :     0.002164
      f+1     :     0.000368
      f-1     :     0.000491
      f+2     :     0.000017
      f-2     :     0.000062
      f+3     :     0.000002
      f-3     :     0.000646
 16 H s       :     0.675762  s :     0.675762
      pz      :     0.028851  p :     0.188520
      px      :     0.101174
      py      :     0.058494


                      *****************************
                      * MAYER POPULATION ANALYSIS *
                      *****************************

  NA   - Mulliken gross atomic population
  ZA   - Total nuclear charge
  QA   - Mulliken gross atomic charge
  VA   - Mayer's total valence
  BVA  - Mayer's bonded valence
  FA   - Mayer's free valence

  ATOM       NA         ZA         QA         VA         BVA        FA
  0 C      6.2639     6.0000    -0.2639     3.7940     3.7940     0.0000
  1 H      0.8323     1.0000     0.1677     0.9718     0.9718     0.0000
  2 H      0.8231     1.0000     0.1769     0.9718     0.9718     0.0000
  3 H      0.8394     1.0000     0.1606     0.9801     0.9801    -0.0000
  4 N      6.5688     7.0000     0.4312     4.1111     4.1111     0.0000
  5 O      8.3482     8.0000    -0.3482     1.8942     1.8942     0.0000
  6 O      8.3495     8.0000    -0.3495     1.8853     1.8853     0.0000
  7 C      5.7198     6.0000     0.2802     4.4728     4.4728     0.0000
  8 O      8.5468     8.0000    -0.5468     1.8882     1.8882    -0.0000
  9 O      8.5672     8.0000    -0.5672     1.8169     1.8169    -0.0000
 10 C      6.1654     6.0000    -0.1654     3.7921     3.7921     0.0000
 11 Cl    17.2285    17.0000    -0.2285     1.0727     1.0727     0.0000
 12 H      0.8471     1.0000     0.1529     0.9701     0.9701     0.0000
 13 H      0.8522     1.0000     0.1478     0.9794     0.9794     0.0000
 14 H      0.6639     1.0000     0.3361     0.9139     0.9139    -0.0000
 15 O      8.7379     8.0000    -0.7379     1.7424     1.7424     0.0000
 16 H      0.6458     1.0000     0.3542     0.9497     0.9497    -0.0000

  Mayer bond orders larger than 0.100000
B(  0-C ,  1-H ) :   0.9480 B(  0-C ,  2-H ) :   0.9338 B(  0-C ,  3-H ) :   0.9497 
B(  0-C ,  4-N ) :   0.8767 B(  4-N ,  5-O ) :   1.6191 B(  4-N ,  6-O ) :   1.6101 
B(  5-O ,  6-O ) :   0.2110 B(  7-C ,  8-O ) :   1.8164 B(  7-C ,  9-O ) :   1.6817 
B(  7-C , 10-C ) :   0.9348 B(  9-O , 16-H ) :   0.1269 B( 10-C , 11-Cl) :   0.9793 
B( 10-C , 12-H ) :   0.9472 B( 10-C , 13-H ) :   0.9526 B( 14-H , 15-O ) :   0.8905 
B( 15-O , 16-H ) :   0.8107 

-------
TIMINGS
-------

Total SCF time: 0 days 0 hours 0 min 19 sec 

Total time                  ....      19.436 sec
Sum of individual times     ....      18.121 sec  ( 93.2%)

Fock matrix formation       ....      13.565 sec  ( 69.8%)
  Split-RI-J                ....       2.336 sec  ( 17.2% of F)
  Chain of spheres X        ....       5.079 sec  ( 37.4% of F)
  XC integration            ....       1.674 sec  ( 12.3% of F)
    Basis function eval.    ....       0.134 sec  (  8.0% of XC)
    Density eval.           ....       0.253 sec  ( 15.1% of XC)
    XC-Functional eval.     ....       0.020 sec  (  1.2% of XC)
    XC-Potential eval.      ....       0.135 sec  (  8.1% of XC)
Diagonalization             ....       0.643 sec  (  3.3%)
Density matrix formation    ....       0.159 sec  (  0.8%)
Population analysis         ....       0.149 sec  (  0.8%)
Initial guess               ....       0.199 sec  (  1.0%)
Orbital Transformation      ....       0.000 sec  (  0.0%)
Orbital Orthonormalization  ....       0.000 sec  (  0.0%)
DIIS solution               ....       0.393 sec  (  2.0%)
SOSCF solution              ....       1.420 sec  (  7.3%)
Grid generation             ....       1.592 sec  (  8.2%)

Maximum memory used throughout the entire SCF-calculation: 79.7 MB


-------------------------------------------------------------------------------
                          DFT DISPERSION CORRECTION                            
                                                                               
                              DFTD3 V3.1  Rev 1                                
                          USING Becke-Johnson damping                          
-------------------------------------------------------------------------------
The B3LYP functional is recognized
Active option DFTDOPT                   ...         4   

molecular C6(AA) [au] = 3203.805804 


            DFT-D V3
 parameters
 s6 scaling factor         :     1.0000 
 a1 scaling factor         :     0.3981 
 s8 scaling factor         :     1.9889 
 a2 scaling factor         :     4.4211 
 ad hoc parameters k1-k3   :    16.0000     1.3333    -4.0000 

 Edisp/kcal,au: -13.349530885385  -0.021273829341 
 E6   /kcal   :  -6.416673849 
 E8   /kcal   :  -6.932857036 
 % E8         :  51.933338300 

-------------------------   ----------------
Dispersion correction           -0.021273829
-------------------------   ----------------


-------------------------   --------------------
FINAL SINGLE POINT ENERGY     -1009.657015496374
-------------------------   --------------------



           ************************************************************
           *        Program running with 102 parallel MPI-processes   *
           *              working on a common directory               *
           ************************************************************
------------------------------------------------------------------------------
                         ORCA SCF GRADIENT CALCULATION
------------------------------------------------------------------------------

 ... reading COSX grid (gridx3)
Gradient of the Kohn-Sham DFT energy:
Kohn-Sham wavefunction type      ... RKS
Hartree-Fock exchange scaling    ...    0.200
Number of operators              ...    1
Number of atoms                  ...   17
Basis set dimensions             ...  358
Integral neglect threshold       ... 2.5e-11
Integral primitive cutoff        ... 2.5e-12
SHARK Integral package           ... ON

Nuc. rep. gradient       (SHARK) ... done (  0.0 sec)
HCore & Overlap gradient (SHARK) ... done (  0.1 sec)
RI-J gradient            (SHARK) ... done (  0.3 sec)
COSX-gradient                    ... done (  0.8 sec)
Exchange-correlation gradient    ... done
Dispersion correction            ... done

------------------
CARTESIAN GRADIENT
------------------

   1   C   :    0.000822790   -0.000160429   -0.000299169
   2   H   :   -0.000445577   -0.000194466    0.000434391
   3   H   :   -0.000109645    0.000084042    0.000297582
   4   H   :   -0.000138278    0.000336621   -0.000189503
   5   N   :   -0.000141376    0.000035200    0.000203015
   6   O   :   -0.000042214   -0.000100007   -0.000094722
   7   O   :    0.000008106    0.000023277   -0.000161932
   8   C   :    0.002476612    0.000424885    0.001000623
   9   O   :    0.000161887    0.000075832    0.000020816
  10   O   :   -0.001819363   -0.000630184   -0.000616186
  11   C   :   -0.001595406   -0.000445435   -0.000242600
  12   Cl  :    0.000532407    0.000089885   -0.000026555
  13   H   :    0.000199224    0.000520277    0.000251475
  14   H   :   -0.000023414   -0.000059038   -0.000165377
  15   H   :    0.000127750    0.000653882    0.000962507
  16   O   :   -0.000862315    0.000034977   -0.000532072
  17   H   :    0.000576375   -0.000730831   -0.000548923

Difference to translation invariance:
           :   -0.0002724391   -0.0000415135    0.0002933716

Difference to rotation invariance:
           :   -0.0009162408   -0.0009360295   -0.0006826172

Norm of the cartesian gradient     ...    0.0044837079
RMS gradient                       ...    0.0006278447
MAX gradient                       ...    0.0024766121

-------
TIMINGS
-------

Total SCF gradient time            ...        2.898 sec

One electron gradient       ....       0.053 sec  (  1.8%)
RI-J Coulomb gradient       ....       0.258 sec  (  8.9%)
COSX gradient               ....       0.778 sec  ( 26.8%)
XC gradient                 ....       0.309 sec  ( 10.7%)
CPCM gradient               ....       0.150 sec  (  5.2%)
   A-Matrix (El+Nuc)        ....       0.058 sec  (  2.0%)
   Potential                ....       0.092 sec  (  3.2%)

Maximum memory used throughout the entire SCFGRAD-calculation: 53.1 MB

                            ***************************************
                            *     ORCA property calculations      *
                            ***************************************

                                    ---------------------
                                    Active property flags
                                    ---------------------
   (+) Dipole Moment


------------------------------------------------------------------------------
                       ORCA ELECTRIC PROPERTIES CALCULATION
------------------------------------------------------------------------------

Dipole Moment Calculation                       ... on
Quadrupole Moment Calculation                   ... off
Polarizability Calculation                      ... off
GBWName                                         ... /home/rudenko/mop_saddle_orca_4_serv/for_orca/CH3NO2_ch2clcoo_near_freez/orca/start_freq_H/start_f_H.gbw
Electron density                                ... /home/rudenko/mop_saddle_orca_4_serv/for_orca/CH3NO2_ch2clcoo_near_freez/orca/start_freq_H/start_f_H.scfp
The origin for moment calculation is the CENTER OF MASS  = ( 5.521003, -0.008232  1.593888)

-------------
DIPOLE MOMENT
-------------
                                X             Y             Z
Electronic contribution:     -0.89806      -2.64648       5.56592
Nuclear contribution   :     -1.65336       2.66749      -2.80180
                        -----------------------------------------
Total Dipole Moment    :     -2.55143       0.02100       2.76412
                        -----------------------------------------
Magnitude (a.u.)       :      3.76173
Magnitude (Debye)      :      9.56155



--------------------
Rotational spectrum 
--------------------
 
Rotational constants in cm-1:     0.059522     0.010608     0.009766 
Rotational constants in MHz :  1784.412815   318.023192   292.766832 

 Dipole components along the rotational axes: 
x,y,z [a.u.] :     2.823902     2.234652    -1.087423 
x,y,z [Debye]:     7.177789     5.680034    -2.764010 

 

----------------------------------------------------------------------------
                           ORCA NUMERICAL FREQUENCIES
                              (102-process run)
[...]
     25       0.000015  -0.000639   0.000029   0.000002  -0.000013   0.000031
     26      -0.000152   0.005940  -0.000061  -0.000014  -0.000035  -0.000148
     27      -0.000465  -0.002371   0.000136   0.000109  -0.000160   0.000006
     28      -0.000155  -0.000405   0.000048   0.000050  -0.000011   0.000028
     29      -0.000400  -0.001922   0.000121   0.000123  -0.000121  -0.000074
     30       0.000304  -0.045246   0.001217   0.000769  -0.000596  -0.000409
     31      -0.000323  -0.034046   0.000749   0.000535  -0.000114  -0.000088
     32      -0.001594  -0.058563   0.000986   0.000524  -0.000050   0.000416
     33      -0.000038  -0.004667   0.000068   0.000060   0.000023  -0.000007
     34      -0.000002  -0.001330   0.000010  -0.000009  -0.000028  -0.000038
     35       0.000111   0.000680   0.000057   0.000047  -0.000044  -0.000122
     36       0.000900   0.516633  -0.012600  -0.007257   0.005860   0.003018
     37      -0.001251  -0.147710   0.003262   0.002059  -0.000919  -0.000422
     38       0.006853   0.454175  -0.008929  -0.005557   0.001503  -0.000308
     39      -0.002130   0.255231  -0.006934  -0.004873   0.002670   0.002725
     40       0.004632   0.626211  -0.013996  -0.008590   0.004464   0.001934
     41       0.005607   0.200270  -0.003180  -0.001390   0.000402  -0.001314
     42       0.003849  -0.003720   0.000457   0.001252   0.000473  -0.002049
     43       0.004246   0.001588  -0.000097   0.002335   0.002247  -0.001245
     44      -0.000670  -0.001235   0.000144  -0.000363  -0.000609  -0.000112
     45      -0.000462   0.000180   0.000037   0.000040   0.000010   0.000031
     46      -0.000447   0.000086   0.000154   0.000039  -0.000010  -0.000039
     47       0.000175   0.000393  -0.000107   0.000108   0.000151   0.000098
     48      -0.001072  -0.000701  -0.000031  -0.000027  -0.001069  -0.000266
     49      -0.000109  -0.003846  -0.000147  -0.000049  -0.001150  -0.000294
     50       0.000592  -0.005162   0.000479  -0.000269  -0.001204  -0.001512
                 42         43         44         45         46         47    
      0       0.000352   0.000068   0.014477   0.000071   0.000075  -0.067226
      1       0.000197   0.000071   0.035888   0.000261  -0.000037   0.063282
      2       0.000003  -0.000214  -0.025341  -0.000220   0.000072  -0.005026
      3      -0.001905  -0.000584  -0.183901  -0.001335   0.000029   0.215741
      4      -0.001914  -0.000701   0.275262   0.002012  -0.000030  -0.328187
      5       0.000600   0.000120   0.368078   0.002698  -0.000025  -0.468124
      6      -0.002823   0.000465   0.326145   0.002430  -0.000376   0.286393
      7      -0.001315   0.000656  -0.609364  -0.004565   0.000709  -0.543165
      8       0.001435   0.000425   0.254595   0.001904  -0.000292   0.232085
      9      -0.000116  -0.001384  -0.314647  -0.002005  -0.000473   0.289117
     10      -0.000425  -0.000282  -0.096394  -0.000670  -0.000228   0.107692
     11       0.000203   0.001254  -0.319245  -0.002019  -0.000520   0.303246
     12      -0.000447   0.000018   0.000501   0.000004   0.000002   0.000951
     13      -0.000178  -0.000091   0.000315   0.000002   0.000002   0.000499
     14      -0.000274   0.000217  -0.000456  -0.000003   0.000002  -0.000426
     15       0.000067   0.000018  -0.000215  -0.000002   0.000004  -0.000110
     16      -0.000023   0.000042   0.000033   0.000003  -0.000003   0.000218
     17      -0.000039  -0.000124   0.000484   0.000002   0.000001   0.000127
     18       0.000146   0.000053  -0.000367  -0.000001  -0.000001  -0.000102
     19       0.000190   0.000027  -0.000243  -0.000002   0.000005  -0.000018
     20       0.000116   0.000006  -0.000129  -0.000001  -0.000001  -0.000172
     21       0.713911   0.037539  -0.000055   0.001245  -0.000856   0.000002
     22       0.144427   0.005157  -0.000031   0.000164   0.000554   0.000002
     23       0.087859   0.002283  -0.000045  -0.000743   0.000035   0.000020
     24      -0.300588  -0.016118   0.000012  -0.000325   0.000275   0.000011
     25      -0.029043  -0.001394   0.000008  -0.000095  -0.000159  -0.000005
     26       0.085338   0.004895   0.000014  -0.000088   0.000143  -0.000006
     27      -0.203171  -0.010168   0.000042  -0.000417   0.000113   0.000004
     28      -0.073470  -0.001278   0.000001  -0.000078   0.000201  -0.000010
     29      -0.133204  -0.001776   0.000030  -0.000157   0.000022  -0.000003
     30      -0.020507   0.000498  -0.000218   0.037443  -0.038903  -0.000089
     31       0.001464   0.001090  -0.000285   0.043841   0.079876   0.000059
     32      -0.003381  -0.000333  -0.000299   0.035629  -0.034646  -0.000013
     33      -0.005299  -0.000555   0.000019   0.000072   0.000081  -0.000018
     34      -0.000321   0.000053   0.000014  -0.000074  -0.000224  -0.000009
     35       0.004027   0.000036   0.000023  -0.000193   0.000114  -0.000016
     36      -0.029698  -0.007575   0.000412  -0.090853  -0.073235   0.000104
     37       0.025755   0.003142   0.005566  -0.813688  -0.544287  -0.000245
     38      -0.177222  -0.006830   0.000685  -0.087249  -0.073574  -0.000109
     39       0.063248  -0.001743   0.002596  -0.360484   0.537433   0.000635
     40      -0.158763  -0.014026  -0.002263   0.294509  -0.406860  -0.000382
     41      -0.216772  -0.009369   0.002489  -0.317340   0.479061   0.000440
     42       0.229604  -0.522306  -0.000838  -0.000256   0.000041  -0.000225
     43      -0.113715   0.269400  -0.000426   0.000200   0.000033  -0.000074
     44       0.083512  -0.192153   0.000977  -0.000100   0.000114   0.000150
     45      -0.025172   0.034552  -0.000076  -0.000161   0.000193   0.000032
     46       0.011025  -0.009037   0.000240   0.000095  -0.000111   0.000000
     47      -0.025876   0.056732  -0.000149   0.000002   0.000004  -0.000030
     48       0.059495  -0.033950   0.002946   0.002475  -0.002691   0.000348
     49      -0.027140  -0.149328  -0.001756  -0.001482   0.001671   0.000012
     50       0.332989  -0.766491   0.000057  -0.000276   0.000101  -0.000094
                 48         49         50    
      0      -0.027822   0.000003  -0.000031
      1      -0.038016   0.000180   0.000015
      2      -0.084657  -0.000023   0.000006
      3      -0.229497  -0.000640  -0.000096
      4       0.340763   0.000846   0.000226
      5       0.460311   0.000828   0.000134
      6       0.025032   0.001906   0.000428
      7      -0.060048  -0.002060  -0.000540
      8       0.008226   0.000660   0.000201
      9       0.532936  -0.001495  -0.000271
     10       0.168831  -0.000306  -0.000071
     11       0.541396  -0.001330  -0.000225
     12      -0.000133   0.000057   0.000020
     13      -0.000422  -0.000012  -0.000004
     14      -0.001590  -0.000005  -0.000003
     15       0.000098  -0.000024  -0.000006
     16       0.000041  -0.000011  -0.000010
     17       0.000843   0.000028   0.000012
     18       0.000285  -0.000031  -0.000012
     19       0.000538  -0.000020  -0.000004
     20       0.000493  -0.000004  -0.000002
     21       0.000012   0.006197  -0.000464
     22       0.000017   0.002904  -0.000188
     23       0.000034   0.003947  -0.000282
     24       0.000008  -0.002655   0.000180
     25      -0.000001  -0.000808   0.000062
     26      -0.000013  -0.000032   0.000008
     27      -0.000004  -0.003744   0.000414
     28       0.000000  -0.000400  -0.000071
     29      -0.000011  -0.002989   0.000159
     30      -0.000118  -0.000292   0.000016
     31       0.000036  -0.000203   0.000040
     32       0.000002   0.000042  -0.000048
     33      -0.000037   0.000073   0.000016
     34      -0.000024  -0.000015  -0.000022
     35      -0.000024   0.000038   0.000068
     36       0.000210   0.000419  -0.000026
     37      -0.000081  -0.000691  -0.000017
     38      -0.000118  -0.001521   0.000137
     39       0.000596  -0.001637  -0.000055
     40      -0.000311   0.001415  -0.000162
     41       0.000336  -0.004643   0.000524
     42       0.000220   0.040153   0.211276
     43       0.000268  -0.034950  -0.303567
     44      -0.000137  -0.054022  -0.925101
     45       0.000050   0.053554  -0.016446
     46       0.000007  -0.030118   0.020600
     47       0.000027   0.005556   0.056079
     48      -0.000491  -0.860025   0.045464
     49       0.000326   0.499817  -0.020078
     50      -0.000024  -0.029067   0.032956


-----------
IR SPECTRUM
-----------

 Mode   freq       eps      Int      T**2         TX        TY        TZ
       cm**-1   L/(mol*cm) km/mol    a.u.
----------------------------------------------------------------------------
  8:      8.19   0.002070   10.46  0.078934  ( 0.088071 -0.266015 -0.020343)
  9:     24.57   0.001218    6.15  0.015471  (-0.067069  0.033449 -0.099265)
 10:     30.62   0.001688    8.53  0.017205  (-0.019442  0.129593 -0.005665)
 11:     36.17   0.001352    6.83  0.011663  (-0.005023  0.095071 -0.050988)
 12:     44.27   0.000985    4.98  0.006942  (-0.030346 -0.059869 -0.049370)
 13:     55.83   0.001008    5.09  0.005633  (-0.064610  0.005833 -0.037739)
 14:     73.43   0.001404    7.09  0.005966  (-0.011621 -0.075562  0.011022)
 15:     93.10   0.000408    2.06  0.001369  (-0.018454  0.030413  0.010150)
 16:    190.28   0.003882   19.62  0.006367  ( 0.061202 -0.048076  0.017599)
 17:    229.87   0.003456   17.47  0.004692  ( 0.058913 -0.014780  0.031668)
 18:    294.82   0.033975  171.69  0.035961  ( 0.090598  0.163620 -0.031334)
 19:    403.38   0.004318   21.82  0.003340  (-0.037680  0.035127  0.026203)
 20:    427.20   0.021346  107.88  0.015593  ( 0.104054 -0.046461 -0.051061)
 21:    485.23   0.000356    1.80  0.000229  (-0.002005 -0.005018 -0.014128)
 22:    572.63   0.001495    7.56  0.000815  (-0.005286  0.027913 -0.002797)
 23:    620.68   0.001721    8.70  0.000865  (-0.001000 -0.026441  0.012852)
 24:    659.50   0.017522   88.55  0.008291  ( 0.036012 -0.006015 -0.083415)
 25:    662.60   0.006429   32.49  0.003028  (-0.046697 -0.023617  0.017014)
 26:    713.05   0.027045  136.67  0.011836  ( 0.042557  0.100057  0.003671)
 27:    724.74   0.040645  205.41  0.017501  (-0.112376 -0.038163  0.058452)
 28:    904.29   0.003642   18.41  0.001257  ( 0.014476 -0.008949 -0.031102)
 29:    928.84   0.002729   13.79  0.000917  (-0.020438 -0.017848  0.013434)
 30:    943.90   0.002868   14.49  0.000948  (-0.005370  0.030163 -0.003084)
 31:   1110.64   0.005744   29.03  0.001614  ( 0.016037  0.017169  0.032586)
 32:   1135.76   0.000823    4.16  0.000226  ( 0.002506 -0.013573  0.005969)
 33:   1187.04   0.000215    1.09  0.000057  (-0.006814 -0.003069 -0.000868)
 34:   1269.80   0.017435   88.11  0.004285  (-0.060421 -0.011950  0.022168)
 35:   1378.76   0.070418  355.86  0.015938  ( 0.000667 -0.026905 -0.123345)
 36:   1393.68   0.013819   69.83  0.003094  (-0.030669 -0.030788  0.034723)
 37:   1427.87   0.005230   26.43  0.001143  ( 0.014314  0.011390  0.028431)
 38:   1435.58   0.016242   82.08  0.003531  ( 0.035871  0.034263 -0.032710)
 39:   1437.10   0.025611  129.43  0.005561  (-0.028084 -0.035279 -0.059398)
 40:   1456.90   0.005286   26.72  0.001132  ( 0.031848 -0.009980 -0.004296)
 41:   1565.03   0.118576  599.24  0.023644  (-0.037901 -0.056803 -0.137771)
 42:   1614.05   0.219237  1107.94  0.042388  ( 0.200667  0.026050  0.037974)
 43:   1644.53   0.022883  115.64  0.004342  (-0.020261  0.019144 -0.059710)
 44:   3087.77   0.000293    1.48  0.000030  (-0.002223 -0.004273  0.002527)
 45:   3091.29   0.002849   14.40  0.000288  ( 0.015887  0.004829 -0.003456)
 46:   3155.11   0.000317    1.60  0.000031  (-0.004808  0.002620 -0.001189)
 47:   3178.88   0.000392    1.98  0.000039  (-0.001526 -0.004990  0.003361)
 48:   3218.06   0.000041    0.21  0.000004  ( 0.001649  0.000268  0.001110)
 49:   3334.37   0.241989  1222.91  0.022648  (-0.139709  0.054410 -0.012987)
 50:   3806.06   0.012236   61.83  0.001003  ( 0.015669 -0.013427 -0.024030)

* The epsilon (eps) is given for a Dirac delta lineshape.
** The dipole moment derivative (T) already includes vibrational overlap.

The first frequency considered to be a vibration is 8
The total number of vibrations considered is 43


--------------------------
THERMOCHEMISTRY AT 298.15K
--------------------------

Temperature         ... 298.15 K
Pressure            ... 1.00 atm
Total Mass          ... 172.54 AMU

Throughout the following assumptions are being made:
  (1) The electronic state is orbitally nondegenerate
  (2) There are no thermally accessible electronically excited states
  (3) Hindered rotations indicated by low frequency modes are not
      treated as such but are treated as vibrations and this may
      cause some error
  (4) All equations used are the standard statistical mechanics
      equations for an ideal gas
  (5) All vibrations are strictly harmonic

freq.       8.19  E(vib)   ...       0.58 
freq.      24.57  E(vib)   ...       0.56 
freq.      30.62  E(vib)   ...       0.55 
freq.      36.17  E(vib)   ...       0.54 
freq.      44.27  E(vib)   ...       0.53 
freq.      55.83  E(vib)   ...       0.52 
freq.      73.43  E(vib)   ...       0.49 
freq.      93.10  E(vib)   ...       0.47 
freq.     190.28  E(vib)   ...       0.36 
freq.     229.87  E(vib)   ...       0.32 
freq.     294.82  E(vib)   ...       0.27 
freq.     403.38  E(vib)   ...       0.19 
freq.     427.20  E(vib)   ...       0.18 
freq.     485.23  E(vib)   ...       0.15 
freq.     572.63  E(vib)   ...       0.11 
freq.     620.68  E(vib)   ...       0.09 
freq.     659.50  E(vib)   ...       0.08 
freq.     662.60  E(vib)   ...       0.08 
freq.     713.05  E(vib)   ...       0.07 
freq.     724.74  E(vib)   ...       0.06 
freq.     904.29  E(vib)   ...       0.03 
freq.     928.84  E(vib)   ...       0.03 
freq.     943.90  E(vib)   ...       0.03 
freq.    1110.64  E(vib)   ...       0.02 
freq.    1135.76  E(vib)   ...       0.01 
freq.    1187.04  E(vib)   ...       0.01 
freq.    1269.80  E(vib)   ...       0.01 
freq.    1378.76  E(vib)   ...       0.01 
freq.    1393.68  E(vib)   ...       0.00 
freq.    1427.87  E(vib)   ...       0.00 
freq.    1435.58  E(vib)   ...       0.00 
freq.    1437.10  E(vib)   ...       0.00 
freq.    1456.90  E(vib)   ...       0.00 
freq.    1565.03  E(vib)   ...       0.00 
freq.    1614.05  E(vib)   ...       0.00 
freq.    1644.53  E(vib)   ...       0.00 
freq.    3087.77  E(vib)   ...       0.00 
freq.    3091.29  E(vib)   ...       0.00 
freq.    3155.11  E(vib)   ...       0.00 
freq.    3178.88  E(vib)   ...       0.00 
freq.    3218.06  E(vib)   ...       0.00 
freq.    3334.37  E(vib)   ...       0.00 
freq.    3806.06  E(vib)   ...       0.00 

------------
INNER ENERGY
------------

The inner energy is: U= E(el) + E(ZPE) + E(vib) + E(rot) + E(trans)
    E(el)   - is the total energy from the electronic structure calculation
              = E(kin-el) + E(nuc-el) + E(el-el) + E(nuc-nuc)
    E(ZPE)  - the the zero temperature vibrational energy from the frequency calculation
    E(vib)  - the the finite temperature correction to E(ZPE) due to population
              of excited vibrational states
    E(rot)  - is the rotational thermal energy
    E(trans)- is the translational thermal energy

Summary of contributions to the inner energy U:
Electronic energy                ...  -1009.65701550 Eh
Zero point energy                ...      0.11403471 Eh      71.56 kcal/mol
Thermal vibrational correction   ...      0.01017085 Eh       6.38 kcal/mol
Thermal rotational correction    ...      0.00141627 Eh       0.89 kcal/mol
Thermal translational correction ...      0.00141627 Eh       0.89 kcal/mol
-----------------------------------------------------------------------
Total thermal energy                  -1009.52997739 Eh


Summary of corrections to the electronic energy:
(perhaps to be used in another calculation)
Total thermal correction                  0.01300340 Eh       8.16 kcal/mol
Non-thermal (ZPE) correction              0.11403471 Eh      71.56 kcal/mol
-----------------------------------------------------------------------
Total correction                          0.12703811 Eh      79.72 kcal/mol


--------
ENTHALPY
--------

The enthalpy is H = U + kB*T
                kB is Boltzmann's constant
Total free energy                 ...  -1009.52997739 Eh 
Thermal Enthalpy correction       ...      0.00094421 Eh       0.59 kcal/mol
-----------------------------------------------------------------------
Total Enthalpy                    ...  -1009.52903318 Eh


Note: Only C1 symmetry has been detected, increase convergence thresholds 
      if your molecule has a higher symmetry. Symmetry factor of 1.0 is   
      used for the rotational entropy correction. 
 

Note: Rotational entropy computed according to Herzberg 
Infrared and Raman Spectra, Chapter V,1, Van Nostrand Reinhold, 1945 
Point Group:  C1, Symmetry Number:   1  
Rotational constants in cm-1:     0.059522     0.010608     0.009766 

Vibrational entropy computed according to the QRRHO of S. Grimme
Chem.Eur.J. 2012 18 9955


-------
ENTROPY
-------

The entropy contributions are T*S = T*(S(el)+S(vib)+S(rot)+S(trans))
     S(el)   - electronic entropy
     S(vib)  - vibrational entropy
     S(rot)  - rotational entropy
     S(trans)- translational entropy
The entropies will be listed as multiplied by the temperature to get
units of energy

Electronic entropy                ...      0.00000000 Eh      0.00 kcal/mol
Vibrational entropy               ...      0.02011449 Eh     12.62 kcal/mol
Rotational entropy                ...      0.01517421 Eh      9.52 kcal/mol
Translational entropy             ...      0.01964379 Eh     12.33 kcal/mol
-----------------------------------------------------------------------
Final entropy term                ...      0.05493249 Eh     34.47 kcal/mol

In case the symmetry of your molecule has not been determined correctly
or in case you have a reason to use a different symmetry number we print 
out the resulting rotational entropy values for sn=1,12 :
 --------------------------------------------------------
|  sn= 1 | S(rot)=       0.01517421 Eh      9.52 kcal/mol|
|  sn= 2 | S(rot)=       0.01451976 Eh      9.11 kcal/mol|
|  sn= 3 | S(rot)=       0.01413692 Eh      8.87 kcal/mol|
|  sn= 4 | S(rot)=       0.01386530 Eh      8.70 kcal/mol|
|  sn= 5 | S(rot)=       0.01365461 Eh      8.57 kcal/mol|
|  sn= 6 | S(rot)=       0.01348247 Eh      8.46 kcal/mol|
|  sn= 7 | S(rot)=       0.01333692 Eh      8.37 kcal/mol|
|  sn= 8 | S(rot)=       0.01321084 Eh      8.29 kcal/mol|
|  sn= 9 | S(rot)=       0.01309964 Eh      8.22 kcal/mol|
|  sn=10 | S(rot)=       0.01300016 Eh      8.16 kcal/mol|
|  sn=11 | S(rot)=       0.01291017 Eh      8.10 kcal/mol|
|  sn=12 | S(rot)=       0.01282801 Eh      8.05 kcal/mol|
 --------------------------------------------------------


-------------------
GIBBS FREE ENERGY
-------------------

The Gibbs free energy is G = H - T*S

Total enthalpy                    ...  -1009.52903318 Eh 
Total entropy correction          ...     -0.05493249 Eh    -34.47 kcal/mol
-----------------------------------------------------------------------
Final Gibbs free energy         ...  -1009.58396567 Eh

For completeness - the Gibbs free energy minus the electronic energy
G-E(el)                           ...      0.07304983 Eh     45.84 kcal/mol



Timings for individual modules:

Sum of individual times         ...      379.433 sec (=   6.324 min)
GTO integral calculation        ...        8.262 sec (=   0.138 min)   2.2 %
SCF iterations                  ...       46.541 sec (=   0.776 min)  12.3 %
SCF Gradient evaluation         ...       13.723 sec (=   0.229 min)   3.6 %
Numerical frequency calculation ...      310.907 sec (=   5.182 min)  81.9 %
                             ****ORCA TERMINATED NORMALLY****
TOTAL RUN TIME: 0 days 0 hours 5 minutes 49 seconds 162 msec
