 *******************************************************************************
 **                                                                           **
 **                              MOPAC v22.0.6                                **
 **                                                                           **
 *******************************************************************************
 **          Digital Object Identifier (DOI): 10.5281/zenodo.6511958          **
 **    Visit the DOI location for information on how to cite this program.    **
 *******************************************************************************

                              PM7 CALCULATION RESULTS

 *******************************************************************************
 *  CALCULATION DONE:                                Mon Mar 25 22:29:38 2024  *
 *  PM7        - The PM7 Hamiltonian to be used
 *  SINGLET    - SPIN STATE DEFINED AS A SINGLET
 *
 *
 *
 *                 CHARGE ON SYSTEM = -1
 *
 *
 *
 *  EPS=78.4   - USE ANDREAS KLAMT'S COSMO IMPLICIT SOLVATION MODEL
 *  T=         - A TIME OF 14.0 DAYS REQUESTED
 *  DUMP=N     - RESTART FILE WRITTEN EVERY 30.0 MINUTES REQUESTED
 *  RELSCF     - DEFAULT SCF CRITERION MULTIPLIED BY 1.0000
 *              (DEFAULT SCF CRITERION = 0.00010)
 *  ITRY=      - DO A MAXIMUM OF 15000 ITERATIONS FOR SCF
 *  AUX        - OUTPUT AUXILIARY INFORMATION
 *  BONDS      - FINAL BOND-ORDER MATRIX TO BE PRINTED
 *******************************************************************************
PM7 BONDS AUX DUMP=30M ITRY=15000 T=14D CHARGE=-1 SINGLET eps=78.4 RELSCF=1
 Title: ASE calculation

   ATOM   CHEMICAL          X               Y               Z
  NUMBER   SYMBOL      (ANGSTROMS)     (ANGSTROMS)     (ANGSTROMS)

     1       C          1.53244725  *   3.05157899  *   2.07759895  *
     2       C          1.80171479  *   1.68951072  *   1.94955610  *
     3       C          0.75747979  *   0.77295464  *   1.79788475  *
     4       C         -0.56872762  *   1.22341040  *   1.77825315  *
     5       C         -0.79729647  *   2.58315411  *   1.90795467  *
     6       C          0.21817130  *   3.51627425  *   2.05672967  *
     7       H          2.35395400  *   3.76031605  *   2.19400433  *
     8       H          2.83572414  *   1.34030577  *   1.96744466  *
     9       H         -1.38591641  *   0.50922219  *   1.66376719  *
    10      Cl         -2.42923558  *   3.13589115  *   1.87862572  *
    11       H          0.00768612  *   4.58125762  *   2.15529351  *
    12       C          1.01621933  *  -0.66195202  *   1.68700018  *
    13       C          0.96423991  *  -1.46608147  *   2.93988639  *
    14       H          1.44046908  *  -2.45122904  *   2.82863843  *
    15       H         -0.07408518  *  -1.64699550  *   3.25976527  *
    16       H          1.46943083  *  -0.95154260  *   3.77088535  *
    17       N          1.10227592  *  -1.24216293  *   0.49402222  *
    18       O          1.21312678  *  -2.49442572  *   0.36406786  *
    19       O          1.12279662  *  -0.55875627  *  -0.56899266  *
    20       H          3.16744403  *  -0.79697206  *   1.83470095  *
    21       O          6.53291649  *  -0.82711457  *   3.06821154  *
    22       H          7.07077765  *  -0.40517398  *   2.38764751  *
    23       H          5.64244595  *  -0.82656098  *   2.69715242  *
    24       H          4.34327362  *  -1.40358295  *   1.07183067  *
    25       O          4.15747733  *  -0.80661208  *   1.81138406  *



          CARTESIAN COORDINATES 

    NO.       ATOM           X           Y           Z

     1         C          1.5324      3.0516      2.0776
     2         C          1.8017      1.6895      1.9496
     3         C          0.7575      0.7730      1.7979
     4         C         -0.5687      1.2234      1.7783
     5         C         -0.7973      2.5832      1.9080
     6         C          0.2182      3.5163      2.0567
     7         H          2.3540      3.7603      2.1940
     8         H          2.8357      1.3403      1.9674
     9         H         -1.3859      0.5092      1.6638
    10        Cl         -2.4292      3.1359      1.8786
    11         H          0.0077      4.5813      2.1553
    12         C          1.0162     -0.6620      1.6870
    13         C          0.9642     -1.4661      2.9399
    14         H          1.4405     -2.4512      2.8286
    15         H         -0.0741     -1.6470      3.2598
    16         H          1.4694     -0.9515      3.7709
    17         N          1.1023     -1.2422      0.4940
    18         O          1.2131     -2.4944      0.3641
    19         O          1.1228     -0.5588     -0.5690
    20         H          3.1674     -0.7970      1.8347
    21         O          6.5329     -0.8271      3.0682
    22         H          7.0708     -0.4052      2.3876
    23         H          5.6424     -0.8266      2.6972
    24         H          4.3433     -1.4036      1.0718
    25         O          4.1575     -0.8066      1.8114

 General Reference for PM7:
 "Optimization of Parameters for Semiempirical Methods VI: More Modifications to the 
 NDDO Approximations and Re-optimization of Parameters", J. J. P. Stewart, J. Mol. Mod., 1:32, 19 (2013)
 https://link.springer.com/article/10.1007/s00894-012-1667-x

           Empirical Formula: C8 H11 N O4 Cl  =    25 atoms



      MOLECULAR POINT GROUP   :   C1  


 SINGLET STATE CALCULATION


      RHF CALCULATION, NO. OF DOUBLY OCCUPIED LEVELS = 40


          Geometry optimization using EF
  SCF CRITERION =    0.1000E-03

          DIAGONAL MATRIX USED AS START HESSIAN

 CYCLE:     1 TIME:   0.094 TIME LEFT:  2.00W  GRAD.:    19.383 HEAT: -245.9089
 CYCLE:     2 TIME:   0.117 TIME LEFT:  2.00W  GRAD.:    11.407 HEAT: -245.9566
 CYCLE:     3 TIME:   0.039 TIME LEFT:  2.00W  GRAD.:    10.804 HEAT: -246.0815
 CYCLE:     4 TIME:   0.156 TIME LEFT:  2.00W  GRAD.:     8.427 HEAT: -246.1008
 CYCLE:     5 TIME:   0.109 TIME LEFT:  2.00W  GRAD.:     7.829 HEAT: -246.1045

     TRUST RADIUS NOW LESS THAN  0.00010 OPTIMIZATION TERMINATING
      THE GEOMETRY MAY NOT BE COMPLETELY OPTIMIZED
      (TO CONTINUE, ADD 'LET DDMIN=0.0' TO THE KEYWORD LINE)

 -------------------------------------------------------------------------------
 PM7 BONDS AUX DUMP=30M ITRY=15000 T=14D CHARGE=-1 SINGLET eps=78.4 RELSCF=1
 Title: ASE calculation



     GEOMETRY OPTIMISED USING EIGENVECTOR FOLLOWING (EF).     
     SCF FIELD WAS ACHIEVED                                   


                              PM7 CALCULATION
                                                       MOPAC v22.0.6 Linux
                                                       Mon Mar 25 22:29:38 2024




          FINAL HEAT OF FORMATION =       -246.10453 KCAL/MOL =   -1029.70137 KJ/MOL
          VAN DER WAALS AREA      =        249.64 SQUARE ANGSTROMS



          DIELECTRIC ENERGY       =         -3.13019 EV
          COSMO AREA              =        249.64 SQUARE ANGSTROMS
          COSMO VOLUME            =        256.43 CUBIC ANGSTROMS

          GRADIENT NORM           =          7.82879          =       1.56576 PER ATOM
          IONIZATION POTENTIAL    =          8.693244 EV
          HOMO LUMO ENERGIES (EV) =         -8.693 -0.226
          NO. OF FILLED LEVELS    =         40
          MOLECULAR WEIGHT        =        220.6322         POINT GROUP:  C1  

          MOLECULAR DIMENSIONS (Angstroms)

            Atom       Atom       Distance
            H    22   Cl    10    10.15067
            H     7    O    18     6.53649
            O    19    H    16     4.19937


          SCF CALCULATIONS        =         18

          WALL-CLOCK TIME         =      0.711 SECONDS
          COMPUTATION TIME        =     54.941 SECONDS



       FINAL  POINT  AND  DERIVATIVES

   PARAMETER     ATOM    TYPE            VALUE        GRADIENT
      1          1  C    CARTESIAN X     1.532948     -0.115058  KCAL/ANGSTROM
      2          1  C    CARTESIAN Y     3.051413      0.392604  KCAL/ANGSTROM
      3          1  C    CARTESIAN Z     2.077840      0.069072  KCAL/ANGSTROM
      4          2  C    CARTESIAN X     1.802365      0.351590  KCAL/ANGSTROM
      5          2  C    CARTESIAN Y     1.689696      0.115636  KCAL/ANGSTROM
      6          2  C    CARTESIAN Z     1.949981      0.003859  KCAL/ANGSTROM
      7          3  C    CARTESIAN X     0.757820      0.222797  KCAL/ANGSTROM
      8          3  C    CARTESIAN Y     0.772655     -0.208058  KCAL/ANGSTROM
      9          3  C    CARTESIAN Z     1.798341     -0.034882  KCAL/ANGSTROM
     10          4  C    CARTESIAN X    -0.568238      0.113424  KCAL/ANGSTROM
     11          4  C    CARTESIAN Y     1.223285     -0.358565  KCAL/ANGSTROM
     12          4  C    CARTESIAN Z     1.778316     -0.078988  KCAL/ANGSTROM
     13          5  C    CARTESIAN X    -0.796179     -0.061004  KCAL/ANGSTROM
     14          5  C    CARTESIAN Y     2.583118      0.198948  KCAL/ANGSTROM
     15          5  C    CARTESIAN Z     1.908094     -0.004377  KCAL/ANGSTROM
     16          6  C    CARTESIAN X     0.218107     -0.092102  KCAL/ANGSTROM
     17          6  C    CARTESIAN Y     3.516549     -0.296146  KCAL/ANGSTROM
     18          6  C    CARTESIAN Z     2.056906     -0.041842  KCAL/ANGSTROM
     19          7  H    CARTESIAN X     2.354256     -0.139314  KCAL/ANGSTROM
     20          7  H    CARTESIAN Y     3.760610     -0.124403  KCAL/ANGSTROM
     21          7  H    CARTESIAN Z     2.194154     -0.012057  KCAL/ANGSTROM
     22          8  H    CARTESIAN X     2.835909     -0.127142  KCAL/ANGSTROM
     23          8  H    CARTESIAN Y     1.340505     -0.048817  KCAL/ANGSTROM
     24          8  H    CARTESIAN Z     1.967605     -0.012012  KCAL/ANGSTROM
     25          9  H    CARTESIAN X    -1.385502     -0.090269  KCAL/ANGSTROM
     26          9  H    CARTESIAN Y     0.509439     -0.156556  KCAL/ANGSTROM
     27          9  H    CARTESIAN Z     1.663787     -0.000682  KCAL/ANGSTROM
     28         10 Cl    CARTESIAN X    -2.428573     -0.017184  KCAL/ANGSTROM
     29         10 Cl    CARTESIAN Y     3.135629     -0.273110  KCAL/ANGSTROM
     30         10 Cl    CARTESIAN Z     1.878253      0.022074  KCAL/ANGSTROM
     31         11  H    CARTESIAN X     0.007824     -0.045894  KCAL/ANGSTROM
     32         11  H    CARTESIAN Y     4.581071     -0.018741  KCAL/ANGSTROM
     33         11  H    CARTESIAN Z     2.155407     -0.054424  KCAL/ANGSTROM
     34         12  C    CARTESIAN X     1.011563      3.402205  KCAL/ANGSTROM
     35         12  C    CARTESIAN Y    -0.663651      0.219273  KCAL/ANGSTROM
     36         12  C    CARTESIAN Z     1.686620     -1.941923  KCAL/ANGSTROM
     37         13  C    CARTESIAN X     0.964722      0.418714  KCAL/ANGSTROM
     38         13  C    CARTESIAN Y    -1.465833     -0.062721  KCAL/ANGSTROM
     39         13  C    CARTESIAN Z     2.940500      0.207038  KCAL/ANGSTROM
     40         14  H    CARTESIAN X     1.440868     -0.085247  KCAL/ANGSTROM
     41         14  H    CARTESIAN Y    -2.451440      0.019567  KCAL/ANGSTROM
     42         14  H    CARTESIAN Z     2.828656     -0.006016  KCAL/ANGSTROM
     43         15  H    CARTESIAN X    -0.073678     -0.046346  KCAL/ANGSTROM
     44         15  H    CARTESIAN Y    -1.646949      0.059078  KCAL/ANGSTROM
     45         15  H    CARTESIAN Z     3.259813     -0.237483  KCAL/ANGSTROM
     46         16  H    CARTESIAN X     1.469884     -0.241636  KCAL/ANGSTROM
     47         16  H    CARTESIAN Y    -0.951284     -0.219942  KCAL/ANGSTROM
     48         16  H    CARTESIAN Z     3.770976      0.114118  KCAL/ANGSTROM
     49         17  N    CARTESIAN X     1.103654     -0.121526  KCAL/ANGSTROM
     50         17  N    CARTESIAN Y    -1.242531      0.356179  KCAL/ANGSTROM
     51         17  N    CARTESIAN Z     0.494813      3.174131  KCAL/ANGSTROM
     52         18  O    CARTESIAN X     1.214792     -0.339018  KCAL/ANGSTROM
     53         18  O    CARTESIAN Y    -2.494615     -0.074166  KCAL/ANGSTROM
     54         18  O    CARTESIAN Z     0.364643     -0.170177  KCAL/ANGSTROM
     55         19  O    CARTESIAN X     1.123399      0.375234  KCAL/ANGSTROM
     56         19  O    CARTESIAN Y    -0.557855      0.315053  KCAL/ANGSTROM
     57         19  O    CARTESIAN Z    -0.568631     -1.388817  KCAL/ANGSTROM
     58         20  H    CARTESIAN X     3.179418     -3.649601  KCAL/ANGSTROM
     59         20  H    CARTESIAN Y    -0.796524     -0.099606  KCAL/ANGSTROM
     60         20  H    CARTESIAN Z     1.838832     -2.049910  KCAL/ANGSTROM
     61         21  O    CARTESIAN X     6.531490      1.946816  KCAL/ANGSTROM
     62         21  O    CARTESIAN Y    -0.826373      0.099837  KCAL/ANGSTROM
     63         21  O    CARTESIAN Z     3.068333      0.527771  KCAL/ANGSTROM
     64         22  H    CARTESIAN X     7.070783      0.168172  KCAL/ANGSTROM
     65         22  H    CARTESIAN Y    -0.405186      0.095541  KCAL/ANGSTROM
     66         22  H    CARTESIAN Z     2.389190     -0.589109  KCAL/ANGSTROM
     67         23  H    CARTESIAN X     5.642319      0.903390  KCAL/ANGSTROM
     68         23  H    CARTESIAN Y    -0.826222     -0.189374  KCAL/ANGSTROM
     69         23  H    CARTESIAN Z     2.697618      0.270564  KCAL/ANGSTROM
     70         24  H    CARTESIAN X     4.346331     -1.874080  KCAL/ANGSTROM
     71         24  H    CARTESIAN Y    -1.403972      0.562801  KCAL/ANGSTROM
     72         24  H    CARTESIAN Z     1.072409      0.112388  KCAL/ANGSTROM
     73         25  O    CARTESIAN X     4.151030     -0.854264  KCAL/ANGSTROM
     74         25  O    CARTESIAN Y    -0.806181     -0.303843  KCAL/ANGSTROM
     75         25  O    CARTESIAN Z     1.806803      2.122778  KCAL/ANGSTROM




   ATOM   CHEMICAL          X               Y               Z
  NUMBER   SYMBOL      (ANGSTROMS)     (ANGSTROMS)     (ANGSTROMS)

     1       C          1.53294806  *   3.05141345  *   2.07784035  *
     2       C          1.80236460  *   1.68969567  *   1.94998079  *
     3       C          0.75782023  *   0.77265465  *   1.79834053  *
     4       C         -0.56823832  *   1.22328531  *   1.77831582  *
     5       C         -0.79617942  *   2.58311794  *   1.90809381  *
     6       C          0.21810675  *   3.51654902  *   2.05690623  *
     7       H          2.35425617  *   3.76060969  *   2.19415376  *
     8       H          2.83590921  *   1.34050466  *   1.96760519  *
     9       H         -1.38550159  *   0.50943852  *   1.66378656  *
    10      Cl         -2.42857257  *   3.13562851  *   1.87825265  *
    11       H          0.00782424  *   4.58107068  *   2.15540724  *
    12       C          1.01156293  *  -0.66365130  *   1.68661982  *
    13       C          0.96472228  *  -1.46583294  *   2.94050007  *
    14       H          1.44086784  *  -2.45143956  *   2.82865646  *
    15       H         -0.07367836  *  -1.64694892  *   3.25981300  *
    16       H          1.46988406  *  -0.95128397  *   3.77097648  *
    17       N          1.10365386  *  -1.24253076  *   0.49481257  *
    18       O          1.21479176  *  -2.49461492  *   0.36464328  *
    19       O          1.12339942  *  -0.55785462  *  -0.56863135  *
    20       H          3.17941788  *  -0.79652388  *   1.83883217  *
    21       O          6.53148994  *  -0.82637275  *   3.06833312  *
    22       H          7.07078269  *  -0.40518592  *   2.38918960  *
    23       H          5.64231855  *  -0.82622166  *   2.69761765  *
    24       H          4.34633109  *  -1.40397170  *   1.07240915  *
    25       O          4.15102960  *  -0.80618134  *   1.80680309  *

                             CARTESIAN COORDINATES

   1    C        1.532948062     3.051413452     2.077840346
   2    C        1.802364602     1.689695672     1.949980794
   3    C        0.757820235     0.772654653     1.798340530
   4    C       -0.568238322     1.223285306     1.778315816
   5    C       -0.796179424     2.583117944     1.908093808
   6    C        0.218106754     3.516549024     2.056906234
   7    H        2.354256168     3.760609685     2.194153757
   8    H        2.835909207     1.340504655     1.967605189
   9    H       -1.385501591     0.509438517     1.663786563
  10   Cl       -2.428572566     3.135628514     1.878252646
  11    H        0.007824242     4.581070676     2.155407239
  12    C        1.011562925    -0.663651297     1.686619822
  13    C        0.964722276    -1.465832937     2.940500070
  14    H        1.440867844    -2.451439559     2.828656458
  15    H       -0.073678360    -1.646948925     3.259812996
  16    H        1.469884056    -0.951283974     3.770976475
  17    N        1.103653860    -1.242530761     0.494812571
  18    O        1.214791761    -2.494614923     0.364643284
  19    O        1.123399422    -0.557854618    -0.568631346
  20    H        3.179417884    -0.796523881     1.838832173
  21    O        6.531489935    -0.826372751     3.068333116
  22    H        7.070782693    -0.405185925     2.389189598
  23    H        5.642318546    -0.826221662     2.697617648
  24    H        4.346331092    -1.403971696     1.072409154
  25    O        4.151029597    -0.806181343     1.806803094


           Empirical Formula: C8 H11 N O4 Cl  =    25 atoms



      MOLECULAR POINT GROUP   :   C1  


                  EIGENVALUES  
 -35.80692 -31.19437 -29.58534 -28.95936 -28.03951 -27.91967 -27.15868 -25.66059
 -24.62332 -24.29638 -21.68388 -20.92696 -19.22910 -18.15779 -17.92164 -17.41083
 -16.96049 -16.46719 -16.27279 -15.52077 -15.00541 -14.88754 -14.54450 -14.23052
 -14.01925 -13.77453 -13.64766 -13.25518 -12.54862 -12.36666 -12.31485 -12.27329
 -11.94946 -11.43517 -10.92043 -10.77004 -10.59205 -10.07587  -9.84178  -8.69324
  -0.22578  -0.17093   0.78185   1.20239   1.96978   2.37208   3.59404   3.67621
   4.10046   4.28468   4.62273   4.68605   4.80971   4.84853   4.99592   5.42520
   5.72446   5.80307   5.84243   5.94796   5.99387   6.05431   6.09843   6.25154
   6.41446   6.92587   7.05422  69.74541  69.75583  69.77986  70.02436  70.03759


              NET ATOMIC CHARGES AND DIPOLE CONTRIBUTIONS

  ATOM NO.   TYPE          CHARGE      No. of ELECS.   s-Pop       p-Pop       d-Pop       
    1          C          -0.117657        4.1177     1.08791     3.02974
    2          C          -0.181113        4.1811     1.08887     3.09225
    3          C           0.103316        3.8967     1.06008     2.83660
    4          C          -0.204279        4.2043     1.08748     3.11680
    5          C           0.038859        3.9611     1.09604     2.86510
    6          C          -0.202510        4.2025     1.08358     3.11893
    7          H           0.167809        0.8322     0.83219
    8          H           0.174306        0.8257     0.82569
    9          H           0.188847        0.8112     0.81115
   10         Cl          -0.143883        7.1439     1.98151     5.15604     0.00633
   11          H           0.176995        0.8230     0.82301
   12          C          -0.315497        4.3155     1.02999     3.28551
   13          C          -0.399036        4.3990     1.04251     3.35652
   14          H           0.161290        0.8387     0.83871
   15          H           0.153936        0.8461     0.84606
   16          H           0.156024        0.8440     0.84398
   17          N           0.693621        4.3064     1.41700     2.88937
   18          O          -0.715976        6.7160     1.94586     4.77012
   19          O          -0.720728        6.7207     1.94601     4.77472
   20          H           0.378827        0.6212     0.62117
   21          O          -0.768888        6.7689     1.81419     4.95470
   22          H           0.374002        0.6260     0.62600
   23          H           0.379071        0.6209     0.62093
   24          H           0.378977        0.6210     0.62102
   25          O          -0.756314        6.7563     1.81102     4.94529
 DIPOLE           X         Y         Z       TOTAL
 POINT-CHG.    -0.424     8.739     6.327    10.797
 HYBRID        -0.514    -0.118    -0.924     1.064
 SUM           -0.938     8.621     5.403    10.217


          ATOMIC ORBITAL ELECTRON POPULATIONS

     Atom    s        px        py        pz      x^2-y^2     xz        z^2       yz        xy
    1  C   1.08791   1.03176   1.02997   0.96801
    2  C   1.08887   1.08673   0.99020   1.01532
    3  C   1.06008   0.95369   0.95383   0.92908
    4  C   1.08748   1.06750   1.00918   1.04012
    5  C   1.09604   0.84095   0.98054   1.04361
    6  C   1.08358   0.99214   1.08786   1.03893
    7  H   0.83219
    8  H   0.82569
    9  H   0.81115
   10 Cl   1.98151   1.27195   1.91242   1.97166   0.00224   0.00061   0.00125   0.00010   0.00213
   11  H   0.82301
   12  C   1.02999   1.43148   0.96749   0.88654
   13  C   1.04251   1.18302   1.12947   1.04404
   14  H   0.83871
   15  H   0.84606
   16  H   0.84398
   17  N   1.41700   0.97978   0.93176   0.97783
   18  O   1.94586   1.77861   1.05068   1.94083
   19  O   1.94601   1.78483   1.66284   1.32705
   20  H   0.62117
   21  O   1.81419   1.44793   1.89504   1.61173
   22  H   0.62600
   23  H   0.62093
   24  H   0.62102
   25  O   1.81102   1.46684   1.79173   1.68672

          BONDING CONTRIBUTION OF EACH M.O.

  1.4238  1.8833  1.1548  1.1559  1.3195  1.2902  1.3147  1.6414  1.1890  1.3990
  1.7922  1.7714  1.3103  1.6351  1.6792  1.6117  1.2728  1.6037  1.8898  1.6029
  1.8351  0.7642  1.9003  1.8070  0.7597  1.8195  1.6832  1.8951  0.2591  1.6882
  0.0146  1.6633  0.8333  0.3577  0.4355  0.4900  0.2805  1.8559  1.6734  1.0681
 -2.0611 -1.9875 -1.9915 -2.5059 -2.0795 -2.0709 -1.9438 -1.7566 -1.9645 -1.9730
 -1.9959 -1.9679 -1.9804 -2.0048 -1.7352 -1.9891 -1.9504 -1.9573 -1.9720 -1.9650
 -1.9565 -1.9591 -1.9478 -1.9342 -1.7267 -1.7284 -1.8994 -0.0061 -0.0100 -0.0030
 -0.0001 -0.0012





            (VALENCIES)   BOND ORDERS

     1  C     (3.969)     2  C 1.444     6  C 1.435     7  H 0.959     4  C 0.109    10 Cl 0.011

     2  C     (3.969)     1  C 1.444     3  C 1.419     8  H 0.954     5  C 0.109

     3  C     (3.987)     2  C 1.419     4  C 1.409    12  C 1.004     6  C 0.110    18  O 0.012    10 Cl 0.011

     4  C     (3.962)     5  C 1.432     3  C 1.409     9  H 0.949     1  C 0.109    10 Cl 0.024

     5  C     (3.954)     4  C 1.432     6  C 1.424    10 Cl 0.969     2  C 0.109

     6  C     (3.968)     1  C 1.435     5  C 1.424    11  H 0.954     3  C 0.110    10 Cl 0.024

     7  H     (0.972)     1  C 0.959

     8  H     (0.970)     2  C 0.954

     9  H     (0.964)     4  C 0.949

    10 Cl     (1.051)     5  C 0.969     4  C 0.024     6  C 0.024     1  C 0.011     3  C 0.011

    11  H     (0.969)     6  C 0.954

    12  C     (3.762)    17  N 1.413     3  C 1.004    13  C 0.994    18  O 0.155    19  O 0.154    20  H 0.013

    13  C     (3.921)    12  C 0.994    16  H 0.964    15  H 0.963    14  H 0.962    19  O 0.013

    14  H     (0.974)    13  C 0.962

    15  H     (0.976)    13  C 0.963

    16  H     (0.976)    13  C 0.964

    17  N     (3.815)    12  C 1.413    18  O 1.178    19  O 1.177

    18  O     (1.502)    17  N 1.178    12  C 0.155    19  O 0.145     3  C 0.012

    19  O     (1.499)    17  N 1.177    12  C 0.154    18  O 0.145    13  C 0.013

    20  H     (0.856)    25  O 0.830    12  C 0.013

    21  O     (1.703)    22  H 0.859    23  H 0.827    25  O 0.010

    22  H     (0.860)    21  O 0.859

    23  H     (0.856)    21  O 0.827    25  O 0.027

    24  H     (0.856)    25  O 0.853

    25  O     (1.731)    24  H 0.853    20  H 0.830    23  H 0.027    21  O 0.010


 **********************
 *                    *
 * JOB ENDED NORMALLY *
 *                    *
 **********************



 TOTAL JOB TIME:             0.72 SECONDS

 == MOPAC DONE ==
