 *******************************************************************************
 **                                                                           **
 **                              MOPAC v22.0.6                                **
 **                                                                           **
 *******************************************************************************
 **          Digital Object Identifier (DOI): 10.5281/zenodo.6511958          **
 **    Visit the DOI location for information on how to cite this program.    **
 *******************************************************************************

                              PM7 CALCULATION RESULTS

 *******************************************************************************
 *  CALCULATION DONE:                                Sun Mar 24 12:52:54 2024  *
 *  PM7        - The PM7 Hamiltonian to be used
 *  DOUBLET    - SPIN STATE DEFINED AS A DOUBLET
 *
 *
 *
 *                 CHARGE ON SYSTEM = 0
 *
 *
 *
 *  EPS=78.4   - USE ANDREAS KLAMT'S COSMO IMPLICIT SOLVATION MODEL
 *  THREADS    - USE A MAXIMUM OF 30 THREADS
 *  T=         - A TIME OF 14.0 DAYS REQUESTED
 *  DUMP=N     - RESTART FILE WRITTEN EVERY 30.0 MINUTES REQUESTED
 *  RELSCF     - DEFAULT SCF CRITERION MULTIPLIED BY 1.0000
 *              (DEFAULT SCF CRITERION = 0.00010)
 *  ITRY=      - DO A MAXIMUM OF 15000 ITERATIONS FOR SCF
 *  AUX        - OUTPUT AUXILIARY INFORMATION
 *  BONDS      - FINAL BOND-ORDER MATRIX TO BE PRINTED
 *******************************************************************************
PM7 BONDS AUX DUMP=30M ITRY=15000 T=14D THREADS=30 CHARGE=0 DOUBLET eps=78.4 RELSCF=1
 Title: ASE calculation

   ATOM   CHEMICAL          X               Y               Z
  NUMBER   SYMBOL      (ANGSTROMS)     (ANGSTROMS)     (ANGSTROMS)

     1       C          0.86788152  *   0.79937982  *  -0.60095585  *
     2       C          0.97760367  *  -0.48755514  *  -1.12579750  *
     3       C         -0.08254983  *  -1.39402328  *  -1.01270688  *
     4       C         -1.25828029  *  -1.00900660  *  -0.36500129  *
     5       C         -1.35261212  *   0.28533120  *   0.15532043  *
     6       C         -0.29807957  *   1.19897288  *   0.04268920  *
     7       H          1.70263210  *   1.49802500  *  -0.69712339  *
     8       H          1.90064079  *  -0.78769675  *  -1.63068848  *
     9       H         -2.09073441  *  -1.71558916  *  -0.27468741  *
    10       H         -0.38635276  *   2.21041108  *   0.45291100  *
    11       N         -2.56615828  *   0.68845044  *   0.82133291  *
    12       O         -2.68412621  *   1.84696494  *   1.20197968  *
    13       O         -3.45647597  *  -0.13435942  *   0.99509866  *
    14       C          0.02921114     -2.74619421     -1.56009034   
    15       C          0.12149962  *  -3.88301278  *  -0.59929643  *
    16       H          0.45596724  *  -4.81608764  *  -1.07776310  *
    17       H         -0.85273930  *  -4.09981992  *  -0.13180764  *
    18       H          0.82670481  *  -3.66777083  *   0.21705054  *
    19       N         -0.32992933  *  -2.96882097  *  -2.84764864  *
    20       O         -0.34778110  *  -4.12573185  *  -3.32579133  *
    21       O         -0.56928875  *  -2.01278058  *  -3.62070722  *
    22       H          1.86075349     -2.87154902  *  -2.01947855  *
    23       C          5.01740503  *  -6.28800748  *  -5.07142127  *
    24       N          3.99968388  *  -6.72896694  *  -5.85570658  *
    25       C          2.62922464  *  -6.24242971  *  -5.64246788  *
    26       C          2.46815632  *  -5.49352184  *  -4.31230836  *
    27       N          3.56392733  *  -4.47023799  *  -4.18274325  *
    28       C          4.89559046  *  -5.17582693  *  -4.09585042  *
    29       H          5.98168094  *  -6.76954700  *  -5.15486169  *
    30       H          4.07197198  *  -7.66143173  *  -6.25611038  *
    31       H          1.90560528  *  -7.09227936  *  -5.68609561  *
    32       H          2.36826650  *  -5.57092846  *  -6.50070530  *
    33       H          1.47450279  *  -4.98271285  *  -4.27175541  *
    34       H          2.50451320  *  -6.19292671  *  -3.44544596  *
    35       H          3.55755389  *  -3.84006726  *  -5.01439102  *
    36       H          5.70621951  *  -4.41977317  *  -4.25322552  *
    37       H          5.03372425  *  -5.56003899  *  -3.05237043  *
    38       H          3.37847433  *  -3.38066002  *  -1.30044895  *
    39       H          3.40578122  *  -3.84037081  *  -3.28852974  *
    40       O          3.18084335     -2.91102104     -2.11050202   



          CARTESIAN COORDINATES 

    NO.       ATOM           X           Y           Z

     1         C          0.8679      0.7994     -0.6010
     2         C          0.9776     -0.4876     -1.1258
     3         C         -0.0825     -1.3940     -1.0127
     4         C         -1.2583     -1.0090     -0.3650
     5         C         -1.3526      0.2853      0.1553
     6         C         -0.2981      1.1990      0.0427
     7         H          1.7026      1.4980     -0.6971
     8         H          1.9006     -0.7877     -1.6307
     9         H         -2.0907     -1.7156     -0.2747
    10         H         -0.3864      2.2104      0.4529
    11         N         -2.5662      0.6885      0.8213
    12         O         -2.6841      1.8470      1.2020
    13         O         -3.4565     -0.1344      0.9951
    14         C          0.0292     -2.7462     -1.5601
    15         C          0.1215     -3.8830     -0.5993
    16         H          0.4560     -4.8161     -1.0778
    17         H         -0.8527     -4.0998     -0.1318
    18         H          0.8267     -3.6678      0.2171
    19         N         -0.3299     -2.9688     -2.8476
    20         O         -0.3478     -4.1257     -3.3258
    21         O         -0.5693     -2.0128     -3.6207
    22         H          1.8608     -2.8715     -2.0195
    23         C          5.0174     -6.2880     -5.0714
    24         N          3.9997     -6.7290     -5.8557
    25         C          2.6292     -6.2424     -5.6425
    26         C          2.4682     -5.4935     -4.3123
    27         N          3.5639     -4.4702     -4.1827
    28         C          4.8956     -5.1758     -4.0959
    29         H          5.9817     -6.7695     -5.1549
    30         H          4.0720     -7.6614     -6.2561
    31         H          1.9056     -7.0923     -5.6861
    32         H          2.3683     -5.5709     -6.5007
    33         H          1.4745     -4.9827     -4.2718
    34         H          2.5045     -6.1929     -3.4454
    35         H          3.5576     -3.8401     -5.0144
    36         H          5.7062     -4.4198     -4.2532
    37         H          5.0337     -5.5600     -3.0524
    38         H          3.3785     -3.3807     -1.3004
    39         H          3.4058     -3.8404     -3.2885
    40         O          3.1808     -2.9110     -2.1105

 General Reference for PM7:
 "Optimization of Parameters for Semiempirical Methods VI: More Modifications to the 
 NDDO Approximations and Re-optimization of Parameters", J. J. P. Stewart, J. Mol. Mod., 1:32, 19 (2013)
 https://link.springer.com/article/10.1007/s00894-012-1667-x

           Empirical Formula: C12 H19 N4 O5  =    40 atoms



      MOLECULAR POINT GROUP   :   C1  


 DOUBLET STATE CALCULATION


          UHF CALCULATION, NO. OF ALPHA ELECTRONS =   59
                           NO. OF BETA  ELECTRONS =   58

          Geometry optimization using L-BFGS
  SCF CRITERION =    0.1000E-03
 CYCLE:     1 TIME:   0.770 TIME LEFT:  2.00W  GRAD.:   226.451 HEAT:  11.52191
 CYCLE:     2 TIME:   0.086 TIME LEFT:  2.00W  GRAD.:   219.157 HEAT:  11.01701
 CYCLE:     3 TIME:   0.121 TIME LEFT:  2.00W  GRAD.:    24.486 HEAT:  3.033644
 CYCLE:     4 TIME:   0.129 TIME LEFT:  2.00W  GRAD.:   219.276 HEAT:  11.01768
 CYCLE:     5 TIME:   0.129 TIME LEFT:  2.00W  GRAD.:    24.495 HEAT:  3.033737
 CYCLE:     6 TIME:   0.141 TIME LEFT:  2.00W  GRAD.:    12.283 HEAT:  2.867790
 CYCLE:     7 TIME:   0.102 TIME LEFT:  2.00W  GRAD.:     8.429 HEAT:  2.791803
 CYCLE:     8 TIME:   0.137 TIME LEFT:  2.00W  GRAD.:     7.819 HEAT:  2.729756
 CYCLE:     9 TIME:   0.121 TIME LEFT:  2.00W  GRAD.:     9.012 HEAT:  2.677679
 CYCLE:    10 TIME:   0.121 TIME LEFT:  2.00W  GRAD.:    15.836 HEAT:  2.634264
 CYCLE:    11 TIME:   0.086 TIME LEFT:  2.00W  GRAD.:     8.375 HEAT:  2.572559
 CYCLE:    12 TIME:   0.098 TIME LEFT:  2.00W  GRAD.:    12.702 HEAT:  2.474769
 CYCLE:    13 TIME:   0.215 TIME LEFT:  2.00W  GRAD.:    30.189 HEAT:  2.158467
 CYCLE:    14 TIME:   0.160 TIME LEFT:  2.00W  GRAD.:    49.255 HEAT:  2.088669
 CYCLE:    15 TIME:   0.184 TIME LEFT:  2.00W  GRAD.:    36.587 HEAT:  2.219821
 CYCLE:    16 TIME:   0.133 TIME LEFT:  2.00W  GRAD.:    56.468 HEAT:  2.250452
 CYCLE:    17 TIME:   0.121 TIME LEFT:  2.00W  GRAD.:    61.316 HEAT:  2.817655
 CYCLE:    18 TIME:   0.121 TIME LEFT:  2.00W  GRAD.:   108.051 HEAT:  4.249902
 CYCLE:    19 TIME:   0.164 TIME LEFT:  2.00W  GRAD.:    93.958 HEAT:  4.115349
 CYCLE:    20 TIME:   0.172 TIME LEFT:  2.00W  GRAD.:    99.845 HEAT:  3.850847
 CYCLE:    21 TIME:   0.145 TIME LEFT:  2.00W  GRAD.:    94.464 HEAT:  4.809945
 CYCLE:    22 TIME:   0.184 TIME LEFT:  2.00W  GRAD.:    24.168 HEAT:  2.226718
 CYCLE:    23 TIME:   0.152 TIME LEFT:  2.00W  GRAD.:    55.731 HEAT:  2.076764
 CYCLE:    24 TIME:   0.105 TIME LEFT:  2.00W  GRAD.:    45.172 HEAT:  1.834194
 CYCLE:    25 TIME:   0.098 TIME LEFT:  2.00W  GRAD.:    39.978 HEAT:  1.750616
 CYCLE:    26 TIME:   0.184 TIME LEFT:  2.00W  GRAD.:    58.811 HEAT:  1.560080
 CYCLE:    27 TIME:   0.109 TIME LEFT:  2.00W  GRAD.:    18.771 HEAT: 0.8907912
 CYCLE:    28 TIME:   0.148 TIME LEFT:  2.00W  GRAD.:    28.978 HEAT: 0.8962604
 CYCLE:    29 TIME:   0.098 TIME LEFT:  2.00W  GRAD.:    10.055 HEAT: 0.6345709
 CYCLE:    30 TIME:   0.090 TIME LEFT:  2.00W  GRAD.:     8.379 HEAT: 0.5014094
 CYCLE:    31 TIME:   0.094 TIME LEFT:  2.00W  GRAD.:     9.943 HEAT: 0.3662530
 CYCLE:    32 TIME:   0.102 TIME LEFT:  2.00W  GRAD.:    26.845 HEAT: 0.4480373
 CYCLE:    33 TIME:   0.129 TIME LEFT:  2.00W  GRAD.:     5.083 HEAT: 0.3130249
 CYCLE:    34 TIME:   0.117 TIME LEFT:  2.00W  GRAD.:     3.592 HEAT: 0.3015182
 CYCLE:    35 TIME:   0.102 TIME LEFT:  2.00W  GRAD.:     3.771 HEAT: 0.2827023
 CYCLE:    36 TIME:   0.090 TIME LEFT:  2.00W  GRAD.:     4.211 HEAT: 0.2750758
 CYCLE:    37 TIME:   0.082 TIME LEFT:  2.00W  GRAD.:     3.328 HEAT: 0.2652145
 CYCLE:    38 TIME:   0.094 TIME LEFT:  2.00W  GRAD.:     4.277 HEAT: 0.2571291
 CYCLE:    39 TIME:   0.133 TIME LEFT:  2.00W  GRAD.:     3.461 HEAT: 0.2475075
 CYCLE:    40 TIME:   0.082 TIME LEFT:  2.00W  GRAD.:     3.152 HEAT: 0.2254339
 CYCLE:    41 TIME:   0.117 TIME LEFT:  2.00W  GRAD.:     5.235 HEAT: 0.1893590
 CYCLE:    42 TIME:   0.090 TIME LEFT:  2.00W  GRAD.:     2.695 HEAT: 0.1826955
 CYCLE:    43 TIME:   0.086 TIME LEFT:  2.00W  GRAD.:     2.380 HEAT: 0.1714758
 CYCLE:    44 TIME:   0.102 TIME LEFT:  2.00W  GRAD.:     2.899 HEAT: 0.1645095
 CYCLE:    45 TIME:   0.086 TIME LEFT:  2.00W  GRAD.:     4.318 HEAT: 0.1007126
 CYCLE:    46 TIME:   0.094 TIME LEFT:  2.00W  GRAD.:     2.025 HEAT: 0.9285500E-01
 CYCLE:    47 TIME:   0.188 TIME LEFT:  2.00W  GRAD.:     2.193 HEAT: 0.1047856
 CYCLE:    48 TIME:   0.094 TIME LEFT:  2.00W  GRAD.:     2.345 HEAT: 0.1066645
 CYCLE:    49 TIME:   0.102 TIME LEFT:  2.00W  GRAD.:     4.205 HEAT: 0.1795992
 CYCLE:    50 TIME:   0.109 TIME LEFT:  2.00W  GRAD.:     1.929 HEAT: 0.1970579
 CYCLE:    51 TIME:   0.105 TIME LEFT:  2.00W  GRAD.:     1.585 HEAT: 0.1965267
 CYCLE:    52 TIME:   0.102 TIME LEFT:  2.00W  GRAD.:     1.933 HEAT: 0.1993947
 CYCLE:    53 TIME:   0.082 TIME LEFT:  2.00W  GRAD.:     2.337 HEAT: 0.2127185
 CYCLE:    54 TIME:   0.125 TIME LEFT:  2.00W  GRAD.:     1.269 HEAT: 0.2133424
 CYCLE:    55 TIME:   0.094 TIME LEFT:  2.00W  GRAD.:     1.070 HEAT: 0.1920090
 CYCLE:    56 TIME:   0.199 TIME LEFT:  2.00W  GRAD.:     1.177 HEAT: 0.1965605
 CYCLE:    57 TIME:   0.137 TIME LEFT:  2.00W  GRAD.:     2.145 HEAT: 0.1919658
 CYCLE:    58 TIME:   0.102 TIME LEFT:  2.00W  GRAD.:     5.524 HEAT: 0.2019397
 CYCLE:    59 TIME:   0.086 TIME LEFT:  2.00W  GRAD.:     1.793 HEAT: 0.1824896
 CYCLE:    60 TIME:   0.082 TIME LEFT:  2.00W  GRAD.:     0.662 HEAT: 0.1810133


          CURRENT BEST VALUE OF HEAT OF FORMATION =      0.091483

 PM7 BONDS AUX DUMP=30M ITRY=15000 T=14D THREADS=30 CHARGE=0 DOUBLET eps=78.4 RELSCF=1
 Title: ASE calculation

  C     0.87968944 +1   0.79294869 +1  -0.59929628 +1
  C     0.98938353 +1  -0.49260262 +1  -1.12484458 +1
  C    -0.07737316 +1  -1.38997726 +1  -1.01964008 +1
  C    -1.26224931 +1  -0.99825738 +1  -0.39104460 +1
  C    -1.36190224 +1   0.30149732 +1   0.10971864 +1
  C    -0.29861334 +1   1.20494004 +1   0.01658617 +1
  H     1.72317580 +1   1.48302672 +1  -0.67081161 +1
  H     1.91288530 +1  -0.79512587 +1  -1.62142256 +1
  H    -2.08903374 +1  -1.70697589 +1  -0.30126251 +1
  H    -0.38209445 +1   2.21631179 +1   0.41842432 +1
  N    -2.61885017 +1   0.74451586 +1   0.65422377 +1
  O    -2.61836439 +1   1.82982367 +1   1.37111419 +1
  O    -3.43365168 +1  -0.16560198 +1   1.10652197 +1
  C     0.02921114 +0  -2.74619421 +0  -1.56009034 +0
  C     0.13887518 +1  -3.87949093 +1  -0.59886735 +1
  H     0.47092908 +1  -4.81212571 +1  -1.07992788 +1
  H    -0.82901748 +1  -4.09787335 +1  -0.11930645 +1
  H     0.85214994 +1  -3.65916783 +1   0.20890674 +1
  N    -0.31931442 +1  -2.96862852 +1  -2.84615580 +1
  O    -0.33149661 +1  -4.12550049 +1  -3.32967626 +1
  O    -0.56042811 +1  -2.01223661 +1  -3.62192326 +1
  H     1.86075349 +0  -2.87559766 +1  -2.02705790 +1
  C     5.02113852 +1  -6.29655334 +1  -5.06658767 +1
  N     4.00504310 +1  -6.73634488 +1  -5.85349674 +1
  C     2.63492682 +1  -6.24711933 +1  -5.64344850 +1
  C     2.47271883 +1  -5.49815760 +1  -4.31376598 +1
  N     3.56923091 +1  -4.47505799 +1  -4.18558863 +1
  C     4.89864798 +1  -5.18431780 +1  -4.09124995 +1
  H     5.98466256 +1  -6.77941632 +1  -5.14801902 +1
  H     4.07714102 +1  -7.66858821 +1  -6.25464074 +1
  H     1.90983645 +1  -7.09519561 +1  -5.68924963 +1
  H     2.37688399 +1  -5.57626002 +1  -6.50288239 +1
  H     1.47834028 +1  -4.98812524 +1  -4.27249331 +1
  H     2.51116660 +1  -6.19796610 +1  -3.44713788 +1
  H     3.56615605 +1  -3.84753329 +1  -5.01928494 +1
  H     5.71301807 +1  -4.43128127 +1  -4.24341925 +1
  H     5.02864468 +1  -5.57005023 +1  -3.04710296 +1
  H     3.38046681 +1  -3.37104503 +1  -1.29375057 +1
  H     3.41121027 +1  -3.84527609 +1  -3.29784100 +1
  O     3.18084335 +0  -2.91102104 +0  -2.11050202 +0



 -------------------------------------------------------------------------------
 PM7 BONDS AUX DUMP=30M ITRY=15000 T=14D THREADS=30 CHARGE=0 DOUBLET eps=78.4 RELSCF=1
 Title: ASE calculation



     HERBERTS TEST WAS SATISFIED IN BFGS                      
     SCF FIELD WAS ACHIEVED                                   


                              PM7 CALCULATION
                                                       MOPAC v22.0.6 Linux
                                                       Sun Mar 24 12:53:02 2024




          FINAL HEAT OF FORMATION =          0.09148 KCAL/MOL =       0.38277 KJ/MOL
          VAN DER WAALS AREA      =        323.43 SQUARE ANGSTROMS



          DIELECTRIC ENERGY       =         -1.93619 EV
          COSMO AREA              =        323.43 SQUARE ANGSTROMS
          COSMO VOLUME            =        362.87 CUBIC ANGSTROMS

          GRADIENT NORM           =          2.02532          =       0.32023 PER ATOM
          IONIZATION POTENTIAL    =          7.923861 EV
          ALPHA SOMO LUMO (EV)    =         -8.999 -0.520
          BETA  SOMO LUMO (EV)    =         -7.924 -2.859
          NO. OF ALPHA ELECTRONS  =         59
          NO. OF BETA  ELECTRONS  =         58
          MOLECULAR WEIGHT        =        299.3059         POINT GROUP:  C1  

          MOLECULAR DIMENSIONS (Angstroms)

            Atom       Atom       Distance
            H    30    O    12    13.89970
            H     7    H    17     5.72345
            O    21    H    37     4.50838


          SCF CALCULATIONS        =         62

          WALL-CLOCK TIME         =      7.965 SECONDS
          COMPUTATION TIME        =         12 MINUTES AND 11.977 SECONDS



       FINAL  POINT  AND  DERIVATIVES

   PARAMETER     ATOM    TYPE            VALUE        GRADIENT
      1          1  C    CARTESIAN X     0.879689      0.225970  KCAL/ANGSTROM
      2          1  C    CARTESIAN Y     0.792949     -0.219017  KCAL/ANGSTROM
      3          1  C    CARTESIAN Z    -0.599296     -0.001051  KCAL/ANGSTROM
      4          2  C    CARTESIAN X     0.989384     -0.595760  KCAL/ANGSTROM
      5          2  C    CARTESIAN Y    -0.492603      0.156336  KCAL/ANGSTROM
      6          2  C    CARTESIAN Z    -1.124845     -0.143741  KCAL/ANGSTROM
      7          3  C    CARTESIAN X    -0.077373      0.144752  KCAL/ANGSTROM
      8          3  C    CARTESIAN Y    -1.389977      0.167175  KCAL/ANGSTROM
      9          3  C    CARTESIAN Z    -1.019640     -0.062859  KCAL/ANGSTROM
     10          4  C    CARTESIAN X    -1.262249      0.017180  KCAL/ANGSTROM
     11          4  C    CARTESIAN Y    -0.998257     -0.443154  KCAL/ANGSTROM
     12          4  C    CARTESIAN Z    -0.391045     -0.157182  KCAL/ANGSTROM
     13          5  C    CARTESIAN X    -1.361902     -0.775974  KCAL/ANGSTROM
     14          5  C    CARTESIAN Y     0.301497      0.048480  KCAL/ANGSTROM
     15          5  C    CARTESIAN Z     0.109719     -0.441559  KCAL/ANGSTROM
     16          6  C    CARTESIAN X    -0.298613     -0.072983  KCAL/ANGSTROM
     17          6  C    CARTESIAN Y     1.204940      0.101747  KCAL/ANGSTROM
     18          6  C    CARTESIAN Z     0.016586      0.110062  KCAL/ANGSTROM
     19          7  H    CARTESIAN X     1.723176     -0.005490  KCAL/ANGSTROM
     20          7  H    CARTESIAN Y     1.483027     -0.091976  KCAL/ANGSTROM
     21          7  H    CARTESIAN Z    -0.670812      0.350444  KCAL/ANGSTROM
     22          8  H    CARTESIAN X     1.912885     -0.242060  KCAL/ANGSTROM
     23          8  H    CARTESIAN Y    -0.795126      0.443914  KCAL/ANGSTROM
     24          8  H    CARTESIAN Z    -1.621423     -0.130396  KCAL/ANGSTROM
     25          9  H    CARTESIAN X    -2.089034      0.204517  KCAL/ANGSTROM
     26          9  H    CARTESIAN Y    -1.706976     -0.765757  KCAL/ANGSTROM
     27          9  H    CARTESIAN Z    -0.301263      0.072119  KCAL/ANGSTROM
     28         10  H    CARTESIAN X    -0.382094      0.436851  KCAL/ANGSTROM
     29         10  H    CARTESIAN Y     2.216312      0.016941  KCAL/ANGSTROM
     30         10  H    CARTESIAN Z     0.418424     -0.123616  KCAL/ANGSTROM
     31         11  N    CARTESIAN X    -2.618850     -0.166364  KCAL/ANGSTROM
     32         11  N    CARTESIAN Y     0.744516      0.027938  KCAL/ANGSTROM
     33         11  N    CARTESIAN Z     0.654224      0.266214  KCAL/ANGSTROM
     34         12  O    CARTESIAN X    -2.618364      0.460827  KCAL/ANGSTROM
     35         12  O    CARTESIAN Y     1.829824      0.294518  KCAL/ANGSTROM
     36         12  O    CARTESIAN Z     1.371114     -0.412694  KCAL/ANGSTROM
     37         13  O    CARTESIAN X    -3.433652      0.026482  KCAL/ANGSTROM
     38         13  O    CARTESIAN Y    -0.165602     -0.269512  KCAL/ANGSTROM
     39         13  O    CARTESIAN Z     1.106522     -0.330504  KCAL/ANGSTROM
     40         15  C    CARTESIAN X     0.138875     -0.088719  KCAL/ANGSTROM
     41         15  C    CARTESIAN Y    -3.879491     -0.025796  KCAL/ANGSTROM
     42         15  C    CARTESIAN Z    -0.598867     -0.086572  KCAL/ANGSTROM
     43         16  H    CARTESIAN X     0.470929      0.029448  KCAL/ANGSTROM
     44         16  H    CARTESIAN Y    -4.812126      0.071295  KCAL/ANGSTROM
     45         16  H    CARTESIAN Z    -1.079928     -0.077994  KCAL/ANGSTROM
     46         17  H    CARTESIAN X    -0.829017     -0.028299  KCAL/ANGSTROM
     47         17  H    CARTESIAN Y    -4.097873      0.014152  KCAL/ANGSTROM
     48         17  H    CARTESIAN Z    -0.119306     -0.064090  KCAL/ANGSTROM
     49         18  H    CARTESIAN X     0.852150     -0.166776  KCAL/ANGSTROM
     50         18  H    CARTESIAN Y    -3.659168     -0.053792  KCAL/ANGSTROM
     51         18  H    CARTESIAN Z     0.208907     -0.124442  KCAL/ANGSTROM
     52         19  N    CARTESIAN X    -0.319314     -0.225153  KCAL/ANGSTROM
     53         19  N    CARTESIAN Y    -2.968629      0.104150  KCAL/ANGSTROM
     54         19  N    CARTESIAN Z    -2.846156     -0.204872  KCAL/ANGSTROM
     55         20  O    CARTESIAN X    -0.331497     -0.029152  KCAL/ANGSTROM
     56         20  O    CARTESIAN Y    -4.125500      0.123677  KCAL/ANGSTROM
     57         20  O    CARTESIAN Z    -3.329676     -0.263180  KCAL/ANGSTROM
     58         21  O    CARTESIAN X    -0.560428      0.124032  KCAL/ANGSTROM
     59         21  O    CARTESIAN Y    -2.012237     -0.063494  KCAL/ANGSTROM
     60         21  O    CARTESIAN Z    -3.621923      0.155638  KCAL/ANGSTROM
     61         22  H    CARTESIAN Y    -2.875598     -0.082548  KCAL/ANGSTROM
     62         22  H    CARTESIAN Z    -2.027058      0.089107  KCAL/ANGSTROM
     63         23  C    CARTESIAN X     5.021139     -0.049883  KCAL/ANGSTROM
     64         23  C    CARTESIAN Y    -6.296553      0.119279  KCAL/ANGSTROM
     65         23  C    CARTESIAN Z    -5.066588     -0.097036  KCAL/ANGSTROM
     66         24  N    CARTESIAN X     4.005043      0.053508  KCAL/ANGSTROM
     67         24  N    CARTESIAN Y    -6.736345     -0.021901  KCAL/ANGSTROM
     68         24  N    CARTESIAN Z    -5.853497     -0.112510  KCAL/ANGSTROM
     69         25  C    CARTESIAN X     2.634927     -0.056879  KCAL/ANGSTROM
     70         25  C    CARTESIAN Y    -6.247119      0.091821  KCAL/ANGSTROM
     71         25  C    CARTESIAN Z    -5.643449      0.019330  KCAL/ANGSTROM
     72         26  C    CARTESIAN X     2.472719     -0.003941  KCAL/ANGSTROM
     73         26  C    CARTESIAN Y    -5.498158      0.014673  KCAL/ANGSTROM
     74         26  C    CARTESIAN Z    -4.313766      0.052524  KCAL/ANGSTROM
     75         27  N    CARTESIAN X     3.569231     -0.021913  KCAL/ANGSTROM
     76         27  N    CARTESIAN Y    -4.475058      0.025127  KCAL/ANGSTROM
     77         27  N    CARTESIAN Z    -4.185589      0.030403  KCAL/ANGSTROM
     78         28  C    CARTESIAN X     4.898648     -0.022084  KCAL/ANGSTROM
     79         28  C    CARTESIAN Y    -5.184318      0.076028  KCAL/ANGSTROM
     80         28  C    CARTESIAN Z    -4.091250      0.002706  KCAL/ANGSTROM
     81         29  H    CARTESIAN X     5.984663     -0.087368  KCAL/ANGSTROM
     82         29  H    CARTESIAN Y    -6.779416      0.013820  KCAL/ANGSTROM
     83         29  H    CARTESIAN Z    -5.148019     -0.032330  KCAL/ANGSTROM
     84         30  H    CARTESIAN X     4.077141     -0.047029  KCAL/ANGSTROM
     85         30  H    CARTESIAN Y    -7.668588     -0.030684  KCAL/ANGSTROM
     86         30  H    CARTESIAN Z    -6.254641      0.038805  KCAL/ANGSTROM
     87         31  H    CARTESIAN X     1.909836      0.068241  KCAL/ANGSTROM
     88         31  H    CARTESIAN Y    -7.095196      0.035588  KCAL/ANGSTROM
     89         31  H    CARTESIAN Z    -5.689250     -0.016648  KCAL/ANGSTROM
     90         32  H    CARTESIAN X     2.376884     -0.104670  KCAL/ANGSTROM
     91         32  H    CARTESIAN Y    -5.576260      0.012056  KCAL/ANGSTROM
     92         32  H    CARTESIAN Z    -6.502882     -0.028337  KCAL/ANGSTROM
     93         33  H    CARTESIAN X     1.478340      0.021368  KCAL/ANGSTROM
     94         33  H    CARTESIAN Y    -4.988125      0.009061  KCAL/ANGSTROM
     95         33  H    CARTESIAN Z    -4.272493     -0.011196  KCAL/ANGSTROM
     96         34  H    CARTESIAN X     2.511167     -0.056840  KCAL/ANGSTROM
     97         34  H    CARTESIAN Y    -6.197966     -0.018891  KCAL/ANGSTROM
     98         34  H    CARTESIAN Z    -3.447138      0.041036  KCAL/ANGSTROM
     99         35  H    CARTESIAN X     3.566156     -0.015398  KCAL/ANGSTROM
    100         35  H    CARTESIAN Y    -3.847533     -0.043393  KCAL/ANGSTROM
    101         35  H    CARTESIAN Z    -5.019285     -0.005459  KCAL/ANGSTROM
    102         36  H    CARTESIAN X     5.713018     -0.041558  KCAL/ANGSTROM
    103         36  H    CARTESIAN Y    -4.431281      0.036551  KCAL/ANGSTROM
    104         36  H    CARTESIAN Z    -4.243419     -0.047435  KCAL/ANGSTROM
    105         37  H    CARTESIAN X     5.028645      0.015011  KCAL/ANGSTROM
    106         37  H    CARTESIAN Y    -5.570050      0.063994  KCAL/ANGSTROM
    107         37  H    CARTESIAN Z    -3.047103     -0.038272  KCAL/ANGSTROM
    108         38  H    CARTESIAN X     3.380467      0.129493  KCAL/ANGSTROM
    109         38  H    CARTESIAN Y    -3.371045     -0.163105  KCAL/ANGSTROM
    110         38  H    CARTESIAN Z    -1.293751      0.126956  KCAL/ANGSTROM
    111         39  H    CARTESIAN X     3.411210     -0.018867  KCAL/ANGSTROM
    112         39  H    CARTESIAN Y    -3.845276      0.058766  KCAL/ANGSTROM
    113         39  H    CARTESIAN Z    -3.297841      0.002477  KCAL/ANGSTROM




   ATOM   CHEMICAL          X               Y               Z
  NUMBER   SYMBOL      (ANGSTROMS)     (ANGSTROMS)     (ANGSTROMS)

     1       C          0.87968944  *   0.79294869  *  -0.59929628  *
     2       C          0.98938353  *  -0.49260262  *  -1.12484458  *
     3       C         -0.07737316  *  -1.38997726  *  -1.01964008  *
     4       C         -1.26224931  *  -0.99825738  *  -0.39104460  *
     5       C         -1.36190224  *   0.30149732  *   0.10971864  *
     6       C         -0.29861334  *   1.20494004  *   0.01658617  *
     7       H          1.72317580  *   1.48302672  *  -0.67081161  *
     8       H          1.91288530  *  -0.79512587  *  -1.62142256  *
     9       H         -2.08903374  *  -1.70697589  *  -0.30126251  *
    10       H         -0.38209445  *   2.21631179  *   0.41842432  *
    11       N         -2.61885017  *   0.74451586  *   0.65422377  *
    12       O         -2.61836439  *   1.82982367  *   1.37111419  *
    13       O         -3.43365168  *  -0.16560198  *   1.10652197  *
    14       C          0.02921114     -2.74619421     -1.56009034   
    15       C          0.13887518  *  -3.87949093  *  -0.59886735  *
    16       H          0.47092908  *  -4.81212571  *  -1.07992788  *
    17       H         -0.82901748  *  -4.09787335  *  -0.11930645  *
    18       H          0.85214994  *  -3.65916783  *   0.20890674  *
    19       N         -0.31931442  *  -2.96862852  *  -2.84615580  *
    20       O         -0.33149661  *  -4.12550049  *  -3.32967626  *
    21       O         -0.56042811  *  -2.01223661  *  -3.62192326  *
    22       H          1.86075349     -2.87559766  *  -2.02705790  *
    23       C          5.02113852  *  -6.29655334  *  -5.06658767  *
    24       N          4.00504310  *  -6.73634488  *  -5.85349674  *
    25       C          2.63492682  *  -6.24711933  *  -5.64344850  *
    26       C          2.47271883  *  -5.49815760  *  -4.31376598  *
    27       N          3.56923091  *  -4.47505799  *  -4.18558863  *
    28       C          4.89864798  *  -5.18431780  *  -4.09124995  *
    29       H          5.98466256  *  -6.77941632  *  -5.14801902  *
    30       H          4.07714102  *  -7.66858821  *  -6.25464074  *
    31       H          1.90983645  *  -7.09519561  *  -5.68924963  *
    32       H          2.37688399  *  -5.57626002  *  -6.50288239  *
    33       H          1.47834028  *  -4.98812524  *  -4.27249331  *
    34       H          2.51116660  *  -6.19796610  *  -3.44713788  *
    35       H          3.56615605  *  -3.84753329  *  -5.01928494  *
    36       H          5.71301807  *  -4.43128127  *  -4.24341925  *
    37       H          5.02864468  *  -5.57005023  *  -3.04710296  *
    38       H          3.38046681  *  -3.37104503  *  -1.29375057  *
    39       H          3.41121027  *  -3.84527609  *  -3.29784100  *
    40       O          3.18084335     -2.91102104     -2.11050202   

                             CARTESIAN COORDINATES

   1    C        0.879689439     0.792948692    -0.599296282
   2    C        0.989383533    -0.492602621    -1.124844576
   3    C       -0.077373156    -1.389977259    -1.019640080
   4    C       -1.262249310    -0.998257379    -0.391044599
   5    C       -1.361902237     0.301497316     0.109718639
   6    C       -0.298613337     1.204940036     0.016586168
   7    H        1.723175799     1.483026718    -0.670811610
   8    H        1.912885304    -0.795125869    -1.621422556
   9    H       -2.089033740    -1.706975890    -0.301262507
  10    H       -0.382094452     2.216311790     0.418424317
  11    N       -2.618850174     0.744515859     0.654223771
  12    O       -2.618364389     1.829823673     1.371114195
  13    O       -3.433651675    -0.165601985     1.106521975
  14    C        0.029211140    -2.746194210    -1.560090340
  15    C        0.138875179    -3.879490934    -0.598867352
  16    H        0.470929075    -4.812125710    -1.079927881
  17    H       -0.829017484    -4.097873352    -0.119306445
  18    H        0.852149942    -3.659167834     0.208906740
  19    N       -0.319314419    -2.968628519    -2.846155802
  20    O       -0.331496610    -4.125500494    -3.329676262
  21    O       -0.560428113    -2.012236612    -3.621923261
  22    H        1.860753490    -2.875597662    -2.027057903
  23    C        5.021138525    -6.296553341    -5.066587666
  24    N        4.005043103    -6.736344879    -5.853496743
  25    C        2.634926821    -6.247119331    -5.643448501
  26    C        2.472718827    -5.498157597    -4.313765980
  27    N        3.569230909    -4.475057991    -4.185588631
  28    C        4.898647978    -5.184317799    -4.091249950
  29    H        5.984662562    -6.779416317    -5.148019024
  30    H        4.077141016    -7.668588215    -6.254640741
  31    H        1.909836454    -7.095195613    -5.689249626
  32    H        2.376883988    -5.576260022    -6.502882386
  33    H        1.478340283    -4.988125243    -4.272493313
  34    H        2.511166600    -6.197966102    -3.447137885
  35    H        3.566156053    -3.847533294    -5.019284944
  36    H        5.713018072    -4.431281271    -4.243419250
  37    H        5.028644678    -5.570050227    -3.047102961
  38    H        3.380466813    -3.371045027    -1.293750569
  39    H        3.411210267    -3.845276086    -3.297840996
  40    O        3.180843350    -2.911021040    -2.110502020


           Empirical Formula: C12 H19 N4 O5  =    40 atoms



      MOLECULAR POINT GROUP   :   C1  


          ALPHA EIGENVALUES  
 -38.25151 -36.90210 -36.18044 -35.76793 -31.34197 -31.17155 -28.96267 -28.59258
 -28.03218 -27.50803 -26.91853 -25.84960 -25.34978 -25.32576 -24.50912 -22.66113
 -21.92678 -21.55930 -20.26233 -19.96100 -19.16949 -18.87821 -18.66861 -17.59685
 -17.36303 -17.26914 -17.08822 -16.97700 -16.67001 -16.54462 -16.34454 -15.88138
 -15.71122 -15.46918 -14.90037 -14.62327 -14.43441 -14.16858 -14.01846 -13.78803
 -13.70279 -13.67398 -13.32371 -13.30775 -13.17977 -12.89838 -12.71695 -12.26890
 -12.05549 -11.99606 -11.81770 -11.16322 -11.02693 -10.96488 -10.87645 -10.30957
 -10.20718  -9.45064  -8.99884  -0.51960  -0.26197   0.61738   0.72380   0.88019
   1.18204   1.71708   2.14592   2.22654   2.54894   2.76713   2.79330   3.15694
   3.47939   3.61265   3.88899   4.11925   4.21980   4.37915   4.49840   4.60404
   4.72698   4.78015   4.79398   4.85657   5.04433   5.10701   5.21195   5.30920
   5.41422   5.51820   5.58460   5.60800   5.70494   5.75968   5.80939   5.88819
   5.91535   5.98836   5.99348   6.08868   6.36319   6.82193   6.94339


           BETA EIGENVALUES 
 -38.32426 -36.22504 -36.17922 -35.84068 -31.04374 -28.61384 -28.31191 -28.01016
 -27.50641 -26.97665 -26.79357 -25.65104 -25.45773 -24.52202 -24.24902 -22.75202
 -21.78722 -21.15060 -20.38198 -19.76886 -19.25458 -18.70106 -17.83334 -17.67812
 -17.27319 -17.05781 -16.99362 -16.71725 -16.51720 -16.35139 -15.95517 -15.80376
 -15.39477 -15.25082 -14.88598 -14.88411 -14.43152 -14.11769 -14.07439 -13.68057
 -13.44779 -13.38205 -13.23388 -13.14909 -12.86240 -12.75753 -12.24728 -11.84381
 -11.56248 -11.28737 -11.17944 -11.16526 -11.00733 -10.88897 -10.20834 -10.04037
  -8.99033  -7.92386  -2.85896  -0.78660  -0.22666   0.19364   0.66444   1.02184
   1.43669   1.80147   2.17396   2.27623   2.28636   2.78848   3.11424   3.30601
   3.66173   3.68153   3.90622   4.32199   4.35687   4.37182   4.51043   4.63244
   4.71058   4.79991   4.82663   4.85311   4.89721   5.02342   5.19993   5.32463
   5.40380   5.48099   5.58077   5.61094   5.66936   5.70584   5.80871   5.90838
   5.91796   5.98766   6.01116   6.08284   6.10936   6.57210   6.94301


              NET ATOMIC CHARGES AND DIPOLE CONTRIBUTIONS

  ATOM NO.   TYPE          CHARGE      No. of ELECS.   s-Pop       p-Pop       
    1          C          -0.124744        4.1247     1.08665     3.03809
    2          C          -0.177275        4.1773     1.09124     3.08604
    3          C           0.083565        3.9164     1.05825     2.85818
    4          C          -0.182869        4.1829     1.08841     3.09446
    5          C           0.069434        3.9306     1.06828     2.86229
    6          C          -0.178092        4.1781     1.08497     3.09312
    7          H           0.171281        0.8287     0.82872
    8          H           0.167107        0.8329     0.83289
    9          H           0.191819        0.8082     0.80818
   10          H           0.184891        0.8151     0.81511
   11          N           0.046375        4.9536     1.59388     3.35975
   12          O          -0.121981        6.1220     1.96117     4.16081
   13          O          -0.114141        6.1141     1.96157     4.15257
   14          C          -0.370869        4.3709     1.04444     3.32642
   15          C          -0.405502        4.4055     1.04284     3.36266
   16          H           0.160678        0.8393     0.83932
   17          H           0.160673        0.8393     0.83933
   18          H           0.158424        0.8416     0.84158
   19          N           0.705249        4.2948     1.42493     2.86982
   20          O          -0.659608        6.6596     1.94444     4.71517
   21          O          -0.669318        6.6693     1.94438     4.72493
   22          H           0.468119        0.5319     0.53188
   23          C          -0.278293        4.2783     1.06155     3.21674
   24          N          -0.410716        5.4107     1.54424     3.86648
   25          C          -0.122902        4.1229     1.07365     3.04925
   26          C          -0.197166        4.1972     1.09070     3.10646
   27          N          -0.224025        5.2240     1.52663     3.69739
   28          C          -0.145112        4.1451     1.07669     3.06842
   29          H           0.171172        0.8288     0.82883
   30          H           0.324868        0.6751     0.67513
   31          H           0.176606        0.8234     0.82339
   32          H           0.174773        0.8252     0.82523
   33          H           0.200822        0.7992     0.79918
   34          H           0.189516        0.8105     0.81048
   35          H           0.329118        0.6709     0.67088
   36          H           0.185653        0.8143     0.81435
   37          H           0.185529        0.8145     0.81447
   38          H           0.366345        0.6337     0.63366
   39          H           0.359597        0.6404     0.64040
   40          O          -0.849001        6.8490     1.87512     4.97388
 DIPOLE           X         Y         Z       TOTAL
 POINT-CHG.    15.962   -10.064    -2.821    19.079
 HYBRID        -0.705    -0.389     0.408     0.903
 SUM           15.257   -10.453    -2.413    18.651


          ATOMIC ORBITAL ELECTRON POPULATIONS

     Atom    s        px        py        pz   
    1  C   1.08665   1.04094   1.02294   0.97421
    2  C   1.09124   1.06665   0.99716   1.02223
    3  C   1.05825   0.96052   0.94728   0.95039
    4  C   1.08841   1.06768   1.01096   1.01581
    5  C   1.06828   0.85552   0.98451   1.02226
    6  C   1.08497   0.97890   1.08132   1.03289
    7  H   0.82872
    8  H   0.83289
    9  H   0.80818
   10  H   0.81511
   11  N   1.59388   1.12694   1.01424   1.21858
   12  O   1.96117   1.80136   1.07555   1.28389
   13  O   1.96157   1.29081   1.46908   1.39268
   14  C   1.04444   1.43032   1.00402   0.89209
   15  C   1.04284   1.18812   1.07238   1.10216
   16  H   0.83932
   17  H   0.83933
   18  H   0.84158
   19  N   1.42493   0.94164   0.92738   1.00080
   20  O   1.94444   1.74695   1.15478   1.81345
   21  O   1.94438   1.71687   1.39649   1.61158
   22  H   0.53188
   23  C   1.06155   0.99896   1.12157   1.09622
   24  N   1.54424   1.10370   1.32049   1.44229
   25  C   1.07365   0.88960   1.12185   1.03781
   26  C   1.09070   0.99495   1.01465   1.09686
   27  N   1.52663   1.15400   1.21342   1.32997
   28  C   1.07669   0.89005   1.05023   1.12814
   29  H   0.82883
   30  H   0.67513
   31  H   0.82339
   32  H   0.82523
   33  H   0.79918
   34  H   0.81048
   35  H   0.67088
   36  H   0.81435
   37  H   0.81447
   38  H   0.63366
   39  H   0.64040
   40  O   1.87512   1.57962   1.82951   1.56474


                    (SZ)    =    0.500000
                    (S**2)  =    1.782530


          ATOMIC ORBITAL SPIN POPULATIONS

    Atom   Total    s     px     py     pz   
         Atomic
    1  C -0.0845 -0.003 -0.012 -0.012 -0.058
    2  C  0.0996  0.003  0.015  0.014  0.067
    3  C -0.0846 -0.003 -0.014 -0.011 -0.056
    4  C  0.1053  0.003  0.013  0.010  0.079
    5  C -0.0666  0.003  0.009 -0.009 -0.069
    6  C  0.1050  0.003  0.011  0.014  0.076
    7  H  0.0026  0.003
    8  H -0.0030 -0.003
    9  H -0.0028 -0.003
   10  H -0.0028 -0.003
   11  N  0.2823  0.059  0.075  0.008  0.140
   12  O  0.8205  0.007  0.163  0.187  0.463
   13  O  0.8291  0.007  0.266  0.058  0.498
   14  C  0.0048  0.001  0.001  0.002  0.001
   15  C -0.0017 -0.000 -0.000 -0.001 -0.000
   16  H -0.0000 -0.000
   17  H  0.0001  0.000
   18  H  0.0001  0.000
   19  N -0.0022 -0.001 -0.001 -0.000 -0.001
   20  O -0.0006  0.000 -0.000  0.000 -0.000
   21  O -0.0005  0.000 -0.000 -0.000 -0.000
   22  H -0.0000 -0.000
   23  C -0.7177 -0.018 -0.039 -0.278 -0.383
   24  N -0.2935 -0.026 -0.014 -0.096 -0.158
   25  C  0.0083 -0.000  0.002  0.005  0.002
   26  C -0.0029 -0.000  0.000 -0.001 -0.002
   27  N -0.0029 -0.001 -0.001 -0.001 -0.000
   28  C  0.0320  0.005 -0.000  0.015  0.013
   29  H  0.0205  0.020
   30  H -0.0022 -0.002
   31  H -0.0041 -0.004
   32  H -0.0062 -0.006
   33  H  0.0002  0.000
   34  H  0.0002  0.000
   35  H -0.0005 -0.001
   36  H -0.0128 -0.013
   37  H -0.0190 -0.019
   38  H  0.0000  0.000
   39  H  0.0005  0.000
   40  O  0.0000  0.000 -0.000  0.000  0.000

          BONDING CONTRIBUTION OF EACH ALPHA M.O.

  0.7253  0.5358  0.7028  0.6999  0.2616  0.9093  0.4512  0.5116  0.6992  0.5345
  0.9655  0.8298  0.8093  0.9045  0.7026  0.9803  0.8672  0.8832  0.9369  0.7299
  0.9718  0.7769  0.7549  0.8995  0.2834  0.6009  0.7928  1.0117  0.8947  0.9138
  0.9205  0.6763  0.9109  0.9121  0.9740  0.9731  0.6805  0.8907  0.9829  0.0663
  0.8804  0.8448  0.9430  0.9566  0.8200  0.9050  0.8633  0.9486  0.3076  0.1486
  0.4445  0.2748  0.3653  0.4734  0.1955  0.8779  0.9372  0.5986  0.5422 -1.0350
 -0.9906 -1.1433 -1.1020 -0.9298 -0.9148 -1.0487 -0.9404 -0.9579 -0.9479 -0.9980
 -0.9340 -0.9928 -0.9714 -0.9864 -0.9748 -0.9975 -0.9888 -0.9223 -0.9984 -0.9796
 -0.9830 -0.9667 -0.9773 -0.9416 -0.9684 -0.9276 -0.9449 -0.9953 -0.9477 -0.9549
 -0.9753 -0.9760 -0.9833 -0.9523 -0.9860 -0.9757 -0.9738 -0.9733 -0.9750 -0.8813
 -0.9799 -0.9090 -0.9527

          BONDING CONTRIBUTION OF EACH BETA  M.O.

  0.7202  0.6707  0.6974  0.6416  0.9487  0.5035  0.7577  0.4820  0.5080  0.9609
  0.7555  0.7893  0.9166  0.7192  0.5310  0.9755  0.8542  0.8117  0.9242  0.6845
  0.9663  0.7722  0.7087  0.8946  0.6232  0.9859  0.8043  0.8989  0.8702  0.9295
  0.7726  0.7286  0.9231  1.0299  0.9021  0.8807  0.6762  0.9630  0.9256  0.8558
  0.9141  0.9539  0.8227  1.0284  0.8655  0.9237  0.9934  0.4150  0.4528  0.2602
  0.1202  0.2722  0.2636  0.1426  1.0015  0.9885  0.5480  0.1348 -0.4465 -0.8939
 -0.9842 -0.9604 -1.1860 -0.9730 -0.9286 -1.0213 -0.8909 -0.9628 -0.9717 -0.9344
 -0.9982 -0.9732 -0.9734 -0.9808 -0.9688 -0.9801 -0.9303 -0.9982 -0.9982 -0.9799
 -0.9497 -0.9530 -0.9630 -0.9955 -0.9370 -0.9699 -0.9467 -0.9954 -0.9497 -0.9641
 -0.9762 -0.9757 -0.9637 -0.9827 -0.9857 -0.9764 -0.9751 -0.9714 -0.9743 -0.9074
 -0.9481 -0.9169 -0.9528





            (VALENCIES)   BOND ORDERS

     1  C     (3.969)     6  C 1.445     2  C 1.436     7  H 0.958     4  C 0.104

     2  C     (3.972)     1  C 1.436     3  C 1.414     8  H 0.956     5  C 0.105

     3  C     (3.990)     4  C 1.420     2  C 1.414    14  C 1.003     6  C 0.105    20  O 0.011

     4  C     (3.962)     3  C 1.420     5  C 1.401     9  H 0.948     1  C 0.104    12  O 0.012

     5  C     (3.946)     4  C 1.401     6  C 1.393    11  N 0.900     2  C 0.105    12  O 0.037    13  O 0.037

     6  C     (3.964)     1  C 1.445     5  C 1.393    10  H 0.952     3  C 0.105    13  O 0.012

     7  H     (0.971)     1  C 0.958

     8  H     (0.972)     2  C 0.956

     9  H     (0.963)     4  C 0.948

    10  H     (0.966)     6  C 0.952

    11  N     (3.440)    12  O 1.086    13  O 1.079     5  C 0.900

    12  O     (2.055)    11  N 1.086    13  O 0.119     5  C 0.037     4  C 0.012

    13  O     (2.056)    11  N 1.079    12  O 0.119     5  C 0.037     6  C 0.012

    14  C     (3.717)    19  N 1.275     3  C 1.003    15  C 0.991    20  O 0.144    21  O 0.142    22  H 0.108
                         40  O 0.025

    15  C     (3.917)    14  C 0.991    18  H 0.963    16  H 0.963    17  H 0.961    21  O 0.012

    16  H     (0.974)    15  C 0.963

    17  H     (0.974)    15  C 0.961

    18  H     (0.975)    15  C 0.963

    19  N     (3.806)    14  C 1.275    20  O 1.235    21  O 1.232    22  H 0.013

    20  O     (1.581)    19  N 1.235    21  O 0.169    14  C 0.144     3  C 0.011

    21  O     (1.571)    19  N 1.232    20  O 0.169    14  C 0.142    15  C 0.012

    22  H     (0.781)    40  O 0.639    14  C 0.108    19  N 0.013

    23  C     (3.841)    24  N 1.155    28  C 1.013    29  H 0.951    25  C 0.019

    24  N     (3.237)    23  C 1.155    25  C 0.929    30  H 0.847

    25  C     (3.900)    26  C 1.000    31  H 0.952    32  H 0.950    24  N 0.929    23  C 0.019    30  H 0.012
                         29  H 0.011

    26  C     (3.876)    25  C 1.000    34  H 0.953    33  H 0.942    27  N 0.929    28  C 0.010

    27  N     (3.535)    26  C 0.929    28  C 0.927    35  H 0.867    39  H 0.739    40  O 0.042

    28  C     (3.884)    23  C 1.013    36  H 0.945    37  H 0.945    27  N 0.927    26  C 0.010

    29  H     (0.971)    23  C 0.951    25  C 0.011

    30  H     (0.894)    24  N 0.847    25  C 0.012

    31  H     (0.969)    25  C 0.952

    32  H     (0.969)    25  C 0.950

    33  H     (0.960)    26  C 0.942

    34  H     (0.964)    26  C 0.953

    35  H     (0.892)    27  N 0.867

    36  H     (0.966)    28  C 0.945

    37  H     (0.966)    28  C 0.945

    38  H     (0.866)    40  O 0.860

    39  H     (0.871)    27  N 0.739    40  O 0.110

    40  O     (1.704)    38  H 0.860    22  H 0.639    39  H 0.110    27  N 0.042    14  C 0.025


 **********************
 *                    *
 * JOB ENDED NORMALLY *
 *                    *
 **********************



 TOTAL JOB TIME:             8.00 SECONDS

 == MOPAC DONE ==
