 *******************************************************************************
 **                                                                           **
 **                              MOPAC v22.0.6                                **
 **                                                                           **
 *******************************************************************************
 **          Digital Object Identifier (DOI): 10.5281/zenodo.6511958          **
 **    Visit the DOI location for information on how to cite this program.    **
 *******************************************************************************

                              PM7 CALCULATION RESULTS

 *******************************************************************************
 *  CALCULATION DONE:                                Sun Mar 24 22:24:18 2024  *
 *  PM7        - The PM7 Hamiltonian to be used
 *  DOUBLET    - SPIN STATE DEFINED AS A DOUBLET
 *
 *
 *
 *                 CHARGE ON SYSTEM = 0
 *
 *
 *
 *  THREADS    - USE A MAXIMUM OF 30 THREADS
 *  T=         - A TIME OF 14.0 DAYS REQUESTED
 *  DUMP=N     - RESTART FILE WRITTEN EVERY 30.0 MINUTES REQUESTED
 *  RELSCF     - DEFAULT SCF CRITERION MULTIPLIED BY 1.0000
 *              (DEFAULT SCF CRITERION = 0.00010)
 *  ITRY=      - DO A MAXIMUM OF 15000 ITERATIONS FOR SCF
 *  AUX        - OUTPUT AUXILIARY INFORMATION
 *  BONDS      - FINAL BOND-ORDER MATRIX TO BE PRINTED
 *******************************************************************************
PM7 BONDS AUX DUMP=30M ITRY=15000 T=14D THREADS=30 CHARGE=0 DOUBLET RELSCF=1
 Title: ASE calculation

   ATOM   CHEMICAL          X               Y               Z
  NUMBER   SYMBOL      (ANGSTROMS)     (ANGSTROMS)     (ANGSTROMS)

     1       C         -2.25362205      1.31838666      0.34026302   
     2       H          0.28731846      1.17186463  *  -0.04761163  *
     3       H         -2.36445161  *   0.39730290  *  -0.16844872  *
     4       H         -2.29090647  *   2.22641637  *  -0.20126718  *
     5       H         -2.16108692  *   1.33233414  *   1.39304022  *
     6       O          1.27250989      1.18052865     -0.01648144   
     7       H          1.45756971  *   1.51262009  *   0.86130385  *



          CARTESIAN COORDINATES 

    NO.       ATOM           X           Y           Z

     1         C         -2.2536      1.3184      0.3403
     2         H          0.2873      1.1719     -0.0476
     3         H         -2.3645      0.3973     -0.1684
     4         H         -2.2909      2.2264     -0.2013
     5         H         -2.1611      1.3323      1.3930
     6         O          1.2725      1.1805     -0.0165
     7         H          1.4576      1.5126      0.8613

 General Reference for PM7:
 "Optimization of Parameters for Semiempirical Methods VI: More Modifications to the 
 NDDO Approximations and Re-optimization of Parameters", J. J. P. Stewart, J. Mol. Mod., 1:32, 19 (2013)
 https://link.springer.com/article/10.1007/s00894-012-1667-x

           Empirical Formula: C H5 O  =     7 atoms



      MOLECULAR POINT GROUP   :   C1  


 DOUBLET STATE CALCULATION


          UHF CALCULATION, NO. OF ALPHA ELECTRONS =    8
                           NO. OF BETA  ELECTRONS =    7

          Geometry optimization using EF
  SCF CRITERION =    0.1000E-03

          DIAGONAL MATRIX USED AS START HESSIAN

 CYCLE:     1 TIME:   0.008 TIME LEFT:  2.00W  GRAD.:     2.266 HEAT: -30.35949
 CYCLE:     2 TIME:   0.000 TIME LEFT:  2.00W  GRAD.:     1.400 HEAT: -30.36586
 CYCLE:     3 TIME:   0.000 TIME LEFT:  2.00W  GRAD.:     1.475 HEAT: -30.36689
 CYCLE:     4 TIME:   0.008 TIME LEFT:  2.00W  GRAD.:     0.674 HEAT: -30.36937

     GRADIENT =  0.67423 IS LESS THAN CUTOFF =  1.00000



 -------------------------------------------------------------------------------
 PM7 BONDS AUX DUMP=30M ITRY=15000 T=14D THREADS=30 CHARGE=0 DOUBLET RELSCF=1
 Title: ASE calculation



     GEOMETRY OPTIMISED USING EIGENVECTOR FOLLOWING (EF).     
     SCF FIELD WAS ACHIEVED                                   


                              PM7 CALCULATION
                                                       MOPAC v22.0.6 Linux
                                                       Sun Mar 24 22:24:18 2024




          FINAL HEAT OF FORMATION =        -30.36937 KCAL/MOL =    -127.06544 KJ/MOL


          COSMO AREA              =         87.42 SQUARE ANGSTROMS
          COSMO VOLUME            =         63.26 CUBIC ANGSTROMS

          GRADIENT NORM           =          0.67423          =       0.25484 PER ATOM
          IONIZATION POTENTIAL    =         10.393222 EV
          ALPHA SOMO LUMO (EV)    =        -10.393  4.032
          BETA  SOMO LUMO (EV)    =        -11.954  0.075
          NO. OF ALPHA ELECTRONS  =          8
          NO. OF BETA  ELECTRONS  =          7
          MOLECULAR WEIGHT        =         33.0499         POINT GROUP:  C1  

          MOLECULAR DIMENSIONS (Angstroms)

            Atom       Atom       Distance
            H     7    H     3     4.11544
            O     6    H     5     2.44280
            H     7    H     4     1.62743


          SCF CALCULATIONS        =          5

          WALL-CLOCK TIME         =      0.047 SECONDS
          COMPUTATION TIME        =      3.555 SECONDS




   ATOM   CHEMICAL          X               Y               Z
  NUMBER   SYMBOL      (ANGSTROMS)     (ANGSTROMS)     (ANGSTROMS)

     1       C         -2.25362205      1.31838666      0.34026302   
     2       H          0.28731846      1.16994027  *  -0.05717942  *
     3       H         -2.36359102  *   0.39729522  *  -0.16842550  *
     4       H         -2.29023392  *   2.22629322  *  -0.20128058  *
     5       H         -2.16096261  *   1.33237167  *   1.39290398  *
     6       O          1.27250989      1.18052865     -0.01648144   
     7       H          1.46206202  *   1.51245787  *   0.85997951  *

                             CARTESIAN COORDINATES

   1    C       -2.253622050     1.318386660     0.340263020
   2    H        0.287318460     1.169940274    -0.057179419
   3    H       -2.363591017     0.397295222    -0.168425499
   4    H       -2.290233923     2.226293215    -0.201280579
   5    H       -2.160962611     1.332371671     1.392903980
   6    O        1.272509890     1.180528650    -0.016481440
   7    H        1.462062018     1.512457868     0.859979506


           Empirical Formula: C H5 O  =     7 atoms



      MOLECULAR POINT GROUP   :   C1  


          ALPHA EIGENVALUES  
 -29.28807 -24.15658 -17.50043 -14.85572 -14.82160 -14.19523 -11.95784 -10.39322
   4.03247   5.79220   5.81026   6.12921   6.27956


           BETA EIGENVALUES 
 -29.27334 -23.70617 -17.49206 -14.57713 -14.54139 -14.18485 -11.95438   0.07467
   4.05634   5.98134   5.99752   6.28336   6.45163


              NET ATOMIC CHARGES AND DIPOLE CONTRIBUTIONS

  ATOM NO.   TYPE          CHARGE      No. of ELECS.   s-Pop       p-Pop       
    1          C          -0.414330        4.4143     1.13790     3.27643
    2          H           0.326051        0.6739     0.67395
    3          H           0.140476        0.8595     0.85952
    4          H           0.139288        0.8607     0.86071
    5          H           0.135950        0.8640     0.86405
    6          O          -0.645647        6.6456     1.82753     4.81812
    7          H           0.318212        0.6818     0.68179
 DIPOLE           X         Y         Z       TOTAL
 POINT-CHG.    -1.315     0.487     1.260     1.885
 HYBRID        -0.246     0.091     0.240     0.356
 SUM           -1.561     0.578     1.500     2.241


          ATOMIC ORBITAL ELECTRON POPULATIONS

     Atom    s        px        py        pz   
    1  C   1.13790   1.00062   1.14069   1.13512
    2  H   0.67395
    3  H   0.85952
    4  H   0.86071
    5  H   0.86405
    6  O   1.82753   1.40068   1.92672   1.49071
    7  H   0.68179


                    (SZ)    =    0.500000
                    (S**2)  =    0.752829


          ATOMIC ORBITAL SPIN POPULATIONS

    Atom   Total    s     px     py     pz   
         Atomic
    1  C  1.0884  0.026  0.985  0.034  0.043
    2  H -0.0011 -0.001
    3  H -0.0301 -0.030
    4  H -0.0301 -0.030
    5  H -0.0301 -0.030
    6  O  0.0032  0.000  0.003  0.000  0.000
    7  H -0.0002 -0.000

          BONDING CONTRIBUTION OF EACH ALPHA M.O.

  0.5599  0.9735  0.8624  0.9706  0.9684  0.3662  0.0000  0.0060 -0.8961 -0.9725
 -0.9720 -0.9695 -0.8969

          BONDING CONTRIBUTION OF EACH BETA  M.O.

  0.5607  0.9842  0.8649  0.9905  0.9888  0.3695  0.0000 -0.0101 -0.8892 -0.9876
 -0.9875 -0.8962 -0.9880





            (VALENCIES)   BOND ORDERS

     1  C     (3.942)     5  H 0.980     4  H 0.979     3  H 0.979

     2  H     (0.894)     6  O 0.890

     3  H     (0.980)     1  C 0.979

     4  H     (0.981)     1  C 0.979

     5  H     (0.982)     1  C 0.980

     6  O     (1.790)     7  H 0.898     2  H 0.890

     7  H     (0.899)     6  O 0.898


 **********************
 *                    *
 * JOB ENDED NORMALLY *
 *                    *
 **********************



 TOTAL JOB TIME:             0.05 SECONDS

 == MOPAC DONE ==
