 *******************************************************************************
 **                                                                           **
 **                              MOPAC v22.0.6                                **
 **                                                                           **
 *******************************************************************************
 **          Digital Object Identifier (DOI): 10.5281/zenodo.6511958          **
 **    Visit the DOI location for information on how to cite this program.    **
 *******************************************************************************

                              PM7 CALCULATION RESULTS

 *******************************************************************************
 *  CALCULATION DONE:                                Sun Mar 24 22:24:19 2024  *
 *  PM7        - The PM7 Hamiltonian to be used
 *  DOUBLET    - SPIN STATE DEFINED AS A DOUBLET
 *
 *
 *
 *                 CHARGE ON SYSTEM = 0
 *
 *
 *
 *  LET        - OVERRIDE SOME SAFETY CHECKS
 *  THREADS    - USE A MAXIMUM OF 30 THREADS
 *  T=         - A TIME OF 14.0 DAYS REQUESTED
 *  DUMP=N     - RESTART FILE WRITTEN EVERY 30.0 MINUTES REQUESTED
 *  RELSCF     - DEFAULT SCF CRITERION MULTIPLIED BY 1.0000
 *              (DEFAULT SCF CRITERION = 0.00010)
 *  ITRY=      - DO A MAXIMUM OF 15000 ITERATIONS FOR SCF
 *  AUX        - OUTPUT AUXILIARY INFORMATION
 *  ISOTOPE    - SAVE THE FORCE MATRIX FOR USE LATER
 *  BONDS      - FINAL BOND-ORDER MATRIX TO BE PRINTED
 *  LARGE      - EXPANDED OUTPUT TO BE PRINTED
 *  THERMO     - THERMODYNAMIC QUANTITIES TO BE CALCULATED
 *******************************************************************************
PM7 AUX LARGE THERMO(298,298) LET ISOTOPE BONDS DUMP=30M ITRY=15000 T=14D THREADS=30 CHARGE=0 DOUBLET RELSCF=1
 Title: ASE calculation

   ATOM   CHEMICAL          X               Y               Z
  NUMBER   SYMBOL      (ANGSTROMS)     (ANGSTROMS)     (ANGSTROMS)

     1       C         -2.25362205  *   1.31838666  *   0.34026302  *
     2       D          0.28731846  *   1.16994027  *  -0.05717942  *
     3       D         -2.36359102  *   0.39729522  *  -0.16842550  *
     4       D         -2.29023392  *   2.22629322  *  -0.20128058  *
     5       D         -2.16096261  *   1.33237167  *   1.39290398  *
     6       O          1.27250989  *   1.18052865  *  -0.01648144  *
     7       H          1.46206202  *   1.51245787  *   0.85997951  *


                                Isotopes Used

              Atom:    2  H  Default mass  1.0079,  mass used:  2.0140 amu
              Atom:    3  H  Default mass  1.0079,  mass used:  2.0140 amu
              Atom:    4  H  Default mass  1.0079,  mass used:  2.0140 amu
              Atom:    5  H  Default mass  1.0079,  mass used:  2.0140 amu


          CARTESIAN COORDINATES 

    NO.       ATOM           X           Y           Z

     1         C         -2.2536      1.3184      0.3403
     2         H          0.2873      1.1699     -0.0572
     3         H         -2.3636      0.3973     -0.1684
     4         H         -2.2902      2.2263     -0.2013
     5         H         -2.1610      1.3324      1.3929
     6         O          1.2725      1.1805     -0.0165
     7         H          1.4621      1.5125      0.8600

 General Reference for PM7:
 "Optimization of Parameters for Semiempirical Methods VI: More Modifications to the 
 NDDO Approximations and Re-optimization of Parameters", J. J. P. Stewart, J. Mol. Mod., 1:32, 19 (2013)
 https://link.springer.com/article/10.1007/s00894-012-1667-x

           Empirical Formula: C H5 O  =     7 atoms



      MOLECULAR POINT GROUP   :   C1  


 DOUBLET STATE CALCULATION


          UHF CALCULATION, NO. OF ALPHA ELECTRONS =    8
                           NO. OF BETA  ELECTRONS =    7
  SCF CRITERION =    0.1000E-03


          HEAT OF FORMATION =     -30.369397 KCALS/MOLE


          CARTESIAN COORDINATE DERIVATIVES

   NUMBER  ATOM         X            Y            Z

     1       C     -0.067406    -0.035893    -0.150300
     2       H    -15.992866     2.176354     1.956595
     3       H     -0.210237     0.062413     0.025903
     4       H     -0.159762    -0.010670     0.133541
     5       H     -0.008415     0.029757     0.034437
     6       O     16.946209    -2.250577    -2.022004
     7       H     -0.507519     0.028614     0.021828

 DIPOLE           X         Y         Z       TOTAL
 POINT-CHG.    -1.519    -0.860    -0.711     1.885
 HYBRID        -0.285    -0.163    -0.137     0.356
 SUM           -1.804    -1.023    -0.848     2.241


          GRADIENT NORM =  23.68641



 ** GRADIENT IS VERY LARGE, BUT SINCE "LET" IS USED, CALCULATION WILL CONTINUE


                              **** WARNING ****

           GRADIENT IS VERY LARGE FOR A THERMO CALCULATION
           RESULTS ARE LIKELY TO BE INACCURATE IF THERE ARE
           ANY LOW-LYING VIBRATIONS (LESS THAN ABOUT 400CM-1)
           GRADIENT NORM SHOULD BE LESS THAN ABOUT 1.0 FOR THERMO
           TO GIVE ACCURATE RESULTS

          MOLECULAR WEIGHT =   37.07



          ROTATIONAL CONSTANTS IN CM(-1)

          A =    2.19554116   B =    0.14576046   C =    0.14460550



           PRINCIPAL MOMENTS OF INERTIA IN UNITS OF 10**(-40)*GRAM-CM**2

          A =       12.7498   B =      192.0463   C =      193.5801


          ORIENTATION OF MOLECULE IN FORCE CALCULATION

    NO.       ATOM         X         Y         Z

     1          C      -1.7623    0.0895    0.0785
     2          H       0.8138    0.0895    0.0785
     3          H      -1.7392    1.1472    0.0785
     4          H      -1.7672   -0.4368    0.9960
     5          H      -1.8341   -0.4370   -0.8350
     6          O       1.7787   -0.0628   -0.0566
     7          H       1.8113   -0.7938   -0.6721


    FIRST DERIVATIVES WILL BE USED IN THE CALCULATION OF SECOND DERIVATIVES

          ESTIMATED TIME TO COMPLETE CALCULATION =        0.00 SECONDS

    FOR POINT-GROUP C1   THERE ARE   1 UNIQUE SYMMETRY FUNCTIONS.

 STEP:   1 TIME =     0.00 SECS, INTEGRAL =      0.00 TIME LEFT:1209600.00
 STEP:   2 TIME =     0.01 SECS, INTEGRAL =      0.01 TIME LEFT:1209599.99
 STEP:   3 TIME =     0.01 SECS, INTEGRAL =      0.02 TIME LEFT:1209599.98
 STEP:   4 TIME =     0.01 SECS, INTEGRAL =      0.02 TIME LEFT:1209599.98
 STEP:   5 TIME =     0.01 SECS, INTEGRAL =      0.03 TIME LEFT:1209599.97
 STEP:   6 TIME =     0.01 SECS, INTEGRAL =      0.04 TIME LEFT:1209599.96
 STEP:   7 TIME =     0.00 SECS, INTEGRAL =      0.04 TIME LEFT:1209599.96
 STEP:   8 TIME =     0.01 SECS, INTEGRAL =      0.05 TIME LEFT:1209599.95
 STEP:   9 TIME =     0.01 SECS, INTEGRAL =      0.05 TIME LEFT:1209599.95
 STEP:  10 TIME =     0.00 SECS, INTEGRAL =      0.05 TIME LEFT:1209599.95
 STEP:  11 TIME =     0.01 SECS, INTEGRAL =      0.06 TIME LEFT:1209599.94
 STEP:  12 TIME =     0.00 SECS, INTEGRAL =      0.06 TIME LEFT:1209599.94
 STEP:  13 TIME =     0.00 SECS, INTEGRAL =      0.06 TIME LEFT:1209599.94
 STEP:  14 TIME =     0.00 SECS, INTEGRAL =      0.06 TIME LEFT:1209599.94
 STEP:  15 TIME =     0.01 SECS, INTEGRAL =      0.07 TIME LEFT:1209599.93
 STEP:  16 TIME =     0.00 SECS, INTEGRAL =      0.07 TIME LEFT:1209599.93
 STEP:  17 TIME =     0.00 SECS, INTEGRAL =      0.07 TIME LEFT:1209599.93
 STEP:  18 TIME =     0.01 SECS, INTEGRAL =      0.08 TIME LEFT:1209599.92
 STEP:  19 TIME =     0.00 SECS, INTEGRAL =      0.08 TIME LEFT:1209599.92
 STEP:  20 TIME =     0.00 SECS, INTEGRAL =      0.08 TIME LEFT:1209599.92
 STEP:  21 TIME =     0.00 SECS, INTEGRAL =      0.08 TIME LEFT:1209599.92

(To convert to Hartree/Bohr^2, multiply by (10^(-21) x N x a0^2)/(4.184 x 627.51) =  0.0642)


           FORCE MATRIX IN MILLIDYNES/ANGSTROM


                  C  1       H  2       H  3       H  4       H  5       O  6
 ------------------------------------------------------------------------------
     C    1   9.187582
     H    2   0.097714   4.299666
     H    3   3.742326   0.017362   4.231403
     H    4   3.742669   0.017258   0.471126   4.235310
     H    5   3.750003   0.013450   0.472386   0.467002   4.243465
     O    6   0.139160   3.890222   0.009940   0.010946   0.010923   6.292966
     H    7   0.057821   0.831988   0.004425   0.005464   0.006403   4.115759


                  H  7
 ------------------
     H    7   4.533679


          HEAT OF FORMATION =     -30.369397 KCALS/MOLE


          TRIVIAL VIBRATIONS, SHOULD BE ZERO

   2.0526=TX -26.4899=TY   5.0653=TZ -11.2573=RX -37.7699=RY -31.6096=RZ


      MOLECULAR POINT GROUP   :   C1  


           EIGENVECTORS  


   Root No.       1         2         3         4         5         6         7         8

                 1 A       2 A       3 A       4 A       5 A       6 A       7 A       8 A   

                  -0.0      -0.0       0.0       0.0       0.0       0.2       1.4       1.4
  
           1   -0.0392   -0.0256    0.0864    0.2892    0.1091   -0.0034   -0.0145   -0.0480
           2    0.0722    0.0198    0.0645   -0.0579    0.0451    0.0343    0.0039    0.3425
           3    0.0364    0.0414   -0.0691   -0.0250    0.0722   -0.0355   -0.3425    0.0052
           4   -0.2670   -0.1564   -0.1138   -0.4615   -0.1385    0.0101    0.0030   -0.0025
           5   -0.5320   -0.0351   -0.0461   -0.0179   -0.0443   -0.5057   -0.0064    0.0020
           6   -0.1948   -0.4381    0.0665   -0.0135   -0.1094    0.5942    0.0047    0.0071
           7   -0.0560   -0.0273   -0.4896    0.5921   -0.3260   -0.0329    0.0237    0.0399
           8    0.0731    0.0207    0.0795   -0.0643    0.0566    0.0368    0.0040    0.4171
           9   -0.0765    0.2437   -0.0186   -0.0410    0.0867   -0.0655    0.6423   -0.0081
          10   -0.0042    0.0237    0.7901    0.1879   -0.2256    0.0090    0.0150   -0.0122
          11    0.1729   -0.1510    0.0029   -0.0420    0.0553    0.0547    0.4555   -0.3844
          12    0.0953   -0.0567   -0.0993   -0.0151    0.0767   -0.0268   -0.1588   -0.4551
          13   -0.0458   -0.0632   -0.0228    0.0976    0.8447    0.0159   -0.0266    0.0213
          14   -0.0276    0.1950    0.0853   -0.0518    0.0061    0.0242   -0.4627   -0.3739
          15    0.0953   -0.0565   -0.0727   -0.0138    0.0372   -0.0322   -0.1465    0.4574
          16   -0.1444   -0.0837   -0.1146   -0.4252   -0.1347    0.0047    0.0041   -0.0064
          17   -0.0820    0.2879   -0.1168    0.1230   -0.0467    0.3918    0.0042   -0.0006
          18    0.2362   -0.2526    0.1264    0.0447   -0.0964   -0.4691   -0.0006   -0.0065
          19    0.5566    0.3326   -0.1358   -0.2801   -0.1290   -0.0033   -0.0046    0.0078
          20    0.3233   -0.3373   -0.0693    0.1109   -0.0721   -0.0361    0.0014   -0.0028
          21   -0.1918    0.5188    0.0669    0.0636   -0.0670    0.0350    0.0014   -0.0000


   Root No.       9        10        11        12        13        14        15

                 9 A      10 A      11 A      12 A      13 A      14 A      15 A   

                   1.7       2.1       4.6       7.1       9.5       9.9       9.9
  
           1    0.8571    0.0982    0.0280    0.0258    0.0030    0.0102    0.0440
           2   -0.0117   -0.0080   -0.0018   -0.0022   -0.0206    0.6302    0.4852
           3   -0.0315   -0.0083   -0.0016    0.0001   -0.0077   -0.4864    0.6294
           4   -0.0015   -0.1596   -0.0035    0.5711    0.4032    0.0071    0.0083
           5   -0.0514    0.4633    0.0012   -0.0945   -0.0643   -0.0026   -0.0024
           6   -0.0419    0.3970    0.0008   -0.0821   -0.0574    0.0003   -0.0026
           7   -0.2832   -0.0314    0.0137   -0.0059   -0.0004   -0.0091   -0.0086
           8    0.0250   -0.0063    0.5763    0.0029    0.0149   -0.3900   -0.2999
           9    0.0103    0.0029    0.0002   -0.0001    0.0003    0.0230   -0.0293
          10   -0.2811   -0.0301   -0.0041   -0.0060   -0.0010   -0.0042   -0.0010
          11   -0.0058    0.0041   -0.2871   -0.0015    0.0011   -0.2395    0.0633
          12   -0.0411   -0.0033    0.5008    0.0007   -0.0001    0.3874   -0.1802
          13   -0.2930   -0.0298   -0.0400   -0.0058   -0.0001    0.0029   -0.0336
          14   -0.0051   -0.0025   -0.2880   -0.0022    0.0050    0.0000   -0.2480
          15    0.0605   -0.0040   -0.4991   -0.0035    0.0080    0.0756   -0.4194
          16    0.0570   -0.3718    0.0052   -0.5439   -0.4238   -0.0071   -0.0093
          17    0.0336   -0.2423    0.0003   -0.2722    0.4656    0.0075    0.0115
          18    0.0289   -0.2071   -0.0001   -0.2276    0.3955    0.0040    0.0103
          19   -0.0553    0.5245    0.0006   -0.0353    0.0192    0.0001    0.0001
          20    0.0154   -0.2081   -0.0009    0.3697   -0.4016   -0.0056   -0.0097
          21    0.0148   -0.1773   -0.0010    0.3126   -0.3386   -0.0039   -0.0082


          FORCE CONSTANTS IN MILLIDYNES/ANGSTROM (= 10**5 DYNES/CM)

  -0.04260  -0.02824   0.00339   0.01034   0.02866   0.16857   1.43594   1.44471
   1.66410   2.13106   4.62183   7.06701   9.47312   9.87795   9.89227


           ASSOCIATED EIGENVECTORS




    ROOT NO.    1           2           3           4           5           6

            -0.04260    -0.02824     0.00339     0.01034     0.02866     0.16857
  
         1  -0.03919    -0.02563     0.08636     0.28922     0.10906    -0.00343
         2   0.07221     0.01977     0.06449    -0.05790     0.04511     0.03435
         3   0.03637     0.04140    -0.06915    -0.02499     0.07220    -0.03552
         4  -0.26698    -0.15645    -0.11377    -0.46151    -0.13853     0.01010
         5  -0.53196    -0.03510    -0.04610    -0.01790    -0.04430    -0.50574
         6  -0.19484    -0.43811     0.06652    -0.01349    -0.10944     0.59421
         7  -0.05598    -0.02728    -0.48958     0.59212    -0.32599    -0.03292
         8   0.07315     0.02071     0.07951    -0.06434     0.05657     0.03684
         9  -0.07650     0.24372    -0.01863    -0.04096     0.08667    -0.06554
        10  -0.00421     0.02367     0.79015     0.18791    -0.22555     0.00898
        11   0.17287    -0.15100     0.00289    -0.04200     0.05526     0.05467
        12   0.09528    -0.05674    -0.09935    -0.01506     0.07669    -0.02683
        13  -0.04580    -0.06317    -0.02275     0.09761     0.84473     0.01586
        14  -0.02759     0.19500     0.08531    -0.05177     0.00612     0.02420
        15   0.09535    -0.05654    -0.07267    -0.01380     0.03724    -0.03219
        16  -0.14439    -0.08372    -0.11464    -0.42523    -0.13473     0.00470
        17  -0.08197     0.28791    -0.11679     0.12303    -0.04667     0.39182
        18   0.23618    -0.25256     0.12639     0.04473    -0.09640    -0.46915
        19   0.55656     0.33256    -0.13575    -0.28012    -0.12899    -0.00329
        20   0.32330    -0.33728    -0.06931     0.11088    -0.07209    -0.03613
        21  -0.19184     0.51883     0.06687     0.06357    -0.06696     0.03502




    ROOT NO.    7           8           9          10          11          12

             1.43594     1.44471     1.66410     2.13106     4.62183     7.06701
  
         1  -0.01452    -0.04798     0.85705     0.09817     0.02804     0.02578
         2   0.00386     0.34249    -0.01174    -0.00803    -0.00175    -0.00215
         3  -0.34246     0.00521    -0.03147    -0.00829    -0.00164     0.00013
         4   0.00300    -0.00251    -0.00152    -0.15958    -0.00352     0.57113
         5  -0.00636     0.00200    -0.05136     0.46325     0.00116    -0.09451
         6   0.00468     0.00707    -0.04187     0.39699     0.00082    -0.08211
         7   0.02367     0.03991    -0.28318    -0.03141     0.01371    -0.00592
         8   0.00404     0.41714     0.02498    -0.00635     0.57627     0.00291
         9   0.64234    -0.00813     0.01027     0.00291     0.00018    -0.00012
        10   0.01497    -0.01216    -0.28113    -0.03007    -0.00407    -0.00596
        11   0.45553    -0.38436    -0.00584     0.00408    -0.28709    -0.00149
        12  -0.15881    -0.45509    -0.04112    -0.00326     0.50080     0.00065
        13  -0.02658     0.02129    -0.29299    -0.02983    -0.04001    -0.00583
        14  -0.46268    -0.37390    -0.00508    -0.00252    -0.28803    -0.00223
        15  -0.14651     0.45744     0.06049    -0.00396    -0.49908    -0.00353
        16   0.00408    -0.00636     0.05703    -0.37179     0.00524    -0.54390
        17   0.00422    -0.00055     0.03361    -0.24229     0.00029    -0.27221
        18  -0.00059    -0.00647     0.02888    -0.20711    -0.00009    -0.22759
        19  -0.00463     0.00780    -0.05527     0.52450     0.00061    -0.03530
        20   0.00139    -0.00282     0.01544    -0.20814    -0.00085     0.36968
        21   0.00136    -0.00003     0.01483    -0.17727    -0.00099     0.31257




    ROOT NO.   13          14          15

             9.47312     9.87795     9.89227
  
         1   0.00295     0.01019     0.04402
         2  -0.02064     0.63017     0.48525
         3  -0.00771    -0.48644     0.62938
         4   0.40325     0.00714     0.00834
         5  -0.06434    -0.00256    -0.00240
         6  -0.05737     0.00026    -0.00261
         7  -0.00044    -0.00911    -0.00856
         8   0.01492    -0.39001    -0.29992
         9   0.00026     0.02299    -0.02928
        10  -0.00098    -0.00420    -0.00098
        11   0.00107    -0.23951     0.06327
        12  -0.00007     0.38743    -0.18024
        13  -0.00013     0.00294    -0.03359
        14   0.00498     0.00004    -0.24801
        15   0.00799     0.07561    -0.41941
        16  -0.42381    -0.00709    -0.00929
        17   0.46560     0.00751     0.01153
        18   0.39553     0.00404     0.01033
        19   0.01915     0.00014     0.00006
        20  -0.40160    -0.00564    -0.00971
        21  -0.33863    -0.00388    -0.00816

          ZERO POINT ENERGY      21.853 KCAL/MOL

         NOTE: SYSTEM IS NOT A GROUND STATE, THEREFORE ZERO POINT
         ENERGY IS NOT MEANINGFULL. ZERO POINT ENERGY PRINTED
         DOES NOT INCLUDE THE  2 IMAGINARY FREQUENCIES


           FREQUENCIES, REDUCED MASSES AND VIBRATIONAL DIPOLES



   I         1         2         3         4         5         6
 FREQ(I) -325.9976 -276.1789   58.0914  109.7819  155.7664  270.9044

 MASS(I)   0.67897   0.73905   4.12381   0.94374   0.95565   1.73651

 DIPX(I)  -0.11614   0.49629  -0.05787  -0.00633  -0.04732  -0.02473
 DIPY(I)  -0.44248  -0.63370   0.10881   0.09759   0.00162  -0.69097
 DIPZ(I)   0.73910  -0.12918   0.02874  -0.09683   0.00283   0.87775

 DIPT(I)   0.86922   0.81521   0.12655   0.13762   0.04744   1.11736


   I         7         8         9        10        11        12
 FREQ(I)  726.7431  960.8224  963.2703 1211.3406 1971.6580 1992.2047

 MASS(I)   1.60312   0.96794   0.96773   0.76466   0.63578   1.62004

 DIPX(I)  -1.20904   0.02645   0.00996   0.51946  -0.19595   0.89734
 DIPY(I)   0.06222   0.35891   0.47083   0.11649   0.07573  -0.35968
 DIPZ(I)   0.04773   0.46880  -0.37172   0.10688   0.08571  -0.32493

 DIPT(I)   1.21158   0.59101   0.59997   0.54298   0.22688   1.01989


   I        13        14        15        16        17        18
 FREQ(I) 2025.0520 2027.3837 2813.2213    0.0800   -0.0524   -0.1591

 MASS(I)   1.08646   1.11533   0.94134   4.26481   4.26480   4.26480

 DIPX(I)  -0.02378   0.03920  -0.33543   0.03328   0.00391   0.00332
 DIPY(I)   0.71274   0.40992   0.65017   0.00748   0.00269   0.00445
 DIPZ(I)  -0.41926   0.67389   0.55051   0.00613   0.00352   0.00514

 DIPT(I)   0.82725   0.78975   0.91558   0.03465   0.00591   0.00757


   I        19        20        21
 FREQ(I) -138.0253   43.7681  -12.0815

 MASS(I)   0.53168   4.36298   4.29822

 DIPX(I)  -0.00227  -0.00482   0.13845
 DIPY(I)   0.22660   0.11997  -0.14231
 DIPZ(I)  -0.27433  -0.14014  -0.12186

 DIPT(I)   0.35582   0.18454   0.23296


           NORMAL COORDINATE ANALYSIS (Total motion = 1 Angstrom)


   Root No.       1         2         3         4         5         6         7         8

                 1 A       2 A       3 A       4 A       5 A       6 A       7 A       8 A   

                -326.0    -276.2      58.1     109.8     155.8     270.9     726.7     960.8
  
           1    0.0020   -0.0116   -0.1502   -0.0019    0.0086   -0.0035    0.1386   -0.0068
           2   -0.0049    0.0147    0.0060    0.0221    0.0129    0.0147   -0.0074   -0.0592
           3   -0.0015    0.0113    0.0067   -0.0138    0.0207   -0.0168   -0.0051   -0.0769
           4    0.0206   -0.0822    0.1599    0.0044   -0.0053    0.0131   -0.0069   -0.0004
           5    0.1020   -0.2846    0.0388    0.0282   -0.0024   -0.4313   -0.0071   -0.0021
           6    0.0186   -0.2256    0.0160   -0.0233   -0.0229    0.5517   -0.0030    0.0002
           7    0.0002   -0.0167   -0.1516   -0.4169   -0.2402   -0.0505   -0.2775    0.0104
           8   -0.0047    0.0152    0.0055    0.0326    0.0193    0.0167    0.0052   -0.0463
           9    0.0874    0.0390    0.0056    0.0047    0.0287   -0.0422    0.0085    0.3643
          10    0.0070    0.0036   -0.1625    0.4392   -0.2073    0.0362   -0.2720    0.0253
          11   -0.0822   -0.0069    0.0061   -0.0049    0.0189    0.0326    0.0191    0.3831
          12   -0.0463   -0.0011    0.0061   -0.0261    0.0229   -0.0078    0.0085    0.1871
          13   -0.0013   -0.0161   -0.1289   -0.0205    0.4520    0.0100   -0.2866    0.0026
          14    0.0730    0.0382    0.0047    0.0182   -0.0095   -0.0007    0.0208    0.0156
          15   -0.0465   -0.0016    0.0059   -0.0100   -0.0010   -0.0095    0.0105   -0.0952
          16    0.0020   -0.0056    0.1423    0.0015   -0.0058    0.0039    0.0027    0.0009
          17    0.0166    0.0241   -0.0110   -0.0258   -0.0118    0.0403    0.0009    0.0003
          18   -0.0278    0.0049   -0.0084    0.0180   -0.0183   -0.0525    0.0008    0.0004
          19   -0.1097    0.4499    0.0964   -0.0141   -0.0099   -0.0375   -0.0095   -0.0085
          20   -0.3817   -0.0806   -0.0066   -0.0019   -0.0186   -0.0498   -0.0021   -0.0004
          21    0.4331    0.1662   -0.0134   -0.0115   -0.0108    0.0495   -0.0006   -0.0012


   Root No.       9        10        11        12        13        14        15

                 9 A      10 A      11 A      12 A      13 A      14 A      15 A   

                 963.3    1211.3    1971.7    1992.2    2025.1    2027.4    2813.2
  
           1   -0.0031    0.0052    0.0014    0.0026   -0.0021   -0.0057    0.0004
           2   -0.0739   -0.0019   -0.0002   -0.0016   -0.1006   -0.0560   -0.0001
           3    0.0576   -0.0019   -0.0023    0.0011    0.0610   -0.0923   -0.0001
           4    0.0005    0.1360   -0.0780    0.5718   -0.0114    0.0022    0.0073
           5    0.0033    0.2361    0.0203   -0.1453    0.0037    0.0001   -0.0338
           6   -0.0041    0.2023    0.0177   -0.1266    0.0019    0.0004   -0.0285
           7   -0.0121   -0.0039    0.0086    0.0006    0.0114    0.0052   -0.0002
           8   -0.0573   -0.0026    0.2951    0.0711    0.4195    0.2246   -0.0002
           9   -0.2705    0.0026   -0.0003    0.0004    0.0098   -0.0156    0.0003
          10    0.0174   -0.0038   -0.0007   -0.0016    0.0020   -0.0020   -0.0001
          11    0.1121    0.0027   -0.1511   -0.0283    0.2027   -0.1172   -0.0001
          12    0.1421   -0.0002    0.2628    0.0486   -0.3712    0.1733   -0.0004
          13    0.0140   -0.0036   -0.0185   -0.0055   -0.0010    0.0304    0.0001
          14    0.3847   -0.0006   -0.1436   -0.0323   -0.0232    0.2264    0.0007
          15   -0.2124   -0.0023   -0.2487   -0.0545   -0.0022    0.3925    0.0004
          16   -0.0001   -0.0552    0.0089   -0.0648    0.0013   -0.0002    0.0064
          17   -0.0004   -0.0317   -0.0026    0.0190   -0.0004    0.0001   -0.0387
          18    0.0003   -0.0270   -0.0023    0.0164   -0.0002   -0.0000   -0.0328
          19   -0.0003    0.5665    0.0188   -0.1318    0.0027    0.0004   -0.1200
          20    0.0013    0.0563    0.0024   -0.0127    0.0008   -0.0007    0.6822
          21   -0.0018    0.0469    0.0018   -0.0097   -0.0005   -0.0001    0.5779


           MASS-WEIGHTED COORDINATE ANALYSIS (NORMAL COORDINATES)


   Root No.       1         2         3         4         5         6         7         8

                 1 A       2 A       3 A       4 A       5 A       6 A       7 A       8 A   

                -326.0    -276.2      58.1     109.8     155.8     270.9     726.7     960.8
  
           1    0.0108   -0.0545   -0.5831   -0.0074    0.0375   -0.0117    0.5725   -0.0267
           2   -0.0257    0.0691    0.0232    0.0872    0.0562    0.0487   -0.0305   -0.2334
           3   -0.0081    0.0531    0.0261   -0.0543    0.0898   -0.0559   -0.0211   -0.3034
           4    0.0442   -0.1586    0.2541    0.0071   -0.0094    0.0178   -0.0117   -0.0007
           5    0.2192   -0.5491    0.0617    0.0455   -0.0043   -0.5875   -0.0121   -0.0034
           6    0.0399   -0.4352    0.0254   -0.0377   -0.0407    0.7515   -0.0051    0.0004
           7    0.0003   -0.0322   -0.2410   -0.6738   -0.4273   -0.0689   -0.4694    0.0168
           8   -0.0100    0.0293    0.0087    0.0526    0.0343    0.0228    0.0088   -0.0747
           9    0.1877    0.0751    0.0088    0.0076    0.0510   -0.0576    0.0144    0.5885
          10    0.0151    0.0070   -0.2582    0.7099   -0.3688    0.0494   -0.4602    0.0409
          11   -0.1767   -0.0134    0.0098   -0.0079    0.0336    0.0444    0.0323    0.6189
          12   -0.0995   -0.0021    0.0097   -0.0422    0.0407   -0.0107    0.0143    0.3023
          13   -0.0027   -0.0310   -0.2048   -0.0331    0.8040    0.0137   -0.4849    0.0043
          14    0.1568    0.0737    0.0074    0.0294   -0.0170   -0.0010    0.0352    0.0252
          15   -0.0999   -0.0031    0.0094   -0.0162   -0.0018   -0.0130    0.0177   -0.1539
          16    0.0123   -0.0307    0.6377    0.0068   -0.0288    0.0150    0.0128    0.0039
          17    0.1007    0.1308   -0.0493   -0.1175   -0.0594    0.1548    0.0043    0.0015
          18   -0.1682    0.0267   -0.0378    0.0818   -0.0919   -0.2014    0.0038    0.0017
          19   -0.1667    0.6140    0.1084   -0.0161   -0.0125   -0.0361   -0.0114   -0.0097
          20   -0.5802   -0.1100   -0.0075   -0.0022   -0.0235   -0.0480   -0.0025   -0.0004
          21    0.6583    0.2268   -0.0150   -0.0131   -0.0136    0.0477   -0.0008   -0.0014


   Root No.       9        10        11        12        13        14        15

                 9 A      10 A      11 A      12 A      13 A      14 A      15 A   

                 963.3    1211.3    1971.7    1992.2    2025.1    2027.4    2813.2
  
           1   -0.0129    0.0224    0.0065    0.0098   -0.0077   -0.0229    0.0014
           2   -0.3026   -0.0085   -0.0007   -0.0061   -0.3709   -0.2248   -0.0005
           3    0.2358   -0.0084   -0.0109    0.0040    0.2249   -0.3702   -0.0005
           4    0.0008    0.2416   -0.1502    0.8785   -0.0172    0.0036    0.0112
           5    0.0055    0.4194    0.0390   -0.2232    0.0056    0.0002   -0.0515
           6   -0.0069    0.3595    0.0340   -0.1945    0.0029    0.0007   -0.0434
           7   -0.0202   -0.0070    0.0165    0.0010    0.0172    0.0086   -0.0003
           8   -0.0961   -0.0046    0.5683    0.1092    0.6337    0.3690   -0.0003
           9   -0.4538    0.0045   -0.0005    0.0007    0.0148   -0.0256    0.0005
          10    0.0292   -0.0068   -0.0014   -0.0024    0.0030   -0.0033   -0.0001
          11    0.1880    0.0048   -0.2910   -0.0435    0.3062   -0.1926   -0.0002
          12    0.2384   -0.0003    0.5061    0.0747   -0.5606    0.2847   -0.0006
          13    0.0235   -0.0064   -0.0355   -0.0084   -0.0015    0.0500    0.0001
          14    0.6453   -0.0011   -0.2765   -0.0497   -0.0350    0.3720    0.0010
          15   -0.3563   -0.0041   -0.4790   -0.0838   -0.0034    0.6449    0.0006
          16   -0.0005   -0.2767    0.0485   -0.2807    0.0054   -0.0012    0.0275
          17   -0.0017   -0.1589   -0.0143    0.0822   -0.0019    0.0004   -0.1662
          18    0.0015   -0.1351   -0.0127    0.0712   -0.0009   -0.0002   -0.1409
          19   -0.0003    0.7121    0.0257   -0.1433    0.0029    0.0005   -0.1295
          20    0.0015    0.0708    0.0033   -0.0138    0.0008   -0.0008    0.7360
          21   -0.0021    0.0589    0.0025   -0.0106   -0.0005   -0.0001    0.6234


          DESCRIPTION OF VIBRATIONS


 VIBRATION          1    1A          ATOM PAIR     ENERGY CONTRIBUTION    RADIAL
 FREQUENCY          -326.00         O 6 -- H 7       +1173.0% (-83.2%)      0.0%
 TRANSITION DIPOLE   0.8692         H 2 -- O 6        +348.1% (-45.3%)      0.4%
 TRAVEL (Ang.)       0.5519         C 1 -- H 5        +316.5% (-43.2%)      0.3%
 REDUCED MASS        0.6790         C 1 -- H 4        +306.8% (-42.5%)      0.1%
 EFFECTIVE MASS      0.9996         C 1 -- H 3        +301.5% (-42.2%)      0.6%
 FORCE CONSTANT     -0.0425

 VIBRATION          2    2A          ATOM PAIR     ENERGY CONTRIBUTION    RADIAL
 FREQUENCY          -276.18         H 2 -- O 6         +49.9% (-99.9%)      0.3%
 TRANSITION DIPOLE   0.8152         O 6 -- H 7         +47.0% (-99.9%)      1.2%
 TRAVEL (Ang.)       0.5748         C 1 -- H 4          +1.3% (-31.6%)      0.4%
 REDUCED MASS        0.7390         C 1 -- H 3          +1.0% (-27.4%)     60.2%
 EFFECTIVE MASS      0.6190
 FORCE CONSTANT     -0.0332

 VIBRATION          3    3A          ATOM PAIR     ENERGY CONTRIBUTION    RADIAL
 FREQUENCY            58.09         O 6 -- H 7         +64.0% (725.8%)      1.5%
 TRANSITION DIPOLE   0.1265         C 1 -- H 5         +11.2% (303.2%)      0.0%
 TRAVEL (Ang.)       0.5305         C 1 -- H 3          +9.9% (284.8%)      0.0%
 REDUCED MASS        4.1238         C 1 -- H 4          +9.3% (277.3%)      0.1%
 EFFECTIVE MASS    482.9998
 FORCE CONSTANT      0.0082

 VIBRATION          4    4A          ATOM PAIR     ENERGY CONTRIBUTION    RADIAL
 FREQUENCY           109.78         C 1 -- H 4         +48.7% (239.1%)      0.6%
 TRANSITION DIPOLE   0.1376         C 1 -- H 3         +43.6% (226.2%)      0.5%
 TRAVEL (Ang.)       0.8067         C 1 -- H 5          +6.2% ( 85.4%)      0.1%
 REDUCED MASS        0.9437         H 2 -- O 6          +1.2% ( 37.4%)      0.2%
 EFFECTIVE MASS      6.2263
 FORCE CONSTANT      0.0067

 VIBRATION          5    5A          ATOM PAIR     ENERGY CONTRIBUTION    RADIAL
 FREQUENCY           155.77         C 1 -- H 5         +56.0% (191.6%)      0.7%
 TRANSITION DIPOLE   0.0474         C 1 -- H 3         +22.5% (121.4%)      0.5%
 TRAVEL (Ang.)       0.6730         C 1 -- H 4         +18.1% (109.0%)      0.5%
 REDUCED MASS        0.9556         H 2 -- O 6          +3.1% ( 44.8%)      0.2%
 EFFECTIVE MASS      5.8364
 FORCE CONSTANT      0.0137

 VIBRATION          6    6A          ATOM PAIR     ENERGY CONTRIBUTION    RADIAL
 FREQUENCY           270.90         H 2 -- O 6         +83.6% ( 99.2%)      0.0%
 TRANSITION DIPOLE   1.1174         C 1 -- H 3          +5.5% ( 25.4%)     18.8%
 TRAVEL (Ang.)       0.3786         C 1 -- H 5          +5.4% ( 25.2%)      4.0%
 REDUCED MASS        1.7365         C 1 -- H 4          +4.2% ( 22.1%)     29.1%
 EFFECTIVE MASS      3.1831
 FORCE CONSTANT      0.0751

 VIBRATION          7    7A          ATOM PAIR     ENERGY CONTRIBUTION    RADIAL
 FREQUENCY           726.74         C 1 -- H 5         +35.0% ( 57.3%)      0.0%
 TRANSITION DIPOLE   1.2116         C 1 -- H 3         +32.9% ( 55.5%)      0.0%
 TRAVEL (Ang.)       0.2406         C 1 -- H 4         +31.9% ( 54.7%)      0.0%
 REDUCED MASS        1.6031         H 2 -- O 6          +0.1% (  3.6%)     43.1%
 EFFECTIVE MASS      4.3865
 FORCE CONSTANT      0.4989

 VIBRATION          8    8A          ATOM PAIR     ENERGY CONTRIBUTION    RADIAL
 FREQUENCY           960.82         C 1 -- H 4         +51.9% ( 71.5%)      0.9%
 TRANSITION DIPOLE   0.5910         C 1 -- H 3         +39.7% ( 62.5%)      3.1%
 TRAVEL (Ang.)       0.2693         C 1 -- H 5          +8.4% ( 28.8%)     75.1%
 REDUCED MASS        0.9679
 EFFECTIVE MASS      3.4773
 FORCE CONSTANT      0.5265

 VIBRATION          9    9A          ATOM PAIR     ENERGY CONTRIBUTION    RADIAL
 FREQUENCY           963.27         C 1 -- H 5         +58.6% ( 75.9%)      0.1%
 TRANSITION DIPOLE   0.6000         C 1 -- H 3         +26.5% ( 51.1%)      8.2%
 TRAVEL (Ang.)       0.2690         C 1 -- H 4         +14.9% ( 38.3%)     24.2%
 REDUCED MASS        0.9677
 EFFECTIVE MASS      3.4712
 FORCE CONSTANT      0.5291

 VIBRATION         10   10A          ATOM PAIR     ENERGY CONTRIBUTION    RADIAL
 FREQUENCY          1211.34         O 6 -- H 7         +61.7% ( 63.9%)      6.7%
 TRANSITION DIPOLE   0.5430         H 2 -- O 6         +38.2% ( 50.3%)     14.4%
 TRAVEL (Ang.)       0.2698
 REDUCED MASS        0.7647
 EFFECTIVE MASS      2.4603
 FORCE CONSTANT      0.6611

 VIBRATION         11   11A          ATOM PAIR     ENERGY CONTRIBUTION    RADIAL
 FREQUENCY          1971.66         C 1 -- H 4         +34.3% ( 55.9%)    100.0%
 TRANSITION DIPOLE   0.2269         C 1 -- H 3         +32.2% ( 54.2%)    100.0%
 TRAVEL (Ang.)       0.2319         C 1 -- H 5         +30.3% ( 52.5%)    100.0%
 REDUCED MASS        0.6358         H 2 -- O 6          +3.1% ( 16.7%)     98.2%
 EFFECTIVE MASS      2.0367
 FORCE CONSTANT      1.4562

 VIBRATION         12   12A          ATOM PAIR     ENERGY CONTRIBUTION    RADIAL
 FREQUENCY          1992.20         H 2 -- O 6         +95.7% ( 96.6%)     98.4%
 TRANSITION DIPOLE   1.0199         O 6 -- H 7          +1.6% ( 12.5%)     49.1%
 TRAVEL (Ang.)       0.1445         C 1 -- H 3          +1.1% ( 10.5%)     99.0%
 REDUCED MASS        1.6200         C 1 -- H 5          +0.9% (  9.3%)     98.3%
 EFFECTIVE MASS      2.7356
 FORCE CONSTANT      3.7883

 VIBRATION         13   13A          ATOM PAIR     ENERGY CONTRIBUTION    RADIAL
 FREQUENCY          2025.05         C 1 -- H 4         +48.6% ( 73.6%)     96.4%
 TRANSITION DIPOLE   0.8273         C 1 -- H 3         +47.7% ( 73.0%)     95.8%
 TRAVEL (Ang.)       0.1751         C 1 -- H 5          +3.7% ( 20.2%)      0.5%
 REDUCED MASS        1.0865
 EFFECTIVE MASS      3.2828
 FORCE CONSTANT      2.6250

 VIBRATION         14   14A          ATOM PAIR     ENERGY CONTRIBUTION    RADIAL
 FREQUENCY          2027.38         C 1 -- H 5         +64.6% ( 84.9%)    100.0%
 TRANSITION DIPOLE   0.7897         C 1 -- H 3         +18.7% ( 45.7%)     74.8%
 TRAVEL (Ang.)       0.1727         C 1 -- H 4         +16.7% ( 43.1%)     70.8%
 REDUCED MASS        1.1153
 EFFECTIVE MASS      3.2815
 FORCE CONSTANT      2.7010

 VIBRATION         15   15A          ATOM PAIR     ENERGY CONTRIBUTION    RADIAL
 FREQUENCY          2813.22         O 6 -- H 7         +99.7% ( 99.6%)     99.0%
 TRANSITION DIPOLE   0.9156         H 2 -- O 6          +0.3% (  5.4%)      9.6%
 TRAVEL (Ang.)       0.1596
 REDUCED MASS        0.9413
 EFFECTIVE MASS      1.3330
 FORCE CONSTANT      4.3894

      SYMMETRY NUMBER FOR POINT-GROUP C1  =  1


          SYSTEM IS A GROUND STATE



 Title: ASE calculation


          MOLECULE IS NOT LINEAR

          THERE ARE 15 GENUINE VIBRATIONS IN THIS SYSTEM
          THIS THERMODYNAMICS CALCULATION IS LIMITED TO
          MOLECULES WHICH HAVE NO INTERNAL ROTATIONS




                    CALCULATED THERMODYNAMIC PROPERTIES
                                          *
   TEMP. (K)   PARTITION FUNCTION   H.O.F.    ENTHALPY  HEAT CAPACITY ENTROPY
                                   KCAL/MOL   CAL/MOLE    CAL/K/MOL  CAL/K/MOL


 298.00  VIB.     0.4653D+02                  2301.4718    12.7416    15.3542
         ROT.     0.2456D+05                   888.2803     2.9808    23.0692
         INT.     0.1143D+07                  3189.7521    15.7224    38.4234
         TRA.     0.2182D+27                  1480.4672     4.9680    36.7581
         TOT.                      -30.369    4670.2193    20.6904    75.1814

   *: NOTE: HEATS OF FORMATION ARE RELATIVE TO THE
            ELEMENTS IN THEIR STANDARD STATE AT 298K
              (=  Standard Enthalpy of Formation).

            Hvib:  Zero-point energy is not included.
                   frequencies of less than zero cm-1 are not included.
            Hrot = (3/2)RT
            Htra = (3/2)RT + pV = (5/2)RT

            Heat capacity is Cp, not Cv

          For more information, see: HTTP://OpenMOPAC.net/Manual/thermochemistry.html


           FORCE CONSTANT IN CARTESIAN COORDINATES (Millidynes/A)

    ATOM   CHEMICAL       X               Y               Z
   NUMBER   SYMBOL  FORCE CONSTANT  FORCE CONSTANT  FORCE CONSTANT

      1       C        1.264910        6.425774        6.429287
      2       H        3.839558        0.565216        0.455828
      3       H        0.154488        4.181423        0.602944
      4       H        0.148146        1.493215        3.293117
      5       H        0.186732        1.508614        3.285946
      6       O        4.187651        2.825014        2.039070
      7       H        0.548895        2.514814        1.788696

 **********************
 *                    *
 * JOB ENDED NORMALLY *
 *                    *
 **********************



 TOTAL JOB TIME:             0.14 SECONDS

 == MOPAC DONE ==
