 *******************************************************************************
 **                                                                           **
 **                              MOPAC v22.0.6                                **
 **                                                                           **
 *******************************************************************************
 **          Digital Object Identifier (DOI): 10.5281/zenodo.6511958          **
 **    Visit the DOI location for information on how to cite this program.    **
 *******************************************************************************

                              PM7 CALCULATION RESULTS

 *******************************************************************************
 *  CALCULATION DONE:                                Sun Mar 24 13:35:30 2024  *
 *  PM7        - The PM7 Hamiltonian to be used
 *  SINGLET    - SPIN STATE DEFINED AS A SINGLET
 *
 *
 *
 *                 CHARGE ON SYSTEM = 0
 *
 *
 *
 *  EPS=78.4   - USE ANDREAS KLAMT'S COSMO IMPLICIT SOLVATION MODEL
 *  LET        - OVERRIDE SOME SAFETY CHECKS
 *  THREADS    - USE A MAXIMUM OF 30 THREADS
 *  T=         - A TIME OF 14.0 DAYS REQUESTED
 *  DUMP=N     - RESTART FILE WRITTEN EVERY 30.0 MINUTES REQUESTED
 *  RELSCF     - DEFAULT SCF CRITERION MULTIPLIED BY 1.0000
 *              (DEFAULT SCF CRITERION = 0.00010)
 *  ITRY=      - DO A MAXIMUM OF 15000 ITERATIONS FOR SCF
 *  AUX        - OUTPUT AUXILIARY INFORMATION
 *  ISOTOPE    - SAVE THE FORCE MATRIX FOR USE LATER
 *  BONDS      - FINAL BOND-ORDER MATRIX TO BE PRINTED
 *  LARGE      - EXPANDED OUTPUT TO BE PRINTED
 *  THERMO     - THERMODYNAMIC QUANTITIES TO BE CALCULATED
 *******************************************************************************
PM7 AUX LARGE THERMO(298,298) LET ISOTOPE BONDS DUMP=30M ITRY=15000 T=14D THREADS=30 CHARGE=0 SINGLET eps=78.4 RELSCF=1
 Title: ASE calculation

   ATOM   CHEMICAL          X               Y               Z
  NUMBER   SYMBOL      (ANGSTROMS)     (ANGSTROMS)     (ANGSTROMS)

     1       C          0.69338934  *   0.06229265  *   0.45902909  *
     2       H          0.29711745  *  -0.19798881  *   1.44714821  *
     3       N          0.54091529  *  -2.28005333  *  -0.16597422  *
     4       O          0.16400436  *  -2.61877870  *   0.98619072  *
     5       O          0.68364367  *  -3.20204781  *  -1.01615117  *
     6       H          1.48397596  *   1.62507659  *  -0.76675896  *
     7       C          0.78142577  *  -1.01278009  *  -0.49742507  *
     8       H          1.09416970  *  -0.79419062  *  -1.51378027  *
     9       D          3.50156496  *  -0.64963322  *  -0.48057684  *
    10       C          1.07559186  *   1.31465163  *   0.17946858  *
    11       H          1.01958062  *   2.12322564  *   0.88761691  *
    12       C          7.16705282  *   0.00235945  *   1.42339142  *
    13       C          8.29530651  *   0.61520866  *   1.97901770  *
    14       C          8.27869643  *   2.00093387  *   2.17524909  *
    15       C          7.15135112  *   2.73412083  *   1.81527896  *
    16       C          6.05277101  *   2.08300400  *   1.25733039  *
    17       N          6.07913993  *   0.73719707  *   1.07447376  *
    18       H          7.12302286  *  -1.08899002  *   1.25328573  *
    19       H          7.11970690  *   3.81927225  *   1.96410209  *
    20       H          5.14354521  *   2.62697104  *   0.94869301  *
    21       C          9.47499219  *  -0.20676523  *   2.33271721  *
    22       H         10.27913733  *   0.37448972  *   2.81071906  *
    23       H          9.92164900  *  -0.68535026  *   1.44255406  *
    24       H          9.22299662  *  -1.02425636  *   3.03104397  *
    25       H          9.14922113  *   2.50601186  *   2.60899619  *
    26       H          4.67287401  *  -1.61488609  *  -0.30915121  *
    27       O          4.48707341  *  -0.68186494  *  -0.51915829  *
    28       H          5.25223680  *   0.24955982  *   0.62827457  *


                                Isotopes Used

              Atom:    9  H  Default mass  1.0079,  mass used:  2.0140 amu


          CARTESIAN COORDINATES 

    NO.       ATOM           X           Y           Z

     1         C          0.6934      0.0623      0.4590
     2         H          0.2971     -0.1980      1.4471
     3         N          0.5409     -2.2801     -0.1660
     4         O          0.1640     -2.6188      0.9862
     5         O          0.6836     -3.2020     -1.0162
     6         H          1.4840      1.6251     -0.7668
     7         C          0.7814     -1.0128     -0.4974
     8         H          1.0942     -0.7942     -1.5138
     9         H          3.5016     -0.6496     -0.4806
    10         C          1.0756      1.3147      0.1795
    11         H          1.0196      2.1232      0.8876
    12         C          7.1671      0.0024      1.4234
    13         C          8.2953      0.6152      1.9790
    14         C          8.2787      2.0009      2.1752
    15         C          7.1514      2.7341      1.8153
    16         C          6.0528      2.0830      1.2573
    17         N          6.0791      0.7372      1.0745
    18         H          7.1230     -1.0890      1.2533
    19         H          7.1197      3.8193      1.9641
    20         H          5.1435      2.6270      0.9487
    21         C          9.4750     -0.2068      2.3327
    22         H         10.2791      0.3745      2.8107
    23         H          9.9216     -0.6854      1.4426
    24         H          9.2230     -1.0243      3.0310
    25         H          9.1492      2.5060      2.6090
    26         H          4.6729     -1.6149     -0.3092
    27         O          4.4871     -0.6819     -0.5192
    28         H          5.2522      0.2496      0.6283

 General Reference for PM7:
 "Optimization of Parameters for Semiempirical Methods VI: More Modifications to the 
 NDDO Approximations and Re-optimization of Parameters", J. J. P. Stewart, J. Mol. Mod., 1:32, 19 (2013)
 https://link.springer.com/article/10.1007/s00894-012-1667-x

           Empirical Formula: C9 H14 N2 O3  =    28 atoms



      MOLECULAR POINT GROUP   :   C1  


 SINGLET STATE CALCULATION


      RHF CALCULATION, NO. OF DOUBLY OCCUPIED LEVELS = 39

  SCF CRITERION =    0.1000E-03


          HEAT OF FORMATION =     -58.574175 KCALS/MOLE


          CARTESIAN COORDINATE DERIVATIVES

   NUMBER  ATOM         X            Y            Z

     1       C      0.015045    -0.025256    -0.099502
     2       H      0.009639    -0.054113    -0.113768
     3       N      0.221597     0.481833    -0.229740
     4       O      0.132313    -0.160111    -0.647300
     5       O     -0.029685    -0.535249     0.661673
     6       H     -0.031794    -0.142912     0.057155
     7       C      1.469748     1.359003    -2.356685
     8       H      0.185955     0.086685    -0.221148
     9       H      2.437818     0.716151    -8.266089
    10       C     -0.159854    -0.083674    -0.058673
    11       H      0.122733    -0.036346    -0.055943
    12       C     -0.009385     0.226656    -0.313429
    13       C      0.079177     0.254133    -0.169880
    14       C     -0.028735     0.159885    -0.115643
    15       C      0.007539     0.263898    -0.204118
    16       C     -0.086032     0.125104    -0.026441
    17       N      0.006136    -0.080758    -0.009506
    18       H      0.124822     0.188975    -0.033967
    19       H      0.041964     0.257446    -0.079371
    20       H     -0.209608     0.153150     0.169630
    21       C      0.020526     0.013219    -0.145217
    22       H     -0.016155    -0.044007    -0.191918
    23       H      0.016700    -0.118953    -0.134156
    24       H     -0.138619    -0.016664     0.259703
    25       H     -0.045197     0.206028    -0.008079
    26       H      0.924362    -0.325711    -1.379430
    27       O     -5.278806    -2.376877    13.606893
    28       H      0.217954    -0.491395     0.105085

 DIPOLE           X         Y         Z       TOTAL
 POINT-CHG.    -7.972   -18.476    26.393    33.189
 HYBRID         0.389     0.822    -0.230     0.938
 SUM           -7.583   -17.653    26.163    32.460


          GRADIENT NORM =  17.57183



 ** GRADIENT IS VERY LARGE, BUT SINCE "LET" IS USED, CALCULATION WILL CONTINUE


                              **** WARNING ****

           GRADIENT IS VERY LARGE FOR A THERMO CALCULATION
           RESULTS ARE LIKELY TO BE INACCURATE IF THERE ARE
           ANY LOW-LYING VIBRATIONS (LESS THAN ABOUT 400CM-1)
           GRADIENT NORM SHOULD BE LESS THAN ABOUT 1.1 FOR THERMO
           TO GIVE ACCURATE RESULTS


          TIME FOR SCF CALCULATION =    0.10

          TIME FOR DERIVATIVES     =    0.02

          MOLECULAR WEIGHT =  199.23



          ROTATIONAL CONSTANTS IN CM(-1)

          A =    0.03965925   B =    0.00603815   C =    0.00551757



           PRINCIPAL MOMENTS OF INERTIA IN UNITS OF 10**(-40)*GRAM-CM**2

          A =      705.8316   B =     4635.9821   C =     5073.3870


          ORIENTATION OF MOLECULE IN FORCE CALCULATION

    NO.       ATOM         X         Y         Z

     1          C       0.9661    0.0864   -3.4353
     2          H       2.0621    0.0864   -3.4353
     3          N       1.0140    2.5151   -3.4353
     4          O       2.2695    2.5441   -3.3508
     5          O       0.4148    3.6260   -3.4483
     6          H      -0.7961   -1.1202   -3.3426
     7          C       0.3272    1.3765   -3.5118
     8          H      -0.7541    1.4290   -3.5927
     9          H      -0.7273    0.8720   -1.0289
    10          C       0.2784   -1.0599   -3.3604
    11          H       0.7451   -2.0277   -3.2971
    12          C      -0.4909   -0.4816    2.9205
    13          C      -0.5435   -1.2855    4.0643
    14          C      -0.6896   -2.6686    3.9070
    15          C      -0.7807   -3.2105    2.6279
    16          C      -0.7319   -2.3709    1.5166
    17          N      -0.5867   -1.0304    1.6815
    18          H      -0.3692    0.6151    2.9860
    19          H      -0.8928   -4.2912    2.4857
    20          H      -0.8106   -2.7575    0.4860
    21          C      -0.4559   -0.6595    5.4033
    22          H      -0.4537   -1.3937    6.2243
    23          H      -1.3063    0.0199    5.5935
    24          H       0.4590   -0.0530    5.5242
    25          H      -0.7333   -3.3211    4.7863
    26          H      -0.7671    1.6861    0.2629
    27          O      -1.1108    0.8587   -0.1198
    28          H      -0.5742   -0.3936    0.8360


    FIRST DERIVATIVES WILL BE USED IN THE CALCULATION OF SECOND DERIVATIVES

          ESTIMATED TIME TO COMPLETE CALCULATION =       20.34 SECONDS

    FOR POINT-GROUP C1   THERE ARE   1 UNIQUE SYMMETRY FUNCTIONS.

 STEP:   1 TIME =     0.05 SECS, INTEGRAL =      0.05 TIME LEFT:1209599.83
 STEP:   2 TIME =     0.05 SECS, INTEGRAL =      0.09 TIME LEFT:1209599.79
 STEP:   3 TIME =     0.05 SECS, INTEGRAL =      0.14 TIME LEFT:1209599.74
 STEP:   4 TIME =     0.05 SECS, INTEGRAL =      0.19 TIME LEFT:1209599.69
 STEP:   5 TIME =     0.04 SECS, INTEGRAL =      0.23 TIME LEFT:1209599.65
 STEP:   6 TIME =     0.05 SECS, INTEGRAL =      0.28 TIME LEFT:1209599.60
 STEP:   7 TIME =     0.05 SECS, INTEGRAL =      0.32 TIME LEFT:1209599.55
 STEP:   8 TIME =     0.05 SECS, INTEGRAL =      0.37 TIME LEFT:1209599.51
 STEP:   9 TIME =     0.05 SECS, INTEGRAL =      0.42 TIME LEFT:1209599.46
 STEP:  10 TIME =     0.04 SECS, INTEGRAL =      0.46 TIME LEFT:1209599.42
 STEP:  11 TIME =     0.04 SECS, INTEGRAL =      0.50 TIME LEFT:1209599.38
 STEP:  12 TIME =     0.04 SECS, INTEGRAL =      0.55 TIME LEFT:1209599.33
 STEP:  13 TIME =     0.04 SECS, INTEGRAL =      0.59 TIME LEFT:1209599.29
 STEP:  14 TIME =     0.04 SECS, INTEGRAL =      0.63 TIME LEFT:1209599.25
 STEP:  15 TIME =     0.04 SECS, INTEGRAL =      0.68 TIME LEFT:1209599.20
 STEP:  16 TIME =     0.04 SECS, INTEGRAL =      0.72 TIME LEFT:1209599.16
 STEP:  17 TIME =     0.05 SECS, INTEGRAL =      0.77 TIME LEFT:1209599.11
 STEP:  18 TIME =     0.04 SECS, INTEGRAL =      0.81 TIME LEFT:1209599.07
 STEP:  19 TIME =     0.04 SECS, INTEGRAL =      0.85 TIME LEFT:1209599.03
 STEP:  20 TIME =     0.04 SECS, INTEGRAL =      0.89 TIME LEFT:1209598.98
 STEP:  21 TIME =     0.04 SECS, INTEGRAL =      0.94 TIME LEFT:1209598.94
 STEP:  22 TIME =     0.04 SECS, INTEGRAL =      0.98 TIME LEFT:1209598.90
 STEP:  23 TIME =     0.04 SECS, INTEGRAL =      1.02 TIME LEFT:1209598.86
 STEP:  24 TIME =     0.04 SECS, INTEGRAL =      1.07 TIME LEFT:1209598.81
 STEP:  25 TIME =     0.04 SECS, INTEGRAL =      1.11 TIME LEFT:1209598.77
 STEP:  26 TIME =     0.05 SECS, INTEGRAL =      1.16 TIME LEFT:1209598.72
 STEP:  27 TIME =     0.04 SECS, INTEGRAL =      1.20 TIME LEFT:1209598.68
 STEP:  28 TIME =     0.04 SECS, INTEGRAL =      1.24 TIME LEFT:1209598.64
 STEP:  29 TIME =     0.04 SECS, INTEGRAL =      1.29 TIME LEFT:1209598.59
 STEP:  30 TIME =     0.04 SECS, INTEGRAL =      1.33 TIME LEFT:1209598.55
 STEP:  31 TIME =     0.04 SECS, INTEGRAL =      1.37 TIME LEFT:1209598.51
 STEP:  32 TIME =     0.04 SECS, INTEGRAL =      1.41 TIME LEFT:1209598.46
 STEP:  33 TIME =     0.04 SECS, INTEGRAL =      1.46 TIME LEFT:1209598.42
 STEP:  34 TIME =     0.04 SECS, INTEGRAL =      1.50 TIME LEFT:1209598.38
 STEP:  35 TIME =     0.04 SECS, INTEGRAL =      1.54 TIME LEFT:1209598.34
 STEP:  36 TIME =     0.04 SECS, INTEGRAL =      1.59 TIME LEFT:1209598.29
 STEP:  37 TIME =     0.04 SECS, INTEGRAL =      1.63 TIME LEFT:1209598.25
 STEP:  38 TIME =     0.04 SECS, INTEGRAL =      1.67 TIME LEFT:1209598.21
 STEP:  39 TIME =     0.04 SECS, INTEGRAL =      1.71 TIME LEFT:1209598.16
 STEP:  40 TIME =     0.04 SECS, INTEGRAL =      1.76 TIME LEFT:1209598.12
 STEP:  41 TIME =     0.04 SECS, INTEGRAL =      1.80 TIME LEFT:1209598.08
 STEP:  42 TIME =     0.04 SECS, INTEGRAL =      1.84 TIME LEFT:1209598.04
 STEP:  43 TIME =     0.04 SECS, INTEGRAL =      1.89 TIME LEFT:1209597.99
 STEP:  44 TIME =     0.04 SECS, INTEGRAL =      1.93 TIME LEFT:1209597.95
 STEP:  45 TIME =     0.04 SECS, INTEGRAL =      1.97 TIME LEFT:1209597.91
 STEP:  46 TIME =     0.04 SECS, INTEGRAL =      2.02 TIME LEFT:1209597.86
 STEP:  47 TIME =     0.04 SECS, INTEGRAL =      2.06 TIME LEFT:1209597.82
 STEP:  48 TIME =     0.04 SECS, INTEGRAL =      2.10 TIME LEFT:1209597.78
 STEP:  49 TIME =     0.04 SECS, INTEGRAL =      2.14 TIME LEFT:1209597.73
 STEP:  50 TIME =     0.04 SECS, INTEGRAL =      2.19 TIME LEFT:1209597.69
 STEP:  51 TIME =     0.04 SECS, INTEGRAL =      2.23 TIME LEFT:1209597.65
 STEP:  52 TIME =     0.04 SECS, INTEGRAL =      2.27 TIME LEFT:1209597.61
 STEP:  53 TIME =     0.04 SECS, INTEGRAL =      2.31 TIME LEFT:1209597.57
 STEP:  54 TIME =     0.04 SECS, INTEGRAL =      2.35 TIME LEFT:1209597.53
 STEP:  55 TIME =     0.04 SECS, INTEGRAL =      2.39 TIME LEFT:1209597.49
 STEP:  56 TIME =     0.04 SECS, INTEGRAL =      2.43 TIME LEFT:1209597.45
 STEP:  57 TIME =     0.04 SECS, INTEGRAL =      2.47 TIME LEFT:1209597.41
 STEP:  58 TIME =     0.04 SECS, INTEGRAL =      2.51 TIME LEFT:1209597.37
 STEP:  59 TIME =     0.04 SECS, INTEGRAL =      2.55 TIME LEFT:1209597.33
 STEP:  60 TIME =     0.04 SECS, INTEGRAL =      2.59 TIME LEFT:1209597.29
 STEP:  61 TIME =     0.04 SECS, INTEGRAL =      2.63 TIME LEFT:1209597.25
 STEP:  62 TIME =     0.04 SECS, INTEGRAL =      2.68 TIME LEFT:1209597.20
 STEP:  63 TIME =     0.04 SECS, INTEGRAL =      2.71 TIME LEFT:1209597.16
 STEP:  64 TIME =     0.04 SECS, INTEGRAL =      2.75 TIME LEFT:1209597.12
 STEP:  65 TIME =     0.04 SECS, INTEGRAL =      2.80 TIME LEFT:1209597.08
 STEP:  66 TIME =     0.04 SECS, INTEGRAL =      2.84 TIME LEFT:1209597.04
 STEP:  67 TIME =     0.04 SECS, INTEGRAL =      2.88 TIME LEFT:1209597.00
 STEP:  68 TIME =     0.04 SECS, INTEGRAL =      2.92 TIME LEFT:1209596.96
 STEP:  69 TIME =     0.04 SECS, INTEGRAL =      2.96 TIME LEFT:1209596.92
 STEP:  70 TIME =     0.04 SECS, INTEGRAL =      3.00 TIME LEFT:1209596.88
 STEP:  71 TIME =     0.04 SECS, INTEGRAL =      3.04 TIME LEFT:1209596.84
 STEP:  72 TIME =     0.04 SECS, INTEGRAL =      3.08 TIME LEFT:1209596.80
 STEP:  73 TIME =     0.04 SECS, INTEGRAL =      3.12 TIME LEFT:1209596.76
 STEP:  74 TIME =     0.04 SECS, INTEGRAL =      3.16 TIME LEFT:1209596.72
 STEP:  75 TIME =     0.04 SECS, INTEGRAL =      3.20 TIME LEFT:1209596.68
 STEP:  76 TIME =     0.04 SECS, INTEGRAL =      3.24 TIME LEFT:1209596.64
 STEP:  77 TIME =     0.04 SECS, INTEGRAL =      3.28 TIME LEFT:1209596.60
 STEP:  78 TIME =     0.04 SECS, INTEGRAL =      3.32 TIME LEFT:1209596.56
 STEP:  79 TIME =     0.04 SECS, INTEGRAL =      3.36 TIME LEFT:1209596.52
 STEP:  80 TIME =     0.04 SECS, INTEGRAL =      3.40 TIME LEFT:1209596.48
 STEP:  81 TIME =     0.04 SECS, INTEGRAL =      3.44 TIME LEFT:1209596.44
 STEP:  82 TIME =     0.04 SECS, INTEGRAL =      3.48 TIME LEFT:1209596.40
 STEP:  83 TIME =     0.04 SECS, INTEGRAL =      3.52 TIME LEFT:1209596.36
 STEP:  84 TIME =     0.04 SECS, INTEGRAL =      3.56 TIME LEFT:1209596.32

(To convert to Hartree/Bohr^2, multiply by (10^(-21) x N x a0^2)/(4.184 x 627.51) =  0.0642)


           FORCE MATRIX IN MILLIDYNES/ANGSTROM


                  C  1       H  2       N  3       O  4       O  5       H  6
 ------------------------------------------------------------------------------
     C    1  17.074551
     H    2   3.384468   4.296755
     N    3   1.688367   0.107871  19.093501
     O    4   0.259368   0.037210   7.447404  10.159869
     O    5   0.303099   0.037142   7.266391   2.089760   9.955101
     H    6   0.824758   0.127096   0.088198   0.035531   0.045678   4.289277
     C    7   4.652338   0.717523   6.651759   1.917865   2.070750   0.090354
     H    8   0.706202   0.041264   1.077018   0.176022   0.096777   0.016447
     H    9   0.014338   0.004411   0.102191   0.049636   0.074407   0.009613
     C   10   9.842968   0.817883   0.360588   0.121316   0.145847   3.520185
     H   11   0.855012   0.057674   0.078921   0.030396   0.034722   0.471707
     C   12   0.002727   0.001426   0.004558   0.001758   0.014592   0.001618
     C   13   0.001379   0.000355   0.002977   0.001182   0.001167   0.000704
     C   14   0.001438   0.000275   0.003920   0.001649   0.002125   0.000515
     C   15   0.001462   0.000597   0.001811   0.000856   0.000934   0.000639
     C   16   0.002742   0.000361   0.004532   0.001981   0.035625   0.001441
     N   17   0.032446   0.009958   0.144180   0.020476   0.311180   0.005835
     H   18   0.001881   0.000371   0.004275   0.001507   0.002337   0.000524
     H   19   0.000808   0.000225   0.001538   0.000806   0.000991   0.000328
     H   20   0.001865   0.000410   0.003060   0.001443   0.001603   0.001320
     C   21   0.000693   0.000434   0.002670   0.000775   0.001241   0.000664
     H   22   0.000293   0.000141   0.001164   0.000730   0.000638   0.000148
     H   23   0.000415   0.000155   0.001485   0.000577   0.000940   0.000200
     H   24   0.000543   0.000262   0.001804   0.000907   0.000903   0.000331
     H   25   0.000740   0.000261   0.002235   0.001172   0.001416   0.000212
     H   26   0.007170   0.001725   0.044245   0.033039   0.040116   0.003189
     O   27   0.014016   0.002931   0.089699   0.049894   0.121115   0.008007
     H   28   0.012460   0.002813   0.029973   0.013416   0.019128   0.005467


                  C  7       H  8       H  9       C 10       H 11       C 12
 ------------------------------------------------------------------------------
     C    7  15.467536
     H    8   3.302922   4.376242
     H    9   0.091075   0.059557   4.176357
     C   10   1.300900   0.024624   0.028407  15.488511
     H   11   0.131661   0.005684   0.003620   3.518021   4.294576
     C   12   0.003145   0.001048   0.007707   0.002142   0.000963  14.912840
     C   13   0.003306   0.001040   0.002941   0.001716   0.000552   5.586603
     C   14   0.002027   0.000341   0.002398   0.000896   0.000409   2.047149
     C   15   0.001459   0.000830   0.005099   0.000624   0.000602   1.316477
     C   16   0.002538   0.000856   0.008851   0.001679   0.000818   2.290160
     N   17   0.041933   0.005119   0.094903   0.020226   0.010717   6.142960
     H   18   0.002461   0.000488   0.003735   0.001159   0.000946   3.211727
     H   19   0.001299   0.000316   0.000515   0.001002   0.000711   0.016358
     H   20   0.002574   0.000678   0.003680   0.001026   0.000352   0.136043
     C   21   0.002922   0.000866   0.001493   0.001976   0.000694   0.826829
     H   22   0.000717   0.000155   0.000385   0.000477   0.000190   0.042639
     H   23   0.001090   0.000336   0.000441   0.000594   0.000251   0.033845
     H   24   0.001196   0.000324   0.000563   0.000611   0.000184   0.034145
     H   25   0.001290   0.000254   0.000487   0.000423   0.000116   0.103158
     H   26   0.040670   0.039385   0.762853   0.008049   0.001165   0.017825
     O   27   0.083440   0.086018   3.788690   0.025677   0.002727   0.044122
     H   28   0.026352   0.013527   0.136152   0.017440   0.002800   0.792534


                  C 13       C 14       C 15       C 16       N 17       H 18
 ------------------------------------------------------------------------------
     C   13  15.719279
     C   14   5.632166  14.802371
     C   15   2.001908   6.076970  14.974247
     C   16   1.412278   2.158832   5.905470  14.977561
     N   17   2.353953   1.405444   2.349203   6.136475  16.220203
     H   18   0.652638   0.102417   0.050287   0.142957   0.894710   4.095240
     H   19   0.096336   0.744082   3.378524   0.746418   0.100344   0.015013
     H   20   0.042048   0.088643   0.660535   3.235706   0.886492   0.016647
     C   21   3.832991   0.832621   0.098848   0.039428   0.106923   0.026357
     H   22   0.743392   0.029484   0.004833   0.004638   0.010286   0.003758
     H   23   0.768467   0.028241   0.013492   0.007647   0.014540   0.010108
     H   24   0.765144   0.029562   0.013569   0.007543   0.010094   0.011264
     H   25   0.713082   3.394118   0.755663   0.104423   0.031890   0.013470
     H   26   0.005464   0.003185   0.003674   0.008133   0.074915   0.008179
     O   27   0.013551   0.005872   0.024348   0.040397   0.472433   0.017670
     H   28   0.122626   0.019850   0.118718   0.767403   2.692648   0.056636


                  H 19       H 20       C 21       H 22       H 23       H 24
 ------------------------------------------------------------------------------
     H   19   4.255562
     H   20   0.029614   4.127549
     C   21   0.014099   0.019115  11.324846
     H   22   0.002660   0.002140   3.338942   4.157417
     H   23   0.002254   0.002898   3.268104   0.450539   4.104214
     H   24   0.002119   0.002653   3.276949   0.450346   0.449559   4.110145
     H   25   0.036978   0.011934   0.029596   0.020529   0.005659   0.006607
     H   26   0.000646   0.002159   0.002213   0.000704   0.000939   0.001192
     O   27   0.005510   0.014928   0.011555   0.001220   0.003242   0.003415
     H   28   0.017984   0.056918   0.030123   0.003325   0.006616   0.006448


                  H 25       H 26       O 27       H 28
 ------------------------------------------------------
     H   25   4.260354
     H   26   0.001575   4.289220
     O   27   0.004488   3.871850   6.192341
     H   28   0.016909   0.152921   0.305961   3.304193


          HEAT OF FORMATION =     -58.574175 KCALS/MOLE


          TRIVIAL VIBRATIONS, SHOULD BE ZERO

  13.8130=TX  36.8426=TY -47.3695=TZ -46.7195=RX -49.4193=RY  -7.1639=RZ


      MOLECULAR POINT GROUP   :   C1  


           EIGENVECTORS  


   Root No.       1         2         3         4         5         6         7         8

                 1 A       2 A       3 A       4 A       5 A       6 A       7 A       8 A   

                  -0.3      -0.1      -0.0      -0.0      -0.0      -0.0      -0.0      -0.0
  
           1    0.0486    0.0188    0.0665   -0.0365    0.0132    0.0027   -0.1096   -0.0114
           2   -0.0905    0.0203    0.0355   -0.0506    0.0269    0.0749    0.0256   -0.0743
           3   -0.0806   -0.1215    0.0016    0.0386    0.1200   -0.0597   -0.0196   -0.0320
           4    0.0444    0.0187    0.0669   -0.0371    0.0139    0.0026   -0.1102   -0.0120
           5   -0.0732    0.0168    0.0873   -0.0959    0.0083    0.1210   -0.0547   -0.0854
           6   -0.0802   -0.4032    0.0276    0.0477    0.0501   -0.0434   -0.0617   -0.0311
           7   -0.0537   -0.0070   -0.0459    0.0416    0.0807   -0.1093    0.0606    0.0027
           8   -0.0815    0.0168    0.0368   -0.0545    0.0264    0.0742    0.0210   -0.0737
           9    0.1319   -0.0852    0.0091    0.1507    0.0781    0.0611    0.0743   -0.0199
          10   -0.0440   -0.0042   -0.0504    0.0200    0.0966   -0.1240    0.0587    0.0006
          11    0.0463    0.0261    0.0908   -0.1107   -0.0104    0.1173   -0.0741   -0.0760
          12   -0.0861   -0.1167    0.0596    0.5004   -0.1434    0.2570    0.1262    0.0116
          13   -0.2586   -0.0163   -0.0964    0.0862    0.1155   -0.1590    0.1396    0.0070
          14   -0.1940    0.0132    0.0093   -0.0310    0.0451    0.0480    0.0646   -0.0702
          15    0.7991   -0.0418    0.0023    0.1150    0.1491    0.0963    0.1424   -0.0355
          16    0.0304    0.0489    0.1224   -0.0888    0.0038    0.0515   -0.1957   -0.0254
          17   -0.0383    0.0331   -0.0516    0.0306    0.0413    0.0037    0.1608   -0.0480
          18   -0.0030    0.6989   -0.0410    0.0835    0.1309   -0.0378    0.0685    0.0017
          19    0.0190    0.0028    0.0094    0.0159    0.0315   -0.0487   -0.0198   -0.0000
          20   -0.1152    0.0143    0.0055   -0.0258    0.0436    0.0482    0.0737   -0.0692
          21    0.0094   -0.1182   -0.0231   -0.0270    0.2505   -0.0961    0.0177   -0.0494
          22    0.0090   -0.0009    0.0111    0.0378    0.0168   -0.0362   -0.0133    0.0019
          23   -0.1103    0.0051   -0.0466    0.0046    0.0796   -0.0082    0.1490   -0.0638
          24    0.0906   -0.0653   -0.0682   -0.2751    0.4505   -0.2639   -0.0154   -0.0696
          25   -0.0588   -0.0138    0.0191    0.3652   -0.1093    0.2187    0.0030   -0.0087
          26    0.0548   -0.0067   -0.0074    0.0519    0.0222    0.0092   -0.1655    0.5215
          27   -0.0503   -0.0066    0.0197   -0.0483   -0.1276    0.0731   -0.0263    0.2468
          28    0.0322    0.0425    0.1197   -0.0856    0.0027    0.0491   -0.1918   -0.0244
          29   -0.0776    0.0382    0.0028   -0.0177    0.0303    0.0490    0.0773   -0.0652
          30   -0.0327    0.3578   -0.0096    0.0821    0.0695   -0.0286    0.0127   -0.0100
          31    0.0086    0.0729    0.1672   -0.1278   -0.0037    0.0883   -0.2661   -0.0382
          32   -0.0812    0.0504    0.0269   -0.0367    0.0202    0.0701    0.0399   -0.0703
          33   -0.0140    0.3464    0.0077    0.1097   -0.0315    0.0038   -0.0091    0.0057
          34    0.0542    0.0044    0.0361   -0.0461   -0.0739    0.0619    0.0213   -0.0722
          35    0.0487   -0.0149   -0.0249    0.0401   -0.0375   -0.0646   -0.0233   -0.0211
          36   -0.0377   -0.0203   -0.0280   -0.0271   -0.1260   -0.0841   -0.0566   -0.0681
          37    0.0055   -0.0130    0.0055    0.0555    0.0435    0.0172   -0.0709   -0.0350
          38    0.0384   -0.0234    0.0024    0.0208    0.0207    0.0137    0.0266   -0.0070
          39   -0.0449   -0.0261   -0.0094   -0.0364   -0.0749   -0.0277   -0.0233   -0.0535
          40   -0.0286   -0.0308   -0.1193    0.1390    0.1408   -0.0493   -0.0946    0.0488
          41    0.0425   -0.0196    0.0128    0.0133    0.0056    0.0135    0.0247   -0.0155
          42   -0.0539   -0.0368    0.0234   -0.0504    0.0056    0.0616    0.0291   -0.0342
          43   -0.0244   -0.0285   -0.1801    0.0674    0.0303   -0.0928    0.0864    0.0806
          44    0.0688   -0.0090   -0.0092    0.0307   -0.0651   -0.0659   -0.0390   -0.0386
          45   -0.0641   -0.0424    0.0358   -0.0531    0.0393    0.0961    0.0431   -0.0289
          46    0.0357   -0.0152   -0.1479   -0.0465   -0.1345   -0.0803    0.2351    0.0418
          47    0.0841   -0.0011   -0.0368    0.0516   -0.1246   -0.1429   -0.0954   -0.0558
          48   -0.0567   -0.0347    0.0180   -0.0421   -0.0062    0.0421    0.0074   -0.0412
          49    0.1186    0.0019   -0.0350   -0.0822   -0.1464    0.0131    0.1510   -0.0322
          50    0.0828   -0.0034   -0.0436    0.0546   -0.1072   -0.1381   -0.0795   -0.0434
          51   -0.0621   -0.0240   -0.0127   -0.0317   -0.0868   -0.0445   -0.0387   -0.0594
          52    0.0494    0.0191    0.1228   -0.1040   -0.1171    0.1383   -0.0070   -0.1331
          53    0.0451   -0.0170   -0.0322    0.0455   -0.0278   -0.0676   -0.0176   -0.0127
          54   -0.0078   -0.0100   -0.0533   -0.0157   -0.1886   -0.1537   -0.0910   -0.0802
          55   -0.0598   -0.0351   -0.2320    0.0890    0.0604   -0.1293    0.1102    0.1295
          56    0.0700   -0.0073   -0.0066    0.0295   -0.0777   -0.0716   -0.0471   -0.0466
          57   -0.0672   -0.0490    0.0613   -0.0605    0.1095    0.1685    0.0802   -0.0094
          58    0.0134   -0.0157   -0.1776   -0.1022   -0.2216   -0.1164    0.3732    0.0646
          59    0.0703    0.0085   -0.0505    0.0629   -0.1711   -0.1966   -0.1457   -0.0731
          60   -0.0483   -0.0379    0.0258   -0.0421    0.0183    0.0659    0.0164   -0.0359
          61   -0.0082   -0.0078    0.1056    0.0399    0.0288    0.0214   -0.0834   -0.0557
          62    0.0128   -0.0317    0.0182    0.0068    0.0932    0.0901    0.0758    0.0180
          63   -0.0297   -0.0221   -0.0218   -0.0293   -0.1088   -0.0642   -0.0449   -0.0639
          64   -0.0261   -0.0141    0.5810    0.1068    0.0293   -0.2424    0.0950    0.0345
          65   -0.0003   -0.0359    0.0081   -0.0044    0.1343    0.1460    0.0946    0.0283
          66   -0.0395   -0.0261   -0.0325   -0.0394   -0.0706   -0.0124   -0.0283   -0.0547
          67   -0.0035   -0.0024   -0.0975   -0.0046    0.0160    0.1567   -0.1756   -0.1105
          68    0.0163   -0.0258   -0.2923   -0.0551    0.0892    0.2962   -0.0526   -0.0549
          69   -0.0242   -0.0188    0.1841   -0.0037   -0.1484   -0.1978   -0.0038   -0.0484
          70   -0.0028   -0.0030   -0.0873   -0.0010    0.0186    0.1481   -0.1683   -0.1058
          71   -0.0009   -0.0396    0.3487    0.0691    0.1111   -0.1127    0.2197    0.1001
          72   -0.0050   -0.0193   -0.2316   -0.0363   -0.1298   -0.0088   -0.1227   -0.0966
          73   -0.0547   -0.0405   -0.1452    0.2231    0.2585   -0.0620   -0.2196    0.0798
          74    0.0349   -0.0249    0.0343   -0.0056    0.0373    0.0670    0.0705   -0.0081
          75   -0.0575   -0.0413    0.0381   -0.0599    0.0357    0.1009    0.0561   -0.0271
          76   -0.0072    0.0136   -0.0044   -0.3613    0.0471    0.1203    0.1252    0.1466
          77    0.0606    0.0061   -0.0354   -0.0018   -0.0397   -0.1244   -0.1187    0.1595
          78   -0.0443   -0.0136    0.0342   -0.0326   -0.0772    0.1502   -0.0539    0.4745
          79    0.0774   -0.0044   -0.0051    0.0233    0.0112    0.1134    0.0297    0.0512
          80    0.0004    0.0082   -0.0232   -0.0881   -0.0253   -0.0632   -0.0964    0.2977
          81    0.0087   -0.0027    0.0093   -0.1900   -0.0766    0.0295   -0.0131    0.2672
          82    0.0839    0.0090   -0.0094   -0.1868   -0.2527    0.0463    0.2370   -0.0251
          83    0.0863    0.0032   -0.0592    0.0657   -0.1490   -0.1861   -0.1138   -0.0520
          84   -0.0502   -0.0195   -0.0265   -0.0267   -0.1106   -0.0833   -0.0660   -0.0586


   Root No.       9        10        11        12        13        14        15        16

                 9 A      10 A      11 A      12 A      13 A      14 A      15 A      16 A   

                  -0.0      -0.0       0.0       0.0       0.1       0.1       0.1       0.1
  
           1   -0.0147   -0.0754   -0.0039   -0.0229   -0.0794   -0.0013    0.2234    0.0012
           2   -0.0036   -0.0087    0.0309    0.0009   -0.0140    0.0015   -0.0833   -0.0012
           3   -0.0096    0.2338   -0.2642    0.0209   -0.0561   -0.0220    0.0281   -0.0028
           4   -0.0151   -0.0750   -0.0042   -0.0238   -0.0734   -0.0015    0.2103    0.0014
           5    0.0015    0.0319    0.0217   -0.0220    0.0501   -0.0040   -0.1957   -0.0037
           6    0.0258    0.2932   -0.3901    0.0652   -0.3017    0.0142   -0.0772    0.0036
           7   -0.0397   -0.1404    0.0090    0.0062   -0.0516    0.0001   -0.0321    0.0158
           8   -0.0048   -0.0035    0.0300    0.0056   -0.0491    0.0016    0.0416   -0.0038
           9    0.0559   -0.0242   -0.0711   -0.0479    0.1501   -0.0003    0.0178   -0.0042
          10   -0.0535   -0.1373    0.0226    0.0092   -0.0676   -0.0031   -0.0542    0.0186
          11    0.0058    0.0412    0.0162    0.0078   -0.1552    0.0049    0.3452   -0.0145
          12    0.2267   -0.1255   -0.2632   -0.1022    0.4404    0.0484    0.1579   -0.0442
          13   -0.0555   -0.1725    0.0140    0.0017    0.0699   -0.0072   -0.3075    0.0239
          14   -0.0123   -0.0233    0.0348    0.0035    0.0123   -0.0027   -0.1022    0.0008
          15    0.0496   -0.1591    0.1166   -0.0314   -0.1451    0.0269   -0.2379    0.0379
          16   -0.0140   -0.0378   -0.0017   -0.0611    0.0704   -0.0137   -0.0416    0.0005
          17   -0.0059   -0.0803    0.0467    0.0572   -0.2448    0.0235    0.4039   -0.0029
          18   -0.0174    0.0547   -0.0363   -0.0313    0.2129   -0.0395    0.1488   -0.0180
          19   -0.0182   -0.1174   -0.0053    0.0003   -0.1207    0.0072    0.1980    0.0063
          20   -0.0093   -0.0337    0.0405    0.0085   -0.0157    0.0018   -0.0912    0.0014
          21   -0.0757    0.1784   -0.1000   -0.0322    0.2121   -0.0755    0.0974   -0.0037
          22   -0.0049   -0.1225   -0.0136   -0.0000   -0.1209    0.0091    0.1787    0.0076
          23   -0.0222   -0.0771    0.0492    0.0181    0.0086    0.0205   -0.2490    0.0055
          24   -0.2365    0.2197    0.0334   -0.0313    0.2689   -0.1317    0.1082   -0.0039
          25   -0.2039    0.5075    0.4475    0.0087   -0.0429   -0.1945   -0.0151   -0.0391
          26   -0.2142    0.0928    0.0009   -0.0517    0.0516    0.4513    0.0010   -0.0086
          27   -0.0981   -0.1003    0.0070    0.0599   -0.0409   -0.3951   -0.0104    0.0141
          28   -0.0137   -0.0380   -0.0040   -0.0575    0.0533   -0.0120   -0.0131    0.0004
          29   -0.0026   -0.0373    0.0358    0.0214   -0.0945    0.0098    0.0488   -0.0004
          30    0.0173    0.1415   -0.1890    0.0213   -0.1017    0.0064   -0.0327    0.0005
          31   -0.0125   -0.0076   -0.0042   -0.0938    0.2033   -0.0245   -0.3298    0.0020
          32    0.0013   -0.0229    0.0312    0.0080   -0.0498    0.0093   -0.1053    0.0011
          33    0.0645    0.1373   -0.2574    0.0724   -0.4393    0.0813   -0.2564    0.0165
          34   -0.0938    0.0161   -0.0956    0.2558    0.0843    0.1018    0.0059    0.1057
          35    0.0287    0.0096   -0.0091   -0.0194    0.0222   -0.0638   -0.0019    0.0303
          36    0.0286   -0.0260    0.1000   -0.0068    0.0032    0.0318    0.0030   -0.0002
          37   -0.0085   -0.0321   -0.0462    0.1685    0.0277    0.0467   -0.0019    0.0063
          38    0.0027   -0.0047   -0.0145   -0.0101    0.0173   -0.0357    0.0005    0.0258
          39    0.0136   -0.0378    0.0981   -0.0076   -0.0058    0.0503    0.0041   -0.0130
          40    0.0945   -0.0721    0.0380    0.1891   -0.0141   -0.0251   -0.0109   -0.1014
          41   -0.0055    0.0016   -0.0235   -0.0141    0.0212   -0.0333    0.0011    0.0344
          42   -0.0119   -0.0577    0.0958   -0.0151   -0.0210    0.0873    0.0060   -0.0302
          43    0.0348   -0.0155    0.0290    0.0025   -0.0083    0.0475    0.0014    0.1580
          44    0.0195    0.0161   -0.0220    0.0064    0.0322   -0.0647   -0.0016    0.0211
          45   -0.0183   -0.0682    0.0969   -0.0084   -0.0248    0.0982    0.0063   -0.0418
          46   -0.0723    0.0419   -0.0460   -0.0834    0.0097    0.0296   -0.0065   -0.0171
          47    0.0473    0.0292   -0.0151    0.0194    0.0435   -0.0906   -0.0025    0.0539
          48   -0.0020   -0.0556    0.0984   -0.0046   -0.0169    0.0766    0.0050   -0.0244
          49   -0.1055    0.0366   -0.0888    0.1366    0.0419    0.0127   -0.0072   -0.1108
          50    0.0473    0.0274   -0.0102   -0.0065    0.0346   -0.0762   -0.0021    0.0589
          51    0.0202   -0.0348    0.0977   -0.0057    0.0004    0.0359    0.0039    0.0014
          52   -0.1498    0.0343   -0.1512    0.4309    0.1708    0.2133    0.0249    0.3785
          53    0.0340    0.0065   -0.0036   -0.0382    0.0128   -0.0753   -0.0038    0.0014
          54    0.0449   -0.0068    0.1007   -0.0157    0.0072    0.0115    0.0008    0.0011
          55    0.0699   -0.0179    0.0694   -0.0867   -0.0187    0.0917    0.0168    0.4679
          56    0.0188    0.0183   -0.0257    0.0159    0.0354   -0.0767   -0.0036   -0.0083
          57   -0.0368   -0.0827    0.0911   -0.0080   -0.0378    0.1300    0.0078   -0.0654
          58   -0.1159    0.0787   -0.0659   -0.2955   -0.0019    0.0181   -0.0102   -0.1137
          59    0.0663    0.0419   -0.0148    0.0460    0.0598   -0.1318   -0.0037    0.0906
          60   -0.0061   -0.0630    0.0991    0.0016   -0.0225    0.0925    0.0058   -0.0314
          61   -0.0242   -0.0327   -0.0754   -0.1429   -0.0314   -0.0055    0.0002   -0.0003
          62   -0.0162   -0.0236   -0.0158    0.0063    0.0108   -0.0488    0.0017    0.0116
          63    0.0229   -0.0283    0.1003    0.0039    0.0007    0.0613    0.0035   -0.0053
          64    0.0203   -0.0188   -0.0063   -0.1933   -0.0586   -0.0273   -0.0012   -0.0072
          65   -0.0295   -0.0356   -0.0212    0.0110    0.0074   -0.0664    0.0026    0.0031
          66    0.0108   -0.0392    0.0958    0.0087   -0.0029    0.0502    0.0043   -0.0138
          67   -0.0558   -0.0398   -0.1280   -0.3200   -0.0578   -0.0351    0.0017   -0.0027
          68   -0.0606   -0.0367   -0.0854   -0.1542   -0.0087   -0.0808    0.0037    0.0100
          69    0.0430   -0.0134    0.1170   -0.1761   -0.0388    0.0441    0.0031   -0.0063
          70   -0.0529   -0.0395   -0.1226   -0.2915   -0.0534   -0.0262    0.0015   -0.0040
          71    0.0268   -0.0142    0.0559    0.1814    0.0326   -0.0346   -0.0001    0.0141
          72    0.0238   -0.0246    0.0926    0.1953    0.0486    0.1228    0.0028    0.0093
          73    0.1957   -0.1308    0.0974    0.2941   -0.0472   -0.1329   -0.0249   -0.3700
          74   -0.0320   -0.0027   -0.0323   -0.0269    0.0182    0.0000    0.0039    0.0579
          75   -0.0261   -0.0639    0.0926   -0.0188   -0.0253    0.1094    0.0075   -0.0277
          76    0.7367    0.2312    0.0456   -0.0176    0.0574   -0.0380    0.0113    0.0730
          77   -0.0521    0.0244   -0.0261   -0.0320    0.0476    0.2631   -0.0041   -0.2994
          78   -0.1762   -0.0547    0.0192    0.0472   -0.0437   -0.2956   -0.0084    0.2252
          79    0.0986    0.3512    0.2484   -0.0040   -0.0146    0.1010    0.0008   -0.0435
          80    0.1130    0.0290   -0.0648   -0.0411    0.0715    0.2053   -0.0015   -0.1612
          81    0.0369   -0.1626   -0.0774    0.0536   -0.0259   -0.2739   -0.0036    0.0157
          82   -0.1262    0.0255   -0.1582    0.1904    0.0738   -0.1309   -0.0188   -0.4575
          83    0.0580    0.0343   -0.0096   -0.0013    0.0419   -0.1072   -0.0027    0.0821
          84    0.0302   -0.0302    0.0964   -0.0068    0.0058    0.0547    0.0043    0.0108


   Root No.      17        18        19        20        21        22        23        24

                17 A      18 A      19 A      20 A      21 A      22 A      23 A      24 A   

                   0.1       0.2       0.2       0.3       0.4       0.4       0.7       0.7
  
           1   -0.0004    0.0024   -0.0041    0.0379    0.0038    0.1506    0.0031    0.0031
           2   -0.0061    0.0045    0.0018   -0.0210   -0.0016    0.0703    0.0032    0.0052
           3   -0.0067   -0.0019    0.0131   -0.1897    0.0023    0.0038   -0.0209   -0.0270
           4   -0.0006    0.0022   -0.0044    0.0353    0.0034    0.1473    0.0058    0.0063
           5   -0.0071    0.0036    0.0028   -0.0328   -0.0001    0.3977    0.0632    0.0790
           6    0.0011   -0.0020    0.0225   -0.3857    0.0056    0.0326    0.0446    0.0558
           7   -0.0073    0.0019    0.0018   -0.0150   -0.0026   -0.1143    0.0059    0.0119
           8   -0.0049    0.0052   -0.0006   -0.0091   -0.0030   -0.1526   -0.0317   -0.0382
           9    0.0132    0.0016    0.0009    0.0283    0.0072   -0.0051   -0.0327   -0.0477
          10   -0.0067    0.0019    0.0033   -0.0307   -0.0004   -0.0910   -0.0032   -0.0003
          11    0.0008    0.0054   -0.0081    0.0129   -0.0074   -0.4754   -0.0404   -0.0481
          12    0.0116   -0.0013   -0.0089    0.2485   -0.0124   -0.0278    0.0598    0.0777
          13   -0.0128    0.0007    0.0095   -0.0293    0.0029    0.1616   -0.0154   -0.0173
          14   -0.0073    0.0046    0.0036   -0.0165    0.0002   -0.0238   -0.0457   -0.0575
          15    0.0342    0.0103    0.0065   -0.1195    0.0260    0.0514   -0.0624   -0.0861
          16   -0.0027   -0.0004   -0.0036   -0.0028   -0.0000    0.1082    0.0129    0.0154
          17   -0.0046    0.0118    0.0027    0.0451    0.0087    0.4818    0.0463    0.0559
          18   -0.0235    0.0030    0.0255   -0.4592    0.0018    0.0001    0.0249    0.0296
          19   -0.0006    0.0023   -0.0035    0.0112   -0.0012   -0.1970   -0.0161   -0.0178
          20   -0.0068    0.0050    0.0029   -0.0204   -0.0030   -0.0894   -0.0166   -0.0185
          21   -0.0097   -0.0015    0.0079   -0.0020    0.0029   -0.0054   -0.0670   -0.0834
          22   -0.0021    0.0030   -0.0013   -0.0234   -0.0002   -0.1992   -0.0282   -0.0324
          23   -0.0070    0.0063   -0.0002   -0.0402   -0.0130   -0.3359    0.0872    0.1111
          24    0.0010   -0.0126   -0.0061    0.4210   -0.0062    0.0037    0.0148    0.0282
          25    0.1102   -0.0981   -0.0080    0.0086    0.0142    0.0204   -0.1770   -0.1956
          26   -0.2781    0.2451    0.1435    0.0092   -0.0117   -0.0015    0.0160    0.0143
          27    0.2235   -0.2048   -0.1229   -0.0108    0.0082    0.0055   -0.0354   -0.0392
          28   -0.0024    0.0000   -0.0039    0.0087    0.0007    0.1418    0.0155    0.0185
          29   -0.0047    0.0060    0.0012    0.0075    0.0003    0.0903   -0.0004    0.0008
          30   -0.0009   -0.0022    0.0015   -0.0207    0.0009   -0.0020   -0.0052   -0.0077
          31   -0.0032   -0.0041   -0.0037   -0.0352   -0.0052   -0.1010   -0.0076   -0.0066
          32   -0.0037    0.0045    0.0002    0.0277   -0.0023    0.0018   -0.0098   -0.0092
          33    0.0218   -0.0003   -0.0177    0.5761   -0.0012   -0.0179   -0.0165   -0.0209
          34    0.0080    0.0085   -0.1039   -0.0037   -0.1049    0.0018    0.0383    0.0639
          35   -0.1095   -0.0940    0.0022    0.0067    0.0121   -0.0001   -0.0756    0.0804
          36    0.0568    0.1449    0.0194   -0.0038   -0.0033    0.0001   -0.0113    0.0119
          37   -0.0586    0.0238   -0.2704   -0.0129   -0.3492    0.0153   -0.0282   -0.0599
          38   -0.1392   -0.1819    0.0134    0.0069    0.0424   -0.0021    0.0414   -0.0113
          39    0.0376    0.0958    0.0252   -0.0044    0.0072   -0.0008    0.0909   -0.0860
          40   -0.0564    0.0155   -0.0866   -0.0053   -0.1054    0.0022    0.0284    0.0283
          41   -0.1292   -0.1640   -0.0038    0.0062    0.0161   -0.0007    0.0320   -0.0180
          42    0.0071    0.0163    0.0161   -0.0077    0.0015   -0.0016   -0.0902    0.0523
          43    0.0583   -0.0504    0.0432   -0.0043   -0.1231   -0.0011    0.0520    0.0698
          44   -0.0786   -0.0365   -0.0001    0.0058    0.0170    0.0005   -0.0069   -0.0151
          45   -0.0326   -0.0468    0.0056   -0.0075    0.0038   -0.0018   -0.0993    0.0676
          46   -0.0460    0.0399   -0.1313   -0.0048   -0.0536   -0.0028    0.0696    0.1112
          47   -0.0346    0.0351    0.0272    0.0072    0.0049    0.0011   -0.0763    0.0477
          48   -0.0046    0.0137    0.0161   -0.0061   -0.0035   -0.0014   -0.1289    0.1025
          49   -0.0546    0.0471    0.0574    0.0017   -0.1145   -0.0131    0.1344    0.1779
          50   -0.0366    0.0263    0.0046    0.0045    0.0101    0.0018   -0.1017    0.0515
          51    0.0408    0.1024    0.0095   -0.0025   -0.0019    0.0002   -0.0197    0.0304
          52    0.1256   -0.0430   -0.0294    0.0062    0.4932    0.0012   -0.0719   -0.0447
          53   -0.1269   -0.0997   -0.0088    0.0059   -0.0511    0.0000   -0.0560    0.0917
          54    0.1202    0.3079    0.0456   -0.0058   -0.0331    0.0014   -0.2607    0.1836
          55    0.2402   -0.1958    0.4082    0.0042   -0.0661   -0.0019   -0.0580   -0.0699
          56   -0.0935   -0.0083   -0.0336    0.0058    0.0131    0.0005   -0.0041    0.0067
          57   -0.0873   -0.1638   -0.0178   -0.0102   -0.0017   -0.0019   -0.0703    0.0437
          58   -0.1200    0.1106   -0.4363   -0.0070    0.3511    0.0076   -0.1113   -0.1216
          59    0.0084    0.1245    0.0653    0.0140   -0.0390    0.0001    0.0217    0.0845
          60   -0.0144   -0.0245    0.0264   -0.0088   -0.0182   -0.0020   -0.1720    0.1229
          61   -0.0132    0.0144   -0.0805   -0.0050   -0.1466    0.0080   -0.0332   -0.0690
          62    0.0553    0.0737    0.0054    0.0026    0.0161   -0.0022    0.0751   -0.0499
          63   -0.0569   -0.0215    0.0191   -0.0028    0.0073   -0.0004    0.1235   -0.1126
          64    0.0225    0.0287    0.0255   -0.0019   -0.0484    0.0022   -0.0277   -0.0821
          65    0.2417    0.3400    0.0019   -0.0015   -0.0135   -0.0012    0.1513   -0.1520
          66    0.0938    0.1944    0.0155   -0.0065   -0.0184    0.0004    0.1990   -0.2115
          67    0.0089    0.0065    0.0452    0.0011    0.0060   -0.0001    0.1037   -0.0826
          68    0.1246    0.1425    0.0953    0.0066    0.1167   -0.0071    0.1741   -0.0831
          69   -0.1787   -0.2478    0.2247    0.0087    0.3153   -0.0179    0.4088   -0.0899
          70   -0.0037   -0.0059    0.0179   -0.0007   -0.0324    0.0018   -0.0730    0.0324
          71    0.0926    0.1598   -0.0916   -0.0025   -0.0991    0.0035    0.1381   -0.1507
          72   -0.2532   -0.2221   -0.1866   -0.0086   -0.2623    0.0169    0.1813   -0.4221
          73   -0.1197    0.0540    0.0419    0.0070    0.4498   -0.0127   -0.0296    0.0368
          74   -0.1686   -0.2650   -0.0281    0.0044   -0.0452    0.0004   -0.1508    0.1676
          75   -0.0258   -0.0563    0.0044   -0.0089   -0.0142   -0.0015   -0.2424    0.1982
          76   -0.0857    0.0476   -0.0005    0.0140    0.0011    0.0161   -0.1016   -0.1073
          77    0.4794   -0.2919   -0.1339   -0.0229    0.0030   -0.0009    0.0651    0.0611
          78   -0.2711    0.1417    0.0345    0.0061   -0.0003   -0.0036   -0.0091    0.0027
          79    0.0475    0.0030   -0.0476    0.0141   -0.0291   -0.0619    0.3984    0.4366
          80    0.2007   -0.1257   -0.0194   -0.0149    0.0168    0.0419   -0.2290   -0.2576
          81    0.1933   -0.1592   -0.1382   -0.0080   -0.0087   -0.0281    0.1868    0.2066
          82   -0.0245   -0.0164    0.5648    0.0322   -0.1430    0.0099   -0.0862   -0.1050
          83    0.0435    0.0631   -0.0456    0.0027    0.0128    0.0009   -0.0697    0.0516
          84    0.1094    0.1368   -0.0418   -0.0095   -0.0047    0.0031    0.0095    0.0203


   Root No.      25        26        27        28        29        30        31        32

                25 A      26 A      27 A      28 A      29 A      30 A      31 A      32 A   

                   0.8       0.8       0.9       0.9       0.9       1.0       1.1       1.1
  
           1   -0.0011   -0.0001    0.0003    0.0024    0.0106    0.0052   -0.0018    0.0017
           2    0.0113    0.0008    0.0021   -0.0036   -0.0697   -0.0160   -0.0011    0.0332
           3    0.0999    0.0123    0.0515    0.3314   -0.0345   -0.0705    0.0218   -0.0611
           4   -0.0034   -0.0004   -0.0006    0.0026    0.0215    0.0067   -0.0014   -0.0012
           5   -0.0405   -0.0067   -0.0164    0.1217    0.5285    0.0983   -0.0251    0.1257
           6   -0.1306   -0.0165   -0.0677   -0.4042    0.0031    0.0627   -0.0165    0.0396
           7   -0.0131   -0.0022   -0.0087   -0.0074    0.0667    0.0049    0.0032    0.0048
           8    0.0364    0.0039    0.0115    0.0206   -0.0432    0.0132   -0.0219    0.1174
           9    0.0535    0.0091    0.0380    0.1810   -0.0253   -0.0101   -0.0032   -0.0261
          10   -0.0008   -0.0003   -0.0015    0.0207    0.0529    0.0033    0.0008    0.0133
          11    0.0204    0.0016    0.0041    0.0280    0.1065    0.0407   -0.0188    0.0757
          12   -0.0720   -0.0100   -0.0378   -0.1743    0.0220    0.0149   -0.0011    0.0269
          13    0.0348    0.0047    0.0140    0.0337   -0.0801    0.0024   -0.0229    0.1414
          14    0.0619    0.0079    0.0249    0.0465   -0.1179    0.0151   -0.0374    0.1909
          15    0.0146    0.0042    0.0100   -0.0353   -0.0245    0.0412   -0.0196    0.0399
          16   -0.0111   -0.0018   -0.0043    0.0229    0.1347    0.0287   -0.0030   -0.0214
          17   -0.0391   -0.0037   -0.0093   -0.0567   -0.1545   -0.0719    0.0505   -0.2754
          18   -0.0716   -0.0088   -0.0357   -0.2029    0.0359    0.0451   -0.0164    0.0475
          19   -0.0013   -0.0004   -0.0035   -0.0256    0.0260    0.0188   -0.0100    0.0539
          20    0.0216    0.0022    0.0062    0.0113   -0.0361    0.0033   -0.0128    0.0786
          21    0.1719    0.0217    0.0860    0.5056   -0.0453   -0.0854    0.0227   -0.0794
          22    0.0213    0.0023    0.0067    0.0396    0.0474    0.0144   -0.0076    0.0424
          23   -0.1293   -0.0157   -0.0460   -0.0401    0.3842    0.0171    0.0584   -0.3903
          24   -0.1009   -0.0145   -0.0652   -0.3700    0.0317    0.0583   -0.0147    0.0547
          25    0.1056    0.0067   -0.0074   -0.0974    0.0611    0.0474   -0.0004   -0.0149
          26   -0.0243    0.0003    0.0067    0.0059   -0.0104    0.0074   -0.0253   -0.0029
          27    0.0365    0.0009   -0.0058   -0.0298    0.0182    0.0216    0.0216   -0.0010
          28   -0.0110   -0.0018   -0.0037    0.0318    0.1373    0.0247    0.0003   -0.0370
          29    0.0116    0.0011    0.0020   -0.0346   -0.1516   -0.0298   -0.0003    0.0473
          30    0.0447    0.0049    0.0206    0.1469   -0.0202   -0.0385    0.0155   -0.0386
          31    0.0115    0.0011   -0.0002   -0.1108   -0.4054   -0.1120    0.0473   -0.1975
          32    0.0198    0.0021    0.0021   -0.1165   -0.4250   -0.0961    0.0206   -0.0153
          33    0.0076    0.0006    0.0024    0.0197    0.0423    0.0169   -0.0087    0.0114
          34    0.1444    0.0075    0.0003   -0.0241    0.0033    0.0095   -0.0045   -0.0365
          35   -0.0232    0.0221    0.0074    0.0121   -0.0076   -0.0276   -0.0578   -0.0009
          36   -0.0061   -0.0075    0.0154    0.0088   -0.0146    0.0436   -0.1181   -0.0094
          37    0.0570    0.0101   -0.0014   -0.0319    0.0124    0.0271    0.0121   -0.2192
          38   -0.0059    0.0196   -0.0061    0.0042    0.0026   -0.0488    0.0228    0.0310
          39   -0.0024    0.0145   -0.0032   -0.0013   -0.0001    0.0059   -0.0471   -0.0025
          40    0.2151    0.0242    0.0045   -0.0660    0.0223    0.0321    0.0211   -0.0122
          41   -0.0236    0.0431    0.0284   -0.0032    0.0113   -0.0765    0.0685    0.0171
          42   -0.0101   -0.0295   -0.0522    0.0061    0.0019   -0.0158   -0.1068   -0.0286
          43    0.2800    0.0194   -0.0077   -0.0730    0.0253    0.0102    0.0042    0.1542
          44   -0.0210    0.0069   -0.0502   -0.0106    0.0363   -0.1891    0.0114   -0.0141
          45   -0.0107   -0.0220   -0.0375    0.0083   -0.0032   -0.0026   -0.0989   -0.0268
          46    0.2749    0.0109   -0.0178   -0.0517    0.0134   -0.0001   -0.0172    0.2067
          47   -0.0317   -0.0097   -0.0607    0.0075    0.0118   -0.0976   -0.0536   -0.0333
          48   -0.0217   -0.0348   -0.0354    0.0223   -0.0211    0.0500   -0.1425   -0.0401
          49    0.1981    0.0016   -0.0076   -0.0095   -0.0012   -0.0327   -0.0218    0.1438
          50   -0.0188   -0.0114   -0.0361   -0.0077    0.0224   -0.1081   -0.0113   -0.0229
          51   -0.0235    0.0074    0.0623    0.0192   -0.0337    0.1065   -0.1433   -0.0181
          52   -0.0510   -0.0038    0.0005   -0.0012    0.0046   -0.0070    0.0101    0.0377
          53   -0.0028    0.0475    0.0090    0.0126   -0.0122   -0.0238   -0.1353   -0.0153
          54    0.0219   -0.2946    0.0353   -0.0259    0.0423   -0.1105    0.6923    0.0699
          55   -0.2483   -0.0118    0.0044    0.0526   -0.0087   -0.0503   -0.0026   -0.1239
          56    0.0294   -0.0061   -0.1580   -0.0007    0.0281   -0.1742   -0.0124    0.0070
          57    0.0064    0.1348    0.7023   -0.1786    0.1318   -0.3377    0.0974    0.0261
          58   -0.2197    0.0081    0.0504    0.0305   -0.0132    0.0422   -0.0038   -0.1483
          59   -0.0866    0.1976    0.4799    0.0166   -0.0975    0.4917   -0.0467   -0.0256
          60    0.0331   -0.1188   -0.2513    0.0148    0.0213   -0.1818   -0.1930   -0.0274
          61   -0.0670   -0.0091   -0.0012    0.0033    0.0023    0.0076    0.0079   -0.1909
          62    0.0104   -0.0599   -0.0009    0.0003    0.0025   -0.0280    0.0373    0.0290
          63   -0.0023    0.0594   -0.0292    0.0004   -0.0004    0.0079   -0.0179    0.0000
          64   -0.2460   -0.0103   -0.0097    0.0683   -0.0196   -0.0505   -0.0117    0.4109
          65   -0.0136    0.3757   -0.1426   -0.0023    0.0175   -0.0596    0.1769    0.0178
          66   -0.0222    0.4569   -0.1598   -0.0029    0.0136   -0.0174    0.0995   -0.0170
          67    0.0403   -0.2774    0.0471   -0.0028   -0.0157    0.1193   -0.0229   -0.1108
          68    0.0306   -0.3721    0.0707    0.0175   -0.0268    0.0884   -0.0532    0.2183
          69    0.3817   -0.0312   -0.0653   -0.0787    0.0207    0.0726    0.1606   -0.1577
          70   -0.0344    0.2365   -0.0463   -0.0061    0.0191   -0.0943    0.0374   -0.0558
          71    0.0353   -0.3870    0.0731   -0.0053   -0.0167    0.1277   -0.0328   -0.2566
          72   -0.3391   -0.1701   -0.0534    0.0877   -0.0271    0.0001    0.1291    0.1981
          73   -0.1269    0.0042   -0.0213    0.0483   -0.0229    0.0245    0.0228    0.0379
          74   -0.0030    0.1421   -0.1519    0.0716   -0.0847    0.3707    0.2884    0.0483
          75   -0.0135    0.0345   -0.1941    0.0696   -0.0740    0.3300    0.0157   -0.0137
          76    0.0675    0.0040   -0.0050   -0.0604    0.0338    0.0235   -0.0062   -0.0045
          77   -0.0187   -0.0022    0.0032    0.0387   -0.0252    0.0008    0.0300    0.0134
          78   -0.0009   -0.0011   -0.0064    0.0077    0.0042   -0.0274   -0.0073   -0.0029
          79   -0.2668   -0.0181    0.0075    0.1847   -0.1224   -0.0965    0.0101    0.0168
          80    0.1544    0.0098   -0.0013   -0.0907    0.0598    0.0591    0.0042   -0.0056
          81   -0.1037   -0.0081   -0.0007    0.0825   -0.0496   -0.0399    0.0217    0.0084
          82   -0.1484   -0.0039    0.0121    0.0268   -0.0055   -0.0092   -0.0396   -0.0911
          83    0.0392   -0.0100   -0.0518   -0.0432    0.0674   -0.2864   -0.2234    0.0075
          84    0.0597    0.0064    0.0769   -0.0083   -0.0155    0.0604   -0.3429    0.0278


   Root No.      33        34        35        36        37        38        39        40

                33 A      34 A      35 A      36 A      37 A      38 A      39 A      40 A   

                   1.1       1.2       1.4       1.5       1.5       1.6       1.7       1.9
  
           1   -0.0026   -0.0014   -0.0026   -0.0661   -0.0578    0.0096    0.0401   -0.1187
           2   -0.0366    0.0061   -0.0021   -0.0301   -0.0451    0.0130    0.0578   -0.0704
           3    0.0659    0.0013   -0.0002    0.0592    0.0048    0.0218    0.3562    0.0217
           4    0.0012   -0.0017   -0.0023   -0.0864   -0.0786    0.0138    0.0618   -0.1837
           5   -0.1375    0.0138   -0.0111    0.3737    0.3188   -0.0397   -0.0416    0.0544
           6   -0.0376   -0.0027    0.0029   -0.0522   -0.0234   -0.0087   -0.1701   -0.0117
           7   -0.0009    0.0048    0.0023    0.1779    0.1371   -0.0140   -0.0043    0.0241
           8   -0.1371    0.0107   -0.0035   -0.1284   -0.1173    0.0172    0.0136    0.0343
           9    0.0097   -0.0044   -0.0146   -0.0504    0.0313   -0.0283   -0.2906   -0.0249
          10   -0.0144    0.0055   -0.0006    0.1683    0.1371   -0.0163   -0.0326    0.0228
          11   -0.0837    0.0034   -0.0037    0.0597    0.0652   -0.0135   -0.0539    0.1265
          12   -0.0207    0.0035    0.0056    0.0412    0.0040    0.0095    0.1157    0.0178
          13   -0.1725    0.0169   -0.0040   -0.0933   -0.0915    0.0137   -0.0119    0.0716
          14   -0.2316    0.0160   -0.0080   -0.2942   -0.2519    0.0326    0.0097    0.0673
          15   -0.0511   -0.0031    0.0030   -0.0440   -0.0244    0.0026    0.1074    0.0388
          16    0.0277   -0.0094    0.0033   -0.2526   -0.2140    0.0271    0.0260   -0.0232
          17    0.3189   -0.0288    0.0142   -0.0375   -0.0028   -0.0113   -0.0968    0.1964
          18   -0.0549    0.0014   -0.0035   -0.0271    0.0057   -0.0151   -0.2511   -0.0428
          19   -0.0612    0.0062   -0.0022    0.0967    0.0800   -0.0089    0.0156    0.0193
          20   -0.0921    0.0086   -0.0028   -0.0641   -0.0644    0.0114    0.0084    0.0145
          21    0.0793   -0.0024   -0.0074   -0.0093    0.0148   -0.0172   -0.3719   -0.0800
          22   -0.0471    0.0052   -0.0008    0.1274    0.1096   -0.0147   -0.0238    0.0142
          23    0.4609   -0.0467    0.0245   -0.1524   -0.1093    0.0091    0.0345   -0.0866
          24   -0.0457    0.0013    0.0106    0.0271    0.0021    0.0072    0.1415    0.0288
          25    0.0708   -0.0197    0.0471    0.0353   -0.0193    0.0070    0.0113    0.0001
          26   -0.0065    0.0156    0.0059   -0.0034    0.0062   -0.0057    0.0161    0.0091
          27    0.0228   -0.0389    0.0316    0.0251   -0.0202    0.0134    0.0086    0.0168
          28    0.0462   -0.0106    0.0036   -0.1968   -0.1622    0.0190    0.0171    0.0174
          29   -0.0549    0.0109   -0.0056    0.0590    0.0250    0.0074    0.0904   -0.1598
          30    0.0486   -0.0005    0.0063    0.0660   -0.0089    0.0335    0.6014    0.0938
          31    0.2377   -0.0167    0.0037    0.1425    0.1389   -0.0255   -0.0774    0.1552
          32    0.0200    0.0110   -0.0082    0.2519    0.1952   -0.0176    0.0024   -0.1893
          33   -0.0170   -0.0015   -0.0036   -0.0545   -0.0109   -0.0161   -0.2981   -0.0290
          34   -0.0381    0.0154    0.2748    0.1465   -0.1829    0.0617   -0.0441   -0.1544
          35   -0.0300   -0.2014    0.1350   -0.1098    0.1475    0.0854    0.0129   -0.0322
          36    0.0106   -0.0148    0.0509   -0.0495    0.0644    0.0017    0.0055    0.0873
          37   -0.1717    0.0180   -0.0056   -0.0137    0.0166   -0.0095   -0.0026   -0.0963
          38   -0.0039   -0.0561    0.0834   -0.0532    0.0508   -0.0145   -0.0041    0.0974
          39    0.0116    0.0219   -0.0343    0.0144   -0.0211   -0.0074   -0.0087    0.1522
          40    0.0093   -0.0591   -0.3020   -0.1853    0.2236   -0.0623    0.0363   -0.0756
          41   -0.0244   -0.0099    0.1162   -0.0487    0.0437    0.0331   -0.0143    0.1416
          42   -0.0004   -0.0702   -0.1765    0.1577   -0.1952   -0.0687   -0.0147    0.0396
          43    0.1455   -0.0939   -0.3122   -0.1362    0.1535   -0.0447    0.0221    0.0891
          44   -0.0414    0.0184   -0.1261    0.1159   -0.1678    0.0422   -0.0452    0.2035
          45   -0.0080   -0.0930   -0.0705    0.0750   -0.0889   -0.0452   -0.0025    0.0064
          46    0.1741   -0.0735    0.0019    0.0396   -0.0603    0.0296   -0.0164    0.1287
          47   -0.0410   -0.0601   -0.0630    0.0238   -0.0228    0.0704   -0.0038   -0.0637
          48   -0.0218   -0.2185    0.0238    0.0009    0.0240   -0.0015    0.0216   -0.1437
          49    0.1041    0.0349    0.3579    0.2154   -0.2504    0.0747   -0.0385   -0.0166
          50   -0.0325   -0.0718   -0.0821    0.0100    0.0017    0.0776    0.0044   -0.1038
          51    0.0004   -0.0752    0.1246   -0.1037    0.1259   -0.0268    0.0104    0.0985
          52    0.0308   -0.0670   -0.1371   -0.1130    0.1367   -0.0140    0.0205    0.0548
          53   -0.0404   -0.2515    0.2497   -0.1207    0.1700    0.1348    0.0109   -0.0744
          54   -0.0728   -0.0264    0.1044   -0.0649    0.0509   -0.0232   -0.0006    0.0283
          55   -0.1151    0.0668    0.1526    0.1061   -0.1170    0.0328   -0.0154   -0.0055
          56   -0.0239   -0.0312   -0.2411    0.1381   -0.2115    0.0319   -0.0623    0.3455
          57    0.0055    0.1486   -0.0612    0.0170   -0.0114    0.1034   -0.0024   -0.0508
          58   -0.1124    0.0026   -0.0378   -0.0140    0.0304   -0.0202    0.0138   -0.0895
          59    0.0444   -0.2073   -0.1354    0.1437   -0.1537   -0.0814    0.0057   -0.0923
          60   -0.0398   -0.2387    0.0500   -0.0362    0.0720    0.0723    0.0248   -0.2164
          61   -0.1560    0.0324    0.0177    0.0065   -0.0058   -0.0348    0.0056    0.1153
          62    0.0008   -0.0575    0.0545   -0.0088   -0.0374   -0.3894    0.0177    0.0337
          63    0.0092    0.0189   -0.0235   -0.0035    0.0194    0.1694   -0.0175    0.1554
          64    0.3274   -0.0533   -0.0203   -0.0098    0.0115    0.0367   -0.0070   -0.0868
          65   -0.0223   -0.0477    0.0580   -0.0102   -0.0005   -0.1955    0.0283   -0.2129
          66   -0.0114    0.0443   -0.0489    0.0035    0.0574    0.5008   -0.0233    0.0078
          67   -0.0521    0.0899   -0.0584    0.0182    0.0290    0.3376   -0.0096   -0.0638
          68    0.2045    0.0044   -0.0356   -0.0082    0.0190    0.0975   -0.0128   -0.0800
          69   -0.1344   -0.0040    0.0145    0.0126   -0.0310   -0.2189    0.0236   -0.2110
          70   -0.0814   -0.0592    0.0727   -0.0151   -0.0315   -0.3762    0.0141    0.1641
          71   -0.1770    0.0859   -0.0076    0.0106    0.0092    0.0734    0.0033    0.1308
          72    0.1421   -0.0193    0.0115    0.0212   -0.0354   -0.1980    0.0292   -0.1090
          73    0.0250    0.0797    0.1848    0.0973   -0.1112    0.0466   -0.0187    0.0374
          74    0.0650    0.3731    0.0978   -0.1478    0.1827    0.1014    0.0075    0.0357
          75    0.0727    0.2064   -0.2473    0.1775   -0.2045   -0.0487   -0.0058   -0.0683
          76    0.0409   -0.0034    0.0338    0.0257   -0.0209    0.0065    0.0073   -0.0038
          77   -0.0251   -0.0351   -0.0128    0.0048   -0.0139    0.0124   -0.0121   -0.0069
          78   -0.0017    0.0279   -0.0201   -0.0130    0.0099   -0.0059   -0.0091   -0.0194
          79   -0.1500    0.0327   -0.1133   -0.0877    0.0538   -0.0172   -0.0138    0.0069
          80    0.0713   -0.0302    0.0514    0.0350   -0.0216    0.0077   -0.0038   -0.0045
          81   -0.0552   -0.0081   -0.0336   -0.0153    0.0032    0.0041    0.0002    0.0028
          82   -0.0655    0.0579   -0.1570   -0.1334    0.1457   -0.0580    0.0244   -0.0032
          83    0.0563    0.5572   -0.1420   -0.0084   -0.0151   -0.0897    0.0271   -0.3139
          84    0.0943    0.3459    0.3058   -0.1748    0.1856   -0.2098    0.0201    0.2109


   Root No.      41        42        43        44        45        46        47        48

                41 A      42 A      43 A      44 A      45 A      46 A      47 A      48 A   

                   1.9       1.9       2.0       2.6       2.7       2.9       3.1       3.1
  
           1    0.0550   -0.2130    0.0038    0.0010    0.0227    0.1136   -0.0007    0.0022
           2    0.0313   -0.1146   -0.0018   -0.0024   -0.0506   -0.2201    0.0061   -0.0160
           3   -0.0115   -0.0047   -0.0068   -0.0057   -0.2205    0.0586    0.0196   -0.0718
           4    0.0840   -0.3306    0.0064    0.0021    0.0459    0.2654   -0.0034    0.0089
           5   -0.0216    0.0673    0.0022    0.0019    0.0273    0.1663   -0.0043    0.0099
           6    0.0079    0.0005    0.0033    0.0008    0.0628   -0.0241   -0.0054    0.0218
           7   -0.0101    0.0394   -0.0002   -0.0053   -0.0855   -0.2565    0.0122   -0.0274
           8   -0.0155    0.0822   -0.0061   -0.0014   -0.0241    0.1534   -0.0111    0.0278
           9    0.0133   -0.0500   -0.0057    0.0380    0.7876   -0.1010   -0.0261    0.0529
          10   -0.0094    0.0369   -0.0016   -0.0019   -0.0180   -0.2919    0.0116   -0.0264
          11   -0.0543    0.2208   -0.0014   -0.0025   -0.0072   -0.2683    0.0189   -0.0437
          12   -0.0065    0.0289    0.0108   -0.0101   -0.2117   -0.0075    0.0077   -0.0164
          13   -0.0336    0.1536   -0.0072   -0.0020    0.0144   -0.0273    0.0043   -0.0066
          14   -0.0317    0.1545   -0.0109    0.0008    0.0264    0.3191   -0.0154    0.0395
          15   -0.0171    0.0378    0.0055   -0.0073   -0.1780    0.0452    0.0133   -0.0325
          16    0.0125   -0.0185   -0.0015   -0.0037   -0.0629   -0.3954    0.0120   -0.0289
          17   -0.0874    0.3501   -0.0013   -0.0015   -0.0204   -0.0070   -0.0003   -0.0003
          18    0.0201   -0.0393   -0.0069   -0.0043   -0.1007    0.0260    0.0040   -0.0139
          19   -0.0069    0.0205    0.0016    0.0020    0.0300    0.1597   -0.0074    0.0161
          20   -0.0072    0.0432   -0.0055   -0.0012   -0.0238   -0.0911   -0.0015    0.0046
          21    0.0370   -0.0641   -0.0247   -0.0174   -0.2803    0.0051    0.0021    0.0136
          22   -0.0041    0.0107    0.0033    0.0033    0.0229    0.3980   -0.0222    0.0497
          23    0.0389   -0.1713    0.0142    0.0027    0.0153    0.1587   -0.0042    0.0057
          24   -0.0133    0.0245    0.0127    0.0034    0.0389    0.0346   -0.0022    0.0008
          25   -0.0010   -0.0129   -0.0961   -0.0020    0.0017   -0.0048   -0.0052    0.0132
          26   -0.0176   -0.0105   -0.4702    0.0118    0.0076    0.0033    0.0068   -0.0121
          27   -0.0154   -0.0178   -0.3792    0.0229   -0.0010    0.0018   -0.0055   -0.0055
          28   -0.0052    0.0437   -0.0006   -0.0016   -0.0202   -0.1599    0.0041   -0.0094
          29    0.0708   -0.2868    0.0027    0.0002    0.0064   -0.1323    0.0038   -0.0077
          30   -0.0436    0.0718    0.0212    0.0131    0.3261   -0.0586   -0.0139    0.0515
          31   -0.0641    0.2592    0.0010    0.0007    0.0169    0.1933   -0.0058    0.0132
          32    0.0856   -0.3463    0.0017   -0.0004   -0.0250   -0.0850    0.0066   -0.0177
          33    0.0148   -0.0062   -0.0108   -0.0054   -0.1174    0.0245    0.0038   -0.0132
          34   -0.3085    0.0171    0.0292   -0.0418    0.0586    0.0350    0.1656   -0.2948
          35    0.0544    0.0292    0.0003    0.1642   -0.0083   -0.0033    0.1137    0.0826
          36   -0.0204   -0.0582    0.0007   -0.0256   -0.0117   -0.0009    0.0355   -0.0133
          37   -0.2790   -0.0162    0.0124   -0.0314    0.0250    0.0210    0.1287   -0.2510
          38   -0.0033   -0.0571   -0.0015   -0.0866    0.0043   -0.0032    0.0039    0.0627
          39   -0.0520   -0.1010    0.0009   -0.1954   -0.0043   -0.0021    0.0635    0.0337
          40   -0.3016   -0.0416   -0.0089    0.0436   -0.0574   -0.0417   -0.2093    0.4197
          41   -0.0195   -0.0847   -0.0010   -0.1377    0.0150    0.0041   -0.0627   -0.0602
          42   -0.0162   -0.0233    0.0103    0.0920   -0.0047    0.0006    0.0890    0.0442
          43    0.1429   -0.0174   -0.0122    0.0204    0.0043    0.0104    0.0683   -0.1514
          44   -0.1004   -0.1332    0.0090    0.1137    0.0006    0.0008   -0.0870   -0.0373
          45   -0.0137   -0.0065    0.0044   -0.0117   -0.0011   -0.0009   -0.0177    0.0269
          46    0.3935    0.0316    0.0024   -0.0591    0.0494    0.0300    0.1225   -0.2674
          47   -0.0233    0.0328   -0.0064   -0.0179    0.0001   -0.0027   -0.0831   -0.0199
          48    0.0329    0.0873   -0.0043   -0.1289    0.0015   -0.0015   -0.1214   -0.0191
          49    0.0286    0.0186    0.0136    0.0133   -0.0382   -0.0446   -0.2432    0.5085
          50    0.0335    0.0688   -0.0040   -0.0281    0.0043    0.0017    0.0271   -0.0394
          51   -0.0333   -0.0688   -0.0007    0.0412   -0.0054    0.0051    0.0107   -0.0789
          52    0.1231   -0.0034   -0.0083    0.0564   -0.0167   -0.0096    0.0068    0.0920
          53    0.0175    0.0437    0.0105    0.3566   -0.0089    0.0022    0.4168    0.1514
          54   -0.0128   -0.0170   -0.0002    0.0415   -0.0041    0.0021    0.0419    0.0269
          55   -0.1013   -0.0216    0.0076    0.0227   -0.0048   -0.0042   -0.0530    0.0371
          56   -0.1301   -0.2183    0.0113    0.2285    0.0011    0.0061   -0.2291   -0.1557
          57    0.0301    0.0396   -0.0028    0.0685   -0.0009    0.0007   -0.0316   -0.0377
          58   -0.1901   -0.0008   -0.0006   -0.0073   -0.0145   -0.0084   -0.0659    0.0591
          59    0.0524    0.0652    0.0030   -0.1355    0.0089    0.0001   -0.1617   -0.0432
          60    0.0814    0.1424   -0.0153   -0.2705    0.0147    0.0000   -0.3775   -0.1452
          61    0.2676    0.0007   -0.0091   -0.0112   -0.0068   -0.0068   -0.0153    0.0605
          62   -0.0388   -0.0336   -0.0019   -0.1392    0.0066   -0.0020    0.0953    0.0429
          63   -0.0669   -0.1057    0.0019   -0.2867   -0.0019   -0.0032    0.1852    0.1132
          64   -0.1886    0.0016    0.0065    0.0073    0.0058    0.0021    0.0093   -0.0295
          65    0.0886    0.1431   -0.0038    0.2839    0.0042    0.0032   -0.1768   -0.1192
          66    0.0260    0.0064    0.0024   -0.0856   -0.0022   -0.0024    0.0910    0.0907
          67    0.1740    0.0842   -0.0028    0.2527   -0.0056   -0.0023   -0.2014   -0.0492
          68   -0.2969   -0.0297    0.0107   -0.1347    0.0174    0.0052    0.1515   -0.0172
          69   -0.1002    0.0939    0.0032    0.0813    0.0017    0.0071    0.0117   -0.0784
          70    0.1093   -0.0711   -0.0069   -0.2460   -0.0040   -0.0103    0.1555    0.1658
          71    0.2632   -0.0097   -0.0092   -0.1005   -0.0044   -0.0100    0.0599    0.1337
          72    0.1893    0.1090   -0.0076    0.1126   -0.0130   -0.0031   -0.0582    0.0256
          73    0.1330    0.0150    0.0048   -0.0359    0.0247    0.0154    0.0617   -0.1619
          74   -0.0160   -0.0266   -0.0111   -0.1732    0.0088   -0.0010   -0.2054   -0.0959
          75    0.0175    0.0465    0.0123    0.2684   -0.0147   -0.0023    0.2750    0.1280
          76   -0.0032   -0.0039   -0.1330   -0.0034   -0.0006   -0.0013   -0.0032    0.0130
          77    0.0083    0.0114    0.1460   -0.0208   -0.0008   -0.0002    0.0002    0.0212
          78    0.0216    0.0178    0.5810   -0.0196   -0.0101   -0.0021   -0.0026    0.0110
          79    0.0011    0.0211    0.1966    0.0115    0.0037    0.0104    0.0135   -0.0398
          80    0.0122   -0.0035    0.3796   -0.0145   -0.0113   -0.0056   -0.0122    0.0135
          81   -0.0082    0.0015   -0.2390    0.0075   -0.0105    0.0047    0.0083   -0.0096
          82   -0.0179   -0.0031    0.0001    0.0158    0.0092    0.0107    0.0597   -0.1150
          83    0.1068    0.2137   -0.0552   -0.1662    0.0302    0.0077    0.1441    0.0900
          84   -0.0609   -0.1449    0.0337    0.2829   -0.0392   -0.0062   -0.2004   -0.1050


   Root No.      49        50        51        52        53        54        55        56

                49 A      50 A      51 A      52 A      53 A      54 A      55 A      56 A   

                   3.3       3.4       3.5       3.7       4.7       4.8       5.1       5.8
  
           1   -0.1287    0.0530   -0.0003    0.0028   -0.0044    0.0288   -0.0007   -0.0003
           2    0.1470   -0.0270   -0.0007   -0.0016    0.0199   -0.1707    0.0036    0.0022
           3    0.3056    0.5722    0.0003    0.0087   -0.0008    0.0130    0.0037    0.0014
           4   -0.3998    0.1984    0.0002    0.0121    0.0374   -0.2758    0.0029    0.0001
           5   -0.0371    0.0005   -0.0006    0.0009   -0.0059    0.0380   -0.0011   -0.0008
           6   -0.0962   -0.1745    0.0011   -0.0028   -0.0002   -0.0038   -0.0002   -0.0001
           7    0.0016   -0.0115   -0.0005   -0.0022    0.0235   -0.2162    0.0061    0.0055
           8    0.1401   -0.0907   -0.0006    0.0019    0.0316   -0.2371    0.0043    0.0016
           9    0.1597    0.2072    0.0019    0.0143    0.0151   -0.0190   -0.0022   -0.0053
          10    0.0036    0.0047   -0.0003   -0.0006    0.0347   -0.3170    0.0077    0.0067
          11   -0.3840    0.2269   -0.0002    0.0056   -0.0301    0.2481   -0.0060   -0.0046
          12   -0.0455   -0.0397    0.0008   -0.0023   -0.0007   -0.0159    0.0005    0.0009
          13   -0.3019    0.1861    0.0005    0.0103   -0.0338    0.3641   -0.0102   -0.0107
          14   -0.0323   -0.0014   -0.0002    0.0082    0.0040    0.0206   -0.0035   -0.0051
          15   -0.0533   -0.0031    0.0003   -0.0073   -0.0151    0.0303    0.0043    0.0079
          16    0.2727   -0.1294   -0.0012   -0.0101   -0.0436    0.3103   -0.0044   -0.0016
          17    0.0422   -0.0013   -0.0004    0.0003   -0.0018    0.0201   -0.0002   -0.0001
          18    0.0586    0.1189   -0.0005    0.0017    0.0018   -0.0061    0.0015    0.0003
          19    0.1461   -0.0547   -0.0004   -0.0018    0.0009   -0.0186    0.0020    0.0024
          20    0.1334   -0.0796   -0.0006    0.0013    0.0430   -0.3554    0.0060    0.0027
          21   -0.2144   -0.3851   -0.0002   -0.0098   -0.0053    0.0042   -0.0016    0.0004
          22    0.4037   -0.2669   -0.0008   -0.0094   -0.0358    0.2862   -0.0056   -0.0034
          23   -0.0654    0.0299   -0.0002    0.0018   -0.0105    0.0901   -0.0026   -0.0016
          24    0.0749    0.0486    0.0001    0.0013   -0.0014    0.0204    0.0002   -0.0003
          25   -0.0016    0.0050   -0.0012    0.0005    0.0044   -0.0004    0.0170    0.0199
          26   -0.0031   -0.0066   -0.0023   -0.0051   -0.0032    0.0005   -0.0024    0.0009
          27    0.0014    0.0020   -0.0011    0.0086    0.0035    0.0019   -0.0447   -0.0546
          28    0.0834   -0.0413   -0.0007   -0.0022    0.0004   -0.0195    0.0002    0.0001
          29    0.0306   -0.0584   -0.0006   -0.0020    0.0019   -0.0331    0.0011    0.0014
          30   -0.2291   -0.4117    0.0006   -0.0066   -0.0038    0.0095   -0.0027   -0.0015
          31   -0.0798    0.0567   -0.0004    0.0039    0.0182   -0.1466    0.0018    0.0006
          32    0.0246   -0.0115   -0.0007   -0.0048   -0.0484    0.3740   -0.0069   -0.0034
          33    0.0550    0.1018    0.0001    0.0012    0.0037   -0.0261    0.0014    0.0003
          34    0.0010   -0.0186    0.4432   -0.0154   -0.4115   -0.0527   -0.0425   -0.0389
          35    0.0004    0.0041   -0.0472   -0.0240    0.0481    0.0054   -0.0076   -0.1473
          36    0.0004   -0.0152   -0.0072    0.3488   -0.0225    0.0055    0.3410    0.0345
          37    0.0007   -0.0282   -0.4256   -0.0423    0.4656    0.0535    0.0532   -0.0115
          38   -0.0017    0.0135    0.0358   -0.3083   -0.0394   -0.0079    0.0372   -0.2959
          39    0.0007   -0.0050    0.0107    0.1398   -0.0479   -0.0005    0.3017    0.0150
          40   -0.0018    0.0391   -0.1111    0.0063   -0.4112   -0.0475   -0.0287   -0.0349
          41   -0.0026    0.0040   -0.0002   -0.2970    0.0237    0.0011    0.1288   -0.2243
          42   -0.0016    0.0056   -0.0054   -0.2159   -0.0038   -0.0014    0.1287   -0.0506
          43    0.0015   -0.0203    0.5229   -0.0400    0.3899    0.0448    0.0510   -0.0113
          44   -0.0010   -0.0007   -0.0505    0.0534   -0.0351   -0.0047   -0.0200   -0.1620
          45   -0.0039    0.0096   -0.0242   -0.3456   -0.0400   -0.0043    0.1905    0.0306
          46    0.0010   -0.0179   -0.4672    0.0192   -0.3228   -0.0427   -0.0529   -0.0400
          47    0.0035   -0.0078    0.0555    0.3394    0.0599    0.0054   -0.0635   -0.3298
          48   -0.0023    0.0026    0.0161   -0.1262    0.0006    0.0011    0.0945    0.0578
          49    0.0002    0.0509    0.0046    0.0693    0.3131    0.0508    0.0959    0.0166
          50    0.0052   -0.0103    0.0023    0.2536   -0.0044   -0.0062   -0.0369   -0.2857
          51   -0.0028   -0.0153    0.0011    0.1695   -0.0641   -0.0005    0.2489    0.0606
          52   -0.0007    0.0052   -0.1363   -0.0020    0.0667    0.0090    0.0035    0.0448
          53    0.0011    0.0040    0.0195   -0.0146   -0.0283    0.0001   -0.0152    0.3782
          54   -0.0024    0.0055   -0.0023   -0.1832    0.0026   -0.0008   -0.0477    0.0230
          55   -0.0003    0.0036   -0.1508    0.0176   -0.0721   -0.0085   -0.0166    0.0490
          56   -0.0057   -0.0068    0.0245    0.0092   -0.0099    0.0045   -0.0685    0.4764
          57    0.0006   -0.0075    0.0048    0.2000    0.0104    0.0018   -0.0685    0.0434
          58    0.0001    0.0037    0.1324   -0.0124    0.0510    0.0056   -0.0155    0.0146
          59   -0.0012    0.0062   -0.0151   -0.1667    0.0084   -0.0007   -0.1105    0.0978
          60   -0.0009   -0.0034    0.0057    0.0681    0.0367    0.0016   -0.3000    0.1203
          61    0.0000    0.0044    0.0557    0.0066   -0.0021    0.0001    0.0054   -0.0048
          62    0.0027    0.0007   -0.0039    0.0469    0.0010   -0.0002    0.0305   -0.0551
          63    0.0027    0.0036    0.0038    0.0023    0.0018    0.0000    0.0781   -0.0543
          64   -0.0000   -0.0026   -0.0322   -0.0070    0.0126    0.0010   -0.0029   -0.0011
          65   -0.0028   -0.0057   -0.0077    0.0341   -0.0266    0.0006    0.2056   -0.0268
          66    0.0006    0.0092    0.0129   -0.1421    0.0324   -0.0017   -0.2990    0.0151
          67   -0.0047    0.0030    0.0622   -0.0840   -0.0914   -0.0079    0.2150   -0.0991
          68    0.0032   -0.0049   -0.1038    0.0514    0.1049    0.0100   -0.1856    0.0879
          69   -0.0003   -0.0090   -0.0797    0.0456    0.0664    0.0068   -0.0734    0.0499
          70    0.0042    0.0082    0.0854    0.1097   -0.0377   -0.0067   -0.2462    0.1095
          71    0.0030    0.0092    0.0998    0.0635   -0.0496   -0.0076   -0.1781    0.0793
          72   -0.0009    0.0015    0.0684    0.0514   -0.0440   -0.0052   -0.0625    0.0424
          73    0.0011   -0.0150    0.0249    0.0090    0.0773    0.0078    0.0125    0.0165
          74   -0.0007   -0.0071    0.0039    0.1510   -0.0246    0.0013    0.1060    0.2051
          75    0.0035    0.0006   -0.0053    0.1354    0.0288   -0.0004   -0.1894   -0.2094
          76   -0.0010    0.0044   -0.0014    0.0015    0.0056    0.0009    0.0172    0.0167
          77    0.0019    0.0027   -0.0020    0.0089    0.0066    0.0021    0.0479    0.0437
          78    0.0023    0.0044    0.0024    0.0008    0.0025   -0.0004    0.0213    0.0201
          79    0.0020   -0.0058   -0.0034   -0.0025   -0.0112    0.0024   -0.0421   -0.0422
[...]
 EFFECTIVE MASS     11.1000
 FORCE CONSTANT      1.6702

 VIBRATION         45   45A           ATOM PAIR      ENERGY CONTRIBUTION    RADIAL
 FREQUENCY          1217.58         C 16 -- H 20         +27.9% ( 64.7%)      6.7%
 TRANSITION DIPOLE   0.5189         C 12 -- H 18         +15.9% ( 48.8%)     36.6%
 TRAVEL (Ang.)       0.4065         C 14 -- H 25         +11.8% ( 42.0%)      0.5%
 REDUCED MASS        0.3352         C 12 -- N 17          +9.9% ( 38.6%)     99.2%
 EFFECTIVE MASS      3.7329
 FORCE CONSTANT      0.2928

 VIBRATION         46   46A           ATOM PAIR      ENERGY CONTRIBUTION    RADIAL
 FREQUENCY          1222.35         C 21 -- H 23         +32.6% ( 53.8%)      1.4%
 TRANSITION DIPOLE   0.6345         C 21 -- H 24         +31.7% ( 53.0%)      1.9%
 TRAVEL (Ang.)       0.3991         C 21 -- H 22          +6.7% ( 24.4%)     59.2%
 REDUCED MASS        0.3464         C 16 -- H 20          +5.0% ( 21.1%)     13.4%
 EFFECTIVE MASS      2.0376
 FORCE CONSTANT      0.3050

 VIBRATION         47   47A           ATOM PAIR      ENERGY CONTRIBUTION    RADIAL
 FREQUENCY          1237.87         C 21 -- H 22         +44.9% ( 56.2%)      0.0%
 TRANSITION DIPOLE   0.7291         C 21 -- H 23         +26.4% ( 43.0%)      5.9%
 TRAVEL (Ang.)       0.3920         C 21 -- H 24         +24.4% ( 41.4%)      4.8%
 REDUCED MASS        0.3544         C 13 -- C 21          +2.4% ( 13.1%)      6.2%
 EFFECTIVE MASS      1.3225
 FORCE CONSTANT      0.3200

 VIBRATION         48   48A           ATOM PAIR      ENERGY CONTRIBUTION    RADIAL
 FREQUENCY          1238.77         H 26 -- O 27         +68.9% ( 71.3%)      5.0%
 TRANSITION DIPOLE   1.0936         H  9 -- O 27         +24.0% ( 42.1%)     14.6%
 TRAVEL (Ang.)       0.2864         C 16 -- H 20          +0.8% (  7.7%)      2.6%
 REDUCED MASS        0.6637         C 12 -- H 18          +0.6% (  6.7%)      2.7%
 EFFECTIVE MASS      2.2966
 FORCE CONSTANT      0.6001

 VIBRATION         49   49A           ATOM PAIR      ENERGY CONTRIBUTION    RADIAL
 FREQUENCY          1263.12         C 12 -- H 18         +28.6% ( 69.1%)      0.0%
 TRANSITION DIPOLE   0.3199         C 15 -- H 19         +13.0% ( 46.5%)      6.4%
 TRAVEL (Ang.)       0.3450         C 15 -- C 16         +10.5% ( 41.8%)     93.2%
 REDUCED MASS        0.4484         C 12 -- N 17          +8.4% ( 37.5%)     70.6%
 EFFECTIVE MASS      4.3354
 FORCE CONSTANT      0.4215

 VIBRATION         50   50A           ATOM PAIR      ENERGY CONTRIBUTION    RADIAL
 FREQUENCY          1285.89         C  7 -- H  8         +48.3% ( 77.6%)      4.3%
 TRANSITION DIPOLE   1.0154         C  1 -- C  7         +15.9% ( 44.6%)     59.8%
 TRAVEL (Ang.)       0.2654         C  1 -- H  2         +10.6% ( 36.3%)     93.7%
 REDUCED MASS        0.7444         C  1 -- C 10          +9.6% ( 34.7%)      0.3%
 EFFECTIVE MASS      4.0701
 FORCE CONSTANT      0.7252

 VIBRATION         51   51A           ATOM PAIR      ENERGY CONTRIBUTION    RADIAL
 FREQUENCY          1327.87         C  1 -- H  2         +70.8% ( 83.5%)      0.9%
 TRANSITION DIPOLE   0.3422         H  6 -- C 10         +12.3% ( 34.9%)     10.4%
 TRAVEL (Ang.)       0.2999         C  7 -- H  8          +4.6% ( 21.3%)     12.3%
 REDUCED MASS        0.5647         C  1 -- C 10          +4.5% ( 21.1%)      1.1%
 EFFECTIVE MASS      1.7986
 FORCE CONSTANT      0.5866

 VIBRATION         52   52A           ATOM PAIR      ENERGY CONTRIBUTION    RADIAL
 FREQUENCY          1337.65         C 13 -- C 21         +21.3% ( 66.3%)     98.3%
 TRANSITION DIPOLE   1.4948         C 21 -- H 22         +11.2% ( 48.1%)      5.8%
 TRAVEL (Ang.)       0.1921         C 21 -- H 24         +10.7% ( 47.1%)      3.9%
 REDUCED MASS        1.3666         C 21 -- H 23         +10.0% ( 45.5%)      3.6%
 EFFECTIVE MASS      8.6234
 FORCE CONSTANT      1.4407

 VIBRATION         53   53A           ATOM PAIR      ENERGY CONTRIBUTION    RADIAL
 FREQUENCY          1355.31         C 10 -- H 11         +17.5% ( 46.2%)      0.0%
 TRANSITION DIPOLE   0.2486         H  6 -- C 10         +16.2% ( 44.4%)      0.4%
 TRAVEL (Ang.)       0.2905         C  7 -- H  8         +14.8% ( 42.5%)      4.0%
 REDUCED MASS        0.5897         C  1 -- C  7         +14.2% ( 41.6%)     90.9%
 EFFECTIVE MASS      4.7606         N  3 -- C  7         +10.1% ( 35.0%)     18.4%
 FORCE CONSTANT      0.6382

 VIBRATION         54   54A           ATOM PAIR      ENERGY CONTRIBUTION    RADIAL
 FREQUENCY          1360.46         C 21 -- H 22         +15.5% ( 43.2%)      0.5%
 TRANSITION DIPOLE   0.9339         C 21 -- H 24         +11.7% ( 37.5%)      0.3%
 TRAVEL (Ang.)       0.4037         C 21 -- H 23         +10.4% ( 35.4%)      0.2%
 REDUCED MASS        0.3041         C 14 -- C 15         +10.1% ( 34.7%)     63.1%
 EFFECTIVE MASS      3.9443
 FORCE CONSTANT      0.3316

 VIBRATION         55   55A           ATOM PAIR      ENERGY CONTRIBUTION    RADIAL
 FREQUENCY          1371.22         C 12 -- N 17         +11.0% ( 45.5%)     97.6%
 TRANSITION DIPOLE   0.7717         C 12 -- C 13         +10.0% ( 43.2%)     88.4%
 TRAVEL (Ang.)       0.2251         C 15 -- C 16          +9.7% ( 42.7%)     98.7%
 REDUCED MASS        0.9703         C 13 -- C 14          +9.5% ( 42.3%)     99.4%
 EFFECTIVE MASS      6.7679
 FORCE CONSTANT      1.0749

 VIBRATION         56   56A           ATOM PAIR      ENERGY CONTRIBUTION    RADIAL
 FREQUENCY          1417.08         C  1 -- C  7         +20.1% ( 60.1%)     99.3%
 TRANSITION DIPOLE   1.5271         N  3 -- O  5         +13.9% ( 50.0%)     92.0%
 TRAVEL (Ang.)       0.1836         C 10 -- H 11         +12.4% ( 47.4%)      0.6%
 REDUCED MASS        1.4112         C  7 -- H  8         +10.8% ( 44.2%)      8.0%
 EFFECTIVE MASS      9.5762         N  3 -- C  7         +10.3% ( 43.1%)      0.0%
 FORCE CONSTANT      1.6697

 VIBRATION         57   57A           ATOM PAIR      ENERGY CONTRIBUTION    RADIAL
 FREQUENCY          1437.41         N 17 -- H 28         +26.4% ( 62.9%)     17.2%
 TRANSITION DIPOLE   0.3124         C 12 -- N 17         +14.0% ( 45.8%)     99.8%
 TRAVEL (Ang.)       0.2415         C 12 -- C 13         +12.7% ( 43.6%)     74.5%
 REDUCED MASS        0.8043         C 13 -- C 14         +11.1% ( 40.8%)      0.7%
 EFFECTIVE MASS      5.9724         C 13 -- C 21         +10.2% ( 39.1%)     60.6%
 FORCE CONSTANT      0.9791

 VIBRATION         58   58A           ATOM PAIR      ENERGY CONTRIBUTION    RADIAL
 FREQUENCY          1512.82         N  3 -- O  4         +33.1% ( 80.4%)     86.4%
 TRANSITION DIPOLE   7.3071         N  3 -- O  5         +30.3% ( 76.9%)     85.3%
 TRAVEL (Ang.)       0.0904         N  3 -- C  7         +22.8% ( 66.7%)      2.2%
 REDUCED MASS        5.4483         C  7 -- H  8          +5.7% ( 33.5%)      3.3%
 EFFECTIVE MASS     13.0849
 FORCE CONSTANT      7.3466

 VIBRATION         59   59A           ATOM PAIR      ENERGY CONTRIBUTION    RADIAL
 FREQUENCY          1520.58         C 14 -- C 15         +13.4% ( 50.2%)     81.8%
 TRANSITION DIPOLE   1.0666         C 13 -- C 14         +12.7% ( 48.9%)     90.9%
 TRAVEL (Ang.)       0.1779         C 15 -- C 16         +12.3% ( 48.0%)      0.6%
 REDUCED MASS        1.4006         C 12 -- C 13          +9.9% ( 43.2%)      0.5%
 EFFECTIVE MASS      9.3714
 FORCE CONSTANT      1.9080

 VIBRATION         60   60A           ATOM PAIR      ENERGY CONTRIBUTION    RADIAL
 FREQUENCY          1599.51         N 17 -- H 28         +19.3% ( 55.8%)      0.7%
 TRANSITION DIPOLE   1.5104         C 12 -- C 13         +14.9% ( 49.0%)     77.4%
 TRAVEL (Ang.)       0.2042         C 13 -- C 14         +14.4% ( 48.1%)     47.9%
 REDUCED MASS        1.0110         C 14 -- C 15          +8.0% ( 35.8%)     32.5%
 EFFECTIVE MASS      7.3984
 FORCE CONSTANT      1.5240

 VIBRATION         61   61A           ATOM PAIR      ENERGY CONTRIBUTION    RADIAL
 FREQUENCY          1625.68         N  3 -- C  7         +39.8% ( 96.1%)    100.0%
 TRANSITION DIPOLE  14.2613         N  3 -- O  4         +17.6% ( 63.9%)     53.6%
 TRAVEL (Ang.)       0.0832         N  3 -- O  5         +15.7% ( 60.3%)     23.2%
 REDUCED MASS        5.9931         C  1 -- C  7         +13.3% ( 55.5%)     43.6%
 EFFECTIVE MASS     13.1374         C  7 -- H  8         +11.9% ( 52.5%)     13.3%
 FORCE CONSTANT      9.3319

 VIBRATION         62   62A           ATOM PAIR      ENERGY CONTRIBUTION    RADIAL
 FREQUENCY          1662.33         C 13 -- C 14         +16.9% ( 56.9%)     99.9%
 TRANSITION DIPOLE   1.3191         C 16 -- N 17         +16.8% ( 56.8%)     99.1%
 TRAVEL (Ang.)       0.1316         C 12 -- C 13         +10.4% ( 44.6%)     48.1%
 REDUCED MASS        2.3438         N 17 -- H 28         +10.4% ( 44.6%)      2.8%
 EFFECTIVE MASS     11.7415         C 12 -- N 17         +10.2% ( 44.3%)     39.1%
 FORCE CONSTANT      3.8160

 VIBRATION         63   63A           ATOM PAIR      ENERGY CONTRIBUTION    RADIAL
 FREQUENCY          1668.66         C 15 -- C 16         +19.5% ( 62.4%)     93.0%
 TRANSITION DIPOLE   1.0078         C 14 -- C 15         +14.7% ( 54.2%)     78.6%
 TRAVEL (Ang.)       0.1281         C 12 -- C 13         +12.5% ( 49.9%)     91.2%
 REDUCED MASS        2.4610         C 12 -- N 17         +11.9% ( 48.8%)     86.1%
 EFFECTIVE MASS     11.8647
 FORCE CONSTANT      4.0375

 VIBRATION         64   64A           ATOM PAIR      ENERGY CONTRIBUTION    RADIAL
 FREQUENCY          1821.08         C  1 -- C 10         +45.1% ( 98.4%)     99.3%
 TRANSITION DIPOLE   1.8346         C  1 -- C  7         +16.6% ( 59.8%)     52.4%
 TRAVEL (Ang.)       0.0815         C  1 -- H  2         +15.8% ( 58.3%)      7.6%
 REDUCED MASS        5.5732         H  6 -- C 10         +10.5% ( 47.6%)     18.2%
 EFFECTIVE MASS     11.9507         C 10 -- H 11         +10.4% ( 47.4%)     21.3%
 FORCE CONSTANT     10.8896

 VIBRATION         65   65A           ATOM PAIR      ENERGY CONTRIBUTION    RADIAL
 FREQUENCY          1972.67         H  9 -- O 27         +96.7% ( 98.3%)     98.7%
 TRANSITION DIPOLE   1.8941         H 26 -- O 27          +2.1% ( 14.6%)     50.7%
 TRAVEL (Ang.)       0.1417         N 17 -- H 28          +0.9% (  9.4%)     94.8%
 REDUCED MASS        1.7023
 EFFECTIVE MASS      2.7740
 FORCE CONSTANT      3.9030

 VIBRATION         66   66A           ATOM PAIR      ENERGY CONTRIBUTION    RADIAL
 FREQUENCY          2326.02         N 17 -- H 28         +94.9% ( 98.9%)     99.5%
 TRANSITION DIPOLE   3.4591         H 26 -- O 27          +1.6% ( 12.7%)     93.8%
 TRAVEL (Ang.)       0.1797         C 16 -- N 17          +1.3% ( 11.5%)     13.0%
 REDUCED MASS        0.8976         C 12 -- N 17          +1.3% ( 11.4%)     17.3%
 EFFECTIVE MASS      1.4857
 FORCE CONSTANT      2.8612

 VIBRATION         67   67A           ATOM PAIR      ENERGY CONTRIBUTION    RADIAL
 FREQUENCY          2634.49         C 21 -- H 23         +57.2% ( 78.0%)     98.8%
 TRANSITION DIPOLE   1.0409         C 21 -- H 24         +40.4% ( 65.6%)     96.8%
 TRAVEL (Ang.)       0.2259         C 21 -- H 22          +1.6% ( 13.2%)     22.4%
 REDUCED MASS        0.5014         C 13 -- C 21          +0.8% (  9.2%)      0.0%
 EFFECTIVE MASS      1.4263
 FORCE CONSTANT      2.0504

 VIBRATION         68   68A           ATOM PAIR      ENERGY CONTRIBUTION    RADIAL
 FREQUENCY          2644.60         C 21 -- H 22         +60.0% ( 80.0%)     99.4%
 TRANSITION DIPOLE   0.8469         C 21 -- H 24         +26.8% ( 53.4%)     92.4%
 TRAVEL (Ang.)       0.2357         C 21 -- H 23         +11.7% ( 35.3%)     79.7%
 REDUCED MASS        0.4589         C 13 -- C 21          +0.9% (  9.6%)      0.0%
 EFFECTIVE MASS      1.4418
 FORCE CONSTANT      1.8911

 VIBRATION         69   69A           ATOM PAIR      ENERGY CONTRIBUTION    RADIAL
 FREQUENCY          2661.21         C 12 -- H 18         +81.1% ( 91.1%)    100.0%
 TRANSITION DIPOLE   2.0058         C 16 -- H 20         +15.9% ( 40.3%)    100.0%
 TRAVEL (Ang.)       0.1950         C 12 -- C 13          +0.9% (  9.8%)     30.8%
 REDUCED MASS        0.6660         C 12 -- N 17          +0.9% (  9.7%)      9.9%
 EFFECTIVE MASS      1.3814
 FORCE CONSTANT      2.7790

 VIBRATION         70   70A           ATOM PAIR      ENERGY CONTRIBUTION    RADIAL
 FREQUENCY          2670.92         C 16 -- H 20         +79.6% ( 90.2%)    100.0%
 TRANSITION DIPOLE   1.6877         C 12 -- H 18         +14.8% ( 38.9%)    100.0%
 TRAVEL (Ang.)       0.1985         C 15 -- H 19          +2.3% ( 15.5%)     99.3%
 REDUCED MASS        0.6409         C 16 -- N 17          +1.0% ( 10.0%)     18.7%
 EFFECTIVE MASS      1.4117
 FORCE CONSTANT      2.6939

 VIBRATION         71   71A           ATOM PAIR      ENERGY CONTRIBUTION    RADIAL
 FREQUENCY          2706.32         H  6 -- C 10         +37.1% ( 62.7%)     98.7%
 TRANSITION DIPOLE   0.3683         C 10 -- H 11         +33.2% ( 59.3%)     98.4%
 TRAVEL (Ang.)       0.2761         C  1 -- H  2         +27.4% ( 53.8%)     99.9%
 REDUCED MASS        0.3268         C  1 -- C 10          +1.0% ( 10.5%)      6.3%
 EFFECTIVE MASS      1.4246
 FORCE CONSTANT      1.4102

 VIBRATION         72   72A           ATOM PAIR      ENERGY CONTRIBUTION    RADIAL
 FREQUENCY          2708.81         C 14 -- H 25         +63.4% ( 80.6%)    100.0%
 TRANSITION DIPOLE   1.0299         C 15 -- H 19         +34.3% ( 59.3%)    100.0%
 TRAVEL (Ang.)       0.2221         C 14 -- C 15          +0.9% (  9.7%)      0.7%
 REDUCED MASS        0.5048         C 13 -- C 14          +0.7% (  8.3%)     14.6%
 EFFECTIVE MASS      1.3750
 FORCE CONSTANT      2.1822

 VIBRATION         73   73A           ATOM PAIR      ENERGY CONTRIBUTION    RADIAL
 FREQUENCY          2722.79         C 15 -- H 19         +61.0% ( 78.7%)    100.0%
 TRANSITION DIPOLE   1.4505         C 14 -- H 25         +33.5% ( 58.4%)    100.0%
 TRAVEL (Ang.)       0.2290         C 16 -- H 20          +1.8% ( 13.5%)     99.0%
 REDUCED MASS        0.4723         C 14 -- C 15          +1.2% ( 11.1%)     93.6%
 EFFECTIVE MASS      1.4211
 FORCE CONSTANT      2.0629

 VIBRATION         74   74A           ATOM PAIR      ENERGY CONTRIBUTION    RADIAL
 FREQUENCY          2731.25         C  1 -- H  2         +58.3% ( 77.4%)    100.0%
 TRANSITION DIPOLE   0.6760         C 10 -- H 11         +15.0% ( 39.3%)     98.4%
 TRAVEL (Ang.)       0.2511         H  6 -- C 10         +13.8% ( 37.6%)     98.5%
 REDUCED MASS        0.3915         C  7 -- H  8         +11.1% ( 33.7%)     99.8%
 EFFECTIVE MASS      1.4242
 FORCE CONSTANT      1.7206

 VIBRATION         75   75A           ATOM PAIR      ENERGY CONTRIBUTION    RADIAL
 FREQUENCY          2744.05         H 26 -- O 27         +98.5% ( 98.5%)     99.4%
 TRANSITION DIPOLE   1.5190         N 17 -- H 28          +0.8% (  9.0%)     95.5%
 TRAVEL (Ang.)       0.1643         H  9 -- O 27          +0.4% (  6.4%)      1.5%
 REDUCED MASS        0.9098
 EFFECTIVE MASS      1.3267
 FORCE CONSTANT      4.0363

 VIBRATION         76   76A           ATOM PAIR      ENERGY CONTRIBUTION    RADIAL
 FREQUENCY          2760.35         C  7 -- H  8         +84.8% ( 92.5%)    100.0%
 TRANSITION DIPOLE   1.2890         C  1 -- H  2         +10.4% ( 32.4%)     99.7%
 TRAVEL (Ang.)       0.1865         C 10 -- H 11          +2.8% ( 16.8%)     99.8%
 REDUCED MASS        0.7026         C  1 -- C  7          +0.8% (  9.2%)     19.2%
 EFFECTIVE MASS      1.3816
 FORCE CONSTANT      3.1541

 VIBRATION         77   77A           ATOM PAIR      ENERGY CONTRIBUTION    RADIAL
 FREQUENCY          2767.45         C 21 -- H 22         +37.4% ( 58.5%)     96.1%
 TRANSITION DIPOLE   0.8322         C 21 -- H 24         +31.7% ( 53.9%)     95.1%
 TRAVEL (Ang.)       0.2742         C 21 -- H 23         +29.8% ( 52.3%)     94.6%
 REDUCED MASS        0.3241         C 14 -- H 25          +0.3% (  5.2%)     97.9%
 EFFECTIVE MASS      1.1512
 FORCE CONSTANT      1.4623

 VIBRATION         78   78A           ATOM PAIR      ENERGY CONTRIBUTION    RADIAL
 FREQUENCY          2788.01         C 10 -- H 11         +48.5% ( 68.8%)     95.3%
 TRANSITION DIPOLE   1.4042         H  6 -- C 10         +48.5% ( 68.8%)     95.3%
 TRAVEL (Ang.)       0.2280         C  7 -- H  8          +1.5% ( 11.9%)     99.1%
 REDUCED MASS        0.4654         C  1 -- C 10          +1.0% ( 10.0%)     99.7%
 EFFECTIVE MASS      1.3073
 FORCE CONSTANT      2.1316

      SYMMETRY NUMBER FOR POINT-GROUP C1  =  1


          SYSTEM IS A GROUND STATE



 Title: ASE calculation


          MOLECULE IS NOT LINEAR

          THERE ARE 78 GENUINE VIBRATIONS IN THIS SYSTEM
          THIS THERMODYNAMICS CALCULATION IS LIMITED TO
          MOLECULES WHICH HAVE NO INTERNAL ROTATIONS




                    CALCULATED THERMODYNAMIC PROPERTIES
                                          *
   TEMP. (K)   PARTITION FUNCTION   H.O.F.    ENTHALPY  HEAT CAPACITY ENTROPY
                                   KCAL/MOL   CAL/MOLE    CAL/K/MOL  CAL/K/MOL


 298.00  VIB.     0.1217D+09                  9408.2147    54.6727    68.5667
         ROT.     0.4596D+07                   888.2803     2.9808    33.4660
         INT.     0.5592D+15                 10296.4950    57.6535   102.0327
         TRA.     0.2719D+28                  1480.4672     4.9680    41.7704
         TOT.                      -58.574   11776.9622    62.6215   143.8031

   *: NOTE: HEATS OF FORMATION ARE RELATIVE TO THE
            ELEMENTS IN THEIR STANDARD STATE AT 298K
              (=  Standard Enthalpy of Formation).

            Hvib:  Zero-point energy is not included.
                   frequencies of less than zero cm-1 are not included.
            Hrot = (3/2)RT
            Htra = (3/2)RT + pV = (5/2)RT

            Heat capacity is Cp, not Cv

          For more information, see: HTTP://OpenMOPAC.net/Manual/thermochemistry.html


           FORCE CONSTANT IN CARTESIAN COORDINATES (Millidynes/A)

    ATOM   CHEMICAL       X               Y               Z
   NUMBER   SYMBOL  FORCE CONSTANT  FORCE CONSTANT  FORCE CONSTANT

      1       C        9.309823       13.630002        2.016059
      2       H        4.168937        0.953078        0.373729
      3       N       13.146430       13.656938        1.833971
      4       O        9.926543        1.601141        0.373478
      5       O        3.297296        7.900567        0.132706
      6       H        4.185779        0.769409        0.313397
      7       C        9.289289       12.257173        1.607439
      8       H        4.241937        0.938306        0.264490
      9       H        0.710357        0.480415        3.669535
     10       C        8.430285       11.987874        1.844897
     11       H        1.296923        3.664845        0.332097
     12       C        2.396235        9.741919       11.338651
     13       C        2.687494       11.212199       10.921453
     14       C        2.226624       10.058477       10.105057
     15       C        2.230674        9.604762       11.574584
     16       C        2.413014       10.906098       10.189458
     17       N        1.977706       11.237997       10.719564
     18       H        0.385325        3.908473        0.901207
     19       H        0.397922        4.034037        0.892730
     20       H        0.368561        1.279594        3.568384
     21       C        5.736245        6.300687        7.284923
     22       H        0.494376        2.106063        2.706666
     23       H        2.530250        1.852130        0.827175
     24       H        2.869964        1.603011        0.773127
     25       H        0.367738        2.044860        2.978503
     26       H        0.572773        2.963972        1.355229
     27       O        1.471477        3.515250        4.256738
     28       H        0.326698        1.803841        2.472043

 **********************
 *                    *
 * JOB ENDED NORMALLY *
 *                    *
 **********************



 TOTAL JOB TIME:             3.75 SECONDS

 == MOPAC DONE ==
