 *******************************************************************************
 **                                                                           **
 **                              MOPAC v22.1.0                                **
 **                                                                           **
 *******************************************************************************
 **          Digital Object Identifier (DOI): 10.5281/zenodo.6511958          **
 **    Visit the DOI location for information on how to cite this program.    **
 *******************************************************************************

                              PM7 CALCULATION RESULTS

 *******************************************************************************
 *  CALCULATION DONE:                                Sun Mar 24 12:09:08 2024  *
 *  PM7        - The PM7 Hamiltonian to be used
 *  DOUBLET    - SPIN STATE DEFINED AS A DOUBLET
 *
 *
 *
 *                 CHARGE ON SYSTEM = 0
 *
 *
 *
 *  EPS=78.4   - USE ANDREAS KLAMT'S COSMO IMPLICIT SOLVATION MODEL
 *  THREADS    - USE A MAXIMUM OF 40 THREADS
 *  T=         - A TIME OF 14.0 DAYS REQUESTED
 *  DUMP=N     - RESTART FILE WRITTEN EVERY 30.0 MINUTES REQUESTED
 *  ITRY=      - DO A MAXIMUM OF 15000 ITERATIONS FOR SCF
 *  AUX        - OUTPUT AUXILIARY INFORMATION
 *  PL         - MONITOR CONVERGENCE IN DENSITY MATRIX
 *******************************************************************************
PM7 CHARGE=0 DOUBLET AUX DUMP=30M ITRY=15000 eps=78.4 T=14D PL THREADS=40

 Mopac file generated by Gabedit
   ATOM   CHEMICAL          X               Y               Z
  NUMBER   SYMBOL      (ANGSTROMS)     (ANGSTROMS)     (ANGSTROMS)

     1       C         -0.48121000  *   0.96218000  *   1.30280000  *
     2       C          0.90580000  *   0.82691000  *   1.29481000  *
     3       C          1.50809000  *  -0.29066000  *   0.70797000  *
     4       C          0.71749000  *  -1.26524000  *   0.10068000  *
     5       C         -0.67147000  *  -1.10678000  *   0.09783000  *
     6       C         -1.28480000  *  -0.00386000  *   0.70453000  *
     7       H         -0.94474000  *   1.83137000  *   1.78014000  *
     8       H          1.52563000  *   1.60557000  *   1.75769000  *
     9       H          1.18049000  *  -2.14425000  *  -0.36501000  *
    10       H         -2.37677000  *   0.09564000  *   0.70705000  *
    11       N         -1.49512000  *  -2.10560000  *  -0.54016000  *
    12       O         -2.71114000  *  -1.97476000  *  -0.52410000  *
    13       O         -0.95833000  *  -3.05879000  *  -1.08701000  *
    14       C          3.00258000  *  -0.44180000  *   0.77124000  *
    15       C          3.42684000  *  -1.75779000  *   1.41743000  *
    16       H          4.51762000  *  -1.82473000  *   1.55209000  *
    17       H          3.11698000  *  -2.63991000  *   0.83708000  *
    18       H          2.98209000  *  -1.86673000  *   2.41970000  *
    19       N          3.59528000  *  -0.40491000  *  -0.60909000  *
    20       O          4.63515000  *   0.21055000  *  -0.76713000  *
    21       O          3.04406000  *  -1.00235000  *  -1.51869000  *
    22       H          3.46418000  *   0.42671000  *   1.34293000  *
    23       C          5.65441400  *   4.60695300  *   5.65849800  *
    24       N          6.86209200  *   5.13780200  *   5.31186400  *
    25       C          7.57946100  *   4.61586300  *   4.13391900  *
    26       C          6.97280200  *   3.29448300  *   3.61779100  *
    27       N          5.50547500  *   3.40146600  *   3.46628700  *
    28       C          4.89131200  *   3.66816900  *   4.79174800  *
    29       H          5.23458300  *   4.86922400  *   6.61685600  *
    30       H          7.47082200  *   5.43261600  *   6.07337600  *
    31       H          8.65787100  *   4.48380800  *   4.37194000  *
    32       H          7.52888400  *   5.39335600  *   3.33494500  *
    33       H          7.41881500  *   3.01928400  *   2.63733000  *
    34       H          7.19565100  *   2.45980900  *   4.31879800  *
    35       H          5.27325000  *   4.15455700  *   2.80982500  *
    36       H          3.85278000  *   4.04313300  *   4.63457300  *
    37       H          4.80377000  *   2.68076400  *   5.31392200  *
    38       H          3.28243000  *   2.01940000  *   3.18120000  *
    39       H          4.70829000  *   2.14612000  *   2.61664000  *
    40       O          3.78848000  *   2.26405000  *   2.37575000  *



          CARTESIAN COORDINATES 

    NO.       ATOM           X           Y           Z

     1         C         -0.4812      0.9622      1.3028
     2         C          0.9058      0.8269      1.2948
     3         C          1.5081     -0.2907      0.7080
     4         C          0.7175     -1.2652      0.1007
     5         C         -0.6715     -1.1068      0.0978
     6         C         -1.2848     -0.0039      0.7045
     7         H         -0.9447      1.8314      1.7801
     8         H          1.5256      1.6056      1.7577
     9         H          1.1805     -2.1442     -0.3650
    10         H         -2.3768      0.0956      0.7071
    11         N         -1.4951     -2.1056     -0.5402
    12         O         -2.7111     -1.9748     -0.5241
    13         O         -0.9583     -3.0588     -1.0870
    14         C          3.0026     -0.4418      0.7712
    15         C          3.4268     -1.7578      1.4174
    16         H          4.5176     -1.8247      1.5521
    17         H          3.1170     -2.6399      0.8371
    18         H          2.9821     -1.8667      2.4197
    19         N          3.5953     -0.4049     -0.6091
    20         O          4.6352      0.2106     -0.7671
    21         O          3.0441     -1.0024     -1.5187
    22         H          3.4642      0.4267      1.3429
    23         C          5.6544      4.6070      5.6585
    24         N          6.8621      5.1378      5.3119
    25         C          7.5795      4.6159      4.1339
    26         C          6.9728      3.2945      3.6178
    27         N          5.5055      3.4015      3.4663
    28         C          4.8913      3.6682      4.7917
    29         H          5.2346      4.8692      6.6169
    30         H          7.4708      5.4326      6.0734
    31         H          8.6579      4.4838      4.3719
    32         H          7.5289      5.3934      3.3349
    33         H          7.4188      3.0193      2.6373
    34         H          7.1957      2.4598      4.3188
    35         H          5.2732      4.1546      2.8098
    36         H          3.8528      4.0431      4.6346
    37         H          4.8038      2.6808      5.3139
    38         H          3.2824      2.0194      3.1812
    39         H          4.7083      2.1461      2.6166
    40         O          3.7885      2.2641      2.3758

 General Reference for PM7:
 "Optimization of Parameters for Semiempirical Methods VI: More Modifications to the 
 NDDO Approximations and Re-optimization of Parameters", J. J. P. Stewart, J. Mol. Mod., 1:32, 19 (2013)
 https://link.springer.com/article/10.1007/s00894-012-1667-x

           Empirical Formula: C12 H19 N4 O5  =    40 atoms



      MOLECULAR POINT GROUP   :   C1  


 DOUBLET STATE CALCULATION


          UHF CALCULATION, NO. OF ALPHA ELECTRONS =   59
                           NO. OF BETA  ELECTRONS =   58

          Geometry optimization using L-BFGS
 ITERATION   1 PLS= 0.100E+01 0.000E+00 ENERGY    19328.096325 DELTAE    0.0000000
 ITERATION   2 PLS= 0.365E+00 0.291E+00 ENERGY      427.258366 DELTAE    0.0000000
 ITERATION   3 PLS= 0.490E-01 0.598E-01 ENERGY      251.051823 DELTAE -176.2065431
 ITERATION   4 PLS= 0.304E-01 0.304E-01 ENERGY       42.703414 DELTAE -208.3484085
 ITERATION   5 PLS= 0.421E+00 0.579E+00 ENERGY      -59.710369 DELTAE -102.4137830
 ITERATION   6 PLS= 0.295E+00 0.393E+00 ENERGY      -15.767442 DELTAE   43.9429266
 ITERATION   7 PLS= 0.212E+00 0.186E+00 ENERGY     -537.356542 DELTAE -521.5890996
 ITERATION   8 PLS= 0.147E+00 0.495E-01 ENERGY      -45.063560 DELTAE  492.2929820
 ITERATION   9 PLS= 0.123E+00 0.270E-01 ENERGY      -38.471150 DELTAE    6.5924103
 ITERATION  10 PLS= 0.974E-01 0.701E-02 ENERGY      -35.414078 DELTAE    3.0570716
 ITERATION  11 PLS= 0.765E-01 0.591E-02 ENERGY      -34.461572 DELTAE    0.9525062
 ITERATION  12 PLS= 0.372E-01 0.610E-02 ENERGY      -33.232462 DELTAE    1.2291103
 ITERATION  13 PLS= 0.119E-01 0.121E-01 ENERGY      -35.965403 DELTAE   -2.7329411
 ITERATION  14 PLS= 0.559E-02 0.280E-02 ENERGY      -33.757558 DELTAE    2.2078442
 ITERATION  15 PLS= 0.290E-02 0.338E-02 ENERGY      -33.805670 DELTAE   -0.0481118
 ITERATION  16 PLS= 0.169E-02 0.794E-03 ENERGY      -33.828544 DELTAE   -0.0228737
 ITERATION  17 PLS= 0.456E-03 0.379E-03 ENERGY      -33.820392 DELTAE    0.0081525
 ITERATION  18 PLS= 0.332E-03 0.278E-03 ENERGY      -33.821088 DELTAE   -0.0006964
 ITERATION  19 PLS= 0.236E-03 0.226E-03 ENERGY      -33.825841 DELTAE   -0.0047531
 ITERATION  20 PLS= 0.126E-03 0.108E-03 ENERGY      -33.822393 DELTAE    0.0034476
 ITERATION  21 PLS= 0.102E-03 0.949E-04 ENERGY      -33.822469 DELTAE   -0.0000756
 ITERATION  22 PLS= 0.896E-04 0.830E-04 ENERGY      -33.824563 DELTAE   -0.0020937
 ITERATION  23 PLS= 0.442E-04 0.675E-04 ENERGY      -33.822792 DELTAE    0.0017710
 ITERATION  24 PLS= 0.315E-04 0.543E-04 ENERGY      -33.822805 DELTAE   -0.0000137
 ITERATION  25 PLS= 0.301E-04 0.456E-04 ENERGY      -33.822954 DELTAE   -0.0001490
 ITERATION  26 PLS= 0.305E-04 0.200E-04 ENERGY      -33.822843 DELTAE    0.0001112
 ITERATION   1 PLS= 0.268E-04 0.205E-04 ENERGY      -54.018651 DELTAE -154.0186514
 ITERATION   2 PLS= 0.125E-01 0.137E-01 ENERGY      -56.223616 DELTAE   -2.2049648
 ITERATION   3 PLS= 0.552E-02 0.543E-02 ENERGY      -56.674367 DELTAE   -0.4507512
 ITERATION   4 PLS= 0.286E-02 0.264E-02 ENERGY      -57.019105 DELTAE   -0.3447378
 ITERATION   5 PLS= 0.663E-03 0.777E-03 ENERGY      -56.854432 DELTAE    0.1646738
 ITERATION   6 PLS= 0.482E-03 0.540E-03 ENERGY      -56.856559 DELTAE   -0.0021274
 ITERATION   7 PLS= 0.355E-03 0.389E-03 ENERGY      -56.864110 DELTAE   -0.0075511
 ITERATION   8 PLS= 0.710E-04 0.613E-04 ENERGY      -56.858679 DELTAE    0.0054309
 ITERATION   9 PLS= 0.529E-04 0.358E-04 ENERGY      -56.858705 DELTAE   -0.0000255
 CYCLE:     1 TIME:   0.914 TIME LEFT:  2.00W  GRAD.:    67.702 HEAT: -56.85876
 ITERATION   1 PLS= 0.407E-04 0.209E-04 ENERGY      -56.904179 DELTAE -156.9041790
 ITERATION   2 PLS= 0.675E-04 0.641E-04 ENERGY      -56.904282 DELTAE   -0.0001030
 ITERATION   3 PLS= 0.249E-04 0.307E-04 ENERGY      -56.904297 DELTAE   -0.0000148
 ITERATION   4 PLS= 0.133E-04 0.152E-04 ENERGY      -56.904305 DELTAE   -0.0000084
 CYCLE:     2 TIME:   0.152 TIME LEFT:  2.00W  GRAD.:    67.050 HEAT: -56.90430
 ITERATION   1 PLS= 0.862E-05 0.562E-05 ENERGY      -58.013471 DELTAE -158.0134711
 ITERATION   2 PLS= 0.890E-02 0.977E-02 ENERGY      -59.951697 DELTAE   -1.9382257
 ITERATION   3 PLS= 0.462E-02 0.459E-02 ENERGY      -60.202533 DELTAE   -0.2508365
 ITERATION   4 PLS= 0.242E-02 0.224E-02 ENERGY      -60.314216 DELTAE   -0.1116828
 ITERATION   5 PLS= 0.322E-03 0.304E-03 ENERGY      -60.263398 DELTAE    0.0508178
 CYCLE:     3 TIME:   0.129 TIME LEFT:  2.00W  GRAD.:    35.482 HEAT: -60.26356
 ITERATION   1 PLS= 0.170E-03 0.122E-03 ENERGY      -54.643272 DELTAE -154.6432716
 ITERATION   2 PLS= 0.870E-02 0.943E-02 ENERGY      -56.585568 DELTAE   -1.9422969
 ITERATION   3 PLS= 0.453E-02 0.458E-02 ENERGY      -56.841739 DELTAE   -0.2561701
 ITERATION   4 PLS= 0.242E-02 0.230E-02 ENERGY      -56.958154 DELTAE   -0.1164151
 ITERATION   5 PLS= 0.302E-03 0.286E-03 ENERGY      -56.904161 DELTAE    0.0539923
 CYCLE:     4 TIME:   0.113 TIME LEFT:  2.00W  GRAD.:    67.035 HEAT: -56.90430
 ITERATION   1 PLS= 0.171E-03 0.123E-03 ENERGY      -58.014243 DELTAE -158.0142429
 ITERATION   2 PLS= 0.882E-02 0.946E-02 ENERGY      -59.941989 DELTAE   -1.9277464
 ITERATION   3 PLS= 0.458E-02 0.462E-02 ENERGY      -60.201097 DELTAE   -0.2591076
 ITERATION   4 PLS= 0.239E-02 0.229E-02 ENERGY      -60.317857 DELTAE   -0.1167600
 ITERATION   5 PLS= 0.325E-03 0.312E-03 ENERGY      -60.264728 DELTAE    0.0531289
 CYCLE:     5 TIME:   0.102 TIME LEFT:  2.00W  GRAD.:    35.464 HEAT: -60.26488
 ITERATION   1 PLS= 0.168E-03 0.129E-03 ENERGY      -59.901815 DELTAE -159.9018150
 ITERATION   2 PLS= 0.472E-02 0.523E-02 ENERGY      -60.494934 DELTAE   -0.5931190
 ITERATION   3 PLS= 0.195E-02 0.196E-02 ENERGY      -60.558588 DELTAE   -0.0636536
 ITERATION   4 PLS= 0.106E-02 0.101E-02 ENERGY      -60.590291 DELTAE   -0.0317034
 ITERATION   5 PLS= 0.152E-03 0.128E-03 ENERGY      -60.576139 DELTAE    0.0141519
 CYCLE:     6 TIME:   0.117 TIME LEFT:  2.00W  GRAD.:    52.547 HEAT: -60.57622
 ITERATION   1 PLS= 0.902E-04 0.707E-04 ENERGY      -61.041672 DELTAE -161.0416719
 ITERATION   2 PLS= 0.144E-02 0.163E-02 ENERGY      -61.125759 DELTAE   -0.0840869
 ITERATION   3 PLS= 0.626E-03 0.625E-03 ENERGY      -61.136188 DELTAE   -0.0104291
 ITERATION   4 PLS= 0.336E-03 0.316E-03 ENERGY      -61.141265 DELTAE   -0.0050775
 CYCLE:     7 TIME:   0.082 TIME LEFT:  2.00W  GRAD.:    36.025 HEAT: -61.13911
 ITERATION   1 PLS= 0.560E-04 0.406E-04 ENERGY      -60.440862 DELTAE -160.4408616
 ITERATION   2 PLS= 0.618E-02 0.657E-02 ENERGY      -62.002946 DELTAE   -1.5620848
 ITERATION   3 PLS= 0.300E-02 0.297E-02 ENERGY      -62.288969 DELTAE   -0.2860224
 ITERATION   4 PLS= 0.156E-02 0.147E-02 ENERGY      -62.453606 DELTAE   -0.1646369
 ITERATION   5 PLS= 0.204E-03 0.192E-03 ENERGY      -62.377406 DELTAE    0.0761993
 CYCLE:     8 TIME:   0.105 TIME LEFT:  2.00W  GRAD.:    26.047 HEAT: -62.37755
 ITERATION   1 PLS= 0.119E-03 0.940E-04 ENERGY      -62.517385 DELTAE -162.5173854
 ITERATION   2 PLS= 0.151E-02 0.159E-02 ENERGY      -62.973493 DELTAE   -0.4561076
 ITERATION   3 PLS= 0.732E-03 0.738E-03 ENERGY      -63.075499 DELTAE   -0.1020056
 ITERATION   4 PLS= 0.362E-03 0.346E-03 ENERGY      -63.132438 DELTAE   -0.0569395
 ITERATION   5 PLS= 0.279E-04 0.267E-04 ENERGY      -63.107637 DELTAE    0.0248008
 CYCLE:     9 TIME:   0.098 TIME LEFT:  2.00W  GRAD.:    25.442 HEAT: -63.10769
 ITERATION   1 PLS= 0.148E-04 0.141E-04 ENERGY      -56.452941 DELTAE -156.4529411
 ITERATION   2 PLS= 0.709E-02 0.748E-02 ENERGY      -61.266362 DELTAE   -4.8134204
 ITERATION   3 PLS= 0.384E-02 0.397E-02 ENERGY      -62.256518 DELTAE   -0.9901563
 ITERATION   4 PLS= 0.239E-02 0.235E-02 ENERGY      -62.917629 DELTAE   -0.6611110
 ITERATION   5 PLS= 0.245E-03 0.180E-03 ENERGY      -62.565102 DELTAE    0.3525273
 ITERATION   6 PLS= 0.740E-04 0.102E-03 ENERGY      -62.565484 DELTAE   -0.0003820
 CYCLE:    10 TIME:   0.113 TIME LEFT:  2.00W  GRAD.:    93.404 HEAT: -62.56582
 ITERATION   1 PLS= 0.533E-04 0.557E-04 ENERGY      -63.004827 DELTAE -163.0048267
 ITERATION   2 PLS= 0.460E-02 0.471E-02 ENERGY      -63.889676 DELTAE   -0.8848496
 ITERATION   3 PLS= 0.248E-02 0.252E-02 ENERGY      -64.014353 DELTAE   -0.1246769
 ITERATION   4 PLS= 0.131E-02 0.130E-02 ENERGY      -64.082324 DELTAE   -0.0679704
 ITERATION   5 PLS= 0.117E-03 0.106E-03 ENERGY      -64.049495 DELTAE    0.0328289
 CYCLE:    11 TIME:   0.098 TIME LEFT:  2.00W  GRAD.:    12.981 HEAT: -64.04959
 ITERATION   1 PLS= 0.792E-04 0.720E-04 ENERGY      -64.066083 DELTAE -164.0660828
 ITERATION   2 PLS= 0.108E-02 0.112E-02 ENERGY      -64.076136 DELTAE   -0.0100529
 ITERATION   3 PLS= 0.547E-03 0.549E-03 ENERGY      -64.077960 DELTAE   -0.0018243
 ITERATION   4 PLS= 0.285E-03 0.277E-03 ENERGY      -64.079005 DELTAE   -0.0010446
 CYCLE:    12 TIME:   0.090 TIME LEFT:  2.00W  GRAD.:    11.067 HEAT: -64.07851
 ITERATION   1 PLS= 0.507E-04 0.518E-04 ENERGY      -63.922115 DELTAE -163.9221150
 ITERATION   2 PLS= 0.398E-02 0.413E-02 ENERGY      -64.180670 DELTAE   -0.2585551
 ITERATION   3 PLS= 0.203E-02 0.205E-02 ENERGY      -64.237502 DELTAE   -0.0568319
 ITERATION   4 PLS= 0.109E-02 0.106E-02 ENERGY      -64.277393 DELTAE   -0.0398908
 ITERATION   5 PLS= 0.136E-03 0.128E-03 ENERGY      -64.255830 DELTAE    0.0215629
 CYCLE:    13 TIME:   0.102 TIME LEFT:  2.00W  GRAD.:     9.167 HEAT: -64.25588
 ITERATION   1 PLS= 0.581E-04 0.875E-04 ENERGY      -64.216922 DELTAE -164.2169224
 ITERATION   2 PLS= 0.234E-02 0.243E-02 ENERGY      -64.328222 DELTAE   -0.1113000
 ITERATION   3 PLS= 0.131E-02 0.131E-02 ENERGY      -64.347727 DELTAE   -0.0195042
 ITERATION   4 PLS= 0.730E-03 0.709E-03 ENERGY      -64.360881 DELTAE   -0.0131543
 CYCLE:    14 TIME:   0.090 TIME LEFT:  2.00W  GRAD.:    17.600 HEAT: -64.35373
 ITERATION   1 PLS= 0.982E-04 0.968E-04 ENERGY      -64.402040 DELTAE -164.4020400
 ITERATION   2 PLS= 0.808E-03 0.862E-03 ENERGY      -64.433142 DELTAE   -0.0311024
 ITERATION   3 PLS= 0.311E-03 0.311E-03 ENERGY      -64.437376 DELTAE   -0.0042332
 ITERATION   4 PLS= 0.157E-03 0.150E-03 ENERGY      -64.439656 DELTAE   -0.0022805
 CYCLE:    15 TIME:   0.090 TIME LEFT:  2.00W  GRAD.:     5.772 HEAT: -64.43853
 ITERATION   1 PLS= 0.197E-04 0.624E-04 ENERGY      -64.432555 DELTAE -164.4325551
 ITERATION   2 PLS= 0.285E-03 0.288E-03 ENERGY      -64.436351 DELTAE   -0.0037954
 ITERATION   3 PLS= 0.142E-03 0.138E-03 ENERGY      -64.437006 DELTAE   -0.0006555
 ITERATION   4 PLS= 0.719E-04 0.664E-04 ENERGY      -64.437459 DELTAE   -0.0004525
 CYCLE:    16 TIME:   0.094 TIME LEFT:  2.00W  GRAD.:     4.948 HEAT: -64.43721
 ITERATION   1 PLS= 0.165E-04 0.191E-04 ENERGY      -64.429491 DELTAE -164.4294909
 ITERATION   2 PLS= 0.881E-03 0.914E-03 ENERGY      -64.458828 DELTAE   -0.0293370
 ITERATION   3 PLS= 0.442E-03 0.445E-03 ENERGY      -64.464297 DELTAE   -0.0054687
 ITERATION   4 PLS= 0.222E-03 0.215E-03 ENERGY      -64.467447 DELTAE   -0.0031504
 CYCLE:    17 TIME:   0.090 TIME LEFT:  2.00W  GRAD.:     7.247 HEAT: -64.46590
 ITERATION   1 PLS= 0.219E-04 0.228E-04 ENERGY      -64.393077 DELTAE -164.3930775
 ITERATION   2 PLS= 0.158E-02 0.164E-02 ENERGY      -64.488354 DELTAE   -0.0952760
 ITERATION   3 PLS= 0.813E-03 0.820E-03 ENERGY      -64.506297 DELTAE   -0.0179439
 ITERATION   4 PLS= 0.414E-03 0.402E-03 ENERGY      -64.516960 DELTAE   -0.0106622
 CYCLE:    18 TIME:   0.098 TIME LEFT:  2.00W  GRAD.:    12.776 HEAT: -64.51163
 ITERATION   1 PLS= 0.313E-04 0.330E-04 ENERGY      -64.485493 DELTAE -164.4854927
 ITERATION   2 PLS= 0.124E-02 0.128E-02 ENERGY      -64.579494 DELTAE   -0.0940016
 ITERATION   3 PLS= 0.640E-03 0.645E-03 ENERGY      -64.596994 DELTAE   -0.0174997
 ITERATION   4 PLS= 0.327E-03 0.316E-03 ENERGY      -64.607624 DELTAE   -0.0106298
 CYCLE:    19 TIME:   0.102 TIME LEFT:  2.00W  GRAD.:    10.474 HEAT: -64.60200
 ITERATION   1 PLS= 0.419E-04 0.421E-04 ENERGY      -64.460914 DELTAE -164.4609140
 ITERATION   2 PLS= 0.172E-02 0.179E-02 ENERGY      -64.722402 DELTAE   -0.2614880
 ITERATION   3 PLS= 0.922E-03 0.932E-03 ENERGY      -64.770436 DELTAE   -0.0480341
 ITERATION   4 PLS= 0.475E-03 0.462E-03 ENERGY      -64.798975 DELTAE   -0.0285388
 ITERATION   5 PLS= 0.662E-04 0.660E-04 ENERGY      -64.783756 DELTAE    0.0152188
 CYCLE:    20 TIME:   0.113 TIME LEFT:  2.00W  GRAD.:     9.049 HEAT: -64.78383
 ITERATION   1 PLS= 0.400E-04 0.377E-04 ENERGY      -64.550941 DELTAE -164.5509407
 ITERATION   2 PLS= 0.110E-02 0.114E-02 ENERGY      -64.835461 DELTAE   -0.2845204
 ITERATION   3 PLS= 0.643E-03 0.649E-03 ENERGY      -64.884159 DELTAE   -0.0486976
 ITERATION   4 PLS= 0.362E-03 0.353E-03 ENERGY      -64.913109 DELTAE   -0.0289507
 ITERATION   5 PLS= 0.600E-04 0.644E-04 ENERGY      -64.896887 DELTAE    0.0162220
 CYCLE:    21 TIME:   0.125 TIME LEFT:  2.00W  GRAD.:    16.691 HEAT: -64.89699
 ITERATION   1 PLS= 0.413E-04 0.434E-04 ENERGY      -64.754801 DELTAE -164.7548013
 ITERATION   2 PLS= 0.105E-02 0.111E-02 ENERGY      -64.971574 DELTAE   -0.2167731
 ITERATION   3 PLS= 0.489E-03 0.496E-03 ENERGY      -65.009523 DELTAE   -0.0379491
 ITERATION   4 PLS= 0.264E-03 0.259E-03 ENERGY      -65.031385 DELTAE   -0.0218619
 ITERATION   5 PLS= 0.577E-04 0.594E-04 ENERGY      -65.019564 DELTAE    0.0118214
 CYCLE:    22 TIME:   0.141 TIME LEFT:  2.00W  GRAD.:    10.414 HEAT: -65.01962
 ITERATION   1 PLS= 0.427E-04 0.434E-04 ENERGY      -64.986143 DELTAE -164.9861429
 ITERATION   2 PLS= 0.167E-02 0.174E-02 ENERGY      -65.061322 DELTAE   -0.0751795
 ITERATION   3 PLS= 0.918E-03 0.926E-03 ENERGY      -65.076281 DELTAE   -0.0149582
 ITERATION   4 PLS= 0.502E-03 0.490E-03 ENERGY      -65.085960 DELTAE   -0.0096791
 CYCLE:    23 TIME:   0.102 TIME LEFT:  2.00W  GRAD.:     8.764 HEAT: -65.08082
 ITERATION   1 PLS= 0.519E-04 0.514E-04 ENERGY      -64.719726 DELTAE -164.7197257
 ITERATION   2 PLS= 0.254E-02 0.264E-02 ENERGY      -65.048249 DELTAE   -0.3285229
 ITERATION   3 PLS= 0.145E-02 0.146E-02 ENERGY      -65.104659 DELTAE   -0.0564101
 ITERATION   4 PLS= 0.816E-03 0.796E-03 ENERGY      -65.138282 DELTAE   -0.0336235
 ITERATION   5 PLS= 0.108E-03 0.112E-03 ENERGY      -65.121048 DELTAE    0.0172344
 CYCLE:    24 TIME:   0.121 TIME LEFT:  2.00W  GRAD.:    20.894 HEAT: -65.12113
 ITERATION   1 PLS= 0.540E-04 0.804E-04 ENERGY      -65.101115 DELTAE -165.1011152
 ITERATION   2 PLS= 0.154E-02 0.165E-02 ENERGY      -65.177461 DELTAE   -0.0763460
 ITERATION   3 PLS= 0.530E-03 0.537E-03 ENERGY      -65.186361 DELTAE   -0.0088993
 ITERATION   4 PLS= 0.264E-03 0.258E-03 ENERGY      -65.190432 DELTAE   -0.0040711
 CYCLE:    25 TIME:   0.094 TIME LEFT:  2.00W  GRAD.:     9.343 HEAT: -65.18867
 ITERATION   1 PLS= 0.303E-04 0.291E-04 ENERGY      -65.280134 DELTAE -165.2801336
 ITERATION   2 PLS= 0.833E-03 0.865E-03 ENERGY      -65.302924 DELTAE   -0.0227908
 ITERATION   3 PLS= 0.411E-03 0.414E-03 ENERGY      -65.307201 DELTAE   -0.0042763
 ITERATION   4 PLS= 0.203E-03 0.196E-03 ENERGY      -65.309837 DELTAE   -0.0026365
 CYCLE:    26 TIME:   0.105 TIME LEFT:  2.00W  GRAD.:     9.802 HEAT: -65.30844
 ITERATION   1 PLS= 0.267E-04 0.275E-04 ENERGY      -65.340796 DELTAE -165.3407962
 ITERATION   2 PLS= 0.132E-02 0.137E-02 ENERGY      -65.425426 DELTAE   -0.0846300
 ITERATION   3 PLS= 0.669E-03 0.674E-03 ENERGY      -65.440656 DELTAE   -0.0152299
 ITERATION   4 PLS= 0.376E-03 0.367E-03 ENERGY      -65.450012 DELTAE   -0.0093561
 CYCLE:    27 TIME:   0.129 TIME LEFT:  2.00W  GRAD.:    10.116 HEAT: -65.44501
 ITERATION   1 PLS= 0.378E-04 0.383E-04 ENERGY      -64.942952 DELTAE -164.9429524
 ITERATION   2 PLS= 0.235E-02 0.244E-02 ENERGY      -65.380740 DELTAE   -0.4377878
 ITERATION   3 PLS= 0.122E-02 0.122E-02 ENERGY      -65.458243 DELTAE   -0.0775029
 ITERATION   4 PLS= 0.607E-03 0.585E-03 ENERGY      -65.501289 DELTAE   -0.0430458
 ITERATION   5 PLS= 0.965E-04 0.650E-04 ENERGY      -65.478734 DELTAE    0.0225552
 CYCLE:    28 TIME:   0.148 TIME LEFT:  2.00W  GRAD.:    15.238 HEAT: -65.47883
 ITERATION   1 PLS= 0.693E-04 0.395E-04 ENERGY      -64.985181 DELTAE -164.9851811
 ITERATION   2 PLS= 0.304E-02 0.316E-02 ENERGY      -65.525076 DELTAE   -0.5398953
 ITERATION   3 PLS= 0.157E-02 0.158E-02 ENERGY      -65.622758 DELTAE   -0.0976816
 ITERATION   4 PLS= 0.786E-03 0.762E-03 ENERGY      -65.676850 DELTAE   -0.0540924
 ITERATION   5 PLS= 0.114E-03 0.538E-04 ENERGY      -65.648530 DELTAE    0.0283203
 CYCLE:    29 TIME:   0.129 TIME LEFT:  2.00W  GRAD.:    11.819 HEAT: -65.64864
 ITERATION   1 PLS= 0.827E-04 0.314E-04 ENERGY      -65.119484 DELTAE -165.1194841
 ITERATION   2 PLS= 0.286E-02 0.297E-02 ENERGY      -65.565873 DELTAE   -0.4463892
 ITERATION   3 PLS= 0.141E-02 0.141E-02 ENERGY      -65.641889 DELTAE   -0.0760161
 ITERATION   4 PLS= 0.714E-03 0.699E-03 ENERGY      -65.685163 DELTAE   -0.0432736
 ITERATION   5 PLS= 0.134E-03 0.139E-03 ENERGY      -65.662533 DELTAE    0.0226299
 CYCLE:    30 TIME:   0.121 TIME LEFT:  2.00W  GRAD.:    16.709 HEAT: -65.66264
 ITERATION   1 PLS= 0.646E-04 0.578E-04 ENERGY      -65.779740 DELTAE -165.7797401
 ITERATION   2 PLS= 0.104E-02 0.111E-02 ENERGY      -65.820058 DELTAE   -0.0403182
 ITERATION   3 PLS= 0.373E-03 0.394E-03 ENERGY      -65.824651 DELTAE   -0.0045932
 ITERATION   4 PLS= 0.198E-03 0.200E-03 ENERGY      -65.826850 DELTAE   -0.0021989
 CYCLE:    31 TIME:   0.156 TIME LEFT:  2.00W  GRAD.:     7.758 HEAT: -65.82579
 ITERATION   1 PLS= 0.459E-04 0.465E-04 ENERGY      -65.791896 DELTAE -165.7918965
 ITERATION   2 PLS= 0.988E-03 0.103E-02 ENERGY      -65.833247 DELTAE   -0.0413510
 ITERATION   3 PLS= 0.549E-03 0.551E-03 ENERGY      -65.840707 DELTAE   -0.0074597
 ITERATION   4 PLS= 0.307E-03 0.299E-03 ENERGY      -65.845524 DELTAE   -0.0048171
 CYCLE:    32 TIME:   0.156 TIME LEFT:  2.00W  GRAD.:     6.153 HEAT: -65.84285
 ITERATION   1 PLS= 0.410E-04 0.429E-04 ENERGY      -65.838860 DELTAE -165.8388599
 ITERATION   2 PLS= 0.124E-02 0.128E-02 ENERGY      -65.886408 DELTAE   -0.0475479
 ITERATION   3 PLS= 0.575E-03 0.577E-03 ENERGY      -65.895104 DELTAE   -0.0086959
 ITERATION   4 PLS= 0.292E-03 0.282E-03 ENERGY      -65.900103 DELTAE   -0.0049990
 CYCLE:    33 TIME:   0.121 TIME LEFT:  2.00W  GRAD.:     6.662 HEAT: -65.89761
 ITERATION   1 PLS= 0.616E-04 0.604E-04 ENERGY      -65.749363 DELTAE -165.7493632
 ITERATION   2 PLS= 0.229E-02 0.238E-02 ENERGY      -65.921514 DELTAE   -0.1721513
 ITERATION   3 PLS= 0.115E-02 0.115E-02 ENERGY      -65.953554 DELTAE   -0.0320397
 ITERATION   4 PLS= 0.575E-03 0.555E-03 ENERGY      -65.971069 DELTAE   -0.0175152
 CYCLE:    34 TIME:   0.141 TIME LEFT:  2.00W  GRAD.:     8.714 HEAT: -65.96254
 ITERATION   1 PLS= 0.700E-04 0.886E-04 ENERGY      -65.762094 DELTAE -165.7620939
 ITERATION   2 PLS= 0.133E-02 0.137E-02 ENERGY      -65.892145 DELTAE   -0.1300513
 ITERATION   3 PLS= 0.641E-03 0.640E-03 ENERGY      -65.913856 DELTAE   -0.0217109
 ITERATION   4 PLS= 0.311E-03 0.297E-03 ENERGY      -65.925901 DELTAE   -0.0120445
 CYCLE:    35 TIME:   0.129 TIME LEFT:  2.00W  GRAD.:    12.287 HEAT: -65.91985
 ITERATION   1 PLS= 0.503E-04 0.100E-03 ENERGY      -65.865235 DELTAE -165.8652352
 ITERATION   2 PLS= 0.825E-03 0.847E-03 ENERGY      -65.906830 DELTAE   -0.0415945
 ITERATION   3 PLS= 0.402E-03 0.399E-03 ENERGY      -65.913768 DELTAE   -0.0069387
 ITERATION   4 PLS= 0.203E-03 0.195E-03 ENERGY      -65.917403 DELTAE   -0.0036348
 CYCLE:    36 TIME:   0.148 TIME LEFT:  2.00W  GRAD.:     6.101 HEAT: -65.91557
 ITERATION   1 PLS= 0.372E-04 0.194E-04 ENERGY      -66.026349 DELTAE -166.0263492
 ITERATION   2 PLS= 0.932E-03 0.965E-03 ENERGY      -66.051181 DELTAE   -0.0248314
 ITERATION   3 PLS= 0.468E-03 0.469E-03 ENERGY      -66.055382 DELTAE   -0.0042017
 ITERATION   4 PLS= 0.235E-03 0.227E-03 ENERGY      -66.057783 DELTAE   -0.0024008
 CYCLE:    37 TIME:   0.098 TIME LEFT:  2.00W  GRAD.:     5.979 HEAT: -66.05657
 ITERATION   1 PLS= 0.293E-04 0.382E-04 ENERGY      -65.947005 DELTAE -165.9470050
 ITERATION   2 PLS= 0.863E-03 0.897E-03 ENERGY      -65.998147 DELTAE   -0.0511420
 ITERATION   3 PLS= 0.440E-03 0.441E-03 ENERGY      -66.008002 DELTAE   -0.0098553
 ITERATION   4 PLS= 0.222E-03 0.214E-03 ENERGY      -66.013560 DELTAE   -0.0055573
 CYCLE:    38 TIME:   0.109 TIME LEFT:  2.00W  GRAD.:     6.869 HEAT: -66.01072
 ITERATION   1 PLS= 0.277E-04 0.173E-04 ENERGY      -65.503481 DELTAE -165.5034807
 ITERATION   2 PLS= 0.256E-02 0.266E-02 ENERGY      -66.002036 DELTAE   -0.4985549
 ITERATION   3 PLS= 0.128E-02 0.128E-02 ENERGY      -66.095806 DELTAE   -0.0937699
 ITERATION   4 PLS= 0.639E-03 0.615E-03 ENERGY      -66.149498 DELTAE   -0.0536927
 ITERATION   5 PLS= 0.855E-04 0.687E-04 ENERGY      -66.122341 DELTAE    0.0271573
 CYCLE:    39 TIME:   0.152 TIME LEFT:  2.00W  GRAD.:    18.025 HEAT: -66.12244
 ITERATION   1 PLS= 0.651E-04 0.378E-04 ENERGY      -65.979438 DELTAE -165.9794385
 ITERATION   2 PLS= 0.143E-02 0.151E-02 ENERGY      -66.121688 DELTAE   -0.1422492
 ITERATION   3 PLS= 0.586E-03 0.600E-03 ENERGY      -66.145712 DELTAE   -0.0240247
 ITERATION   4 PLS= 0.301E-03 0.296E-03 ENERGY      -66.159608 DELTAE   -0.0138953
 CYCLE:    40 TIME:   0.121 TIME LEFT:  2.00W  GRAD.:     8.455 HEAT: -66.15276
 ITERATION   1 PLS= 0.462E-04 0.368E-04 ENERGY      -66.165694 DELTAE -166.1656935
 ITERATION   2 PLS= 0.553E-03 0.579E-03 ENERGY      -66.191883 DELTAE   -0.0261891
 ITERATION   3 PLS= 0.290E-03 0.292E-03 ENERGY      -66.196403 DELTAE   -0.0045203
 ITERATION   4 PLS= 0.167E-03 0.162E-03 ENERGY      -66.199058 DELTAE   -0.0026554
 CYCLE:    41 TIME:   0.102 TIME LEFT:  2.00W  GRAD.:     6.789 HEAT: -66.19768
 ITERATION   1 PLS= 0.239E-04 0.212E-04 ENERGY      -66.136611 DELTAE -166.1366106
 ITERATION   2 PLS= 0.868E-03 0.899E-03 ENERGY      -66.271687 DELTAE   -0.1350764
 ITERATION   3 PLS= 0.473E-03 0.413E-03 ENERGY      -66.297143 DELTAE   -0.0254565
 ITERATION   4 PLS= 0.276E-03 0.194E-03 ENERGY      -66.311857 DELTAE   -0.0147136
 CYCLE:    42 TIME:   0.105 TIME LEFT:  2.00W  GRAD.:     7.533 HEAT: -66.30426
 ITERATION   1 PLS= 0.523E-04 0.303E-04 ENERGY      -65.905423 DELTAE -165.9054226
 ITERATION   2 PLS= 0.146E-02 0.154E-02 ENERGY      -66.185814 DELTAE   -0.2803912
 ITERATION   3 PLS= 0.768E-03 0.688E-03 ENERGY      -66.236751 DELTAE   -0.0509374
 ITERATION   4 PLS= 0.450E-03 0.323E-03 ENERGY      -66.267097 DELTAE   -0.0303457
 ITERATION   5 PLS= 0.771E-04 0.101E-03 ENERGY      -66.251049 DELTAE    0.0160483
 CYCLE:    43 TIME:   0.117 TIME LEFT:  2.00W  GRAD.:    16.916 HEAT: -66.25113
 ITERATION   1 PLS= 0.596E-04 0.657E-04 ENERGY      -66.303773 DELTAE -166.3037729
 ITERATION   2 PLS= 0.605E-03 0.634E-03 ENERGY      -66.321637 DELTAE   -0.0178638
 ITERATION   3 PLS= 0.304E-03 0.312E-03 ENERGY      -66.323733 DELTAE   -0.0020958
 ITERATION   4 PLS= 0.157E-03 0.158E-03 ENERGY      -66.324837 DELTAE   -0.0011042
 CYCLE:    44 TIME:   0.113 TIME LEFT:  2.00W  GRAD.:     5.854 HEAT: -66.32427
 ITERATION   1 PLS= 0.359E-04 0.355E-04 ENERGY      -66.341815 DELTAE -166.3418154
 ITERATION   2 PLS= 0.315E-03 0.326E-03 ENERGY      -66.348748 DELTAE   -0.0069331
 ITERATION   3 PLS= 0.163E-03 0.165E-03 ENERGY      -66.349890 DELTAE   -0.0011417
 ITERATION   4 PLS= 0.880E-04 0.861E-04 ENERGY      -66.350714 DELTAE   -0.0008241
 CYCLE:    45 TIME:   0.102 TIME LEFT:  2.00W  GRAD.:     4.414 HEAT: -66.35027
 ITERATION   1 PLS= 0.193E-04 0.349E-04 ENERGY      -66.326724 DELTAE -166.3267244
 ITERATION   2 PLS= 0.832E-03 0.567E-03 ENERGY      -66.358291 DELTAE   -0.0315666
 ITERATION   3 PLS= 0.412E-03 0.255E-03 ENERGY      -66.364406 DELTAE   -0.0061145
 ITERATION   4 PLS= 0.222E-03 0.120E-03 ENERGY      -66.368334 DELTAE   -0.0039286
 CYCLE:    46 TIME:   0.164 TIME LEFT:  2.00W  GRAD.:     5.673 HEAT: -66.36628
 ITERATION   1 PLS= 0.483E-04 0.850E-04 ENERGY      -66.333534 DELTAE -166.3335337
 ITERATION   2 PLS= 0.125E-02 0.872E-03 ENERGY      -66.406080 DELTAE   -0.0725463
 ITERATION   3 PLS= 0.625E-03 0.430E-03 ENERGY      -66.419789 DELTAE   -0.0137090
 ITERATION   4 PLS= 0.312E-03 0.269E-03 ENERGY      -66.429127 DELTAE   -0.0093384
 CYCLE:    47 TIME:   0.121 TIME LEFT:  2.00W  GRAD.:     7.009 HEAT: -66.42394
 ITERATION   1 PLS= 0.693E-04 0.155E-03 ENERGY      -65.981244 DELTAE -165.9812442
 ITERATION   2 PLS= 0.266E-02 0.189E-02 ENERGY      -66.316423 DELTAE   -0.3351789
 ITERATION   3 PLS= 0.133E-02 0.749E-03 ENERGY      -66.377363 DELTAE   -0.0609395
 ITERATION   4 PLS= 0.668E-03 0.389E-03 ENERGY      -66.414074 DELTAE   -0.0367112
 ITERATION   5 PLS= 0.129E-03 0.278E-03 ENERGY      -66.395018 DELTAE    0.0190562
 CYCLE:    48 TIME:   0.117 TIME LEFT:  2.00W  GRAD.:    16.012 HEAT: -66.39515
 ITERATION   1 PLS= 0.959E-04 0.191E-03 ENERGY      -66.406163 DELTAE -166.4061631
 ITERATION   2 PLS= 0.110E-02 0.117E-02 ENERGY      -66.441907 DELTAE   -0.0357442
 ITERATION   3 PLS= 0.351E-03 0.372E-03 ENERGY      -66.446607 DELTAE   -0.0047002
 ITERATION   4 PLS= 0.163E-03 0.168E-03 ENERGY      -66.448877 DELTAE   -0.0022695
 CYCLE:    49 TIME:   0.094 TIME LEFT:  2.00W  GRAD.:     4.139 HEAT: -66.44782
 ITERATION   1 PLS= 0.228E-04 0.229E-04 ENERGY      -66.451254 DELTAE -166.4512535
 ITERATION   2 PLS= 0.199E-03 0.206E-03 ENERGY      -66.455282 DELTAE   -0.0040287
 ITERATION   3 PLS= 0.989E-04 0.986E-04 ENERGY      -66.456047 DELTAE   -0.0007643
 ITERATION   4 PLS= 0.553E-04 0.470E-04 ENERGY      -66.456513 DELTAE   -0.0004665
 CYCLE:    50 TIME:   0.098 TIME LEFT:  2.00W  GRAD.:     3.626 HEAT: -66.45628
 ITERATION   1 PLS= 0.140E-04 0.578E-05 ENERGY      -66.461842 DELTAE -166.4618418
 ITERATION   2 PLS= 0.543E-03 0.336E-03 ENERGY      -66.481516 DELTAE   -0.0196742
 ITERATION   3 PLS= 0.296E-03 0.159E-03 ENERGY      -66.484838 DELTAE   -0.0033219
 ITERATION   4 PLS= 0.169E-03 0.840E-04 ENERGY      -66.486781 DELTAE   -0.0019431
 CYCLE:    51 TIME:   0.098 TIME LEFT:  2.00W  GRAD.:     5.064 HEAT: -66.48573
 ITERATION   1 PLS= 0.205E-04 0.421E-04 ENERGY      -66.364488 DELTAE -166.3644880
 ITERATION   2 PLS= 0.164E-02 0.145E-02 ENERGY      -66.506771 DELTAE   -0.1422825
 ITERATION   3 PLS= 0.849E-03 0.674E-03 ENERGY      -66.531977 DELTAE   -0.0252064
 ITERATION   4 PLS= 0.447E-03 0.341E-03 ENERGY      -66.547249 DELTAE   -0.0152722
 CYCLE:    52 TIME:   0.160 TIME LEFT:  2.00W  GRAD.:    11.404 HEAT: -66.53881
 ITERATION   1 PLS= 0.655E-04 0.195E-03 ENERGY      -66.495676 DELTAE -166.4956763
 ITERATION   2 PLS= 0.129E-02 0.120E-02 ENERGY      -66.595517 DELTAE   -0.0998403
 ITERATION   3 PLS= 0.674E-03 0.555E-03 ENERGY      -66.613092 DELTAE   -0.0175749
 ITERATION   4 PLS= 0.378E-03 0.266E-03 ENERGY      -66.622822 DELTAE   -0.0097303
 CYCLE:    53 TIME:   0.129 TIME LEFT:  2.00W  GRAD.:     5.992 HEAT: -66.61773
 ITERATION   1 PLS= 0.554E-04 0.532E-04 ENERGY      -66.620722 DELTAE -166.6207218
 ITERATION   2 PLS= 0.537E-03 0.566E-03 ENERGY      -66.632390 DELTAE   -0.0116683
 ITERATION   3 PLS= 0.258E-03 0.263E-03 ENERGY      -66.634475 DELTAE   -0.0020847
 ITERATION   4 PLS= 0.134E-03 0.126E-03 ENERGY      -66.635739 DELTAE   -0.0012647
 CYCLE:    54 TIME:   0.113 TIME LEFT:  2.00W  GRAD.:     4.212 HEAT: -66.63507
 ITERATION   1 PLS= 0.225E-04 0.231E-04 ENERGY      -66.639646 DELTAE -166.6396457
 ITERATION   2 PLS= 0.708E-03 0.735E-03 ENERGY      -66.659376 DELTAE   -0.0197300
 ITERATION   3 PLS= 0.347E-03 0.348E-03 ENERGY      -66.663049 DELTAE   -0.0036730
 ITERATION   4 PLS= 0.170E-03 0.164E-03 ENERGY      -66.665361 DELTAE   -0.0023127
 CYCLE:    55 TIME:   0.086 TIME LEFT:  2.00W  GRAD.:     5.352 HEAT: -66.66418
 ITERATION   1 PLS= 0.321E-04 0.424E-04 ENERGY      -66.757528 DELTAE -166.7575282
 ITERATION   2 PLS= 0.107E-02 0.111E-02 ENERGY      -66.800646 DELTAE   -0.0431178
 ITERATION   3 PLS= 0.509E-03 0.509E-03 ENERGY      -66.808445 DELTAE   -0.0077994
 ITERATION   4 PLS= 0.245E-03 0.235E-03 ENERGY      -66.813267 DELTAE   -0.0048220
 CYCLE:    56 TIME:   0.176 TIME LEFT:  2.00W  GRAD.:     8.004 HEAT: -66.81087
 ITERATION   1 PLS= 0.421E-04 0.725E-04 ENERGY      -66.706986 DELTAE -166.7069863
 ITERATION   2 PLS= 0.186E-02 0.193E-02 ENERGY      -66.822149 DELTAE   -0.1151623
 ITERATION   3 PLS= 0.865E-03 0.864E-03 ENERGY      -66.844347 DELTAE   -0.0221981
 ITERATION   4 PLS= 0.435E-03 0.420E-03 ENERGY      -66.858364 DELTAE   -0.0140174
 CYCLE:    57 TIME:   0.246 TIME LEFT:  2.00W  GRAD.:     7.246 HEAT: -66.85127
 ITERATION   1 PLS= 0.698E-04 0.107E-03 ENERGY      -66.688008 DELTAE -166.6880083
 ITERATION   2 PLS= 0.147E-02 0.152E-02 ENERGY      -66.759974 DELTAE   -0.0719654
 ITERATION   3 PLS= 0.697E-03 0.698E-03 ENERGY      -66.773960 DELTAE   -0.0139865
 ITERATION   4 PLS= 0.353E-03 0.340E-03 ENERGY      -66.782885 DELTAE   -0.0089245
 CYCLE:    58 TIME:   0.219 TIME LEFT:  2.00W  GRAD.:     7.142 HEAT: -66.77844
 ITERATION   1 PLS= 0.450E-04 0.880E-04 ENERGY      -66.767269 DELTAE -166.7672686
 ITERATION   2 PLS= 0.100E-02 0.104E-02 ENERGY      -66.809990 DELTAE   -0.0427217
 ITERATION   3 PLS= 0.472E-03 0.473E-03 ENERGY      -66.818373 DELTAE   -0.0083827
 ITERATION   4 PLS= 0.240E-03 0.232E-03 ENERGY      -66.823841 DELTAE   -0.0054682
 CYCLE:    59 TIME:   0.191 TIME LEFT:  2.00W  GRAD.:     4.697 HEAT: -66.82109
 ITERATION   1 PLS= 0.265E-04 0.743E-04 ENERGY      -66.809954 DELTAE -166.8099541
 ITERATION   2 PLS= 0.699E-03 0.722E-03 ENERGY      -66.823217 DELTAE   -0.0132631
 ITERATION   3 PLS= 0.341E-03 0.341E-03 ENERGY      -66.825544 DELTAE   -0.0023265
 ITERATION   4 PLS= 0.167E-03 0.160E-03 ENERGY      -66.826824 DELTAE   -0.0012804
 CYCLE:    60 TIME:   0.211 TIME LEFT:  2.00W  GRAD.:     5.106 HEAT: -66.82619
 ITERATION   1 PLS= 0.208E-04 0.412E-04 ENERGY      -66.808761 DELTAE -166.8087608
 ITERATION   2 PLS= 0.147E-02 0.153E-02 ENERGY      -66.860096 DELTAE   -0.0513353
 ITERATION   3 PLS= 0.715E-03 0.716E-03 ENERGY      -66.869767 DELTAE   -0.0096711
 ITERATION   4 PLS= 0.347E-03 0.334E-03 ENERGY      -66.875147 DELTAE   -0.0053794
 CYCLE:    61 TIME:   0.250 TIME LEFT:  2.00W  GRAD.:     4.548 HEAT: -66.87243
 ITERATION   1 PLS= 0.379E-04 0.632E-04 ENERGY      -66.621845 DELTAE -166.6218453
 ITERATION   2 PLS= 0.320E-02 0.333E-02 ENERGY      -66.825771 DELTAE   -0.2039254
 ITERATION   3 PLS= 0.157E-02 0.158E-02 ENERGY      -66.864683 DELTAE   -0.0389126
 ITERATION   4 PLS= 0.765E-03 0.739E-03 ENERGY      -66.886367 DELTAE   -0.0216838
 ITERATION   5 PLS= 0.775E-04 0.122E-03 ENERGY      -66.875504 DELTAE    0.0108634
 CYCLE:    62 TIME:   0.188 TIME LEFT:  2.00W  GRAD.:     6.336 HEAT: -66.87555
 ITERATION   1 PLS= 0.572E-04 0.820E-04 ENERGY      -66.800773 DELTAE -166.8007728
 ITERATION   2 PLS= 0.194E-02 0.202E-02 ENERGY      -66.884558 DELTAE   -0.0837848
 ITERATION   3 PLS= 0.952E-03 0.957E-03 ENERGY      -66.899521 DELTAE   -0.0149638
 ITERATION   4 PLS= 0.466E-03 0.451E-03 ENERGY      -66.907926 DELTAE   -0.0084043
 CYCLE:    63 TIME:   0.102 TIME LEFT:  2.00W  GRAD.:     6.911 HEAT: -66.90374
 ITERATION   1 PLS= 0.453E-04 0.669E-04 ENERGY      -66.916670 DELTAE -166.9166700
 ITERATION   2 PLS= 0.281E-03 0.302E-03 ENERGY      -66.921181 DELTAE   -0.0045109
 ITERATION   3 PLS= 0.139E-03 0.929E-04 ENERGY      -66.921854 DELTAE   -0.0006730
 ITERATION   4 PLS= 0.768E-04 0.660E-04 ENERGY      -66.922211 DELTAE   -0.0003571
 CYCLE:    64 TIME:   0.133 TIME LEFT:  2.00W  GRAD.:     4.109 HEAT: -66.92203
 ITERATION   1 PLS= 0.106E-04 0.325E-04 ENERGY      -66.922436 DELTAE -166.9224360
 ITERATION   2 PLS= 0.631E-03 0.298E-03 ENERGY      -66.941836 DELTAE   -0.0193996
 ITERATION   3 PLS= 0.328E-03 0.165E-03 ENERGY      -66.945247 DELTAE   -0.0034116
 ITERATION   4 PLS= 0.171E-03 0.126E-03 ENERGY      -66.947312 DELTAE   -0.0020648
 CYCLE:    65 TIME:   0.109 TIME LEFT:  2.00W  GRAD.:     3.842 HEAT: -66.94620
 ITERATION   1 PLS= 0.246E-04 0.661E-04 ENERGY      -66.941097 DELTAE -166.9410971
 ITERATION   2 PLS= 0.119E-02 0.123E-02 ENERGY      -66.987835 DELTAE   -0.0467374
 ITERATION   3 PLS= 0.590E-03 0.592E-03 ENERGY      -66.996099 DELTAE   -0.0082648
 ITERATION   4 PLS= 0.293E-03 0.283E-03 ENERGY      -67.000656 DELTAE   -0.0045564
 CYCLE:    66 TIME:   0.180 TIME LEFT:  2.00W  GRAD.:     5.465 HEAT: -66.99836
 ITERATION   1 PLS= 0.255E-04 0.838E-04 ENERGY      -66.712181 DELTAE -166.7121811
 ITERATION   2 PLS= 0.204E-02 0.211E-02 ENERGY      -66.851934 DELTAE   -0.1397524
 ITERATION   3 PLS= 0.102E-02 0.102E-02 ENERGY      -66.876017 DELTAE   -0.0240835
 ITERATION   4 PLS= 0.505E-03 0.486E-03 ENERGY      -66.888911 DELTAE   -0.0128936
 CYCLE:    67 TIME:   0.156 TIME LEFT:  2.00W  GRAD.:     6.222 HEAT: -66.88247
 ITERATION   1 PLS= 0.569E-04 0.905E-04 ENERGY      -66.865512 DELTAE -166.8655115
 ITERATION   2 PLS= 0.763E-03 0.788E-03 ENERGY      -66.885505 DELTAE   -0.0199930
 ITERATION   3 PLS= 0.372E-03 0.371E-03 ENERGY      -66.888971 DELTAE   -0.0034665
 ITERATION   4 PLS= 0.182E-03 0.173E-03 ENERGY      -66.890891 DELTAE   -0.0019198
 CYCLE:    68 TIME:   0.145 TIME LEFT:  2.00W  GRAD.:     3.694 HEAT: -66.88991
 ITERATION   1 PLS= 0.338E-04 0.394E-04 ENERGY      -66.889390 DELTAE -166.8893904
 ITERATION   2 PLS= 0.456E-03 0.473E-03 ENERGY      -66.899206 DELTAE   -0.0098155
 ITERATION   3 PLS= 0.195E-03 0.193E-03 ENERGY      -66.901155 DELTAE   -0.0019489
 ITERATION   4 PLS= 0.874E-04 0.849E-04 ENERGY      -66.902428 DELTAE   -0.0012729
 CYCLE:    69 TIME:   0.094 TIME LEFT:  2.00W  GRAD.:     4.302 HEAT: -66.90178
 ITERATION   1 PLS= 0.200E-04 0.425E-04 ENERGY      -66.923987 DELTAE -166.9239873
 ITERATION   2 PLS= 0.109E-02 0.912E-03 ENERGY      -66.968689 DELTAE   -0.0447020
 ITERATION   3 PLS= 0.549E-03 0.427E-03 ENERGY      -66.977252 DELTAE   -0.0085624
 ITERATION   4 PLS= 0.275E-03 0.207E-03 ENERGY      -66.982436 DELTAE   -0.0051840
 CYCLE:    70 TIME:   0.242 TIME LEFT:  2.00W  GRAD.:     4.679 HEAT: -66.97981
 ITERATION   1 PLS= 0.477E-04 0.111E-03 ENERGY      -66.667456 DELTAE -166.6674560
 ITERATION   2 PLS= 0.243E-02 0.252E-02 ENERGY      -66.922202 DELTAE   -0.2547464
 ITERATION   3 PLS= 0.118E-02 0.118E-02 ENERGY      -66.969065 DELTAE   -0.0468630
 ITERATION   4 PLS= 0.602E-03 0.548E-03 ENERGY      -66.995608 DELTAE   -0.0265430
 ITERATION   5 PLS= 0.105E-03 0.210E-03 ENERGY      -66.982324 DELTAE    0.0132845
 CYCLE:    71 TIME:   0.352 TIME LEFT:  2.00W  GRAD.:     8.250 HEAT: -66.98242
 ITERATION   1 PLS= 0.790E-04 0.141E-03 ENERGY      -66.832381 DELTAE -166.8323807
 ITERATION   2 PLS= 0.165E-02 0.172E-02 ENERGY      -66.949936 DELTAE   -0.1175554
 ITERATION   3 PLS= 0.796E-03 0.798E-03 ENERGY      -66.969615 DELTAE   -0.0196790
 ITERATION   4 PLS= 0.384E-03 0.370E-03 ENERGY      -66.980267 DELTAE   -0.0106515
 CYCLE:    72 TIME:   0.207 TIME LEFT:  2.00W  GRAD.:     8.100 HEAT: -66.97501
 ITERATION   1 PLS= 0.600E-04 0.124E-03 ENERGY      -66.984813 DELTAE -166.9848130
 ITERATION   2 PLS= 0.352E-03 0.380E-03 ENERGY      -66.990082 DELTAE   -0.0052690
 ITERATION   3 PLS= 0.150E-03 0.151E-03 ENERGY      -66.990679 DELTAE   -0.0005973
 ITERATION   4 PLS= 0.683E-04 0.924E-04 ENERGY      -66.990986 DELTAE   -0.0003069
 CYCLE:    73 TIME:   0.219 TIME LEFT:  2.00W  GRAD.:     3.707 HEAT: -66.99084
 ITERATION   1 PLS= 0.781E-05 0.374E-04 ENERGY      -67.005520 DELTAE -167.0055201
 ITERATION   2 PLS= 0.288E-03 0.296E-03 ENERGY      -67.009740 DELTAE   -0.0042202
 ITERATION   3 PLS= 0.126E-03 0.124E-03 ENERGY      -67.010393 DELTAE   -0.0006524
 ITERATION   4 PLS= 0.579E-04 0.664E-04 ENERGY      -67.010771 DELTAE   -0.0003783
 CYCLE:    74 TIME:   0.242 TIME LEFT:  2.00W  GRAD.:     2.897 HEAT: -67.01058
 ITERATION   1 PLS= 0.743E-05 0.346E-04 ENERGY      -66.926272 DELTAE -166.9262718
 ITERATION   2 PLS= 0.101E-02 0.105E-02 ENERGY      -66.967097 DELTAE   -0.0408251
 ITERATION   3 PLS= 0.498E-03 0.499E-03 ENERGY      -66.974508 DELTAE   -0.0074113
 ITERATION   4 PLS= 0.245E-03 0.235E-03 ENERGY      -66.978553 DELTAE   -0.0040449
 CYCLE:    75 TIME:   0.188 TIME LEFT:  2.00W  GRAD.:     3.638 HEAT: -66.97650
 ITERATION   1 PLS= 0.331E-04 0.576E-04 ENERGY      -66.782977 DELTAE -166.7829774
 ITERATION   2 PLS= 0.154E-02 0.160E-02 ENERGY      -66.915721 DELTAE   -0.1327439
 ITERATION   3 PLS= 0.734E-03 0.736E-03 ENERGY      -66.940070 DELTAE   -0.0243485
 ITERATION   4 PLS= 0.382E-03 0.347E-03 ENERGY      -66.953845 DELTAE   -0.0137753
 ITERATION   5 PLS= 0.634E-04 0.933E-04 ENERGY      -66.946741 DELTAE    0.0071039
 CYCLE:    76 TIME:   0.207 TIME LEFT:  2.00W  GRAD.:     5.474 HEAT: -66.94677
 ITERATION   1 PLS= 0.475E-04 0.607E-04 ENERGY      -66.707202 DELTAE -166.7072016
 ITERATION   2 PLS= 0.191E-02 0.198E-02 ENERGY      -66.934061 DELTAE   -0.2268592
 ITERATION   3 PLS= 0.931E-03 0.933E-03 ENERGY      -66.975707 DELTAE   -0.0416467
 ITERATION   4 PLS= 0.485E-03 0.441E-03 ENERGY      -67.000052 DELTAE   -0.0243441
 ITERATION   5 PLS= 0.837E-04 0.101E-03 ENERGY      -66.987239 DELTAE    0.0128122
 CYCLE:    77 TIME:   0.246 TIME LEFT:  2.00W  GRAD.:     6.797 HEAT: -66.98730
 ITERATION   1 PLS= 0.635E-04 0.638E-04 ENERGY      -67.007438 DELTAE -167.0074379
 ITERATION   2 PLS= 0.199E-03 0.214E-03 ENERGY      -67.011633 DELTAE   -0.0041951
 ITERATION   3 PLS= 0.887E-04 0.818E-04 ENERGY      -67.012275 DELTAE   -0.0006416
 ITERATION   4 PLS= 0.472E-04 0.339E-04 ENERGY      -67.012646 DELTAE   -0.0003709
 CYCLE:    78 TIME:   0.188 TIME LEFT:  2.00W  GRAD.:     3.217 HEAT: -67.01247
 ITERATION   1 PLS= 0.155E-04 0.936E-05 ENERGY      -66.991827 DELTAE -166.9918271
 ITERATION   2 PLS= 0.858E-03 0.891E-03 ENERGY      -67.018016 DELTAE   -0.0261894
 ITERATION   3 PLS= 0.431E-03 0.426E-03 ENERGY      -67.022868 DELTAE   -0.0048517
 ITERATION   4 PLS= 0.224E-03 0.202E-03 ENERGY      -67.025650 DELTAE   -0.0027823
 CYCLE:    79 TIME:   0.180 TIME LEFT:  2.00W  GRAD.:     3.333 HEAT: -67.02427
 ITERATION   1 PLS= 0.236E-04 0.804E-04 ENERGY      -67.025015 DELTAE -167.0250145
 ITERATION   2 PLS= 0.207E-03 0.215E-03 ENERGY      -67.030095 DELTAE   -0.0050808
 ITERATION   3 PLS= 0.999E-04 0.169E-03 ENERGY      -67.031069 DELTAE   -0.0009739
 ITERATION   4 PLS= 0.550E-04 0.123E-03 ENERGY      -67.031794 DELTAE   -0.0007249
 CYCLE:    80 TIME:   0.219 TIME LEFT:  2.00W  GRAD.:     3.334 HEAT: -67.03138
 ITERATION   1 PLS= 0.155E-04 0.405E-04 ENERGY      -66.594292 DELTAE -166.5942923
 ITERATION   2 PLS= 0.254E-02 0.263E-02 ENERGY      -66.935189 DELTAE   -0.3408967
 ITERATION   3 PLS= 0.125E-02 0.125E-02 ENERGY      -66.998567 DELTAE   -0.0633785
 ITERATION   4 PLS= 0.608E-03 0.583E-03 ENERGY      -67.036281 DELTAE   -0.0377132
 ITERATION   5 PLS= 0.847E-04 0.173E-03 ENERGY      -67.016541 DELTAE    0.0197395
 CYCLE:    81 TIME:   0.215 TIME LEFT:  2.00W  GRAD.:     5.237 HEAT: -67.01664
 ITERATION   1 PLS= 0.655E-04 0.111E-03 ENERGY      -66.653962 DELTAE -166.6539623
 ITERATION   2 PLS= 0.203E-02 0.211E-02 ENERGY      -66.992588 DELTAE   -0.3386252
 ITERATION   3 PLS= 0.996E-03 0.994E-03 ENERGY      -67.053972 DELTAE   -0.0613841
 ITERATION   4 PLS= 0.483E-03 0.635E-03 ENERGY      -67.091748 DELTAE   -0.0377765
 ITERATION   5 PLS= 0.755E-04 0.217E-03 ENERGY      -67.071787 DELTAE    0.0199608
 CYCLE:    82 TIME:   0.332 TIME LEFT:  2.00W  GRAD.:    13.112 HEAT: -67.07190
 ITERATION   1 PLS= 0.579E-04 0.143E-03 ENERGY      -66.928120 DELTAE -166.9281202
 ITERATION   2 PLS= 0.160E-02 0.166E-02 ENERGY      -67.057824 DELTAE   -0.1297042
 ITERATION   3 PLS= 0.759E-03 0.760E-03 ENERGY      -67.080476 DELTAE   -0.0226519
 ITERATION   4 PLS= 0.363E-03 0.349E-03 ENERGY      -67.092880 DELTAE   -0.0124033
 CYCLE:    83 TIME:   0.258 TIME LEFT:  2.00W  GRAD.:     3.153 HEAT: -67.08672
 ITERATION   1 PLS= 0.488E-04 0.107E-03 ENERGY      -67.039795 DELTAE -167.0397951
 ITERATION   2 PLS= 0.481E-03 0.494E-03 ENERGY      -67.047946 DELTAE   -0.0081514
 ITERATION   3 PLS= 0.232E-03 0.229E-03 ENERGY      -67.049425 DELTAE   -0.0014785
 ITERATION   4 PLS= 0.112E-03 0.106E-03 ENERGY      -67.050260 DELTAE   -0.0008354
 CYCLE:    84 TIME:   0.230 TIME LEFT:  2.00W  GRAD.:     2.525 HEAT: -67.04984
 ITERATION   1 PLS= 0.237E-04 0.167E-04 ENERGY      -67.044047 DELTAE -167.0440472
 ITERATION   2 PLS= 0.587E-03 0.618E-03 ENERGY      -67.072652 DELTAE   -0.0286045
 ITERATION   3 PLS= 0.231E-03 0.236E-03 ENERGY      -67.077755 DELTAE   -0.0051035
 ITERATION   4 PLS= 0.111E-03 0.110E-03 ENERGY      -67.080865 DELTAE   -0.0031094
 ITERATION   5 PLS= 0.212E-04 0.357E-04 ENERGY      -67.079246 DELTAE    0.0016188
 CYCLE:    85 TIME:   0.301 TIME LEFT:  2.00W  GRAD.:     4.978 HEAT: -67.07925
 ITERATION   1 PLS= 0.124E-04 0.225E-04 ENERGY      -67.055336 DELTAE -167.0553360
 ITERATION   2 PLS= 0.422E-03 0.435E-03 ENERGY      -67.088758 DELTAE   -0.0334219
 ITERATION   3 PLS= 0.204E-03 0.206E-03 ENERGY      -67.095115 DELTAE   -0.0063576
 ITERATION   4 PLS= 0.115E-03 0.139E-03 ENERGY      -67.099406 DELTAE   -0.0042909
 CYCLE:    86 TIME:   0.191 TIME LEFT:  2.00W  GRAD.:     5.576 HEAT: -67.09702
 ITERATION   1 PLS= 0.210E-04 0.399E-04 ENERGY      -66.588300 DELTAE -166.5883004
 ITERATION   2 PLS= 0.240E-02 0.248E-02 ENERGY      -67.034930 DELTAE   -0.4466298
 ITERATION   3 PLS= 0.123E-02 0.123E-02 ENERGY      -67.118796 DELTAE   -0.0838657
 ITERATION   4 PLS= 0.623E-03 0.600E-03 ENERGY      -67.169823 DELTAE   -0.0510270
 ITERATION   5 PLS= 0.734E-04 0.858E-04 ENERGY      -67.143474 DELTAE    0.0263486
 CYCLE:    87 TIME:   0.238 TIME LEFT:  2.00W  GRAD.:    12.908 HEAT: -67.14359
 ITERATION   1 PLS= 0.533E-04 0.497E-04 ENERGY      -67.152359 DELTAE -167.1523585
 ITERATION   2 PLS= 0.934E-03 0.994E-03 ENERGY      -67.173519 DELTAE   -0.0211604
 ITERATION   3 PLS= 0.310E-03 0.323E-03 ENERGY      -67.175638 DELTAE   -0.0021188
 ITERATION   4 PLS= 0.141E-03 0.142E-03 ENERGY      -67.176634 DELTAE   -0.0009961
 CYCLE:    88 TIME:   0.172 TIME LEFT:  2.00W  GRAD.:     4.233 HEAT: -67.17620
 ITERATION   1 PLS= 0.229E-04 0.333E-04 ENERGY      -67.134437 DELTAE -167.1344367
 ITERATION   2 PLS= 0.622E-03 0.645E-03 ENERGY      -67.176691 DELTAE   -0.0422539
 ITERATION   3 PLS= 0.317E-03 0.317E-03 ENERGY      -67.184406 DELTAE   -0.0077155
 ITERATION   4 PLS= 0.161E-03 0.170E-03 ENERGY      -67.189220 DELTAE   -0.0048138
 CYCLE:    89 TIME:   0.145 TIME LEFT:  2.00W  GRAD.:     3.058 HEAT: -67.18662
 ITERATION   1 PLS= 0.203E-04 0.539E-04 ENERGY      -67.181903 DELTAE -167.1819025
 ITERATION   2 PLS= 0.542E-03 0.565E-03 ENERGY      -67.192297 DELTAE   -0.0103945
 ITERATION   3 PLS= 0.255E-03 0.257E-03 ENERGY      -67.194213 DELTAE   -0.0019159
 ITERATION   4 PLS= 0.121E-03 0.116E-03 ENERGY      -67.195425 DELTAE   -0.0012125
 CYCLE:    90 TIME:   0.121 TIME LEFT:  2.00W  GRAD.:     2.943 HEAT: -67.19479
 ITERATION   1 PLS= 0.199E-04 0.432E-04 ENERGY      -66.426926 DELTAE -166.4269258
 ITERATION   2 PLS= 0.398E-02 0.412E-02 ENERGY      -67.017826 DELTAE   -0.5908997
 ITERATION   3 PLS= 0.194E-02 0.195E-02 ENERGY      -67.129227 DELTAE   -0.1114011
 ITERATION   4 PLS= 0.947E-03 0.910E-03 ENERGY      -67.196494 DELTAE   -0.0672672
 ITERATION   5 PLS= 0.131E-03 0.968E-04 ENERGY      -67.161480 DELTAE    0.0350142
 ITERATION   6 PLS= 0.972E-04 0.533E-04 ENERGY      -67.161632 DELTAE   -0.0001524
 CYCLE:    91 TIME:   0.180 TIME LEFT:  2.00W  GRAD.:     8.866 HEAT: -67.16182
 ITERATION   1 PLS= 0.679E-04 0.294E-04 ENERGY      -67.150489 DELTAE -167.1504894
 ITERATION   2 PLS= 0.100E-02 0.103E-02 ENERGY      -67.198232 DELTAE   -0.0477428
 ITERATION   3 PLS= 0.492E-03 0.490E-03 ENERGY      -67.206197 DELTAE   -0.0079646
 ITERATION   4 PLS= 0.241E-03 0.231E-03 ENERGY      -67.210518 DELTAE   -0.0043212
 CYCLE:    92 TIME:   0.113 TIME LEFT:  2.00W  GRAD.:     5.269 HEAT: -67.20839
 ITERATION   1 PLS= 0.404E-04 0.235E-04 ENERGY      -67.199363 DELTAE -167.1993631
 ITERATION   2 PLS= 0.273E-03 0.280E-03 ENERGY      -67.203874 DELTAE   -0.0045110
 ITERATION   3 PLS= 0.127E-03 0.125E-03 ENERGY      -67.204641 DELTAE   -0.0007668
 ITERATION   4 PLS= 0.600E-04 0.595E-04 ENERGY      -67.205060 DELTAE   -0.0004191
 CYCLE:    93 TIME:   0.152 TIME LEFT:  2.00W  GRAD.:     3.342 HEAT: -67.20487
 ITERATION   1 PLS= 0.100E-04 0.771E-05 ENERGY      -67.189109 DELTAE -167.1891087
 ITERATION   2 PLS= 0.131E-02 0.136E-02 ENERGY      -67.259963 DELTAE   -0.0708545
 ITERATION   3 PLS= 0.664E-03 0.665E-03 ENERGY      -67.272926 DELTAE   -0.0129630
 ITERATION   4 PLS= 0.335E-03 0.323E-03 ENERGY      -67.280517 DELTAE   -0.0075912
 ITERATION   5 PLS= 0.392E-04 0.415E-04 ENERGY      -67.276550 DELTAE    0.0039675
 CYCLE:    94 TIME:   0.191 TIME LEFT:  2.00W  GRAD.:     2.847 HEAT: -67.27657
 ITERATION   1 PLS= 0.287E-04 0.252E-04 ENERGY      -66.748962 DELTAE -166.7489616
 ITERATION   2 PLS= 0.360E-02 0.373E-02 ENERGY      -67.169636 DELTAE   -0.4206742
 ITERATION   3 PLS= 0.179E-02 0.180E-02 ENERGY      -67.247778 DELTAE   -0.0781423
 ITERATION   4 PLS= 0.890E-03 0.858E-03 ENERGY      -67.293337 DELTAE   -0.0455589
 ITERATION   5 PLS= 0.985E-04 0.685E-04 ENERGY      -67.269805 DELTAE    0.0235323
 ITERATION   6 PLS= 0.723E-04 0.391E-04 ENERGY      -67.269900 DELTAE   -0.0000956
 CYCLE:    95 TIME:   0.145 TIME LEFT:  2.00W  GRAD.:     6.429 HEAT: -67.27001
 ITERATION   1 PLS= 0.507E-04 0.224E-04 ENERGY      -67.277950 DELTAE -167.2779500
 ITERATION   2 PLS= 0.328E-03 0.349E-03 ENERGY      -67.284753 DELTAE   -0.0068025
 ITERATION   3 PLS= 0.112E-03 0.117E-03 ENERGY      -67.285610 DELTAE   -0.0008578
 ITERATION   4 PLS= 0.560E-04 0.569E-04 ENERGY      -67.286052 DELTAE   -0.0004419
 CYCLE:    96 TIME:   0.094 TIME LEFT:  2.00W  GRAD.:     3.123 HEAT: -67.28583
 ITERATION   1 PLS= 0.109E-04 0.107E-04 ENERGY      -67.288890 DELTAE -167.2888899
 ITERATION   2 PLS= 0.415E-03 0.430E-03 ENERGY      -67.292888 DELTAE   -0.0039985
 ITERATION   3 PLS= 0.202E-03 0.202E-03 ENERGY      -67.293560 DELTAE   -0.0006717
 ITERATION   4 PLS= 0.991E-04 0.953E-04 ENERGY      -67.293946 DELTAE   -0.0003854
 CYCLE:    97 TIME:   0.109 TIME LEFT:  2.00W  GRAD.:     3.352 HEAT: -67.29376
 ITERATION   1 PLS= 0.106E-04 0.975E-05 ENERGY      -67.213317 DELTAE -167.2133167
 ITERATION   2 PLS= 0.206E-02 0.214E-02 ENERGY      -67.307902 DELTAE   -0.0945854
 ITERATION   3 PLS= 0.102E-02 0.102E-02 ENERGY      -67.325191 DELTAE   -0.0172887
 ITERATION   4 PLS= 0.500E-03 0.482E-03 ENERGY      -67.334804 DELTAE   -0.0096130
 ITERATION   5 PLS= 0.396E-04 0.362E-04 ENERGY      -67.330018 DELTAE    0.0047854
 CYCLE:    98 TIME:   0.137 TIME LEFT:  2.00W  GRAD.:     4.253 HEAT: -67.33004
 ITERATION   1 PLS= 0.248E-04 0.215E-04 ENERGY      -66.738333 DELTAE -166.7383331
 ITERATION   2 PLS= 0.398E-02 0.413E-02 ENERGY      -67.138762 DELTAE   -0.4004287
 ITERATION   3 PLS= 0.199E-02 0.199E-02 ENERGY      -67.210078 DELTAE   -0.0713159
 ITERATION   4 PLS= 0.993E-03 0.957E-03 ENERGY      -67.249737 DELTAE   -0.0396596
 ITERATION   5 PLS= 0.847E-04 0.899E-04 ENERGY      -67.229780 DELTAE    0.0199577
 CYCLE:    99 TIME:   0.152 TIME LEFT:  2.00W  GRAD.:    16.183 HEAT: -67.22987
 ITERATION   1 PLS= 0.517E-04 0.569E-04 ENERGY      -67.244794 DELTAE -167.2447938
 ITERATION   2 PLS= 0.105E-02 0.109E-02 ENERGY      -67.296952 DELTAE   -0.0521577
 ITERATION   3 PLS= 0.532E-03 0.534E-03 ENERGY      -67.304976 DELTAE   -0.0080242
 ITERATION   4 PLS= 0.270E-03 0.261E-03 ENERGY      -67.309239 DELTAE   -0.0042635
 CYCLE:   100 TIME:   0.094 TIME LEFT:  2.00W  GRAD.:     3.825 HEAT: -67.30712
 ITERATION   1 PLS= 0.243E-04 0.696E-04 ENERGY      -67.311470 DELTAE -167.3114696
 ITERATION   2 PLS= 0.181E-03 0.195E-03 ENERGY      -67.313181 DELTAE   -0.0017111
 ITERATION   3 PLS= 0.834E-04 0.871E-04 ENERGY      -67.313450 DELTAE   -0.0002696
 ITERATION   4 PLS= 0.409E-04 0.608E-04 ENERGY      -67.313626 DELTAE   -0.0001761
 CYCLE:   101 TIME:   0.086 TIME LEFT:  2.00W  GRAD.:     2.279 HEAT: -67.31354
 ITERATION   1 PLS= 0.112E-04 0.248E-04 ENERGY      -67.098729 DELTAE -167.0987291
 ITERATION   2 PLS= 0.244E-02 0.253E-02 ENERGY      -67.243732 DELTAE   -0.1450027
 ITERATION   3 PLS= 0.119E-02 0.119E-02 ENERGY      -67.270298 DELTAE   -0.0265658
 ITERATION   4 PLS= 0.583E-03 0.560E-03 ENERGY      -67.285550 DELTAE   -0.0152528
 ITERATION   5 PLS= 0.558E-04 0.576E-04 ENERGY      -67.277713 DELTAE    0.0078375
 CYCLE:   102 TIME:   0.102 TIME LEFT:  2.00W  GRAD.:     3.519 HEAT: -67.27775
 ITERATION   1 PLS= 0.403E-04 0.384E-04 ENERGY      -67.405239 DELTAE -167.4052389
 ITERATION   2 PLS= 0.103E-02 0.107E-02 ENERGY      -67.433436 DELTAE   -0.0281968
 ITERATION   3 PLS= 0.488E-03 0.489E-03 ENERGY      -67.438685 DELTAE   -0.0052493
 ITERATION   4 PLS= 0.230E-03 0.222E-03 ENERGY      -67.441934 DELTAE   -0.0032485
 CYCLE:   103 TIME:   0.086 TIME LEFT:  2.00W  GRAD.:     3.380 HEAT: -67.44025
 ITERATION   1 PLS= 0.266E-04 0.272E-04 ENERGY      -67.090701 DELTAE -167.0907008
 ITERATION   2 PLS= 0.337E-02 0.350E-02 ENERGY      -67.377957 DELTAE   -0.2872566
 ITERATION   3 PLS= 0.164E-02 0.164E-02 ENERGY      -67.430737 DELTAE   -0.0527798
 ITERATION   4 PLS= 0.794E-03 0.763E-03 ENERGY      -67.461704 DELTAE   -0.0309672
 ITERATION   5 PLS= 0.801E-04 0.982E-04 ENERGY      -67.445876 DELTAE    0.0158281
 CYCLE:   104 TIME:   0.102 TIME LEFT:  2.00W  GRAD.:     4.321 HEAT: -67.44597
 ITERATION   1 PLS= 0.592E-04 0.626E-04 ENERGY      -67.391711 DELTAE -167.3917115
 ITERATION   2 PLS= 0.120E-02 0.124E-02 ENERGY      -67.441458 DELTAE   -0.0497463
 ITERATION   3 PLS= 0.592E-03 0.592E-03 ENERGY      -67.450209 DELTAE   -0.0087510
 ITERATION   4 PLS= 0.293E-03 0.282E-03 ENERGY      -67.455058 DELTAE   -0.0048494
 CYCLE:   105 TIME:   0.102 TIME LEFT:  2.00W  GRAD.:     3.231 HEAT: -67.45263
 ITERATION   1 PLS= 0.250E-04 0.434E-04 ENERGY      -67.416788 DELTAE -167.4167880
 ITERATION   2 PLS= 0.167E-02 0.173E-02 ENERGY      -67.484949 DELTAE   -0.0681613
 ITERATION   3 PLS= 0.812E-03 0.811E-03 ENERGY      -67.497482 DELTAE   -0.0125325
 ITERATION   4 PLS= 0.396E-03 0.381E-03 ENERGY      -67.504622 DELTAE   -0.0071400
 ITERATION   5 PLS= 0.351E-04 0.323E-04 ENERGY      -67.500960 DELTAE    0.0036616
 CYCLE:   106 TIME:   0.098 TIME LEFT:  2.00W  GRAD.:     2.558 HEAT: -67.50097
 ITERATION   1 PLS= 0.249E-04 0.188E-04 ENERGY      -67.475503 DELTAE -167.4755029
 ITERATION   2 PLS= 0.273E-03 0.282E-03 ENERGY      -67.482192 DELTAE   -0.0066892
 ITERATION   3 PLS= 0.150E-03 0.149E-03 ENERGY      -67.483403 DELTAE   -0.0012106
 ITERATION   4 PLS= 0.805E-04 0.777E-04 ENERGY      -67.484133 DELTAE   -0.0007303
 CYCLE:   107 TIME:   0.102 TIME LEFT:  2.00W  GRAD.:     2.269 HEAT: -67.48375
 ITERATION   1 PLS= 0.133E-04 0.178E-04 ENERGY      -67.449942 DELTAE -167.4499417
 ITERATION   2 PLS= 0.930E-03 0.963E-03 ENERGY      -67.482133 DELTAE   -0.0321916
 ITERATION   3 PLS= 0.467E-03 0.467E-03 ENERGY      -67.488206 DELTAE   -0.0060730
 ITERATION   4 PLS= 0.234E-03 0.225E-03 ENERGY      -67.491940 DELTAE   -0.0037340
 ITERATION   5 PLS= 0.233E-04 0.362E-04 ENERGY      -67.489971 DELTAE    0.0019695
 CYCLE:   108 TIME:   0.152 TIME LEFT:  2.00W  GRAD.:     2.536 HEAT: -67.48998
 ITERATION   1 PLS= 0.148E-04 0.232E-04 ENERGY      -67.098438 DELTAE -167.0984376
 ITERATION   2 PLS= 0.302E-02 0.313E-02 ENERGY      -67.396796 DELTAE   -0.2983580
 ITERATION   3 PLS= 0.150E-02 0.150E-02 ENERGY      -67.453118 DELTAE   -0.0563224
 ITERATION   4 PLS= 0.741E-03 0.714E-03 ENERGY      -67.487181 DELTAE   -0.0340626
 ITERATION   5 PLS= 0.714E-04 0.122E-03 ENERGY      -67.469356 DELTAE    0.0178243
 ITERATION   6 PLS= 0.439E-04 0.792E-04 ENERGY      -67.469434 DELTAE   -0.0000779
 CYCLE:   109 TIME:   0.117 TIME LEFT:  2.00W  GRAD.:     4.341 HEAT: -67.46954
 ITERATION   1 PLS= 0.299E-04 0.523E-04 ENERGY      -67.428047 DELTAE -167.4280472
 ITERATION   2 PLS= 0.820E-03 0.851E-03 ENERGY      -67.460376 DELTAE   -0.0323285
 ITERATION   3 PLS= 0.395E-03 0.396E-03 ENERGY      -67.466173 DELTAE   -0.0057970
 ITERATION   4 PLS= 0.190E-03 0.186E-03 ENERGY      -67.469647 DELTAE   -0.0034740
 CYCLE:   110 TIME:   0.105 TIME LEFT:  2.00W  GRAD.:     6.008 HEAT: -67.46785
 ITERATION   1 PLS= 0.228E-04 0.207E-04 ENERGY      -67.467361 DELTAE -167.4673610
 ITERATION   2 PLS= 0.272E-03 0.282E-03 ENERGY      -67.471381 DELTAE   -0.0040201
 ITERATION   3 PLS= 0.127E-03 0.127E-03 ENERGY      -67.472087 DELTAE   -0.0007059
 ITERATION   4 PLS= 0.653E-04 0.630E-04 ENERGY      -67.472508 DELTAE   -0.0004206
 CYCLE:   111 TIME:   0.094 TIME LEFT:  2.00W  GRAD.:     3.398 HEAT: -67.47230
 ITERATION   1 PLS= 0.829E-05 0.621E-05 ENERGY      -67.386430 DELTAE -167.3864301
 ITERATION   2 PLS= 0.864E-03 0.895E-03 ENERGY      -67.415545 DELTAE   -0.0291149
 ITERATION   3 PLS= 0.416E-03 0.417E-03 ENERGY      -67.421108 DELTAE   -0.0055634
 ITERATION   4 PLS= 0.201E-03 0.193E-03 ENERGY      -67.424450 DELTAE   -0.0033417
 CYCLE:   112 TIME:   0.117 TIME LEFT:  2.00W  GRAD.:     2.506 HEAT: -67.42279
 ITERATION   1 PLS= 0.196E-04 0.167E-04 ENERGY      -67.253641 DELTAE -167.2536414
 ITERATION   2 PLS= 0.195E-02 0.202E-02 ENERGY      -67.375800 DELTAE   -0.1221591
 ITERATION   3 PLS= 0.962E-03 0.963E-03 ENERGY      -67.399309 DELTAE   -0.0235086
 ITERATION   4 PLS= 0.474E-03 0.456E-03 ENERGY      -67.413619 DELTAE   -0.0143101
 ITERATION   5 PLS= 0.455E-04 0.421E-04 ENERGY      -67.406218 DELTAE    0.0074009
 CYCLE:   113 TIME:   0.102 TIME LEFT:  2.00W  GRAD.:     3.185 HEAT: -67.40625
 ITERATION   1 PLS= 0.281E-04 0.246E-04 ENERGY      -67.368110 DELTAE -167.3681099
 ITERATION   2 PLS= 0.845E-03 0.877E-03 ENERGY      -67.407741 DELTAE   -0.0396311
 ITERATION   3 PLS= 0.437E-03 0.439E-03 ENERGY      -67.414291 DELTAE   -0.0065504
 ITERATION   4 PLS= 0.225E-03 0.218E-03 ENERGY      -67.418023 DELTAE   -0.0037318
 CYCLE:   114 TIME:   0.113 TIME LEFT:  2.00W  GRAD.:     9.172 HEAT: -67.41628
 ITERATION   1 PLS= 0.281E-04 0.420E-04 ENERGY      -67.396120 DELTAE -167.3961202
 ITERATION   2 PLS= 0.493E-03 0.528E-03 ENERGY      -67.408015 DELTAE   -0.0118947
 ITERATION   3 PLS= 0.211E-03 0.211E-03 ENERGY      -67.409512 DELTAE   -0.0014975
 ITERATION   4 PLS= 0.101E-03 0.969E-04 ENERGY      -67.410212 DELTAE   -0.0006997
 CYCLE:   115 TIME:   0.105 TIME LEFT:  2.00W  GRAD.:     2.861 HEAT: -67.40990
 ITERATION   1 PLS= 0.132E-04 0.111E-04 ENERGY      -67.398059 DELTAE -167.3980587
 ITERATION   2 PLS= 0.206E-03 0.211E-03 ENERGY      -67.402342 DELTAE   -0.0042838
 ITERATION   3 PLS= 0.106E-03 0.108E-03 ENERGY      -67.403106 DELTAE   -0.0007634
 ITERATION   4 PLS= 0.601E-04 0.598E-04 ENERGY      -67.403590 DELTAE   -0.0004844
 CYCLE:   116 TIME:   0.105 TIME LEFT:  2.00W  GRAD.:     1.823 HEAT: -67.40333
 ITERATION   1 PLS= 0.102E-04 0.107E-04 ENERGY      -67.403814 DELTAE -167.4038141
 ITERATION   2 PLS= 0.465E-03 0.483E-03 ENERGY      -67.420281 DELTAE   -0.0164673
 ITERATION   3 PLS= 0.232E-03 0.233E-03 ENERGY      -67.423467 DELTAE   -0.0031852
 ITERATION   4 PLS= 0.120E-03 0.116E-03 ENERGY      -67.425536 DELTAE   -0.0020689
 ITERATION   5 PLS= 0.184E-04 0.168E-04 ENERGY      -67.424427 DELTAE    0.0011090
 CYCLE:   117 TIME:   0.109 TIME LEFT:  2.00W  GRAD.:     2.469 HEAT: -67.42443
 ITERATION   1 PLS= 0.132E-04 0.900E-05 ENERGY      -67.417075 DELTAE -167.4170749
 ITERATION   2 PLS= 0.593E-03 0.616E-03 ENERGY      -67.434077 DELTAE   -0.0170023
 ITERATION   3 PLS= 0.281E-03 0.284E-03 ENERGY      -67.437378 DELTAE   -0.0033009
 ITERATION   4 PLS= 0.136E-03 0.132E-03 ENERGY      -67.439514 DELTAE   -0.0021355
 CYCLE:   118 TIME:   0.105 TIME LEFT:  2.00W  GRAD.:     2.729 HEAT: -67.43837
 ITERATION   1 PLS= 0.209E-04 0.264E-04 ENERGY      -67.216638 DELTAE -167.2166384
 ITERATION   2 PLS= 0.183E-02 0.191E-02 ENERGY      -67.359048 DELTAE   -0.1424098
 ITERATION   3 PLS= 0.919E-03 0.928E-03 ENERGY      -67.385513 DELTAE   -0.0264647
 ITERATION   4 PLS= 0.465E-03 0.453E-03 ENERGY      -67.402109 DELTAE   -0.0165962
 ITERATION   5 PLS= 0.554E-04 0.450E-04 ENERGY      -67.393319 DELTAE    0.0087904
 CYCLE:   119 TIME:   0.121 TIME LEFT:  2.00W  GRAD.:     7.831 HEAT: -67.39336
 ITERATION   1 PLS= 0.396E-04 0.248E-04 ENERGY      -67.401549 DELTAE -167.4015490
 ITERATION   2 PLS= 0.603E-03 0.647E-03 ENERGY      -67.408169 DELTAE   -0.0066197
 ITERATION   3 PLS= 0.197E-03 0.209E-03 ENERGY      -67.408729 DELTAE   -0.0005600
 ITERATION   4 PLS= 0.899E-04 0.932E-04 ENERGY      -67.408958 DELTAE   -0.0002290
 CYCLE:   120 TIME:   0.121 TIME LEFT:  2.00W  GRAD.:     2.396 HEAT: -67.40886
 ITERATION   1 PLS= 0.137E-04 0.228E-04 ENERGY      -67.412460 DELTAE -167.4124604
 ITERATION   2 PLS= 0.325E-03 0.338E-03 ENERGY      -67.418860 DELTAE   -0.0063993
 ITERATION   3 PLS= 0.171E-03 0.171E-03 ENERGY      -67.420094 DELTAE   -0.0012342
 ITERATION   4 PLS= 0.895E-04 0.867E-04 ENERGY      -67.420885 DELTAE   -0.0007914
 CYCLE:   121 TIME:   0.109 TIME LEFT:  2.00W  GRAD.:     1.833 HEAT: -67.42046
 ITERATION   1 PLS= 0.112E-04 0.127E-04 ENERGY      -67.428417 DELTAE -167.4284169
 ITERATION   2 PLS= 0.180E-03 0.187E-03 ENERGY      -67.430736 DELTAE   -0.0023194
 ITERATION   3 PLS= 0.103E-03 0.103E-03 ENERGY      -67.431162 DELTAE   -0.0004258
 ITERATION   4 PLS= 0.569E-04 0.555E-04 ENERGY      -67.431442 DELTAE   -0.0002799
 CYCLE:   122 TIME:   0.133 TIME LEFT:  2.00W  GRAD.:     2.349 HEAT: -67.43130
 ITERATION   1 PLS= 0.944E-05 0.956E-05 ENERGY      -67.363216 DELTAE -167.3632164
 ITERATION   2 PLS= 0.805E-03 0.843E-03 ENERGY      -67.413976 DELTAE   -0.0507593
 ITERATION   3 PLS= 0.432E-03 0.443E-03 ENERGY      -67.422723 DELTAE   -0.0087470
 ITERATION   4 PLS= 0.242E-03 0.242E-03 ENERGY      -67.428341 DELTAE   -0.0056184
 ITERATION   5 PLS= 0.366E-04 0.311E-04 ENERGY      -67.425194 DELTAE    0.0031472
 CYCLE:   123 TIME:   0.129 TIME LEFT:  2.00W  GRAD.:     4.384 HEAT: -67.42521
 ITERATION   1 PLS= 0.218E-04 0.166E-04 ENERGY      -67.309162 DELTAE -167.3091618
 ITERATION   2 PLS= 0.128E-02 0.133E-02 ENERGY      -67.414390 DELTAE   -0.1052277
 ITERATION   3 PLS= 0.620E-03 0.621E-03 ENERGY      -67.433377 DELTAE   -0.0189873
 ITERATION   4 PLS= 0.300E-03 0.295E-03 ENERGY      -67.445642 DELTAE   -0.0122650
 CYCLE:   124 TIME:   0.148 TIME LEFT:  2.00W  GRAD.:     3.858 HEAT: -67.43886
 ITERATION   1 PLS= 0.483E-04 0.412E-04 ENERGY      -67.288814 DELTAE -167.2888144
 ITERATION   2 PLS= 0.146E-02 0.151E-02 ENERGY      -67.421798 DELTAE   -0.1329838
 ITERATION   3 PLS= 0.716E-03 0.718E-03 ENERGY      -67.446292 DELTAE   -0.0244937
 ITERATION   4 PLS= 0.358E-03 0.347E-03 ENERGY      -67.462316 DELTAE   -0.0160243
 ITERATION   5 PLS= 0.503E-04 0.437E-04 ENERGY      -67.453451 DELTAE    0.0088656
 CYCLE:   125 TIME:   0.152 TIME LEFT:  2.00W  GRAD.:     3.854 HEAT: -67.45349
 ITERATION   1 PLS= 0.289E-04 0.214E-04 ENERGY      -67.129013 DELTAE -167.1290134
 ITERATION   2 PLS= 0.190E-02 0.199E-02 ENERGY      -67.346234 DELTAE   -0.2172202
 ITERATION   3 PLS= 0.106E-02 0.108E-02 ENERGY      -67.380312 DELTAE   -0.0340784
 ITERATION   4 PLS= 0.595E-03 0.588E-03 ENERGY      -67.401743 DELTAE   -0.0214316
 ITERATION   5 PLS= 0.854E-04 0.791E-04 ENERGY      -67.390081 DELTAE    0.0116622
 CYCLE:   126 TIME:   0.141 TIME LEFT:  2.00W  GRAD.:    18.689 HEAT: -67.39016
 ITERATION   1 PLS= 0.516E-04 0.438E-04 ENERGY      -66.891241 DELTAE -166.8912409
 ITERATION   2 PLS= 0.234E-02 0.244E-02 ENERGY      -67.308571 DELTAE   -0.4173297
 ITERATION   3 PLS= 0.132E-02 0.135E-02 ENERGY      -67.370929 DELTAE   -0.0623586
 ITERATION   4 PLS= 0.710E-03 0.707E-03 ENERGY      -67.408496 DELTAE   -0.0375673
 ITERATION   5 PLS= 0.865E-04 0.156E-03 ENERGY      -67.389099 DELTAE    0.0193974
 CYCLE:   127 TIME:   0.160 TIME LEFT:  2.00W  GRAD.:    21.436 HEAT: -67.38926
 ITERATION   1 PLS= 0.627E-04 0.106E-03 ENERGY      -66.826574 DELTAE -166.8265741
 ITERATION   2 PLS= 0.290E-02 0.303E-02 ENERGY      -67.306542 DELTAE   -0.4799680
 ITERATION   3 PLS= 0.159E-02 0.163E-02 ENERGY      -67.378781 DELTAE   -0.0722393
 ITERATION   4 PLS= 0.858E-03 0.856E-03 ENERGY      -67.422082 DELTAE   -0.0433002
 ITERATION   5 PLS= 0.107E-03 0.106E-03 ENERGY      -67.399337 DELTAE    0.0227451
 CYCLE:   128 TIME:   0.152 TIME LEFT:  2.00W  GRAD.:    15.737 HEAT: -67.39951
 ITERATION   1 PLS= 0.669E-04 0.680E-04 ENERGY      -67.044259 DELTAE -167.0442594
 ITERATION   2 PLS= 0.221E-02 0.229E-02 ENERGY      -67.359927 DELTAE   -0.3156681
 ITERATION   3 PLS= 0.992E-03 0.102E-02 ENERGY      -67.409931 DELTAE   -0.0500032
 ITERATION   4 PLS= 0.526E-03 0.535E-03 ENERGY      -67.440186 DELTAE   -0.0302556
 ITERATION   5 PLS= 0.759E-04 0.156E-03 ENERGY      -67.424869 DELTAE    0.0153173
 CYCLE:   129 TIME:   0.297 TIME LEFT:  2.00W  GRAD.:    18.664 HEAT: -67.42499
 ITERATION   1 PLS= 0.585E-04 0.105E-03 ENERGY      -67.158993 DELTAE -167.1589933
 ITERATION   2 PLS= 0.264E-02 0.275E-02 ENERGY      -67.368803 DELTAE   -0.2098098
 ITERATION   3 PLS= 0.124E-02 0.126E-02 ENERGY      -67.408005 DELTAE   -0.0392017
 ITERATION   4 PLS= 0.603E-03 0.589E-03 ENERGY      -67.431619 DELTAE   -0.0236146
 ITERATION   5 PLS= 0.608E-04 0.101E-03 ENERGY      -67.419794 DELTAE    0.0118255
 CYCLE:   130 TIME:   0.258 TIME LEFT:  2.00W  GRAD.:     2.081 HEAT: -67.41985
 ITERATION   1 PLS= 0.392E-04 0.647E-04 ENERGY      -66.788414 DELTAE -166.7884137
 ITERATION   2 PLS= 0.290E-02 0.302E-02 ENERGY      -67.352345 DELTAE   -0.5639315
 ITERATION   3 PLS= 0.144E-02 0.145E-02 ENERGY      -67.454143 DELTAE   -0.1017981
 ITERATION   4 PLS= 0.719E-03 0.703E-03 ENERGY      -67.519541 DELTAE   -0.0653977
 ITERATION   5 PLS= 0.108E-03 0.939E-04 ENERGY      -67.483209 DELTAE    0.0363318
 ITERATION   6 PLS= 0.611E-04 0.481E-04 ENERGY      -67.483385 DELTAE   -0.0001761
 CYCLE:   131 TIME:   0.266 TIME LEFT:  2.00W  GRAD.:     2.644 HEAT: -67.48352
 ITERATION   1 PLS= 0.351E-04 0.258E-04 ENERGY      -66.620941 DELTAE -166.6209410
 ITERATION   2 PLS= 0.420E-02 0.438E-02 ENERGY      -67.304766 DELTAE   -0.6838254
 ITERATION   3 PLS= 0.205E-02 0.207E-02 ENERGY      -67.436365 DELTAE   -0.1315983
 ITERATION   4 PLS= 0.102E-02 0.988E-03 ENERGY      -67.517654 DELTAE   -0.0812897
 ITERATION   5 PLS= 0.111E-03 0.101E-03 ENERGY      -67.475414 DELTAE    0.0422402
 ITERATION   6 PLS= 0.655E-04 0.639E-04 ENERGY      -67.475586 DELTAE   -0.0001718
 CYCLE:   132 TIME:   0.277 TIME LEFT:  2.00W  GRAD.:     8.059 HEAT: -67.47580
 ITERATION   1 PLS= 0.384E-04 0.413E-04 ENERGY      -67.392434 DELTAE -167.3924336
 ITERATION   2 PLS= 0.106E-02 0.112E-02 ENERGY      -67.461101 DELTAE   -0.0686669
 ITERATION   3 PLS= 0.503E-03 0.504E-03 ENERGY      -67.472679 DELTAE   -0.0115785
 ITERATION   4 PLS= 0.254E-03 0.246E-03 ENERGY      -67.479476 DELTAE   -0.0067972
 CYCLE:   133 TIME:   0.211 TIME LEFT:  2.00W  GRAD.:     4.130 HEAT: -67.47602
 ITERATION   1 PLS= 0.373E-04 0.317E-04 ENERGY      -67.015063 DELTAE -167.0150631
 ITERATION   2 PLS= 0.244E-02 0.253E-02 ENERGY      -67.428082 DELTAE   -0.4130193
 ITERATION   3 PLS= 0.120E-02 0.120E-02 ENERGY      -67.502499 DELTAE   -0.0744168
 ITERATION   4 PLS= 0.606E-03 0.604E-03 ENERGY      -67.551160 DELTAE   -0.0486613
 ITERATION   5 PLS= 0.880E-04 0.789E-04 ENERGY      -67.523915 DELTAE    0.0272451
 CYCLE:   134 TIME:   0.230 TIME LEFT:  2.00W  GRAD.:     2.446 HEAT: -67.52405
 ITERATION   1 PLS= 0.496E-04 0.380E-04 ENERGY      -66.914966 DELTAE -166.9149662
 ITERATION   2 PLS= 0.279E-02 0.290E-02 ENERGY      -67.437926 DELTAE   -0.5229603
 ITERATION   3 PLS= 0.137E-02 0.138E-02 ENERGY      -67.532909 DELTAE   -0.0949828
 ITERATION   4 PLS= 0.683E-03 0.663E-03 ENERGY      -67.594463 DELTAE   -0.0615542
 ITERATION   5 PLS= 0.962E-04 0.817E-04 ENERGY      -67.560293 DELTAE    0.0341707
 ITERATION   6 PLS= 0.556E-04 0.424E-04 ENERGY      -67.560462 DELTAE   -0.0001694
 CYCLE:   135 TIME:   0.242 TIME LEFT:  2.00W  GRAD.:     3.072 HEAT: -67.56060
 ITERATION   1 PLS= 0.348E-04 0.242E-04 ENERGY      -67.490437 DELTAE -167.4904369
 ITERATION   2 PLS= 0.116E-02 0.121E-02 ENERGY      -67.547882 DELTAE   -0.0574451
 ITERATION   3 PLS= 0.561E-03 0.569E-03 ENERGY      -67.557388 DELTAE   -0.0095055
 ITERATION   4 PLS= 0.274E-03 0.267E-03 ENERGY      -67.562791 DELTAE   -0.0054034
 CYCLE:   136 TIME:   0.203 TIME LEFT:  2.00W  GRAD.:    11.888 HEAT: -67.56008
 ITERATION   1 PLS= 0.454E-04 0.455E-04 ENERGY      -67.489065 DELTAE -167.4890650
 ITERATION   2 PLS= 0.847E-03 0.909E-03 ENERGY      -67.517053 DELTAE   -0.0279879
 ITERATION   3 PLS= 0.347E-03 0.348E-03 ENERGY      -67.521351 DELTAE   -0.0042982
 ITERATION   4 PLS= 0.172E-03 0.165E-03 ENERGY      -67.523831 DELTAE   -0.0024797
 CYCLE:   137 TIME:   0.184 TIME LEFT:  2.00W  GRAD.:     2.991 HEAT: -67.52259
 ITERATION   1 PLS= 0.343E-04 0.347E-04 ENERGY      -67.518643 DELTAE -167.5186427
 ITERATION   2 PLS= 0.233E-03 0.247E-03 ENERGY      -67.523901 DELTAE   -0.0052585
 ITERATION   3 PLS= 0.121E-03 0.127E-03 ENERGY      -67.524813 DELTAE   -0.0009117
 ITERATION   4 PLS= 0.669E-04 0.681E-04 ENERGY      -67.525403 DELTAE   -0.0005904
 CYCLE:   138 TIME:   0.172 TIME LEFT:  2.00W  GRAD.:     1.918 HEAT: -67.52507
 ITERATION   1 PLS= 0.122E-04 0.127E-04 ENERGY      -67.388911 DELTAE -167.3889110
 ITERATION   2 PLS= 0.121E-02 0.126E-02 ENERGY      -67.535155 DELTAE   -0.1462438
 ITERATION   3 PLS= 0.697E-03 0.714E-03 ENERGY      -67.560144 DELTAE   -0.0249891
 ITERATION   4 PLS= 0.398E-03 0.397E-03 ENERGY      -67.577245 DELTAE   -0.0171014
 ITERATION   5 PLS= 0.455E-04 0.429E-04 ENERGY      -67.567065 DELTAE    0.0101805
 ITERATION   6 PLS= 0.257E-04 0.209E-04 ENERGY      -67.567134 DELTAE   -0.0000697
 CYCLE:   139 TIME:   0.203 TIME LEFT:  2.00W  GRAD.:     3.020 HEAT: -67.56718
 ITERATION   1 PLS= 0.156E-04 0.117E-04 ENERGY      -67.559477 DELTAE -167.5594771
 ITERATION   2 PLS= 0.428E-03 0.209E-03 ENERGY      -67.564317 DELTAE   -0.0048402
 ITERATION   3 PLS= 0.216E-03 0.174E-03 ENERGY      -67.565216 DELTAE   -0.0008984
 ITERATION   4 PLS= 0.111E-03 0.130E-03 ENERGY      -67.565919 DELTAE   -0.0007036
 CYCLE:   140 TIME:   0.109 TIME LEFT:  2.00W  GRAD.:     2.545 HEAT: -67.56551
 ITERATION   1 PLS= 0.154E-04 0.565E-04 ENERGY      -67.128990 DELTAE -167.1289901
 ITERATION   2 PLS= 0.167E-02 0.174E-02 ENERGY      -67.513225 DELTAE   -0.3842352
 ITERATION   3 PLS= 0.101E-02 0.104E-02 ENERGY      -67.579619 DELTAE   -0.0663937
 ITERATION   4 PLS= 0.582E-03 0.580E-03 ENERGY      -67.625453 DELTAE   -0.0458336
 ITERATION   5 PLS= 0.717E-04 0.166E-03 ENERGY      -67.598222 DELTAE    0.0272308
 ITERATION   6 PLS= 0.400E-04 0.103E-03 ENERGY      -67.598415 DELTAE   -0.0001935
 CYCLE:   141 TIME:   0.199 TIME LEFT:  2.00W  GRAD.:     3.761 HEAT: -67.59858
 ITERATION   1 PLS= 0.246E-04 0.663E-04 ENERGY      -67.566477 DELTAE -167.5664768
 ITERATION   2 PLS= 0.499E-03 0.519E-03 ENERGY      -67.575781 DELTAE   -0.0093042
 ITERATION   3 PLS= 0.265E-03 0.267E-03 ENERGY      -67.577354 DELTAE   -0.0015727
 ITERATION   4 PLS= 0.139E-03 0.177E-03 ENERGY      -67.578384 DELTAE   -0.0010305
 CYCLE:   142 TIME:   0.113 TIME LEFT:  2.00W  GRAD.:     5.390 HEAT: -67.57783
 ITERATION   1 PLS= 0.118E-04 0.608E-04 ENERGY      -67.579721 DELTAE -167.5797210
 ITERATION   2 PLS= 0.212E-03 0.233E-03 ENERGY      -67.583013 DELTAE   -0.0032918
 ITERATION   3 PLS= 0.105E-03 0.118E-03 ENERGY      -67.583529 DELTAE   -0.0005164
 ITERATION   4 PLS= 0.530E-04 0.681E-04 ENERGY      -67.583842 DELTAE   -0.0003124
 CYCLE:   143 TIME:   0.105 TIME LEFT:  2.00W  GRAD.:     2.298 HEAT: -67.58367
 ITERATION   1 PLS= 0.659E-05 0.121E-04 ENERGY      -67.556858 DELTAE -167.5568582
 ITERATION   2 PLS= 0.634E-03 0.660E-03 ENERGY      -67.620619 DELTAE   -0.0637607
 ITERATION   3 PLS= 0.385E-03 0.394E-03 ENERGY      -67.631454 DELTAE   -0.0108355
 ITERATION   4 PLS= 0.226E-03 0.227E-03 ENERGY      -67.639008 DELTAE   -0.0075532
 ITERATION   5 PLS= 0.233E-04 0.235E-04 ENERGY      -67.634441 DELTAE    0.0045663
 CYCLE:   144 TIME:   0.156 TIME LEFT:  2.00W  GRAD.:     1.614 HEAT: -67.63447
 ITERATION   1 PLS= 0.139E-04 0.119E-04 ENERGY      -67.207150 DELTAE -167.2071504
 ITERATION   2 PLS= 0.165E-02 0.172E-02 ENERGY      -67.582196 DELTAE   -0.3750458
 ITERATION   3 PLS= 0.998E-03 0.102E-02 ENERGY      -67.646006 DELTAE   -0.0638095
 ITERATION   4 PLS= 0.581E-03 0.579E-03 ENERGY      -67.690917 DELTAE   -0.0449116
 ITERATION   5 PLS= 0.595E-04 0.538E-04 ENERGY      -67.663585 DELTAE    0.0273323
 ITERATION   6 PLS= 0.345E-04 0.302E-04 ENERGY      -67.663786 DELTAE   -0.0002015
 CYCLE:   145 TIME:   0.168 TIME LEFT:  2.00W  GRAD.:     3.322 HEAT: -67.66391
 ITERATION   1 PLS= 0.215E-04 0.195E-04 ENERGY      -67.534810 DELTAE -167.5348103
 ITERATION   2 PLS= 0.136E-02 0.141E-02 ENERGY      -67.645336 DELTAE   -0.1105262
 ITERATION   3 PLS= 0.677E-03 0.679E-03 ENERGY      -67.665228 DELTAE   -0.0198920
 ITERATION   4 PLS= 0.336E-03 0.324E-03 ENERGY      -67.677932 DELTAE   -0.0127036
 ITERATION   5 PLS= 0.480E-04 0.413E-04 ENERGY      -67.670920 DELTAE    0.0070119
 CYCLE:   146 TIME:   0.168 TIME LEFT:  2.00W  GRAD.:     5.161 HEAT: -67.67095
 ITERATION   1 PLS= 0.273E-04 0.212E-04 ENERGY      -67.537676 DELTAE -167.5376758
 ITERATION   2 PLS= 0.108E-02 0.112E-02 ENERGY      -67.593927 DELTAE   -0.0562514
 ITERATION   3 PLS= 0.530E-03 0.532E-03 ENERGY      -67.604118 DELTAE   -0.0101912
 ITERATION   4 PLS= 0.262E-03 0.252E-03 ENERGY      -67.610550 DELTAE   -0.0064316
 CYCLE:   147 TIME:   0.141 TIME LEFT:  2.00W  GRAD.:     2.250 HEAT: -67.60707
 ITERATION   1 PLS= 0.321E-04 0.273E-04 ENERGY      -67.547702 DELTAE -167.5477020
 ITERATION   2 PLS= 0.153E-02 0.158E-02 ENERGY      -67.604408 DELTAE   -0.0567058
 ITERATION   3 PLS= 0.750E-03 0.752E-03 ENERGY      -67.615685 DELTAE   -0.0112772
 ITERATION   4 PLS= 0.370E-03 0.356E-03 ENERGY      -67.622733 DELTAE   -0.0070479
 ITERATION   5 PLS= 0.309E-04 0.368E-04 ENERGY      -67.619088 DELTAE    0.0036445
 CYCLE:   148 TIME:   0.141 TIME LEFT:  2.00W  GRAD.:     2.717 HEAT: -67.61910
 ITERATION   1 PLS= 0.180E-04 0.234E-04 ENERGY      -67.580244 DELTAE -167.5802442
 ITERATION   2 PLS= 0.977E-03 0.101E-02 ENERGY      -67.615359 DELTAE   -0.0351144
 ITERATION   3 PLS= 0.476E-03 0.476E-03 ENERGY      -67.622002 DELTAE   -0.0066431
 ITERATION   4 PLS= 0.234E-03 0.225E-03 ENERGY      -67.626164 DELTAE   -0.0041620
 ITERATION   5 PLS= 0.272E-04 0.405E-04 ENERGY      -67.623934 DELTAE    0.0022296
 CYCLE:   149 TIME:   0.152 TIME LEFT:  2.00W  GRAD.:     2.627 HEAT: -67.62394
 ITERATION   1 PLS= 0.167E-04 0.278E-04 ENERGY      -67.249724 DELTAE -167.2497236
 ITERATION   2 PLS= 0.187E-02 0.194E-02 ENERGY      -67.532971 DELTAE   -0.2832479
 ITERATION   3 PLS= 0.905E-03 0.905E-03 ENERGY      -67.583468 DELTAE   -0.0504961
 ITERATION   4 PLS= 0.462E-03 0.461E-03 ENERGY      -67.616244 DELTAE   -0.0327769
 ITERATION   5 PLS= 0.699E-04 0.634E-04 ENERGY      -67.597831 DELTAE    0.0184130
 ITERATION   6 PLS= 0.437E-04 0.335E-04 ENERGY      -67.597928 DELTAE   -0.0000966
 CYCLE:   150 TIME:   0.168 TIME LEFT:  2.00W  GRAD.:     5.934 HEAT: -67.59800
 ITERATION   1 PLS= 0.274E-04 0.192E-04 ENERGY      -67.591862 DELTAE -167.5918622
 ITERATION   2 PLS= 0.514E-03 0.542E-03 ENERGY      -67.606947 DELTAE   -0.0150850
 ITERATION   3 PLS= 0.258E-03 0.266E-03 ENERGY      -67.609234 DELTAE   -0.0022867
 ITERATION   4 PLS= 0.145E-03 0.145E-03 ENERGY      -67.610672 DELTAE   -0.0014382
 CYCLE:   151 TIME:   0.133 TIME LEFT:  2.00W  GRAD.:     2.460 HEAT: -67.60985
 ITERATION   1 PLS= 0.174E-04 0.190E-04 ENERGY      -67.534287 DELTAE -167.5342869
 ITERATION   2 PLS= 0.642E-03 0.666E-03 ENERGY      -67.581577 DELTAE   -0.0472902
 ITERATION   3 PLS= 0.383E-03 0.389E-03 ENERGY      -67.589574 DELTAE   -0.0079974
 ITERATION   4 PLS= 0.227E-03 0.226E-03 ENERGY      -67.595390 DELTAE   -0.0058151
 ITERATION   5 PLS= 0.189E-04 0.173E-04 ENERGY      -67.591785 DELTAE    0.0036041
 CYCLE:   152 TIME:   0.148 TIME LEFT:  2.00W  GRAD.:     2.704 HEAT: -67.59181
 ITERATION   1 PLS= 0.124E-04 0.106E-04 ENERGY      -67.506368 DELTAE -167.5063682
 ITERATION   2 PLS= 0.809E-03 0.840E-03 ENERGY      -67.591434 DELTAE   -0.0850661
 ITERATION   3 PLS= 0.499E-03 0.508E-03 ENERGY      -67.605803 DELTAE   -0.0143684
 ITERATION   4 PLS= 0.294E-03 0.292E-03 ENERGY      -67.616170 DELTAE   -0.0103675
 ITERATION   5 PLS= 0.281E-04 0.272E-04 ENERGY      -67.609766 DELTAE    0.0064043
 CYCLE:   153 TIME:   0.145 TIME LEFT:  2.00W  GRAD.:     2.591 HEAT: -67.60982
 ITERATION   1 PLS= 0.179E-04 0.166E-04 ENERGY      -67.108362 DELTAE -167.1083619
 ITERATION   2 PLS= 0.190E-02 0.199E-02 ENERGY      -67.513803 DELTAE   -0.4054416
 ITERATION   3 PLS= 0.108E-02 0.111E-02 ENERGY      -67.581850 DELTAE   -0.0680467
 ITERATION   4 PLS= 0.646E-03 0.643E-03 ENERGY      -67.629480 DELTAE   -0.0476298
 ITERATION   5 PLS= 0.706E-04 0.729E-04 ENERGY      -67.600895 DELTAE    0.0285851
 ITERATION   6 PLS= 0.409E-04 0.414E-04 ENERGY      -67.601101 DELTAE   -0.0002057
 CYCLE:   154 TIME:   0.148 TIME LEFT:  2.00W  GRAD.:     9.879 HEAT: -67.60124
 ITERATION   1 PLS= 0.254E-04 0.252E-04 ENERGY      -67.465464 DELTAE -167.4654637
 ITERATION   2 PLS= 0.106E-02 0.112E-02 ENERGY      -67.589334 DELTAE   -0.1238700
 ITERATION   3 PLS= 0.602E-03 0.621E-03 ENERGY      -67.609587 DELTAE   -0.0202534
 ITERATION   4 PLS= 0.358E-03 0.360E-03 ENERGY      -67.623851 DELTAE   -0.0142638
[...]
 CYCLE:   208 TIME:   0.168 TIME LEFT:  2.00W  GRAD.:     1.306 HEAT: -67.82168
 ITERATION   1 PLS= 0.761E-05 0.712E-05 ENERGY      -67.816641 DELTAE -167.8166407
 ITERATION   2 PLS= 0.187E-03 0.150E-03 ENERGY      -67.819604 DELTAE   -0.0029628
 ITERATION   3 PLS= 0.910E-04 0.654E-04 ENERGY      -67.820131 DELTAE   -0.0005279
 ITERATION   4 PLS= 0.422E-04 0.340E-04 ENERGY      -67.820482 DELTAE   -0.0003505
 CYCLE:   209 TIME:   0.137 TIME LEFT:  2.00W  GRAD.:     2.691 HEAT: -67.82030
 ITERATION   1 PLS= 0.102E-04 0.160E-04 ENERGY      -67.820237 DELTAE -167.8202368
 ITERATION   2 PLS= 0.133E-03 0.138E-03 ENERGY      -67.821272 DELTAE   -0.0010354
 ITERATION   3 PLS= 0.545E-04 0.547E-04 ENERGY      -67.821440 DELTAE   -0.0001680
 ITERATION   4 PLS= 0.314E-04 0.310E-04 ENERGY      -67.821549 DELTAE   -0.0001085
 CYCLE:   210 TIME:   0.145 TIME LEFT:  2.00W  GRAD.:     1.117 HEAT: -67.82149
 ITERATION   1 PLS= 0.505E-05 0.493E-05 ENERGY      -67.820607 DELTAE -167.8206069
 ITERATION   2 PLS= 0.840E-04 0.870E-04 ENERGY      -67.821639 DELTAE   -0.0010325
 ITERATION   3 PLS= 0.408E-04 0.683E-04 ENERGY      -67.821842 DELTAE   -0.0002021
 ITERATION   4 PLS= 0.200E-04 0.490E-04 ENERGY      -67.822005 DELTAE   -0.0001639
 CYCLE:   211 TIME:   0.133 TIME LEFT:  2.00W  GRAD.:     0.876 HEAT: -67.82191
 ITERATION   1 PLS= 0.816E-05 0.126E-04 ENERGY      -67.339857 DELTAE -167.3398569
 ITERATION   2 PLS= 0.163E-02 0.167E-02 ENERGY      -67.774913 DELTAE   -0.4350566
 ITERATION   3 PLS= 0.103E-02 0.104E-02 ENERGY      -67.851527 DELTAE   -0.0766140
 ITERATION   4 PLS= 0.632E-03 0.632E-03 ENERGY      -67.909126 DELTAE   -0.0575988
 ITERATION   5 PLS= 0.580E-04 0.104E-03 ENERGY      -67.873255 DELTAE    0.0358713
 ITERATION   6 PLS= 0.388E-04 0.682E-04 ENERGY      -67.873549 DELTAE   -0.0002943


          CURRENT BEST VALUE OF HEAT OF FORMATION =    -67.873784

* ===============================
* Input file for Mopac
* ===============================
 PM7 CHARGE=0 DOUBLET AUX DUMP=30M ITRY=15000 eps=78.4 T=14D PL THREADS=40

 Mopac file generated by Gabedit
  C    -0.35231111 +1   1.00331470 +1   1.08993119 +1
  C     1.02631026 +1   0.79868437 +1   1.06965966 +1
  C     1.55790320 +1  -0.38708074 +1   0.55312142 +1
  C     0.70920687 +1  -1.37021760 +1   0.04801238 +1
  C    -0.67137039 +1  -1.14792785 +1   0.07000880 +1
  C    -1.21446237 +1   0.03382572 +1   0.58995436 +1
  H    -0.75793701 +1   1.93160656 +1   1.50177076 +1
  H     1.69275273 +1   1.57747159 +1   1.46583238 +1
  H     1.11637341 +1  -2.30418857 +1  -0.36235083 +1
  H    -2.29931762 +1   0.19516919 +1   0.60209072 +1
  N    -1.55470207 +1  -2.16210100 +1  -0.44983898 +1
  O    -2.76307128 +1  -1.96496839 +1  -0.43627502 +1
  O    -1.07780313 +1  -3.19889010 +1  -0.89291999 +1
  C     3.04748204 +1  -0.59418862 +1   0.57976131 +1
  C     3.43766173 +1  -1.87582265 +1   1.30564529 +1
  H     4.52784156 +1  -1.98270836 +1   1.40706141 +1
  H     3.06301949 +1  -2.78329237 +1   0.80865945 +1
  H     3.02623110 +1  -1.88042747 +1   2.32846552 +1
  N     3.55718780 +1  -0.66654940 +1  -0.83272235 +1
  O     4.38699174 +1   0.15624660 +1  -1.18555601 +1
  O     3.13708976 +1  -1.53352395 +1  -1.57843597 +1
  H     3.56586325 +1   0.29011370 +1   1.07255053 +1
  C     5.92028700 +1   4.68183656 +1   5.93436728 +1
  N     7.19528407 +1   4.95586510 +1   5.53372205 +1
  C     7.64394054 +1   4.53775845 +1   4.19393827 +1
  C     6.67680424 +1   3.52663259 +1   3.54346559 +1
  N     5.27674416 +1   3.99927303 +1   3.60771367 +1
  C     4.86278738 +1   4.16140935 +1   5.02503473 +1
  H     5.66382062 +1   4.84390732 +1   6.96975926 +1
  H     7.92113544 +1   4.92065773 +1   6.24840257 +1
  H     8.66884447 +1   4.10882567 +1   4.24857544 +1
  H     7.71871429 +1   5.45383117 +1   3.56063476 +1
  H     6.95269808 +1   3.35852043 +1   2.47935407 +1
  H     6.74625150 +1   2.54021013 +1   4.05211506 +1
  H     5.18887351 +1   4.89396851 +1   3.11189575 +1
  H     3.95917345 +1   4.81506019 +1   5.06146070 +1
  H     4.52777588 +1   3.15668988 +1   5.38874842 +1
  H     3.40773012 +1   1.29323330 +1   3.37651789 +1
  H     4.20004123 +1   2.52679733 +1   2.92516150 +1
  O     3.59560370 +1   1.82879072 +1   2.60253787 +1



 -------------------------------------------------------------------------------
 PM7 CHARGE=0 DOUBLET AUX DUMP=30M ITRY=15000 eps=78.4 T=14D PL THREADS=40

 Mopac file generated by Gabedit


     HERBERTS TEST WAS SATISFIED IN BFGS                      
     SCF FIELD WAS ACHIEVED                                   


                              PM7 CALCULATION
                                                       MOPAC v22.1.0 Linux
                                                       Sun Mar 24 12:09:42 2024




          FINAL HEAT OF FORMATION =        -67.87378 KCAL/MOL =    -283.98391 KJ/MOL
          VAN DER WAALS AREA      =        341.29 SQUARE ANGSTROMS



          DIELECTRIC ENERGY       =         -1.09135 EV
          COSMO AREA              =        341.29 SQUARE ANGSTROMS
          COSMO VOLUME            =        361.42 CUBIC ANGSTROMS

          GRADIENT NORM           =          1.77007          =       0.27987 PER ATOM
          IONIZATION POTENTIAL    =          7.682442 EV
          ALPHA SOMO LUMO (EV)    =         -7.682 -1.549
          BETA  SOMO LUMO (EV)    =         -9.744 -1.549
          NO. OF ALPHA ELECTRONS  =         59
          NO. OF BETA  ELECTRONS  =         58
          MOLECULAR WEIGHT        =        299.3059         POINT GROUP:  C1  

          MOLECULAR DIMENSIONS (Angstroms)

            Atom       Atom       Distance
            H    30    O    12    14.36137
            H    29    O    20     6.41917
            H    35    H    17     4.94152


          SCF CALCULATIONS        =        213

          WALL-CLOCK TIME         =     33.648 SECONDS
          COMPUTATION TIME        =         36 MINUTES AND 51.167 SECONDS




   ATOM   CHEMICAL          X               Y               Z
  NUMBER   SYMBOL      (ANGSTROMS)     (ANGSTROMS)     (ANGSTROMS)

     1       C         -0.35231111  *   1.00331470  *   1.08993119  *
     2       C          1.02631026  *   0.79868437  *   1.06965966  *
     3       C          1.55790320  *  -0.38708074  *   0.55312142  *
     4       C          0.70920687  *  -1.37021760  *   0.04801238  *
     5       C         -0.67137039  *  -1.14792785  *   0.07000880  *
     6       C         -1.21446237  *   0.03382572  *   0.58995436  *
     7       H         -0.75793701  *   1.93160656  *   1.50177076  *
     8       H          1.69275273  *   1.57747159  *   1.46583238  *
     9       H          1.11637341  *  -2.30418857  *  -0.36235083  *
    10       H         -2.29931762  *   0.19516919  *   0.60209072  *
    11       N         -1.55470207  *  -2.16210100  *  -0.44983898  *
    12       O         -2.76307128  *  -1.96496839  *  -0.43627502  *
    13       O         -1.07780313  *  -3.19889010  *  -0.89291999  *
    14       C          3.04748204  *  -0.59418862  *   0.57976131  *
    15       C          3.43766173  *  -1.87582265  *   1.30564529  *
    16       H          4.52784156  *  -1.98270836  *   1.40706141  *
    17       H          3.06301949  *  -2.78329237  *   0.80865945  *
    18       H          3.02623110  *  -1.88042747  *   2.32846552  *
    19       N          3.55718780  *  -0.66654940  *  -0.83272235  *
    20       O          4.38699174  *   0.15624660  *  -1.18555601  *
    21       O          3.13708976  *  -1.53352395  *  -1.57843597  *
    22       H          3.56586325  *   0.29011370  *   1.07255053  *
    23       C          5.92028700  *   4.68183656  *   5.93436728  *
    24       N          7.19528407  *   4.95586510  *   5.53372205  *
    25       C          7.64394054  *   4.53775845  *   4.19393827  *
    26       C          6.67680424  *   3.52663259  *   3.54346559  *
    27       N          5.27674416  *   3.99927303  *   3.60771367  *
    28       C          4.86278738  *   4.16140935  *   5.02503473  *
    29       H          5.66382062  *   4.84390732  *   6.96975926  *
    30       H          7.92113544  *   4.92065773  *   6.24840257  *
    31       H          8.66884447  *   4.10882567  *   4.24857544  *
    32       H          7.71871429  *   5.45383117  *   3.56063476  *
    33       H          6.95269808  *   3.35852043  *   2.47935407  *
    34       H          6.74625150  *   2.54021013  *   4.05211506  *
    35       H          5.18887351  *   4.89396851  *   3.11189575  *
    36       H          3.95917345  *   4.81506019  *   5.06146070  *
    37       H          4.52777588  *   3.15668988  *   5.38874842  *
    38       H          3.40773012  *   1.29323330  *   3.37651789  *
    39       H          4.20004123  *   2.52679733  *   2.92516150  *
    40       O          3.59560370  *   1.82879072  *   2.60253787  *

                             CARTESIAN COORDINATES

   1    C       -0.352311109     1.003314704     1.089931193
   2    C        1.026310259     0.798684373     1.069659664
   3    C        1.557903195    -0.387080739     0.553121425
   4    C        0.709206872    -1.370217604     0.048012375
   5    C       -0.671370389    -1.147927851     0.070008796
   6    C       -1.214462369     0.033825722     0.589954361
   7    H       -0.757937005     1.931606562     1.501770760
   8    H        1.692752733     1.577471594     1.465832380
   9    H        1.116373414    -2.304188568    -0.362350825
  10    H       -2.299317625     0.195169187     0.602090722
  11    N       -1.554702070    -2.162100998    -0.449838982
  12    O       -2.763071280    -1.964968394    -0.436275020
  13    O       -1.077803131    -3.198890103    -0.892919995
  14    C        3.047482036    -0.594188621     0.579761313
  15    C        3.437661731    -1.875822649     1.305645292
  16    H        4.527841564    -1.982708364     1.407061409
  17    H        3.063019489    -2.783292365     0.808659446
  18    H        3.026231102    -1.880427467     2.328465525
  19    N        3.557187796    -0.666549396    -0.832722352
  20    O        4.386991736     0.156246597    -1.185556010
  21    O        3.137089764    -1.533523952    -1.578435969
  22    H        3.565863253     0.290113699     1.072550529
  23    C        5.920287000     4.681836559     5.934367275
  24    N        7.195284068     4.955865101     5.533722049
  25    C        7.643940541     4.537758451     4.193938273
  26    C        6.676804236     3.526632586     3.543465590
  27    N        5.276744164     3.999273026     3.607713673
  28    C        4.862787379     4.161409345     5.025034730
  29    H        5.663820620     4.843907321     6.969759263
  30    H        7.921135437     4.920657733     6.248402567
  31    H        8.668844472     4.108825665     4.248575438
  32    H        7.718714293     5.453831173     3.560634762
  33    H        6.952698077     3.358520425     2.479354070
  34    H        6.746251495     2.540210127     4.052115062
  35    H        5.188873515     4.893968511     3.111895746
  36    H        3.959173455     4.815060187     5.061460700
  37    H        4.527775876     3.156689877     5.388748416
  38    H        3.407730115     1.293233302     3.376517894
  39    H        4.200041231     2.526797332     2.925161500
  40    O        3.595603700     1.828790716     2.602537871


           Empirical Formula: C12 H19 N4 O5  =    40 atoms



      MOLECULAR POINT GROUP   :   C1  


          ALPHA EIGENVALUES  
 -37.58565 -37.53776 -36.76214 -34.87882 -31.71941 -31.01432 -30.91050 -29.44160
 -28.86516 -27.76612 -26.34887 -26.28644 -25.11635 -24.99572 -24.47229 -22.67087
 -22.18586 -21.63209 -20.88446 -19.49296 -19.42053 -18.75994 -18.37443 -18.31538
 -17.76159 -17.68007 -17.59943 -17.43008 -17.06854 -16.39841 -16.29715 -16.13385
 -15.36841 -15.32537 -15.30319 -14.52787 -14.42942 -14.14425 -14.13473 -13.87325
 -13.77316 -13.46996 -13.43992 -12.90142 -12.76921 -12.70718 -12.15982 -12.09176
 -12.05734 -12.01714 -11.97477 -11.91551 -11.75599 -11.63180 -11.20746 -10.79955
 -10.62441  -9.80498  -7.68244  -1.54907  -0.83391  -0.54807   0.08818   0.36268
   0.40653   1.67853   2.52497   2.56416   2.93215   3.04490   3.23105   3.45887
   3.60654   3.82549   3.94848   3.98882   4.12200   4.15883   4.23599   4.27956
   4.43046   4.53921   4.60011   4.77905   4.99549   5.05111   5.21753   5.26367
   5.28680   5.32976   5.36334   5.44213   5.52871   5.60263   5.73754   5.86965
   5.98244   6.12212   6.30089   6.45843   6.52305   6.78523   6.89485


           BETA EIGENVALUES 
 -37.58565 -37.53776 -36.49914 -34.69254 -31.71941 -31.01432 -30.91050 -29.44159
 -28.86476 -27.76612 -26.28653 -26.28235 -25.11635 -24.99571 -24.34716 -22.67087
 -22.09260 -21.63209 -20.88446 -19.42055 -19.34537 -18.75977 -18.31539 -18.25301
 -17.76075 -17.67824 -17.59871 -17.42592 -17.06806 -16.29719 -16.27500 -16.02723
 -15.36792 -15.30352 -15.16357 -14.51941 -14.41634 -14.13762 -13.90560 -13.81176
 -13.71760 -13.44429 -13.36616 -12.90033 -12.76891 -12.60336 -12.15974 -12.05734
 -12.03586 -12.01714 -11.97475 -11.91550 -11.75598 -11.63180 -10.79955 -10.62441
 -10.06657  -9.74446  -1.54906  -0.83390  -0.54807   0.08818   0.36268   0.40653
   1.22383   1.67853   2.56306   2.70374   3.03588   3.05488   3.23109   3.45887
   3.60659   3.86114   3.94948   3.98888   4.12205   4.16096   4.26452   4.31625
   4.47262   4.59479   4.67461   4.78006   4.99729   5.09751   5.21762   5.28696
   5.35877   5.36334   5.44211   5.51080   5.55385   5.60332   5.73759   5.89750
   6.02169   6.17231   6.45839   6.50530   6.58138   6.89537   7.04687


              NET ATOMIC CHARGES AND DIPOLE CONTRIBUTIONS

  ATOM NO.   TYPE          CHARGE      No. of ELECS.   s-Pop       p-Pop       
    1          C          -0.178984        4.1790     1.08636     3.09263
    2          C          -0.058700        4.0587     1.10408     2.95462
    3          C          -0.093730        4.0937     1.06469     3.02904
    4          C          -0.051303        4.0513     1.09644     2.95486
    5          C          -0.099365        4.0994     1.06811     3.03125
    6          C          -0.047579        4.0476     1.09809     2.94949
    7          H           0.185139        0.8149     0.81486
    8          H           0.194713        0.8053     0.80529
    9          H           0.202352        0.7976     0.79765
   10          H           0.196708        0.8033     0.80329
   11          N           0.678120        4.3219     1.44558     2.87630
   12          O          -0.458449        6.4584     1.94087     4.51758
   13          O          -0.456144        6.4561     1.94079     4.51535
   14          C          -0.046106        4.0461     1.09672     2.94938
   15          C          -0.470245        4.4702     1.05863     3.41162
   16          H           0.177835        0.8222     0.82216
   17          H           0.182716        0.8173     0.81728
   18          H           0.187360        0.8126     0.81264
   19          N           0.621116        4.3789     1.47945     2.89943
   20          O          -0.453709        6.4537     1.93970     4.51401
   21          O          -0.435156        6.4352     1.93897     4.49618
   22          H           0.220671        0.7793     0.77933
   23          C          -0.275395        4.2754     1.07216     3.20324
   24          N          -0.432077        5.4321     1.56059     3.87148
   25          C          -0.148088        4.1481     1.07559     3.07250
   26          C          -0.144195        4.1442     1.07386     3.07033
   27          N          -0.547654        5.5477     1.66964     3.87802
   28          C          -0.114229        4.1142     1.06106     3.05317
   29          H           0.160783        0.8392     0.83922
   30          H           0.315154        0.6848     0.68485
   31          H           0.157317        0.8427     0.84268
   32          H           0.156753        0.8432     0.84325
   33          H           0.160653        0.8393     0.83935
   34          H           0.156047        0.8440     0.84395
   35          H           0.274730        0.7253     0.72527
   36          H           0.152137        0.8479     0.84786
   37          H           0.153180        0.8468     0.84682
   38          H           0.368323        0.6317     0.63168
   39          H           0.383931        0.6161     0.61607
   40          O          -0.774630        6.7746     1.81554     4.95909
 DIPOLE           X         Y         Z       TOTAL
 POINT-CHG.     5.295     5.506    10.290    12.816
 HYBRID         0.612    -0.144    -0.009     0.629
 SUM            5.907     5.361    10.282    13.014


          ATOMIC ORBITAL ELECTRON POPULATIONS

     Atom    s        px        py        pz   
    1  C   1.08636   0.99339   1.07537   1.02387
    2  C   1.10408   1.02929   1.01229   0.91303
    3  C   1.06469   0.96057   1.00350   1.06498
    4  C   1.09644   0.96592   1.05537   0.93357
    5  C   1.06811   0.94997   0.95874   1.12254
    6  C   1.09809   1.10180   0.94404   0.90365
    7  H   0.81486
    8  H   0.80529
    9  H   0.79765
   10  H   0.80329
   11  N   1.44558   0.97573   0.97583   0.92474
   12  O   1.94087   1.03871   1.84133   1.63753
   13  O   1.94079   1.77690   1.21932   1.51913
   14  C   1.09672   0.99734   1.11723   0.83481
   15  C   1.05863   1.19886   1.04929   1.16347
   16  H   0.82216
   17  H   0.81728
   18  H   0.81264
   19  N   1.47945   0.93907   0.93613   1.02423
   20  O   1.93970   1.31400   1.36338   1.83662
   21  O   1.93897   1.60757   1.31353   1.57508
   22  H   0.77933
   23  C   1.07216   0.89899   1.23694   1.06731
   24  N   1.56059   1.13433   1.59288   1.14427
   25  C   1.07559   1.07335   1.09639   0.90276
   26  C   1.07386   0.86987   1.06214   1.13832
   27  N   1.66964   1.26185   1.42222   1.19395
   28  C   1.06106   1.04468   1.13839   0.87010
   29  H   0.83922
   30  H   0.68485
   31  H   0.84268
   32  H   0.84325
   33  H   0.83935
   34  H   0.84395
   35  H   0.72527
   36  H   0.84786
   37  H   0.84682
   38  H   0.63168
   39  H   0.61607
   40  O   1.81554   1.79568   1.61819   1.54522


                    (SZ)    =    0.500000
                    (S**2)  =    0.752578


          ATOMIC ORBITAL SPIN POPULATIONS

    Atom   Total    s     px     py     pz   
         Atomic
    1  C -0.0000 -0.000  0.000 -0.000 -0.000
    2  C  0.0000 -0.000 -0.000  0.000  0.000
    3  C -0.0000 -0.000  0.000 -0.000 -0.000
    4  C  0.0000  0.000  0.000 -0.000  0.000
    5  C -0.0000 -0.000  0.000  0.000 -0.000
    6  C  0.0000  0.000 -0.000 -0.000  0.000
    7  H -0.0000 -0.000
    8  H  0.0000  0.000
    9  H -0.0000 -0.000
   10  H -0.0000 -0.000
   11  N  0.0000  0.000  0.000  0.000 -0.000
   12  O -0.0000  0.000 -0.000  0.000 -0.000
   13  O  0.0000  0.000  0.000  0.000 -0.000
   14  C -0.0000  0.000 -0.000 -0.000 -0.000
   15  C  0.0000 -0.000  0.000 -0.000  0.000
   16  H -0.0000 -0.000
   17  H -0.0000 -0.000
   18  H -0.0000 -0.000
   19  N  0.0000  0.000  0.000 -0.000  0.000
   20  O  0.0000 -0.000  0.000  0.000 -0.000
   21  O -0.0000  0.000 -0.000 -0.000  0.000
   22  H -0.0000 -0.000
   23  C  0.7536  0.019  0.037  0.635  0.063
   24  N  0.2485  0.027  0.001  0.201  0.020
   25  C -0.0031  0.001  0.001  0.001 -0.005
   26  C  0.0025  0.000  0.000  0.001  0.001
   27  N  0.0005  0.000 -0.000 -0.000  0.001
   28  C -0.0346 -0.005 -0.016 -0.007 -0.007
   29  H -0.0216 -0.022
   30  H  0.0091  0.009
   31  H  0.0031  0.003
   32  H  0.0049  0.005
   33  H  0.0000  0.000
   34  H -0.0002 -0.000
   35  H  0.0004  0.000
   36  H  0.0150  0.015
   37  H  0.0218  0.022
   38  H -0.0000 -0.000
   39  H -0.0000 -0.000
   40  O  0.0000 -0.000  0.000 -0.000  0.000

 **********************
 *                    *
 * JOB ENDED NORMALLY *
 *                    *
 **********************



 TOTAL JOB TIME:            33.67 SECONDS

 == MOPAC DONE ==
