 *******************************************************************************
 **                                                                           **
 **                              MOPAC v22.0.6                                **
 **                                                                           **
 *******************************************************************************
 **          Digital Object Identifier (DOI): 10.5281/zenodo.6511958          **
 **    Visit the DOI location for information on how to cite this program.    **
 *******************************************************************************

                              PM7 CALCULATION RESULTS

 *******************************************************************************
 *  CALCULATION DONE:                                Sat Mar 23 23:42:31 2024  *
 *  PM7        - The PM7 Hamiltonian to be used
 *  DOUBLET    - SPIN STATE DEFINED AS A DOUBLET
 *
 *
 *
 *                 CHARGE ON SYSTEM = 0
 *
 *
 *
 *  EPS=78.4   - USE ANDREAS KLAMT'S COSMO IMPLICIT SOLVATION MODEL
 *  THREADS    - USE A MAXIMUM OF 30 THREADS
 *  T=         - A TIME OF 14.0 DAYS REQUESTED
 *  DUMP=N     - RESTART FILE WRITTEN EVERY 30.0 MINUTES REQUESTED
 *  RELSCF     - DEFAULT SCF CRITERION MULTIPLIED BY 1.0000
 *              (DEFAULT SCF CRITERION = 0.00010)
 *  ITRY=      - DO A MAXIMUM OF 15000 ITERATIONS FOR SCF
 *  AUX        - OUTPUT AUXILIARY INFORMATION
 *  BONDS      - FINAL BOND-ORDER MATRIX TO BE PRINTED
 *******************************************************************************
PM7 BONDS AUX DUMP=30M ITRY=15000 T=14D THREADS=30 CHARGE=0 DOUBLET eps=78.4 RELSCF=1
 Title: ASE calculation

   ATOM   CHEMICAL          X               Y               Z
  NUMBER   SYMBOL      (ANGSTROMS)     (ANGSTROMS)     (ANGSTROMS)

     1       C          0.87189821  *  -0.17492578  *   0.77516929  *
     2       C          0.84395280  *  -0.97897742  *  -0.36245136  *
     3       C         -0.33762081  *  -1.13816822  *  -1.09717887  *
     4       C         -1.49820206  *  -0.47611840  *  -0.68771417  *
     5       C         -1.45580344  *   0.31946461  *   0.46116049  *
     6       C         -0.27959163  *   0.48001015  *   1.20122380  *
     7       H          1.80231262  *  -0.05825270  *   1.33476171  *
     8       H          1.75460884  *  -1.48255084  *  -0.68488372  *
     9       H         -2.42499560  *  -0.58886884  *  -1.26146702  *
    10       H         -0.25873468  *   1.10739181  *   2.09782847  *
    11       N         -2.66076585  *   0.97941150  *   0.90169806  *
    12       O         -2.63985052  *   1.63704760  *   1.93540143  *
    13       O         -3.68330221  *   0.86534256  *   0.23743666  *
    14       C         -0.37085103     -2.02025875     -2.25674867   
    15       C         -0.23354116  *  -3.48684433  *  -2.03608499  *
    16       H          0.44787422  *  -3.95806955  *  -2.76018643  *
    17       H         -1.20271776  *  -4.00184718  *  -2.14061931  *
    18       H          0.13693875  *  -3.71701114  *  -1.02808139  *
    19       N         -0.63231185  *  -1.54871491  *  -3.47685776  *
    20       O         -0.72273458  *  -2.31744336  *  -4.47295786  *
    21       O         -0.74087447  *  -0.31134515  *  -3.69175613  *
    22       H          1.74230123     -1.91748726  *  -2.96089789  *
    23       C          3.50977843  *  -5.43505925  *   0.55245076  *
    24       C          4.50677984  *  -6.33726442  *  -0.03661290  *
    25       C          5.43933210  *  -5.63661337  *  -1.03296762  *
    26       C          4.64847550  *  -4.71950238  *  -1.96102204  *
    27       N          3.94462016  *  -3.66502732  *  -1.13596042  *
    28       C          2.93732010  *  -4.30769765  *  -0.20457921  *
    29       H          3.11781072  *  -5.64355702  *   1.53341377  *
    30       H          5.11217833  *  -6.83805713  *   0.75187357  *
    31       H          3.97449431  *  -7.18066691  *  -0.54584975  *
    32       H          5.99960066  *  -6.38597604  *  -1.62966927  *
    33       H          6.22110058  *  -5.06640011  *  -0.48968983  *
    34       H          5.32077345  *  -4.20915383  *  -2.69162902  *
    35       H          3.89681013  *  -5.29097944  *  -2.55379343  *
    36       H          4.64861005  *  -3.13396643  *  -0.57871083  *
    37       H          2.54187916  *  -3.51499602  *   0.48100565  *
    38       H          2.06377528  *  -4.67703649  *  -0.81085306  *
    39       H          3.45792184  *  -2.97266512  *  -1.77449125  *
    40       H          3.04542579  *  -1.08527691  *  -2.96895666  *
    41       O          2.72041473     -1.99679917     -2.93921858   



          CARTESIAN COORDINATES 

    NO.       ATOM           X           Y           Z

     1         C          0.8719     -0.1749      0.7752
     2         C          0.8440     -0.9790     -0.3625
     3         C         -0.3376     -1.1382     -1.0972
     4         C         -1.4982     -0.4761     -0.6877
     5         C         -1.4558      0.3195      0.4612
     6         C         -0.2796      0.4800      1.2012
     7         H          1.8023     -0.0583      1.3348
     8         H          1.7546     -1.4826     -0.6849
     9         H         -2.4250     -0.5889     -1.2615
    10         H         -0.2587      1.1074      2.0978
    11         N         -2.6608      0.9794      0.9017
    12         O         -2.6399      1.6370      1.9354
    13         O         -3.6833      0.8653      0.2374
    14         C         -0.3709     -2.0203     -2.2567
    15         C         -0.2335     -3.4868     -2.0361
    16         H          0.4479     -3.9581     -2.7602
    17         H         -1.2027     -4.0018     -2.1406
    18         H          0.1369     -3.7170     -1.0281
    19         N         -0.6323     -1.5487     -3.4769
    20         O         -0.7227     -2.3174     -4.4730
    21         O         -0.7409     -0.3113     -3.6918
    22         H          1.7423     -1.9175     -2.9609
    23         C          3.5098     -5.4351      0.5525
    24         C          4.5068     -6.3373     -0.0366
    25         C          5.4393     -5.6366     -1.0330
    26         C          4.6485     -4.7195     -1.9610
    27         N          3.9446     -3.6650     -1.1360
    28         C          2.9373     -4.3077     -0.2046
    29         H          3.1178     -5.6436      1.5334
    30         H          5.1122     -6.8381      0.7519
    31         H          3.9745     -7.1807     -0.5458
    32         H          5.9996     -6.3860     -1.6297
    33         H          6.2211     -5.0664     -0.4897
    34         H          5.3208     -4.2092     -2.6916
    35         H          3.8968     -5.2910     -2.5538
    36         H          4.6486     -3.1340     -0.5787
    37         H          2.5419     -3.5150      0.4810
    38         H          2.0638     -4.6770     -0.8109
    39         H          3.4579     -2.9727     -1.7745
    40         H          3.0454     -1.0853     -2.9690
    41         O          2.7204     -1.9968     -2.9392

 General Reference for PM7:
 "Optimization of Parameters for Semiempirical Methods VI: More Modifications to the 
 NDDO Approximations and Re-optimization of Parameters", J. J. P. Stewart, J. Mol. Mod., 1:32, 19 (2013)
 https://link.springer.com/article/10.1007/s00894-012-1667-x

           Empirical Formula: C13 H20 N3 O5  =    41 atoms



      MOLECULAR POINT GROUP   :   C1  


 DOUBLET STATE CALCULATION


          UHF CALCULATION, NO. OF ALPHA ELECTRONS =   59
                           NO. OF BETA  ELECTRONS =   58

          Geometry optimization using L-BFGS
  SCF CRITERION =    0.1000E-03
 CYCLE:     1 TIME:   0.469 TIME LEFT:  2.00W  GRAD.:     2.776 HEAT: -81.44856
 CYCLE:     2 TIME:   0.086 TIME LEFT:  2.00W  GRAD.:     2.765 HEAT: -81.44877
 CYCLE:     3 TIME:   0.109 TIME LEFT:  2.00W  GRAD.:    20.741 HEAT: -81.36155
 CYCLE:     4 TIME:   0.086 TIME LEFT:  2.00W  GRAD.:     2.712 HEAT: -81.44877
 CYCLE:     5 TIME:   0.078 TIME LEFT:  2.00W  GRAD.:     2.729 HEAT: -81.44886
 CYCLE:     6 TIME:   0.102 TIME LEFT:  2.00W  GRAD.:    61.238 HEAT: -80.47016
 CYCLE:     7 TIME:   0.086 TIME LEFT:  2.00W  GRAD.:     1.973 HEAT: -81.50870
 CYCLE:     8 TIME:   0.086 TIME LEFT:  2.00W  GRAD.:     1.945 HEAT: -81.51160
 CYCLE:     9 TIME:   0.109 TIME LEFT:  2.00W  GRAD.:     2.299 HEAT: -81.47881
 CYCLE:    10 TIME:   0.086 TIME LEFT:  2.00W  GRAD.:     3.437 HEAT: -81.48704
 CYCLE:    11 TIME:   0.086 TIME LEFT:  2.00W  GRAD.:     5.677 HEAT: -81.49248
 CYCLE:    12 TIME:   0.094 TIME LEFT:  2.00W  GRAD.:     5.145 HEAT: -81.35551
 CYCLE:    13 TIME:   0.078 TIME LEFT:  2.00W  GRAD.:     5.841 HEAT: -81.34434
 CYCLE:    14 TIME:   0.117 TIME LEFT:  2.00W  GRAD.:     5.711 HEAT: -81.34454
 CYCLE:    15 TIME:   0.078 TIME LEFT:  2.00W  GRAD.:     5.325 HEAT: -81.36621
 CYCLE:    16 TIME:   0.078 TIME LEFT:  2.00W  GRAD.:     4.438 HEAT: -81.30740
 CYCLE:    17 TIME:   0.125 TIME LEFT:  2.00W  GRAD.:     3.657 HEAT: -81.33384
 CYCLE:    18 TIME:   0.125 TIME LEFT:  2.00W  GRAD.:     2.040 HEAT: -81.05718
 CYCLE:    19 TIME:   0.086 TIME LEFT:  2.00W  GRAD.:     1.522 HEAT: -81.08365
 CYCLE:    20 TIME:   0.078 TIME LEFT:  2.00W  GRAD.:     1.165 HEAT: -81.08574
 CYCLE:    21 TIME:   0.078 TIME LEFT:  2.00W  GRAD.:     1.039 HEAT: -81.08636
 CYCLE:    22 TIME:   0.094 TIME LEFT:  2.00W  GRAD.:     1.196 HEAT: -81.08016
 CYCLE:    23 TIME:   0.109 TIME LEFT:  2.00W  GRAD.:     2.434 HEAT: -81.05720
 CYCLE:    24 TIME:   0.133 TIME LEFT:  2.00W  GRAD.:     1.500 HEAT: -81.05661
 CYCLE:    25 TIME:   0.094 TIME LEFT:  2.00W  GRAD.:     1.519 HEAT: -80.92532
 CYCLE:    26 TIME:   0.102 TIME LEFT:  2.00W  GRAD.:     1.915 HEAT: -80.92921
 CYCLE:    27 TIME:   0.086 TIME LEFT:  2.00W  GRAD.:     1.824 HEAT: -80.93530
 CYCLE:    28 TIME:   0.078 TIME LEFT:  2.00W  GRAD.:     2.287 HEAT: -81.31177
 CYCLE:    29 TIME:   0.086 TIME LEFT:  2.00W  GRAD.:     2.101 HEAT: -81.31691
 CYCLE:    30 TIME:   0.102 TIME LEFT:  2.00W  GRAD.:     1.724 HEAT: -80.93830
 CYCLE:    31 TIME:   0.102 TIME LEFT:  2.00W  GRAD.:     1.433 HEAT: -80.93915
 CYCLE:    32 TIME:   0.117 TIME LEFT:  2.00W  GRAD.:     0.891 HEAT: -80.91097


          CURRENT BEST VALUE OF HEAT OF FORMATION =    -81.511791

 PM7 BONDS AUX DUMP=30M ITRY=15000 T=14D THREADS=30 CHARGE=0 DOUBLET eps=78.4 RELSCF=1
 Title: ASE calculation

  C     0.87151112 +1  -0.17488912 +1   0.77510758 +1
  C     0.84385694 +1  -0.97882251 +1  -0.36189199 +1
  C    -0.33828741 +1  -1.13806422 +1  -1.09715008 +1
  C    -1.49815957 +1  -0.47621945 +1  -0.68783130 +1
  C    -1.45573833 +1   0.31948787 +1   0.46122133 +1
  C    -0.27962518 +1   0.48004691 +1   1.20115933 +1
  H     1.80249474 +1  -0.05826024 +1   1.33492728 +1
  H     1.75485888 +1  -1.48297611 +1  -0.68488198 +1
  H    -2.42459176 +1  -0.58880828 +1  -1.26139593 +1
  H    -0.25859004 +1   1.10727965 +1   2.09758490 +1
  N    -2.66052910 +1   0.97956954 +1   0.90173224 +1
  O    -2.63996104 +1   1.63695499 +1   1.93488809 +1
  O    -3.68296536 +1   0.86574363 +1   0.23763163 +1
  C    -0.37085103 +0  -2.02025875 +0  -2.25674867 +0
  C    -0.23361389 +1  -3.48693700 +1  -2.03605718 +1
  H     0.44799944 +1  -3.95793600 +1  -2.76002205 +1
  H    -1.20290945 +1  -4.00186668 +1  -2.14086948 +1
  H     0.13650161 +1  -3.71682407 +1  -1.02818828 +1
  N    -0.63140588 +1  -1.54904508 +1  -3.47619545 +1
  O    -0.72286208 +1  -2.31681428 +1  -4.47322578 +1
  O    -0.74098541 +1  -0.31142762 +1  -3.69234984 +1
  H     1.74230123 +0  -1.91645491 +1  -2.96236352 +1
  C     3.50956079 +1  -5.43522582 +1   0.55260369 +1
  C     4.50676501 +1  -6.33734053 +1  -0.03651620 +1
  C     5.43941322 +1  -5.63668998 +1  -1.03304216 +1
  C     4.64836784 +1  -4.71942395 +1  -1.96088220 +1
  N     3.94464160 +1  -3.66508573 +1  -1.13625364 +1
  C     2.93762456 +1  -4.30761456 +1  -0.20466578 +1
  H     3.11780532 +1  -5.64370172 +1   1.53384011 +1
  H     5.11222496 +1  -6.83819897 +1   0.75197763 +1
  H     3.97447038 +1  -7.18084245 +1  -0.54580279 +1
  H     5.99966822 +1  -6.38623115 +1  -1.62970712 +1
  H     6.22119866 +1  -5.06647985 +1  -0.48965933 +1
  H     5.32060560 +1  -4.20937103 +1  -2.69137369 +1
  H     3.89704670 +1  -5.29078436 +1  -2.55348400 +1
  H     4.64913577 +1  -3.13428643 +1  -0.57830771 +1
  H     2.54182888 +1  -3.51499542 +1   0.48125493 +1
  H     2.06391106 +1  -4.67696725 +1  -0.81051909 +1
  H     3.45797848 +1  -2.97233159 +1  -1.77461712 +1
  H     3.04826711 +1  -1.08447468 +1  -2.96841064 +1
  O     2.72041473 +0  -1.99679917 +0  -2.93921858 +0



 -------------------------------------------------------------------------------
 PM7 BONDS AUX DUMP=30M ITRY=15000 T=14D THREADS=30 CHARGE=0 DOUBLET eps=78.4 RELSCF=1
 Title: ASE calculation



     HERBERTS TEST WAS SATISFIED IN BFGS                      
     SCF FIELD WAS ACHIEVED                                   


                              PM7 CALCULATION
                                                       MOPAC v22.0.6 Linux
                                                       Sat Mar 23 23:42:34 2024




          FINAL HEAT OF FORMATION =        -81.51179 KCAL/MOL =    -341.04533 KJ/MOL
          VAN DER WAALS AREA      =        321.91 SQUARE ANGSTROMS



          DIELECTRIC ENERGY       =         -3.16343 EV
          COSMO AREA              =        321.91 SQUARE ANGSTROMS
          COSMO VOLUME            =        366.09 CUBIC ANGSTROMS

          GRADIENT NORM           =          1.94532          =       0.30381 PER ATOM
          IONIZATION POTENTIAL    =          8.725470 EV
          ALPHA SOMO LUMO (EV)    =         -8.725 -1.400
          BETA  SOMO LUMO (EV)    =         -8.726 -1.400
          NO. OF ALPHA ELECTRONS  =         59
          NO. OF BETA  ELECTRONS  =         58
          MOLECULAR WEIGHT        =        298.3181         POINT GROUP:  C1  

          MOLECULAR DIMENSIONS (Angstroms)

            Atom       Atom       Distance
            H    32    O    12    12.31751
            O    20    H    29     7.22175
            H    17    H    40     5.04044


          SCF CALCULATIONS        =         34

          WALL-CLOCK TIME         =      3.547 SECONDS
          COMPUTATION TIME        =          5 MINUTES AND 21.472 SECONDS




   ATOM   CHEMICAL          X               Y               Z
  NUMBER   SYMBOL      (ANGSTROMS)     (ANGSTROMS)     (ANGSTROMS)

     1       C          0.87151112  *  -0.17488912  *   0.77510758  *
     2       C          0.84385694  *  -0.97882251  *  -0.36189199  *
     3       C         -0.33828741  *  -1.13806422  *  -1.09715008  *
     4       C         -1.49815957  *  -0.47621945  *  -0.68783130  *
     5       C         -1.45573833  *   0.31948787  *   0.46122133  *
     6       C         -0.27962518  *   0.48004691  *   1.20115933  *
     7       H          1.80249474  *  -0.05826024  *   1.33492728  *
     8       H          1.75485888  *  -1.48297611  *  -0.68488198  *
     9       H         -2.42459176  *  -0.58880828  *  -1.26139593  *
    10       H         -0.25859004  *   1.10727965  *   2.09758490  *
    11       N         -2.66052910  *   0.97956954  *   0.90173224  *
    12       O         -2.63996104  *   1.63695499  *   1.93488809  *
    13       O         -3.68296536  *   0.86574363  *   0.23763163  *
    14       C         -0.37085103     -2.02025875     -2.25674867   
    15       C         -0.23361389  *  -3.48693700  *  -2.03605718  *
    16       H          0.44799944  *  -3.95793600  *  -2.76002205  *
    17       H         -1.20290945  *  -4.00186668  *  -2.14086948  *
    18       H          0.13650161  *  -3.71682407  *  -1.02818828  *
    19       N         -0.63140588  *  -1.54904508  *  -3.47619545  *
    20       O         -0.72286208  *  -2.31681428  *  -4.47322578  *
    21       O         -0.74098541  *  -0.31142762  *  -3.69234984  *
    22       H          1.74230123     -1.91645491  *  -2.96236352  *
    23       C          3.50956079  *  -5.43522582  *   0.55260369  *
    24       C          4.50676501  *  -6.33734053  *  -0.03651620  *
    25       C          5.43941322  *  -5.63668998  *  -1.03304216  *
    26       C          4.64836784  *  -4.71942395  *  -1.96088220  *
    27       N          3.94464160  *  -3.66508573  *  -1.13625364  *
    28       C          2.93762456  *  -4.30761456  *  -0.20466578  *
    29       H          3.11780532  *  -5.64370172  *   1.53384011  *
    30       H          5.11222496  *  -6.83819897  *   0.75197763  *
    31       H          3.97447038  *  -7.18084245  *  -0.54580279  *
    32       H          5.99966822  *  -6.38623115  *  -1.62970712  *
    33       H          6.22119866  *  -5.06647985  *  -0.48965933  *
    34       H          5.32060560  *  -4.20937103  *  -2.69137369  *
    35       H          3.89704670  *  -5.29078436  *  -2.55348400  *
    36       H          4.64913577  *  -3.13428643  *  -0.57830771  *
    37       H          2.54182888  *  -3.51499542  *   0.48125493  *
    38       H          2.06391106  *  -4.67696725  *  -0.81051909  *
    39       H          3.45797848  *  -2.97233159  *  -1.77461712  *
    40       H          3.04826711  *  -1.08447468  *  -2.96841064  *
    41       O          2.72041473     -1.99679917     -2.93921858   

                             CARTESIAN COORDINATES

   1    C        0.871511121    -0.174889122     0.775107578
   2    C        0.843856943    -0.978822514    -0.361891992
   3    C       -0.338287413    -1.138064220    -1.097150078
   4    C       -1.498159574    -0.476219447    -0.687831297
   5    C       -1.455738333     0.319487872     0.461221325
   6    C       -0.279625177     0.480046910     1.201159334
   7    H        1.802494741    -0.058260241     1.334927276
   8    H        1.754858876    -1.482976114    -0.684881980
   9    H       -2.424591757    -0.588808280    -1.261395932
  10    H       -0.258590036     1.107279652     2.097584903
  11    N       -2.660529100     0.979569540     0.901732240
  12    O       -2.639961037     1.636954989     1.934888089
  13    O       -3.682965359     0.865743632     0.237631633
  14    C       -0.370851030    -2.020258750    -2.256748670
  15    C       -0.233613891    -3.486936997    -2.036057177
  16    H        0.447999438    -3.957936001    -2.760022052
  17    H       -1.202909448    -4.001866678    -2.140869479
  18    H        0.136501608    -3.716824068    -1.028188279
  19    N       -0.631405878    -1.549045080    -3.476195454
  20    O       -0.722862082    -2.316814280    -4.473225777
  21    O       -0.740985410    -0.311427621    -3.692349843
  22    H        1.742301230    -1.916454907    -2.962363523
  23    C        3.509560787    -5.435225824     0.552603689
  24    C        4.506765011    -6.337340531    -0.036516203
  25    C        5.439413224    -5.636689975    -1.033042163
  26    C        4.648367838    -4.719423945    -1.960882195
  27    N        3.944641601    -3.665085730    -1.136253643
  28    C        2.937624564    -4.307614561    -0.204665780
  29    H        3.117805319    -5.643701725     1.533840112
  30    H        5.112224962    -6.838198966     0.751977632
  31    H        3.974470381    -7.180842446    -0.545802786
  32    H        5.999668225    -6.386231149    -1.629707120
  33    H        6.221198663    -5.066479854    -0.489659330
  34    H        5.320605605    -4.209371029    -2.691373686
  35    H        3.897046698    -5.290784362    -2.553484003
  36    H        4.649135770    -3.134286432    -0.578307709
  37    H        2.541828875    -3.514995420     0.481254934
  38    H        2.063911060    -4.676967246    -0.810519087
  39    H        3.457978484    -2.972331588    -1.774617117
  40    H        3.048267106    -1.084474683    -2.968410636
  41    O        2.720414730    -1.996799170    -2.939218580


           Empirical Formula: C13 H20 N3 O5  =    41 atoms



      MOLECULAR POINT GROUP   :   C1  


          ALPHA EIGENVALUES  
 -38.37193 -37.47339 -35.97885 -31.34758 -30.79633 -29.57614 -28.92737 -28.27095
 -28.18063 -27.40062 -26.88674 -25.86681 -24.78412 -24.34357 -23.73301 -21.97869
 -21.91697 -21.40337 -20.21681 -19.94719 -19.00876 -18.78168 -18.28421 -18.09542
 -17.60497 -17.31392 -17.12453 -16.98537 -16.48845 -16.45288 -16.36684 -15.95285
 -15.53140 -15.27979 -15.06343 -15.02204 -14.61895 -14.37229 -14.19680 -13.81462
 -13.79177 -13.62466 -13.36379 -13.03325 -12.83735 -12.47400 -12.45850 -12.28825
 -12.06269 -11.94433 -11.83721 -11.66628 -11.02522 -10.89004 -10.71938 -10.59574
 -10.32625  -9.38906  -8.72547  -1.40048  -0.34158   0.28008   0.48302   0.91331
   1.07282   1.80978   2.19426   2.63431   3.06712   3.19229   3.45452   3.51908
   3.61179   3.76160   3.82223   4.15646   4.17530   4.22073   4.35578   4.38028
   4.48624   4.62872   4.67854   4.77412   4.91829   4.98381   5.05156   5.13407
   5.23909   5.40273   5.49811   5.50409   5.66044   5.68098   5.71282   5.72148
   5.76985   5.89508   5.91036   6.06523   6.11686   6.19026   6.24854   6.90349


           BETA EIGENVALUES 
 -38.33996 -37.47339 -35.97882 -31.34756 -30.79633 -29.57400 -28.83113 -28.27077
 -28.18034 -27.40059 -26.77504 -25.86587 -24.78277 -24.34115 -23.67371 -21.95002
 -21.84198 -21.40277 -20.09092 -19.94473 -18.95319 -18.77724 -18.28408 -18.09512
 -17.60497 -17.24580 -17.12397 -16.98132 -16.48268 -16.42146 -16.32036 -15.77548
 -15.53014 -15.18546 -15.02202 -14.88552 -14.54800 -14.30510 -14.18815 -13.80405
 -13.76655 -13.57860 -13.33071 -13.02948 -12.82395 -12.47101 -12.36944 -12.17117
 -11.98851 -11.94434 -11.83721 -11.66627 -11.02516 -10.88999 -10.71931 -10.59572
 -10.32620  -8.72569  -1.40048  -0.34158   0.05348   0.28014   0.48302   1.04222
   1.07724   1.80979   2.19431   2.67254   3.11843   3.19279   3.49137   3.57216
   3.68741   3.82223   3.90046   4.17524   4.22067   4.24598   4.35650   4.48604
   4.60447   4.65589   4.68910   4.77431   4.96297   5.01390   5.05582   5.19628
   5.25677   5.41402   5.50030   5.53505   5.66050   5.68242   5.71311   5.72225
   5.77024   5.91029   6.06462   6.07232   6.16548   6.19036   6.28642   6.90427


              NET ATOMIC CHARGES AND DIPOLE CONTRIBUTIONS

  ATOM NO.   TYPE          CHARGE      No. of ELECS.   s-Pop       p-Pop       
    1          C          -0.154453        4.1545     1.08667     3.06778
    2          C          -0.118452        4.1185     1.09420     3.02425
    3          C           0.061739        3.9383     1.05688     2.88138
    4          C          -0.100113        4.1001     1.09444     3.00567
    5          C          -0.074601        4.0746     1.06891     3.00569
    6          C          -0.098830        4.0988     1.09204     3.00679
    7          H           0.174347        0.8257     0.82565
    8          H           0.152424        0.8476     0.84758
    9          H           0.200648        0.7994     0.79935
   10          H           0.189893        0.8101     0.81011
   11          N           0.678062        4.3219     1.44731     2.87463
   12          O          -0.467206        6.4672     1.94086     4.52635
   13          O          -0.457121        6.4571     1.94064     4.51648
   14          C          -0.323902        4.3239     1.02697     3.29693
   15          C          -0.397346        4.3973     1.04236     3.35498
   16          H           0.150636        0.8494     0.84936
   17          H           0.162673        0.8373     0.83733
   18          H           0.146200        0.8538     0.85380
   19          N           0.693669        4.3063     1.41754     2.88879
   20          O          -0.705063        6.7051     1.94538     4.75969
   21          O          -0.699627        6.6996     1.94525     4.75438
   22          H           0.380041        0.6200     0.61996
   23          C          -0.203052        4.2031     1.11014     3.09291
   24          C          -0.288047        4.2880     1.04990     3.23815
   25          C          -0.297539        4.2975     1.06194     3.23560
   26          C          -0.163918        4.1639     1.08795     3.07597
   27          N          -0.185396        5.1854     1.51270     3.67270
   28          C          -0.169093        4.1691     1.07998     3.08912
   29          H           0.163938        0.8361     0.83606
   30          H           0.166055        0.8339     0.83394
   31          H           0.181009        0.8190     0.81899
   32          H           0.170934        0.8291     0.82907
   33          H           0.162044        0.8380     0.83796
   34          H           0.187212        0.8128     0.81279
   35          H           0.188693        0.8113     0.81131
   36          H           0.330169        0.6698     0.66983
   37          H           0.189073        0.8109     0.81093
   38          H           0.199976        0.8000     0.80002
   39          H           0.337160        0.6628     0.66284
   40          H           0.396174        0.6038     0.60383
   41          O          -0.759013        6.7590     1.81171     4.94730
 DIPOLE           X         Y         Z       TOTAL
 POINT-CHG.    26.462   -14.968    11.384    32.463
 HYBRID        -0.494     1.075    -0.209     1.202
 SUM           25.967   -13.893    11.175    31.499


          ATOMIC ORBITAL ELECTRON POPULATIONS

     Atom    s        px        py        pz   
    1  C   1.08667   1.06569   0.98623   1.01585
    2  C   1.09420   1.05277   0.98380   0.98768
    3  C   1.05688   0.95807   0.95714   0.96616
    4  C   1.09444   1.07471   0.95448   0.97649
    5  C   1.06891   0.89420   1.06682   1.04467
    6  C   1.09204   0.96225   1.00062   1.04392
    7  H   0.82565
    8  H   0.84758
    9  H   0.79935
   10  H   0.81011
   11  N   1.44731   0.99438   0.93506   0.94518
   12  O   1.94086   1.90951   1.43844   1.17839
   13  O   1.94064   1.28267   1.68456   1.54925
   14  C   1.02697   1.42662   0.98893   0.88137
   15  C   1.04236   1.18642   1.00190   1.16666
   16  H   0.84936
   17  H   0.83733
   18  H   0.85380
   19  N   1.41754   0.97300   0.93105   0.98475
   20  O   1.94538   1.77247   1.59263   1.39459
   21  O   1.94525   1.77059   1.06047   1.92332
   22  H   0.61996
   23  C   1.11014   1.03607   0.99265   1.06420
   24  C   1.04990   1.06291   1.07402   1.10121
   25  C   1.06194   1.06616   1.10363   1.06581
   26  C   1.08795   1.09038   0.97910   1.00649
   27  N   1.51270   1.23044   1.21539   1.22687
   28  C   1.07998   0.98486   1.07351   1.03075
   29  H   0.83606
   30  H   0.83394
   31  H   0.81899
   32  H   0.82907
   33  H   0.83796
   34  H   0.81279
   35  H   0.81131
   36  H   0.66983
   37  H   0.81093
   38  H   0.80002
   39  H   0.66284
   40  H   0.60383
   41  O   1.81171   1.45220   1.51435   1.98075


                    (SZ)    =    0.500000
                    (S**2)  =    0.753657


          ATOMIC ORBITAL SPIN POPULATIONS

    Atom   Total    s     px     py     pz   
         Atomic
    1  C -0.0000 -0.000 -0.000 -0.000 -0.000
    2  C  0.0000  0.000  0.000  0.000  0.000
    3  C  0.0000  0.000  0.000  0.000  0.000
    4  C -0.0000 -0.000 -0.000 -0.000 -0.000
    5  C -0.0000 -0.000 -0.000 -0.000 -0.000
    6  C  0.0000  0.000  0.000  0.000  0.000
    7  H  0.0000  0.000
    8  H -0.0000 -0.000
    9  H  0.0000  0.000
   10  H -0.0000 -0.000
   11  N  0.0000  0.000 -0.000  0.000 -0.000
   12  O -0.0000 -0.000 -0.000  0.000 -0.000
   13  O -0.0000 -0.000 -0.000  0.000 -0.000
   14  C -0.0000 -0.000 -0.000 -0.000 -0.000
   15  C  0.0002  0.000  0.000  0.000  0.000
   16  H -0.0000 -0.000
   17  H  0.0000  0.000
   18  H -0.0001 -0.000
   19  N  0.0000  0.000  0.000  0.000 -0.000
   20  O  0.0000  0.000  0.000  0.000 -0.000
   21  O  0.0000  0.000  0.000 -0.000  0.000
   22  H  0.0000  0.000
   23  C  0.9960  0.026  0.471  0.328  0.171
   24  C -0.0413 -0.006 -0.014 -0.016 -0.005
   25  C  0.0131  0.002  0.004  0.003  0.004
   26  C -0.0019 -0.000 -0.000 -0.001 -0.001
   27  N  0.0161  0.003  0.005  0.003  0.005
   28  C -0.0447 -0.006 -0.017 -0.019 -0.002
   29  H -0.0280 -0.028
   30  H  0.0107  0.011
   31  H  0.0396  0.040
   32  H -0.0009 -0.001
   33  H -0.0005 -0.001
   34  H  0.0007  0.001
   35  H  0.0001  0.000
   36  H  0.0005  0.000
   37  H  0.0100  0.010
   38  H  0.0308  0.031
   39  H -0.0005 -0.000
   40  H -0.0000 -0.000
   41  O  0.0000  0.000 -0.000  0.000  0.000

          BONDING CONTRIBUTION OF EACH ALPHA M.O.

  0.7232  0.6733  0.7109  0.9451  0.4984  0.5819  0.9616  0.7223  0.6037  0.7676
  0.9655  0.8310  0.6244  0.7053  0.9615  0.9229  0.9194  0.7539  0.9226  0.7103
  0.9388  0.7285  0.6488  0.7760  0.7693  0.9436  0.6144  0.9063  0.8117  0.9541
  0.8975  0.8953  0.8757  0.8255  0.8539  0.9741  0.6055  0.9884  0.9571  0.8933
  0.9362  0.9335  0.9505  0.6782  0.5086  0.9689  0.9133  0.8990  0.9526  0.4236
  0.1442  0.3508  0.2301  0.2929  0.1686  0.9097  0.9249  0.2419  0.5702 -1.0985
 -0.9718 -1.1027 -1.0609 -0.9423 -1.2517 -1.0293 -1.0444 -0.9309 -0.9488 -0.9778
 -0.9781 -0.9771 -0.9511 -0.9692 -0.9855 -0.9504 -1.0257 -0.9826 -0.9842 -0.9805
 -0.9914 -0.9586 -0.9882 -0.9842 -0.9637 -0.9594 -0.9965 -0.9821 -0.9419 -0.9351
 -0.9746 -0.9835 -0.9771 -0.9803 -0.9838 -0.9817 -0.9799 -0.9689 -0.9760 -0.9433
 -0.9669 -0.8808 -0.9652 -0.9539

          BONDING CONTRIBUTION OF EACH BETA  M.O.

  0.7281  0.6733  0.7109  0.9451  0.4984  0.5799  0.9722  0.7217  0.6042  0.7676
  0.9717  0.8310  0.6243  0.7046  0.9711  0.8746  0.9733  0.7545  0.9285  0.7185
  0.9366  0.7388  0.6487  0.7763  0.7693  0.9458  0.6144  0.9086  0.8082  0.9114
  0.9522  0.9604  0.8768  0.8271  0.9710  0.8529  0.7207  0.9863  0.9634  0.8887
  0.9415  0.9379  0.9533  0.6961  0.4608  0.9865  0.9339  0.9402  0.9776  0.4236
  0.1442  0.3509  0.2301  0.2929  0.1686  0.9097  0.9250  0.5702 -1.0985 -0.9718
 -0.3443 -1.1025 -1.0609 -0.8989 -1.1913 -1.0293 -1.0445 -0.9156 -0.9440 -0.9776
 -0.9520 -0.9543 -0.9906 -0.9855 -0.9632 -1.0260 -0.9810 -0.9135 -0.9848 -0.9913
 -0.9706 -0.9753 -0.9697 -0.9840 -0.9535 -0.9617 -0.9927 -0.9639 -0.9368 -0.9336
 -0.9708 -0.9728 -0.9770 -0.9795 -0.9838 -0.9814 -0.9797 -0.9760 -0.9456 -0.9696
 -0.9717 -0.8809 -0.9484 -0.9536





            (VALENCIES)   BOND ORDERS

     1  C     (3.969)     6  C 1.453     2  C 1.438     7  H 0.957     4  C 0.101

     2  C     (3.973)     1  C 1.438     3  C 1.400     8  H 0.961     5  C 0.106     4  C 0.010

     3  C     (3.992)     4  C 1.430     2  C 1.400    14  C 1.019     6  C 0.102    20  O 0.012

     4  C     (3.955)     3  C 1.430     5  C 1.382     9  H 0.945     1  C 0.101    12  O 0.019     6  C 0.013
                         13  O 0.012     2  C 0.010

     5  C     (3.934)     4  C 1.382     6  C 1.382    11  N 0.908     2  C 0.106    13  O 0.068    12  O 0.067

     6  C     (3.959)     1  C 1.453     5  C 1.382    10  H 0.950     3  C 0.102    13  O 0.019     4  C 0.013
                         12  O 0.012

     7  H     (0.970)     1  C 0.957

     8  H     (0.977)     2  C 0.961

     9  H     (0.960)     4  C 0.945

    10  H     (0.964)     6  C 0.950

    11  N     (3.782)    13  O 1.422    12  O 1.419     5  C 0.908

    12  O     (1.811)    11  N 1.419    13  O 0.284     5  C 0.067     4  C 0.019     6  C 0.012

    13  O     (1.816)    11  N 1.422    12  O 0.284     5  C 0.068     6  C 0.019     4  C 0.012

    14  C     (3.755)    19  N 1.387     3  C 1.019    15  C 0.996    21  O 0.154    20  O 0.152    22  H 0.012

    15  C     (3.926)    14  C 0.996    18  H 0.966    16  H 0.965    17  H 0.960    21  O 0.012

    16  H     (0.977)    15  C 0.965

    17  H     (0.974)    15  C 0.960

    18  H     (0.979)    15  C 0.966

    19  N     (3.815)    14  C 1.387    21  O 1.191    20  O 1.189

    20  O     (1.518)    19  N 1.189    14  C 0.152    21  O 0.151     3  C 0.012

    21  O     (1.521)    19  N 1.191    14  C 0.154    20  O 0.151    15  C 0.012

    22  H     (0.856)    41  O 0.834    14  C 0.012

    23  C     (3.965)    24  C 1.037    28  C 1.034    29  H 0.959

    24  C     (3.951)    23  C 1.037    25  C 0.994    30  H 0.953    31  H 0.931

    25  C     (3.945)    26  C 1.008    24  C 0.994    33  H 0.962    32  H 0.955

    26  C     (3.872)    25  C 1.008    35  H 0.953    34  H 0.951    27  N 0.919    28  C 0.011

    27  N     (3.574)    26  C 0.919    28  C 0.916    36  H 0.867    39  H 0.817    41  O 0.018

    28  C     (3.882)    23  C 1.034    37  H 0.945    38  H 0.930    27  N 0.916    26  C 0.011

    29  H     (0.973)    23  C 0.959

    30  H     (0.972)    24  C 0.953

    31  H     (0.967)    24  C 0.931

    32  H     (0.971)    25  C 0.955

    33  H     (0.974)    25  C 0.962

    34  H     (0.965)    26  C 0.951

    35  H     (0.964)    26  C 0.953

    36  H     (0.891)    27  N 0.867

    37  H     (0.964)    28  C 0.945

    38  H     (0.960)    28  C 0.930

    39  H     (0.886)    27  N 0.817    41  O 0.045

    40  H     (0.843)    41  O 0.839

    41  O     (1.749)    40  H 0.839    22  H 0.834    39  H 0.045    27  N 0.018


 **********************
 *                    *
 * JOB ENDED NORMALLY *
 *                    *
 **********************



 TOTAL JOB TIME:             3.58 SECONDS

 == MOPAC DONE ==
