 *******************************************************************************
 **                                                                           **
 **                              MOPAC v22.0.6                                **
 **                                                                           **
 *******************************************************************************
 **          Digital Object Identifier (DOI): 10.5281/zenodo.6511958          **
 **    Visit the DOI location for information on how to cite this program.    **
 *******************************************************************************

                              PM7 CALCULATION RESULTS

 *******************************************************************************
 *  CALCULATION DONE:                                Sat Mar 23 23:43:01 2024  *
 *  PM7        - The PM7 Hamiltonian to be used
 *  DOUBLET    - SPIN STATE DEFINED AS A DOUBLET
 *
 *
 *
 *                 CHARGE ON SYSTEM = 0
 *
 *
 *
 *  EPS=78.4   - USE ANDREAS KLAMT'S COSMO IMPLICIT SOLVATION MODEL
 *  LET        - OVERRIDE SOME SAFETY CHECKS
 *  THREADS    - USE A MAXIMUM OF 30 THREADS
 *  T=         - A TIME OF 14.0 DAYS REQUESTED
 *  DUMP=N     - RESTART FILE WRITTEN EVERY 30.0 MINUTES REQUESTED
 *  RELSCF     - DEFAULT SCF CRITERION MULTIPLIED BY 1.0000
 *              (DEFAULT SCF CRITERION = 0.00010)
 *  ITRY=      - DO A MAXIMUM OF 15000 ITERATIONS FOR SCF
 *  AUX        - OUTPUT AUXILIARY INFORMATION
 *  ISOTOPE    - SAVE THE FORCE MATRIX FOR USE LATER
 *  BONDS      - FINAL BOND-ORDER MATRIX TO BE PRINTED
 *  LARGE      - EXPANDED OUTPUT TO BE PRINTED
 *  THERMO     - THERMODYNAMIC QUANTITIES TO BE CALCULATED
 *******************************************************************************
PM7 AUX LARGE THERMO(298,298) LET ISOTOPE BONDS DUMP=30M ITRY=15000 T=14D THREADS=30 CHARGE=0 DOUBLET eps=78.4 RELSCF=1
 Title: ASE calculation

   ATOM   CHEMICAL          X               Y               Z
  NUMBER   SYMBOL      (ANGSTROMS)     (ANGSTROMS)     (ANGSTROMS)

     1       C          0.87151112  *  -0.17488912  *   0.77510758  *
     2       C          0.84385694  *  -0.97882251  *  -0.36189199  *
     3       C         -0.33828741  *  -1.13806422  *  -1.09715008  *
     4       C         -1.49815957  *  -0.47621945  *  -0.68783130  *
     5       C         -1.45573833  *   0.31948787  *   0.46122133  *
     6       C         -0.27962518  *   0.48004691  *   1.20115933  *
     7       H          1.80249474  *  -0.05826024  *   1.33492728  *
     8       H          1.75485888  *  -1.48297611  *  -0.68488198  *
     9       H         -2.42459176  *  -0.58880828  *  -1.26139593  *
    10       H         -0.25859004  *   1.10727965  *   2.09758490  *
    11       N         -2.66052910  *   0.97956954  *   0.90173224  *
    12       O         -2.63996104  *   1.63695499  *   1.93488809  *
    13       O         -3.68296536  *   0.86574363  *   0.23763163  *
    14       C         -0.37085103  *  -2.02025875  *  -2.25674867  *
    15       C         -0.23361389  *  -3.48693700  *  -2.03605718  *
    16       H          0.44799944  *  -3.95793600  *  -2.76002205  *
    17       H         -1.20290945  *  -4.00186668  *  -2.14086948  *
    18       H          0.13650161  *  -3.71682407  *  -1.02818828  *
    19       N         -0.63140588  *  -1.54904508  *  -3.47619545  *
    20       O         -0.72286208  *  -2.31681428  *  -4.47322578  *
    21       O         -0.74098541  *  -0.31142762  *  -3.69234984  *
    22       D          1.74230123  *  -1.91645491  *  -2.96236352  *
    23       C          3.50956079  *  -5.43522582  *   0.55260369  *
    24       C          4.50676501  *  -6.33734053  *  -0.03651620  *
    25       C          5.43941322  *  -5.63668998  *  -1.03304216  *
    26       C          4.64836784  *  -4.71942394  *  -1.96088219  *
    27       N          3.94464160  *  -3.66508573  *  -1.13625364  *
    28       C          2.93762456  *  -4.30761456  *  -0.20466578  *
    29       H          3.11780532  *  -5.64370172  *   1.53384011  *
    30       H          5.11222496  *  -6.83819897  *   0.75197763  *
    31       H          3.97447038  *  -7.18084245  *  -0.54580279  *
    32       H          5.99966822  *  -6.38623115  *  -1.62970712  *
    33       H          6.22119866  *  -5.06647985  *  -0.48965933  *
    34       H          5.32060560  *  -4.20937103  *  -2.69137369  *
    35       H          3.89704670  *  -5.29078436  *  -2.55348400  *
    36       H          4.64913577  *  -3.13428643  *  -0.57830771  *
    37       H          2.54182888  *  -3.51499542  *   0.48125493  *
    38       H          2.06391106  *  -4.67696725  *  -0.81051909  *
    39       H          3.45797848  *  -2.97233159  *  -1.77461712  *
    40       H          3.04826711  *  -1.08447468  *  -2.96841064  *
    41       O          2.72041473  *  -1.99679917  *  -2.93921858  *


                                Isotopes Used

              Atom:   22  H  Default mass  1.0079,  mass used:  2.0140 amu


          CARTESIAN COORDINATES 

    NO.       ATOM           X           Y           Z

     1         C          0.8715     -0.1749      0.7751
     2         C          0.8439     -0.9788     -0.3619
     3         C         -0.3383     -1.1381     -1.0972
     4         C         -1.4982     -0.4762     -0.6878
     5         C         -1.4557      0.3195      0.4612
     6         C         -0.2796      0.4800      1.2012
     7         H          1.8025     -0.0583      1.3349
     8         H          1.7549     -1.4830     -0.6849
     9         H         -2.4246     -0.5888     -1.2614
    10         H         -0.2586      1.1073      2.0976
    11         N         -2.6605      0.9796      0.9017
    12         O         -2.6400      1.6370      1.9349
    13         O         -3.6830      0.8657      0.2376
    14         C         -0.3709     -2.0203     -2.2567
    15         C         -0.2336     -3.4869     -2.0361
    16         H          0.4480     -3.9579     -2.7600
    17         H         -1.2029     -4.0019     -2.1409
    18         H          0.1365     -3.7168     -1.0282
    19         N         -0.6314     -1.5490     -3.4762
    20         O         -0.7229     -2.3168     -4.4732
    21         O         -0.7410     -0.3114     -3.6923
    22         H          1.7423     -1.9165     -2.9624
    23         C          3.5096     -5.4352      0.5526
    24         C          4.5068     -6.3373     -0.0365
    25         C          5.4394     -5.6367     -1.0330
    26         C          4.6484     -4.7194     -1.9609
    27         N          3.9446     -3.6651     -1.1363
    28         C          2.9376     -4.3076     -0.2047
    29         H          3.1178     -5.6437      1.5338
    30         H          5.1122     -6.8382      0.7520
    31         H          3.9745     -7.1808     -0.5458
    32         H          5.9997     -6.3862     -1.6297
    33         H          6.2212     -5.0665     -0.4897
    34         H          5.3206     -4.2094     -2.6914
    35         H          3.8970     -5.2908     -2.5535
    36         H          4.6491     -3.1343     -0.5783
    37         H          2.5418     -3.5150      0.4813
    38         H          2.0639     -4.6770     -0.8105
    39         H          3.4580     -2.9723     -1.7746
    40         H          3.0483     -1.0845     -2.9684
    41         O          2.7204     -1.9968     -2.9392

 General Reference for PM7:
 "Optimization of Parameters for Semiempirical Methods VI: More Modifications to the 
 NDDO Approximations and Re-optimization of Parameters", J. J. P. Stewart, J. Mol. Mod., 1:32, 19 (2013)
 https://link.springer.com/article/10.1007/s00894-012-1667-x

           Empirical Formula: C13 H20 N3 O5  =    41 atoms



      MOLECULAR POINT GROUP   :   C1  


 DOUBLET STATE CALCULATION


          UHF CALCULATION, NO. OF ALPHA ELECTRONS =   59
                           NO. OF BETA  ELECTRONS =   58
  SCF CRITERION =    0.1000E-03


          HEAT OF FORMATION =     -81.511203 KCALS/MOLE


          CARTESIAN COORDINATE DERIVATIVES

   NUMBER  ATOM         X            Y            Z

     1       C      0.287863     0.109664     0.025559
     2       C     -0.476358    -0.147212     0.095661
     3       C     -0.115945     0.508726     0.078290
     4       C      0.461577    -0.226855     0.006156
     5       C     -0.194908     0.050897    -0.026659
     6       C      0.014828     0.030309    -0.009385
     7       H     -0.021916    -0.091914     0.023490
     8       H      0.058903    -0.107604     0.108698
     9       H     -0.053723    -0.048388    -0.088656
    10       H      0.006756     0.037238    -0.030819
    11       N     -0.009587     0.097147    -0.134314
    12       O      0.292448     0.032464    -0.115498
    13       O     -0.166105    -0.130603    -0.016606
    14       C      0.103341    -0.969233     1.967567
    15       C      0.079760    -0.134081     0.007386
    16       H      0.063586     0.103756     0.032514
    17       H     -0.102556    -0.044493    -0.016545
    18       H      0.041309    -0.144382     0.018934
    19       N     -0.347230    -0.314614    -0.828615
    20       O      0.038714    -0.104513    -0.608266
    21       O     -0.038469     0.375221     0.808116
    22       H     -0.022185     8.886682    -3.041573
    23       C     -0.053466    -0.006544     0.119585
    24       C      0.025718     0.043484     0.032958
    25       C      0.045720     0.054439     0.066183
    26       C      0.023624     0.067205     0.133728
    27       N      0.210163     0.094547    -0.060250
    28       C      0.084145     0.018711    -0.050770
    29       H      0.047341     0.037260     0.032771
    30       H     -0.003605    -0.010915    -0.012188
    31       H     -0.032223     0.013532     0.064381
    32       H     -0.049899     0.020883     0.045771
    33       H     -0.036803     0.006138     0.068717
    34       H      0.011641     0.009371    -0.015286
    35       H     -0.010041    -0.001383     0.086268
    36       H     -0.073030     0.139498     0.214645
    37       H      0.079892     0.082065     0.027382
    38       H      0.006051    -0.001754     0.010429
    39       H      0.049526    -0.011019    -0.130384
    40       H      0.311638     0.822947     0.023983
    41       O     -0.536256    -9.146527     1.086815

 DIPOLE           X         Y         Z       TOTAL
 POINT-CHG.    -1.178   -30.236   -11.759    32.463
 HYBRID        -0.440     0.732     0.846     1.202
 SUM           -1.618   -29.503   -10.914    31.499


          GRADIENT NORM =  13.51020



 ** GRADIENT IS VERY LARGE, BUT SINCE "LET" IS USED, CALCULATION WILL CONTINUE


                              **** WARNING ****

           GRADIENT IS VERY LARGE FOR A THERMO CALCULATION
           RESULTS ARE LIKELY TO BE INACCURATE IF THERE ARE
           ANY LOW-LYING VIBRATIONS (LESS THAN ABOUT 400CM-1)
           GRADIENT NORM SHOULD BE LESS THAN ABOUT 1.3 FOR THERMO
           TO GIVE ACCURATE RESULTS


          TIME FOR SCF CALCULATION =    0.43

          TIME FOR DERIVATIVES     =    0.05

          MOLECULAR WEIGHT =  299.32



          ROTATIONAL CONSTANTS IN CM(-1)

          A =    0.01490153   B =    0.00450861   C =    0.00380539



           PRINCIPAL MOMENTS OF INERTIA IN UNITS OF 10**(-40)*GRAM-CM**2

          A =     1878.5150   B =     6208.7375   C =     7356.0701


          ORIENTATION OF MOLECULE IN FORCE CALCULATION

    NO.       ATOM         X         Y         Z

     1          C      -2.4518   -0.0362    0.4235
     2          C      -1.0590   -0.0362    0.4235
     3          C      -0.3434    1.1685    0.4235
     4          C      -1.0365    2.3811    0.4315
     5          C      -2.4347    2.3636    0.4218
     6          C      -3.1548    1.1644    0.4187
     7          H      -2.9946   -0.9844    0.4274
     8          H      -0.5224   -0.9851    0.4305
     9          H      -0.4849    3.3275    0.4396
    10          H      -4.2490    1.1638    0.4133
    11          N      -3.1514    3.6154    0.3998
    12          O      -4.3747    3.6044    0.3410
    13          O      -2.5233    4.6659    0.4345
    14          C       1.1131    1.1596    0.3733
    15          C       1.7768    0.6899   -0.8747
    16          H       2.6262    0.0206   -0.6716
    17          H       2.1788    1.5343   -1.4587
    18          H       1.0794    0.1563   -1.5338
    19          N       1.8418    1.6644    1.3689
    20          O       3.1007    1.7164    1.3029
    21          O       1.3061    2.0585    2.4404
    22          H       1.5873   -0.7787    1.3694
    23          C       0.7138   -3.6741   -2.9565
    24          C       1.6957   -4.7571   -3.0924
    25          C       2.0862   -5.3887   -1.7499
    26          C       2.3299   -4.3122   -0.6964
    27          N       1.0621   -3.5112   -0.5015
    28          C       0.6925   -2.7871   -1.7797
    29          H       0.0409   -3.4613   -3.7699
    30          H       1.3291   -5.5484   -3.7841
    31          H       2.6089   -4.3549   -3.6008
    32          H       2.9948   -6.0149   -1.8679
    33          H       1.2980   -6.0946   -1.4153
    34          H       2.6185   -4.7648    0.2821
    35          H       3.1584   -3.6298   -0.9967
    36          H       0.2863   -4.1523   -0.2251
    37          H      -0.3171   -2.3224   -1.6378
    38          H       1.4176   -1.9419   -1.9430
    39          H       1.1931   -2.8134    0.2860
    40          H       1.0860   -1.8687    2.3484
    41          O       1.5953   -1.7467    1.5320


    FIRST DERIVATIVES WILL BE USED IN THE CALCULATION OF SECOND DERIVATIVES

          ESTIMATED TIME TO COMPLETE CALCULATION =      119.16 SECONDS

    FOR POINT-GROUP C1   THERE ARE   1 UNIQUE SYMMETRY FUNCTIONS.

 STEP:   1 TIME =     0.41 SECS, INTEGRAL =      0.41 TIME LEFT:1209599.11
 STEP:   2 TIME =     0.24 SECS, INTEGRAL =      0.65 TIME LEFT:1209598.87
 STEP:   3 TIME =     0.32 SECS, INTEGRAL =      0.97 TIME LEFT:1209598.55
 STEP:   4 TIME =     0.32 SECS, INTEGRAL =      1.29 TIME LEFT:1209598.23
 STEP:   5 TIME =     0.30 SECS, INTEGRAL =      1.59 TIME LEFT:1209597.92
 STEP:   6 TIME =     0.22 SECS, INTEGRAL =      1.81 TIME LEFT:1209597.70
 STEP:   7 TIME =     0.27 SECS, INTEGRAL =      2.09 TIME LEFT:1209597.43
 STEP:   8 TIME =     0.20 SECS, INTEGRAL =      2.28 TIME LEFT:1209597.23
 STEP:   9 TIME =     0.24 SECS, INTEGRAL =      2.52 TIME LEFT:1209596.99
 STEP:  10 TIME =     0.29 SECS, INTEGRAL =      2.81 TIME LEFT:1209596.70
 STEP:  11 TIME =     0.22 SECS, INTEGRAL =      3.03 TIME LEFT:1209596.48
 STEP:  12 TIME =     0.26 SECS, INTEGRAL =      3.29 TIME LEFT:1209596.23
 STEP:  13 TIME =     0.23 SECS, INTEGRAL =      3.52 TIME LEFT:1209595.99
 STEP:  14 TIME =     0.25 SECS, INTEGRAL =      3.77 TIME LEFT:1209595.74
 STEP:  15 TIME =     0.24 SECS, INTEGRAL =      4.02 TIME LEFT:1209595.50
 STEP:  16 TIME =     0.23 SECS, INTEGRAL =      4.24 TIME LEFT:1209595.27
 STEP:  17 TIME =     0.25 SECS, INTEGRAL =      4.49 TIME LEFT:1209595.02
 STEP:  18 TIME =     0.33 SECS, INTEGRAL =      4.82 TIME LEFT:1209594.70
 STEP:  19 TIME =     0.20 SECS, INTEGRAL =      5.02 TIME LEFT:1209594.50
 STEP:  20 TIME =     0.23 SECS, INTEGRAL =      5.24 TIME LEFT:1209594.27
 STEP:  21 TIME =     0.18 SECS, INTEGRAL =      5.42 TIME LEFT:1209594.09
 STEP:  22 TIME =     0.25 SECS, INTEGRAL =      5.67 TIME LEFT:1209593.84
 STEP:  23 TIME =     0.23 SECS, INTEGRAL =      5.90 TIME LEFT:1209593.62
 STEP:  24 TIME =     0.24 SECS, INTEGRAL =      6.14 TIME LEFT:1209593.38
 STEP:  25 TIME =     0.21 SECS, INTEGRAL =      6.35 TIME LEFT:1209593.16
 STEP:  26 TIME =     0.23 SECS, INTEGRAL =      6.59 TIME LEFT:1209592.93
 STEP:  27 TIME =     0.25 SECS, INTEGRAL =      6.84 TIME LEFT:1209592.68
 STEP:  28 TIME =     0.19 SECS, INTEGRAL =      7.02 TIME LEFT:1209592.49
 STEP:  29 TIME =     0.17 SECS, INTEGRAL =      7.20 TIME LEFT:1209592.32
 STEP:  30 TIME =     0.18 SECS, INTEGRAL =      7.38 TIME LEFT:1209592.14
 STEP:  31 TIME =     0.20 SECS, INTEGRAL =      7.57 TIME LEFT:1209591.95
 STEP:  32 TIME =     0.20 SECS, INTEGRAL =      7.77 TIME LEFT:1209591.74
 STEP:  33 TIME =     0.18 SECS, INTEGRAL =      7.95 TIME LEFT:1209591.56
 STEP:  34 TIME =     0.17 SECS, INTEGRAL =      8.12 TIME LEFT:1209591.39
 STEP:  35 TIME =     0.23 SECS, INTEGRAL =      8.35 TIME LEFT:1209591.16
 STEP:  36 TIME =     0.18 SECS, INTEGRAL =      8.53 TIME LEFT:1209590.98
 STEP:  37 TIME =     0.17 SECS, INTEGRAL =      8.70 TIME LEFT:1209590.81
 STEP:  38 TIME =     0.18 SECS, INTEGRAL =      8.88 TIME LEFT:1209590.63
 STEP:  39 TIME =     0.19 SECS, INTEGRAL =      9.07 TIME LEFT:1209590.45
 STEP:  40 TIME =     0.18 SECS, INTEGRAL =      9.25 TIME LEFT:1209590.27
 STEP:  41 TIME =     0.20 SECS, INTEGRAL =      9.45 TIME LEFT:1209590.07
 STEP:  42 TIME =     0.20 SECS, INTEGRAL =      9.64 TIME LEFT:1209589.88
 STEP:  43 TIME =     0.20 SECS, INTEGRAL =      9.84 TIME LEFT:1209589.68
 STEP:  44 TIME =     0.18 SECS, INTEGRAL =     10.02 TIME LEFT:1209589.50
 STEP:  45 TIME =     0.17 SECS, INTEGRAL =     10.19 TIME LEFT:1209589.33
 STEP:  46 TIME =     0.20 SECS, INTEGRAL =     10.39 TIME LEFT:1209589.12
 STEP:  47 TIME =     0.18 SECS, INTEGRAL =     10.57 TIME LEFT:1209588.95
 STEP:  48 TIME =     0.20 SECS, INTEGRAL =     10.77 TIME LEFT:1209588.75
 STEP:  49 TIME =     0.17 SECS, INTEGRAL =     10.94 TIME LEFT:1209588.58
 STEP:  50 TIME =     0.17 SECS, INTEGRAL =     11.11 TIME LEFT:1209588.41
 STEP:  51 TIME =     0.29 SECS, INTEGRAL =     11.40 TIME LEFT:1209588.12
 STEP:  52 TIME =     0.20 SECS, INTEGRAL =     11.59 TIME LEFT:1209587.92
 STEP:  53 TIME =     0.19 SECS, INTEGRAL =     11.78 TIME LEFT:1209587.73
 STEP:  54 TIME =     0.18 SECS, INTEGRAL =     11.96 TIME LEFT:1209587.55
 STEP:  55 TIME =     0.20 SECS, INTEGRAL =     12.16 TIME LEFT:1209587.35
 STEP:  56 TIME =     0.18 SECS, INTEGRAL =     12.34 TIME LEFT:1209587.17
 STEP:  57 TIME =     0.17 SECS, INTEGRAL =     12.52 TIME LEFT:1209587.00
 STEP:  58 TIME =     0.26 SECS, INTEGRAL =     12.77 TIME LEFT:1209586.74
 STEP:  59 TIME =     0.18 SECS, INTEGRAL =     12.95 TIME LEFT:1209586.56
 STEP:  60 TIME =     0.18 SECS, INTEGRAL =     13.13 TIME LEFT:1209586.38
 STEP:  61 TIME =     0.19 SECS, INTEGRAL =     13.32 TIME LEFT:1209586.20
 STEP:  62 TIME =     0.23 SECS, INTEGRAL =     13.55 TIME LEFT:1209585.96
 STEP:  63 TIME =     0.22 SECS, INTEGRAL =     13.77 TIME LEFT:1209585.74
 STEP:  64 TIME =     0.23 SECS, INTEGRAL =     14.01 TIME LEFT:1209585.51
 STEP:  65 TIME =     0.21 SECS, INTEGRAL =     14.22 TIME LEFT:1209585.30
 STEP:  66 TIME =     0.20 SECS, INTEGRAL =     14.41 TIME LEFT:1209585.10
 STEP:  67 TIME =     0.23 SECS, INTEGRAL =     14.65 TIME LEFT:1209584.87
 STEP:  68 TIME =     0.17 SECS, INTEGRAL =     14.82 TIME LEFT:1209584.70
 STEP:  69 TIME =     0.18 SECS, INTEGRAL =     15.00 TIME LEFT:1209584.52
 STEP:  70 TIME =     0.17 SECS, INTEGRAL =     15.17 TIME LEFT:1209584.34
 STEP:  71 TIME =     0.21 SECS, INTEGRAL =     15.38 TIME LEFT:1209584.13
 STEP:  72 TIME =     0.20 SECS, INTEGRAL =     15.58 TIME LEFT:1209583.94
 STEP:  73 TIME =     0.18 SECS, INTEGRAL =     15.76 TIME LEFT:1209583.76
 STEP:  74 TIME =     0.18 SECS, INTEGRAL =     15.94 TIME LEFT:1209583.58
 STEP:  75 TIME =     0.19 SECS, INTEGRAL =     16.12 TIME LEFT:1209583.39
 STEP:  76 TIME =     0.20 SECS, INTEGRAL =     16.32 TIME LEFT:1209583.20
 STEP:  77 TIME =     0.18 SECS, INTEGRAL =     16.50 TIME LEFT:1209583.02
 STEP:  78 TIME =     0.20 SECS, INTEGRAL =     16.70 TIME LEFT:1209582.82
 STEP:  79 TIME =     0.20 SECS, INTEGRAL =     16.89 TIME LEFT:1209582.62
 STEP:  80 TIME =     0.22 SECS, INTEGRAL =     17.11 TIME LEFT:1209582.41
 STEP:  81 TIME =     0.22 SECS, INTEGRAL =     17.33 TIME LEFT:1209582.19
 STEP:  82 TIME =     0.19 SECS, INTEGRAL =     17.52 TIME LEFT:1209582.00
 STEP:  83 TIME =     0.25 SECS, INTEGRAL =     17.77 TIME LEFT:1209581.75
 STEP:  84 TIME =     0.18 SECS, INTEGRAL =     17.95 TIME LEFT:1209581.57
 STEP:  85 TIME =     0.20 SECS, INTEGRAL =     18.14 TIME LEFT:1209581.38
 STEP:  86 TIME =     0.22 SECS, INTEGRAL =     18.36 TIME LEFT:1209581.16
 STEP:  87 TIME =     0.24 SECS, INTEGRAL =     18.60 TIME LEFT:1209580.91
 STEP:  88 TIME =     0.33 SECS, INTEGRAL =     18.93 TIME LEFT:1209580.59
 STEP:  89 TIME =     0.20 SECS, INTEGRAL =     19.12 TIME LEFT:1209580.39
 STEP:  90 TIME =     0.24 SECS, INTEGRAL =     19.37 TIME LEFT:1209580.15
 STEP:  91 TIME =     0.33 SECS, INTEGRAL =     19.70 TIME LEFT:1209579.82
 STEP:  92 TIME =     0.27 SECS, INTEGRAL =     19.97 TIME LEFT:1209579.55
 STEP:  93 TIME =     0.19 SECS, INTEGRAL =     20.16 TIME LEFT:1209579.36
 STEP:  94 TIME =     0.19 SECS, INTEGRAL =     20.34 TIME LEFT:1209579.17
 STEP:  95 TIME =     0.17 SECS, INTEGRAL =     20.52 TIME LEFT:1209579.00
 STEP:  96 TIME =     0.21 SECS, INTEGRAL =     20.73 TIME LEFT:1209578.79
 STEP:  97 TIME =     0.19 SECS, INTEGRAL =     20.91 TIME LEFT:1209578.60
 STEP:  98 TIME =     0.19 SECS, INTEGRAL =     21.10 TIME LEFT:1209578.41
 STEP:  99 TIME =     0.23 SECS, INTEGRAL =     21.33 TIME LEFT:1209578.19
 STEP: 100 TIME =     0.17 SECS, INTEGRAL =     21.50 TIME LEFT:1209578.02
 STEP: 101 TIME =     0.17 SECS, INTEGRAL =     21.67 TIME LEFT:1209577.84
 STEP: 102 TIME =     0.19 SECS, INTEGRAL =     21.86 TIME LEFT:1209577.66
 STEP: 103 TIME =     0.17 SECS, INTEGRAL =     22.03 TIME LEFT:1209577.48
 STEP: 104 TIME =     0.17 SECS, INTEGRAL =     22.20 TIME LEFT:1209577.31
 STEP: 105 TIME =     0.23 SECS, INTEGRAL =     22.43 TIME LEFT:1209577.09
 STEP: 106 TIME =     0.22 SECS, INTEGRAL =     22.65 TIME LEFT:1209576.87
 STEP: 107 TIME =     0.17 SECS, INTEGRAL =     22.82 TIME LEFT:1209576.70
 STEP: 108 TIME =     0.17 SECS, INTEGRAL =     22.99 TIME LEFT:1209576.52
 STEP: 109 TIME =     0.20 SECS, INTEGRAL =     23.20 TIME LEFT:1209576.32
 STEP: 110 TIME =     0.19 SECS, INTEGRAL =     23.38 TIME LEFT:1209576.13
 STEP: 111 TIME =     0.16 SECS, INTEGRAL =     23.55 TIME LEFT:1209575.97
 STEP: 112 TIME =     0.18 SECS, INTEGRAL =     23.73 TIME LEFT:1209575.79
 STEP: 113 TIME =     0.18 SECS, INTEGRAL =     23.91 TIME LEFT:1209575.61
 STEP: 114 TIME =     0.20 SECS, INTEGRAL =     24.10 TIME LEFT:1209575.41
 STEP: 115 TIME =     0.20 SECS, INTEGRAL =     24.30 TIME LEFT:1209575.22
 STEP: 116 TIME =     0.19 SECS, INTEGRAL =     24.48 TIME LEFT:1209575.03
 STEP: 117 TIME =     0.17 SECS, INTEGRAL =     24.66 TIME LEFT:1209574.86
 STEP: 118 TIME =     0.20 SECS, INTEGRAL =     24.85 TIME LEFT:1209574.66
 STEP: 119 TIME =     0.23 SECS, INTEGRAL =     25.08 TIME LEFT:1209574.44
 STEP: 120 TIME =     0.18 SECS, INTEGRAL =     25.26 TIME LEFT:1209574.26
 STEP: 121 TIME =     0.27 SECS, INTEGRAL =     25.53 TIME LEFT:1209573.98
 STEP: 122 TIME =     0.17 SECS, INTEGRAL =     25.70 TIME LEFT:1209573.81
 STEP: 123 TIME =     0.21 SECS, INTEGRAL =     25.91 TIME LEFT:1209573.60

(To convert to Hartree/Bohr^2, multiply by (10^(-21) x N x a0^2)/(4.184 x 627.51) =  0.0642)


           FORCE MATRIX IN MILLIDYNES/ANGSTROM


                  C  1       C  2       C  3       C  4       C  5       C  6
 ------------------------------------------------------------------------------
     C    1  14.681122
     C    2   5.871558  14.841102
     C    3   2.094414   5.691928  15.914630
     C    4   1.402337   1.962092   5.944186  15.125279
     C    5   2.049069   1.161775   1.799256   5.826564  16.091353
     C    6   6.079447   2.016761   1.188903   1.864501   5.679151  15.035850
     H    7   3.373698   0.766383   0.088488   0.012316   0.090086   0.772509
     H    8   0.734620   3.424813   0.739600   0.081621   0.030853   0.093359
     H    9   0.016033   0.085164   0.724140   3.368154   0.730239   0.074335
     H   10   0.715576   0.096999   0.023733   0.075916   0.728154   3.391993
     N   11   0.172191   0.033402   0.179033   1.161827   3.349288   1.150412
     O   12   0.029043   0.013567   0.053657   0.110716   1.447532   0.095132
     O   13   0.055670   0.008021   0.026935   0.093789   1.441800   0.113808
     C   14   0.107667   0.882966   4.211612   0.876089   0.109282   0.010550
     C   15   0.030606   0.034628   0.726720   0.028301   0.020673   0.008500
     H   16   0.008988   0.003889   0.032550   0.003802   0.003517   0.003176
     H   17   0.009267   0.006352   0.020538   0.006824   0.003413   0.002466
     H   18   0.007469   0.013068   0.035584   0.003874   0.004794   0.005478
     N   19   0.093278   0.067252   1.016758   0.062810   0.032727   0.015024
     O   20   0.021458   0.015137   0.104050   0.012347   0.014739   0.007387
     O   21   0.045644   0.016087   0.066559   0.012324   0.011569   0.006889
     H   22   0.023881   0.016858   0.014309   0.005011   0.009196   0.011789
     C   23   0.002486   0.002668   0.003084   0.001681   0.003205   0.002329
     C   24   0.001807   0.000894   0.000704   0.000449   0.000690   0.000560
     C   25   0.000948   0.001112   0.001005   0.000671   0.000707   0.000761
     C   26   0.002397   0.001463   0.001454   0.001419   0.000847   0.001343
     N   27   0.006312   0.009687   0.003114   0.001451   0.003332   0.003635
     C   28   0.003452   0.004037   0.001593   0.001444   0.002325   0.001833
     H   29   0.002724   0.000984   0.001160   0.000506   0.001019   0.000665
     H   30   0.000797   0.000204   0.000345   0.000222   0.000508   0.000363
     H   31   0.000809   0.000256   0.000219   0.000270   0.000451   0.000211
     H   32   0.000741   0.000167   0.000440   0.000384   0.000680   0.000537
     H   33   0.000463   0.000490   0.000334   0.000185   0.000346   0.000307
     H   34   0.000709   0.000910   0.000472   0.000390   0.000411   0.000433
     H   35   0.000655   0.000850   0.000876   0.000491   0.000328   0.000474
     H   36   0.007449   0.012496   0.003643   0.000878   0.004175   0.004397
     H   37   0.002330   0.003661   0.000925   0.000568   0.001799   0.001841
     H   38   0.002819   0.000975   0.001187   0.000387   0.001741   0.001787
     H   39   0.008839   0.003419   0.004199   0.001286   0.003196   0.004460
     H   40   0.010718   0.013074   0.007755   0.001456   0.005374   0.006590
     O   41   0.028299   0.019151   0.018450   0.003688   0.010258   0.015097


                  H  7       H  8       H  9       H 10       N 11       O 12
 ------------------------------------------------------------------------------
     H    7   4.280339
     H    8   0.037035   4.339288
     H    9   0.010798   0.007938   4.240110
     H   10   0.041014   0.010333   0.007798   4.250904
     N   11   0.041339   0.034153   0.104635   0.105387  18.913221
     O   12   0.014254   0.008246   0.026642   0.033331   9.161960  12.029341
     O   13   0.012654   0.008392   0.041971   0.027010   9.161351   2.636591
     C   14   0.014183   0.040914   0.043403   0.013595   0.062349   0.014374
     C   15   0.008367   0.009950   0.011661   0.006260   0.033843   0.012919
     H   16   0.002239   0.003815   0.002385   0.001416   0.006049   0.002850
     H   17   0.001089   0.000864   0.004022   0.001131   0.008230   0.002476
     H   18   0.002956   0.006806   0.002214   0.002213   0.008994   0.003530
     N   19   0.015304   0.013338   0.038636   0.010256   0.066830   0.023678
     O   20   0.006573   0.005655   0.011405   0.005030   0.029532   0.010665
     O   21   0.005226   0.009533   0.017036   0.004396   0.023852   0.007896
     H   22   0.005442   0.039732   0.003598   0.003374   0.016888   0.005920
     C   23   0.001690   0.020528   0.001643   0.001542   0.006173   0.002625
     C   24   0.000830   0.003898   0.000403   0.000484   0.002018   0.000966
     C   25   0.000644   0.011013   0.000571   0.000643   0.002275   0.001178
     C   26   0.001354   0.023479   0.000945   0.000851   0.003523   0.001555
     N   27   0.002801   0.347126   0.001105   0.001614   0.007804   0.002943
     C   28   0.001636   0.041928   0.001137   0.001088   0.003743   0.001480
     H   29   0.001235   0.004617   0.000494   0.000495   0.002964   0.001368
     H   30   0.000282   0.000406   0.000218   0.000310   0.001415   0.000565
     H   31   0.000331   0.000701   0.000272   0.000155   0.001240   0.000439
     H   32   0.000374   0.001753   0.000409   0.000336   0.001709   0.000701
     H   33   0.000607   0.002448   0.000097   0.000296   0.001019   0.000482
     H   34   0.000271   0.003579   0.000302   0.000296   0.001172   0.000468
     H   35   0.000974   0.003842   0.000366   0.000282   0.000870   0.000429
     H   36   0.002805   0.181289   0.001361   0.001307   0.005973   0.001906
     H   37   0.000755   0.008404   0.000453   0.000607   0.001642   0.000548
     H   38   0.000344   0.005492   0.000729   0.000487   0.001352   0.000403
     H   39   0.003598   0.145997   0.000732   0.001557   0.007244   0.002848
     H   40   0.002671   0.060876   0.001012   0.001605   0.007453   0.002452
     O   41   0.007202   0.098985   0.002981   0.003938   0.020039   0.006170


                  O 13       C 14       C 15       H 16       H 17       H 18
 ------------------------------------------------------------------------------
     O   13  11.996907
     C   14   0.046619  15.789244
     C   15   0.012294   3.134310  10.565739
     H   16   0.001719   0.772270   3.275536   4.118293
     H   17   0.003656   0.767869   3.170564   0.449393   4.036871
     H   18   0.002843   0.734449   3.345294   0.429159   0.454496   4.185521
     N   19   0.023083   7.014303   0.850744   0.090995   0.087221   0.091629
     O   20   0.010042   1.885375   0.107389   0.022300   0.027301   0.015145
     O   21   0.007454   1.864890   0.102413   0.027063   0.024286   0.016503
     H   22   0.004847   0.134255   0.035015   0.032542   0.011649   0.016929
     C   23   0.003146   0.003824   0.015171   0.005142   0.005608   0.006002
     C   24   0.000904   0.000700   0.003692   0.001552   0.001184   0.002282
     C   25   0.000850   0.001040   0.002495   0.001454   0.001110   0.001574
     C   26   0.001711   0.001451   0.005911   0.003348   0.001093   0.003079
     N   27   0.002604   0.003813   0.015297   0.005157   0.002487   0.005715
     C   28   0.001518   0.002456   0.010635   0.004343   0.004697   0.015006
     H   29   0.001440   0.001140   0.004566   0.001572   0.001536   0.002341
     H   30   0.000584   0.000279   0.000877   0.000422   0.000244   0.000416
     H   31   0.000535   0.000288   0.000863   0.000381   0.000386   0.000410
     H   32   0.000717   0.000368   0.001121   0.000597   0.000447   0.000488
     H   33   0.000348   0.000381   0.000810   0.000369   0.000359   0.000459
     H   34   0.000590   0.001151   0.004318   0.002197   0.001331   0.001189
     H   35   0.000523   0.001494   0.004416   0.002256   0.001006   0.001555
     H   36   0.001715   0.003169   0.008355   0.003275   0.002522   0.004090
     H   37   0.000736   0.001683   0.006775   0.002866   0.001641   0.006572
     H   38   0.000670   0.001842   0.014776   0.008232   0.002941   0.017280
     H   39   0.002414   0.006362   0.021757   0.009523   0.003205   0.009039
     H   40   0.002059   0.010651   0.022236   0.009858   0.002653   0.007581
     O   41   0.005458   0.064142   0.071426   0.025858   0.010533   0.019534


                  N 19       O 20       O 21       H 22       C 23       C 24
 ------------------------------------------------------------------------------
     N   19  18.537007
     O   20   7.247326  10.085684
     O   21   7.287367   2.178481  10.103155
     H   22   0.167962   0.036087   0.024847   4.398231
     C   23   0.011708   0.005282   0.005405   0.006938  12.410572
     C   24   0.003958   0.002074   0.001489   0.001807   4.442965  12.126503
     C   25   0.003766   0.001978   0.001516   0.001460   0.780939   2.827497
     C   26   0.002994   0.001934   0.001090   0.015057   0.065136   0.692815
     N   27   0.009073   0.003857   0.004505   0.030456   0.925115   0.048622
     C   28   0.006616   0.003239   0.002623   0.005794   3.915045   0.670308
     H   29   0.004777   0.002375   0.002051   0.001829   3.511971   0.733422
     H   30   0.001034   0.000580   0.000536   0.000432   0.724031   3.199067
     H   31   0.001152   0.000635   0.000474   0.000425   0.843796   3.084922
     H   32   0.001866   0.000938   0.000871   0.000654   0.050592   0.672060
     H   33   0.001478   0.000775   0.000846   0.000553   0.056306   0.707962
     H   34   0.004217   0.002039   0.001137   0.013636   0.014453   0.044776
     H   35   0.004866   0.002336   0.001744   0.013821   0.012240   0.015113
     H   36   0.009400   0.003140   0.003894   0.019485   0.042011   0.029585
     H   37   0.004924   0.001997   0.002034   0.003749   0.716219   0.050058
     H   38   0.005424   0.001933   0.002193   0.003318   0.834055   0.022660
     H   39   0.018043   0.005729   0.007434   0.089948   0.073441   0.012837
     H   40   0.063258   0.017695   0.034641   0.762627   0.024698   0.005020
     O   41   0.084104   0.029745   0.033850   3.778932   0.030608   0.009124


                  C 25       C 26       N 27       C 28       H 29       H 30
 ------------------------------------------------------------------------------
     C   25  11.748172
     C   26   2.958497  11.906237
     N   27   0.862385   3.164494  13.345913
     C   28   0.055406   0.699828   2.702853  11.478059
     H   29   0.042899   0.014200   0.091209   0.700015   4.374383
     H   30   0.677903   0.049485   0.008206   0.041374   0.029292   4.180868
     H   31   0.712491   0.010998   0.003325   0.020853   0.016118   0.480098
     H   32   3.251343   0.677741   0.063805   0.007647   0.007881   0.014534
     H   33   3.260111   0.701801   0.021419   0.042713   0.038652   0.018690
     H   34   0.655431   3.198919   0.780478   0.072721   0.006258   0.007124
     H   35   0.661379   3.212312   0.769258   0.039742   0.006364   0.002039
     H   36   0.028165   0.750706   3.547221   0.753587   0.026779   0.001478
     H   37   0.034805   0.065978   0.743579   3.159621   0.034352   0.008455
     H   38   0.006801   0.028469   0.805931   2.981368   0.028232   0.003317
     H   39   0.074660   0.693989   3.107319   0.661586   0.016490   0.001957
     H   40   0.012873   0.035759   0.337887   0.048045   0.005400   0.000739
     O   41   0.016798   0.033087   0.323520   0.043474   0.009118   0.001867


                  H 31       H 32       H 33       H 34       H 35       H 36
 ------------------------------------------------------------------------------
     H   31   4.076531
     H   32   0.019043   4.190382
     H   33   0.044599   0.454593   4.196015
     H   34   0.002405   0.018490   0.018670   4.123482
     H   35   0.006645   0.016052   0.043896   0.432926   4.151038
     H   36   0.001521   0.003659   0.016667   0.043587   0.070581   4.339217
     H   37   0.003367   0.002667   0.029060   0.014019   0.004489   0.035413
     H   38   0.003848   0.000989   0.001347   0.004748   0.008878   0.077028
     H   39   0.002499   0.011866   0.009025   0.051088   0.049126   0.631603
     H   40   0.001001   0.001763   0.002987   0.019849   0.020069   0.187219
     O   41   0.002202   0.001959   0.004031   0.019592   0.020474   0.101729


                  H 37       H 38       H 39       H 40       O 41
 ------------------------------------------------------------------
     H   37   4.097560
     H   38   0.449836   3.994721
     H   39   0.034158   0.034462   3.815516
     H   40   0.006752   0.005939   0.206793   4.095124
     O   41   0.010015   0.009181   0.134409   3.686385   6.161943


          HEAT OF FORMATION =     -81.511203 KCALS/MOLE


          TRIVIAL VIBRATIONS, SHOULD BE ZERO

 -14.0242=TX  35.9752=TY  -2.0177=TZ   2.8191=RX  24.0935=RY -46.8518=RZ


      MOLECULAR POINT GROUP   :   C1  


           EIGENVECTORS  


   Root No.       1         2         3         4         5         6         7         8

                 1 A       2 A       3 A       4 A       5 A       6 A       7 A       8 A   

                  -0.1      -0.1      -0.0      -0.0      -0.0      -0.0      -0.0      -0.0
  
           1    0.0122   -0.0336   -0.0303   -0.0275   -0.0014    0.0130   -0.0363    0.0240
           2    0.0147   -0.0377    0.0109   -0.0011   -0.0161   -0.0344    0.0268   -0.0594
           3    0.0163   -0.0478   -0.1519    0.2620    0.0219   -0.0489    0.0947   -0.0826
           4    0.0126   -0.0329   -0.0300   -0.0260   -0.0012    0.0133   -0.0361    0.0240
           5    0.0386   -0.0671   -0.0037   -0.0233   -0.0059   -0.0305    0.0073   -0.0455
           6   -0.0027    0.0188   -0.1514    0.3111    0.0093   -0.0212    0.0566   -0.1138
           7   -0.0102   -0.0062   -0.0196   -0.0120   -0.0112    0.0083   -0.0183    0.0138
           8    0.0531   -0.0849   -0.0112   -0.0335    0.0000   -0.0286   -0.0027   -0.0396
           9   -0.0177    0.0904   -0.0573    0.0581   -0.0066   -0.0285    0.0467   -0.0950
          10   -0.0275    0.0135   -0.0051    0.0062   -0.0186    0.0066   -0.0008    0.0032
          11    0.0390   -0.0669   -0.0026   -0.0223   -0.0046   -0.0296    0.0070   -0.0457
          12   -0.0209    0.1098   -0.0007   -0.1588   -0.0105   -0.0626    0.0949   -0.0755
          13   -0.0281    0.0153   -0.0038    0.0058   -0.0187    0.0066   -0.0013    0.0031
          14    0.0146   -0.0367    0.0130   -0.0035   -0.0154   -0.0341    0.0270   -0.0597
          15   -0.0108    0.0498    0.0253   -0.1536   -0.0009   -0.0759    0.1199   -0.0542
          16   -0.0082   -0.0083   -0.0160   -0.0115   -0.0097    0.0101   -0.0187    0.0135
          17    0.0031   -0.0237    0.0190    0.0067   -0.0208   -0.0357    0.0364   -0.0650
          18    0.0069   -0.0234   -0.0382    0.0112    0.0126   -0.0636    0.1043   -0.0425
          19    0.0276   -0.0524   -0.0400   -0.0374    0.0057    0.0144   -0.0487    0.0323
          20    0.0054   -0.0260    0.0159    0.0059   -0.0199   -0.0349    0.0344   -0.0644
          21    0.0296   -0.1018   -0.1887    0.3607    0.0319   -0.0410    0.0838   -0.0705
          22    0.0238   -0.0463   -0.0346   -0.0430    0.0094    0.0248   -0.0482    0.0316
          23    0.0464   -0.0738   -0.0065   -0.0321    0.0003   -0.0233    0.0001   -0.0414
          24   -0.0043    0.0081   -0.1742    0.4403    0.0101    0.0172    0.0121   -0.1150
          25   -0.0408    0.0302    0.0078    0.0179   -0.0246    0.0032    0.0133   -0.0062
          26    0.0460   -0.0758   -0.0097   -0.0279   -0.0009   -0.0281   -0.0012   -0.0408
          27   -0.0258    0.1425    0.0365   -0.2759   -0.0192   -0.0621    0.0871   -0.0657
          28   -0.0082   -0.0081   -0.0164   -0.0113   -0.0097    0.0100   -0.0186    0.0134
          29   -0.0168    0.0027    0.0317    0.0250   -0.0286   -0.0375    0.0531   -0.0752
          30    0.0122   -0.0592   -0.0070   -0.0455    0.0142   -0.0584    0.0880   -0.0009
          31   -0.0456    0.0370    0.0159    0.0276   -0.0269    0.0047    0.0128   -0.0076
          32    0.0033   -0.0232    0.0259    0.0086   -0.0203   -0.0341    0.0336   -0.0642
          33   -0.0160    0.0258    0.1403   -0.1800   -0.0049   -0.0524    0.0797   -0.0197
          34   -0.0434    0.0424   -0.0155    0.0131   -0.0271    0.0028    0.0152   -0.0076
          35   -0.0123   -0.0024    0.0396    0.0252   -0.0274   -0.0333    0.0437   -0.0709
          36   -0.0585   -0.0958    0.8079    0.1245    0.0015   -0.0116    0.0230   -0.0157
          37   -0.0618    0.0496    0.0637    0.0578   -0.0336    0.0050    0.0216   -0.0159
          38    0.0121   -0.0339    0.0151   -0.0009   -0.0158   -0.0337    0.0280   -0.0599
          39    0.0171    0.1115   -0.3862   -0.4314   -0.0150   -0.0620    0.0867    0.0028
          40   -0.0084   -0.0108   -0.0216   -0.0110   -0.0134    0.0108   -0.0239    0.0143
          41    0.0657   -0.0944   -0.0144   -0.0418    0.0031   -0.0332   -0.0286   -0.0286
          42   -0.0082    0.0995   -0.0199    0.0527   -0.0220    0.0155   -0.0646   -0.0962
          43   -0.0035   -0.0035    0.0133   -0.0143   -0.0171    0.0429   -0.1327    0.0170
          44    0.1128   -0.1519   -0.0154   -0.0397   -0.0136   -0.0300   -0.0184   -0.0060
          45   -0.0215    0.1196   -0.0015    0.0520   -0.0214    0.0333   -0.1289   -0.1020
          46    0.0230    0.0188    0.0132   -0.0027   -0.3577    0.1226   -0.0970    0.0287
          47    0.1356   -0.1135   -0.0079   -0.0266   -0.4461    0.0800    0.0029    0.0063
          48   -0.0556    0.1414    0.0232    0.0455    0.0056    0.0548   -0.2119   -0.1108
          49   -0.0417   -0.0217    0.0228   -0.0257    0.5031   -0.0813   -0.2131   -0.0033
          50    0.1343   -0.1641   -0.0142   -0.0358   -0.0834   -0.0143   -0.0067    0.0068
          51   -0.0148    0.0822    0.0065    0.0470    0.2415   -0.0293   -0.1675   -0.0970
          52    0.0036    0.0083    0.0338   -0.0130   -0.1343    0.0892   -0.1848    0.0220
          53    0.1016   -0.1867   -0.0218   -0.0465    0.4294   -0.1527   -0.0348   -0.0133
          54   -0.0239    0.1375   -0.0174    0.0561   -0.2478    0.0807   -0.0601   -0.1018
          55   -0.0155   -0.0139   -0.0473   -0.0142    0.0010   -0.0307    0.0913    0.0093
          56   -0.1803    0.2833    0.0121    0.0119    0.0076   -0.0203   -0.0587   -0.0428
          57    0.1205   -0.0861   -0.0125    0.0294   -0.0353    0.0385   -0.1344   -0.0856
          58   -0.0141   -0.0168   -0.0460   -0.0151    0.0011   -0.0279    0.0834    0.0089
          59   -0.1810    0.2756    0.0170    0.0180    0.0019   -0.0063   -0.0692   -0.0296
          60    0.1409   -0.1076    0.0069    0.0256   -0.0490    0.0670   -0.2212   -0.0818
          61   -0.0300   -0.0034   -0.0661   -0.0165    0.0150   -0.0597    0.1749    0.0054
          62   -0.2963    0.4583    0.0201    0.0298    0.0138   -0.0235   -0.0620   -0.0616
          63    0.1552   -0.1440   -0.0258    0.0210   -0.0310    0.0236   -0.0858   -0.0797
          64    0.4031    0.2803    0.0370    0.0263    0.0701    0.0880   -0.1039   -0.0040
          65   -0.1001   -0.0515   -0.0028   -0.0554    0.0175    0.0096   -0.0124    0.0150
          66   -0.4207   -0.2323   -0.0517   -0.0498    0.0313    0.2288    0.0318    0.0635
          67    0.0069    0.0099    0.0289    0.0206    0.0094   -0.0395    0.1569   -0.0528
          68   -0.0127    0.0288   -0.0142    0.0493    0.0099    0.0171    0.0094    0.1519
          69    0.0003   -0.0215    0.0008   -0.0272   -0.0133   -0.0472   -0.0808    0.1335
          70    0.0074    0.0141    0.0282    0.0380    0.0115   -0.0280    0.1771   -0.0212
          71   -0.0157    0.0317   -0.0173    0.0678    0.0095    0.0221    0.0157    0.1962
          72    0.0201   -0.0170    0.0220   -0.0564    0.0060    0.0042    0.0188    0.0021
          73    0.0008   -0.0180    0.0124    0.0044   -0.0013   -0.0361    0.0091   -0.0665
          74   -0.0153    0.0053   -0.0099    0.0152    0.0178    0.0667   -0.0065    0.0300
          75    0.0230   -0.0194    0.0300   -0.0708    0.0140    0.0283    0.0576   -0.0608
          76   -0.0446   -0.0503   -0.0038   -0.0061   -0.0241   -0.0867   -0.0812   -0.0369
          77   -0.0167   -0.0156   -0.0046   -0.0230    0.0226    0.0947   -0.0195   -0.0919
          78    0.0367    0.0106    0.0287   -0.0296    0.0151    0.0127    0.0924    0.0610
          79   -0.0677   -0.0584   -0.0078   -0.0051   -0.0313   -0.1074   -0.0821    0.0106
          80   -0.0543   -0.0248   -0.0079   -0.0160    0.0139    0.0658    0.0112   -0.0355
          81   -0.0019   -0.0150    0.0044   -0.0204   -0.0093   -0.0386   -0.0408    0.1199
          82   -0.0137   -0.0031    0.0145    0.0234   -0.0098   -0.0871    0.0730    0.0507
          83   -0.0212    0.0123   -0.0105    0.0258    0.0126    0.0328    0.0154    0.0907
          84    0.0098   -0.0090   -0.0011   -0.0129   -0.0144   -0.0574   -0.0877    0.1776
          85    0.0306    0.0093    0.0474   -0.0181    0.0179   -0.0173    0.1970   -0.1611
          86   -0.0025    0.0278   -0.0078    0.0280    0.0053   -0.0010   -0.0099    0.1426
          87   -0.0152   -0.0205   -0.0125   -0.0008   -0.0212   -0.0700   -0.1177    0.2221
          88    0.0128    0.0285    0.0348    0.0609    0.0189   -0.0115    0.2572    0.0172
          89   -0.0177    0.0438   -0.0204    0.0918    0.0047   -0.0025    0.0287    0.2747
          90    0.0194   -0.0392    0.0222   -0.0967    0.0073    0.0229   -0.0392   -0.1096
          91    0.0116    0.0256    0.0347    0.0462    0.0163   -0.0259    0.2363   -0.0123
          92   -0.0180    0.0396   -0.0219    0.0970    0.0063    0.0154    0.0252    0.2780
          93    0.0257    0.0112    0.0299   -0.0159    0.0123    0.0024    0.1364    0.0877
          94    0.0152   -0.0143    0.0148   -0.0007    0.0042   -0.0182    0.0047   -0.0947
          95    0.0049    0.0095   -0.0088    0.0082    0.0236    0.0877   -0.0304    0.0003
          96    0.0327   -0.0078    0.0438   -0.0699    0.0276    0.0573    0.1565   -0.1078
          97    0.0102   -0.0272    0.0091   -0.0141   -0.0015   -0.0241   -0.0526   -0.1132
          98   -0.0341   -0.0015   -0.0096    0.0157    0.0136    0.0523    0.0164    0.0390
          99    0.0061   -0.0548    0.0230   -0.1122    0.0049    0.0268   -0.0405   -0.1507
         100   -0.0561   -0.0772   -0.0157   -0.0289   -0.0341   -0.0921   -0.1955   -0.0828
         101   -0.0140   -0.0331    0.0009   -0.0584    0.0285    0.1270   -0.0305   -0.2093
         102    0.0406    0.0099    0.0345   -0.0395    0.0209    0.0301    0.1205    0.0200
         103   -0.0492   -0.0416   -0.0005    0.0033   -0.0219   -0.0894   -0.0317    0.0082
         104    0.0008   -0.0083   -0.0046   -0.0186    0.0264    0.1077   -0.0363   -0.1057
         105    0.0615    0.0496    0.0368    0.0076    0.0277    0.0262    0.1868    0.1528
         106   -0.0820   -0.0716   -0.0153   -0.0032   -0.0371   -0.1112   -0.1237   -0.0328
         107   -0.0848   -0.0386   -0.0099   -0.0190    0.0071    0.0505    0.0294   -0.0114
         108   -0.0646   -0.0724   -0.0086   -0.0578   -0.0230   -0.0379   -0.1193    0.0716
         109   -0.0107    0.0029    0.0133    0.0310   -0.0123   -0.0979    0.0728    0.0940
         110   -0.0080    0.0314   -0.0076    0.0414    0.0122    0.0193    0.0479    0.1679
         111   -0.0140   -0.0293   -0.0183   -0.0118   -0.0316   -0.0922   -0.1901    0.2298
         112   -0.0013    0.0198    0.0173    0.0440   -0.0124   -0.1007    0.1103    0.1332
         113   -0.0274   -0.0024   -0.0115    0.0120    0.0154    0.0468   -0.0054    0.0204
         114    0.0414    0.0264    0.0070    0.0183   -0.0027   -0.0510   -0.0108    0.2050
         115   -0.1700   -0.1056   -0.0343    0.0156   -0.0669   -0.1817   -0.1436    0.0312
         116   -0.0979   -0.0572   -0.0105   -0.0346    0.0079    0.0700    0.0096   -0.1037
         117    0.0620    0.0249    0.0140   -0.0146    0.0036   -0.0239   -0.0298    0.1802
         118    0.1138    0.0288   -0.0128   -0.0239    0.1901    0.6459    0.0505    0.0681
         119    0.4408    0.2732    0.0618    0.0283   -0.0058   -0.2441   -0.0581    0.0292
         120   -0.0104   -0.0249   -0.0140    0.0219    0.0610    0.2399    0.0582    0.1111
         121    0.1670    0.0909    0.0197   -0.0606    0.0842    0.2321   -0.0644    0.0410
         122   -0.0456   -0.0277    0.0043   -0.0516    0.0134   -0.0199   -0.0178    0.0222
         123   -0.0707   -0.0404   -0.0050   -0.0136   -0.0012    0.0252   -0.0056    0.0944


   Root No.       9        10        11        12        13        14        15        16

                 9 A      10 A      11 A      12 A      13 A      14 A      15 A      16 A   

                  -0.0       0.0       0.0       0.0       0.0       0.0       0.0       0.1
  
           1   -0.1139   -0.1246   -0.1037    0.0210    0.0291   -0.0469    0.0395   -0.0023
           2    0.0757    0.0539    0.0440    0.0993    0.0196   -0.0591    0.0223    0.0167
           3   -0.0642   -0.0529    0.1305    0.0016    0.0141   -0.0038   -0.0040   -0.1004
           4   -0.1115   -0.1223   -0.0991    0.0192    0.0280   -0.0411    0.0368   -0.0031
           5   -0.0063    0.0130   -0.0170    0.1344    0.0353   -0.1209    0.0585    0.0193
           6   -0.0028    0.0381   -0.1460   -0.0036   -0.0002    0.0564   -0.0132    0.1063
           7   -0.0429   -0.0912   -0.0574   -0.0136    0.0167    0.0016    0.0131   -0.0013
           8   -0.0487   -0.0071   -0.0474    0.1554    0.0429   -0.1523    0.0758    0.0192
           9    0.0291    0.0698   -0.1870    0.0035   -0.0091    0.0162   -0.0461   -0.0676
          10    0.0251   -0.0563   -0.0097   -0.0453    0.0027    0.0428   -0.0146   -0.0045
          11   -0.0066    0.0148   -0.0157    0.1360    0.0345   -0.1238    0.0583    0.0173
          12    0.0358    0.0645   -0.1533    0.0082   -0.0100   -0.0014   -0.0671   -0.2023
          13    0.0271   -0.0545   -0.0075   -0.0464    0.0017    0.0474   -0.0176   -0.0068
          14    0.0756    0.0554    0.0446    0.1006    0.0189   -0.0623    0.0221    0.0152
          15   -0.0040    0.0044    0.0383    0.0172    0.0007   -0.0052   -0.0272   -0.0885
          16   -0.0424   -0.0880   -0.0545   -0.0127    0.0148   -0.0009    0.0108   -0.0046
          17    0.1144    0.0726    0.0695    0.0800    0.0114   -0.0334    0.0056    0.0151
          18   -0.0492   -0.0551    0.2189    0.0131    0.0106   -0.0338   -0.0087   -0.1689
          19   -0.1676   -0.1505   -0.1425    0.0454    0.0405   -0.0856    0.0642   -0.0007
          20    0.1063    0.0689    0.0660    0.0851    0.0131   -0.0369    0.0084    0.0157
          21   -0.1012   -0.1020    0.2548   -0.0031    0.0229   -0.0166    0.0104   -0.1423
          22   -0.1667   -0.1405   -0.1340    0.0424    0.0317   -0.0903    0.0521   -0.0091
          23   -0.0387    0.0016   -0.0374    0.1462    0.0373   -0.1492    0.0671    0.0170
          24    0.0150    0.0665   -0.2455   -0.0045   -0.0023    0.1157    0.0094    0.3491
          25    0.0809   -0.0272    0.0340   -0.0706   -0.0093    0.0849   -0.0417   -0.0102
          26   -0.0393   -0.0023   -0.0402    0.1512    0.0415   -0.1477    0.0741    0.0210
          27    0.0572    0.0904   -0.2281    0.0057   -0.0172   -0.0035   -0.0992   -0.3314
          28   -0.0424   -0.0876   -0.0557   -0.0127    0.0148   -0.0004    0.0107   -0.0039
          29    0.1849    0.1106    0.1186    0.0446   -0.0040    0.0187   -0.0269    0.0104
          30   -0.0733   -0.1053    0.4065    0.0180    0.0158   -0.0702    0.0067   -0.2429
          31    0.0954   -0.0202    0.0405   -0.0865   -0.0163    0.1226   -0.0643   -0.0170
          32    0.1140    0.0735    0.0718    0.0760    0.0084   -0.0180   -0.0039    0.0152
          33   -0.0153   -0.0223    0.0557    0.0208    0.0052    0.0333    0.0234    0.2353
          34    0.0966   -0.0197    0.0456   -0.0863   -0.0167    0.1236   -0.0656   -0.0177
          35    0.1737    0.1022    0.1155    0.0357   -0.0093    0.0588   -0.0487    0.0170
          36   -0.0582   -0.0439   -0.0613    0.0147    0.0146    0.0199    0.0443    0.2490
          37    0.1506    0.0064    0.0759   -0.1237   -0.0323    0.1924   -0.1080   -0.0296
          38    0.0796    0.0579    0.0463    0.0980    0.0180   -0.0612    0.0207    0.0112
          39    0.0110   -0.0355    0.1715    0.0236    0.0019    0.0934    0.0555    0.5630
          40   -0.0453   -0.0937   -0.0508   -0.0125    0.0170    0.0044    0.0130    0.0035
          41   -0.1044   -0.0368   -0.0621    0.1634    0.0436   -0.0673    0.0418    0.0077
          42    0.0043    0.0472   -0.1036    0.0191   -0.0142   -0.0001   -0.0457   -0.0496
          43   -0.0888   -0.1375    0.0875   -0.0011    0.0122    0.0395   -0.0003    0.0216
          44   -0.0893   -0.0191   -0.0742    0.1059    0.0157    0.2057   -0.1019   -0.0413
          45   -0.0263    0.0141   -0.0151    0.0453   -0.0065   -0.0816    0.0012   -0.0184
          46   -0.0923   -0.1327    0.0928   -0.0181    0.0074    0.0933   -0.0231    0.0077
          47   -0.1056   -0.0247   -0.0355    0.0971    0.0138    0.2372   -0.1106   -0.0476
          48   -0.0675   -0.0285    0.1021    0.0924    0.0107   -0.2245    0.0833    0.0270
          49   -0.0906   -0.1559    0.1239    0.0200    0.0160   -0.0224    0.0281    0.0510
          50   -0.0806   -0.0092   -0.0819    0.0698   -0.0011    0.3781   -0.1937   -0.0766
          51   -0.0159    0.0163   -0.0026    0.0110   -0.0270    0.1134   -0.1059   -0.0483
          52   -0.1157   -0.1629    0.1771    0.0019    0.0088    0.0826   -0.0175    0.0281
          53   -0.0611   -0.0038   -0.1233    0.0802    0.0021    0.3020   -0.1616   -0.0596
          54   -0.0200    0.0289   -0.0693    0.0628    0.0084   -0.2002    0.0646   -0.0118
          55    0.0070   -0.0443   -0.1921   -0.0238    0.0234   -0.0634    0.0448   -0.0212
          56   -0.1071   -0.0432   -0.0085    0.1468    0.0479    0.0930   -0.0179   -0.0182
          57   -0.0306    0.0151   -0.0201    0.0323   -0.0230   -0.0265   -0.0417   -0.0186
          58    0.0016   -0.0476   -0.1849   -0.0194    0.0232   -0.0648    0.0441   -0.0202
          59   -0.0948   -0.0477    0.0333    0.1092    0.0410    0.1464   -0.0363   -0.0118
          60   -0.0748   -0.0250    0.0921    0.0531   -0.0252    0.0065   -0.0572    0.0058
          61    0.0417   -0.0096   -0.3054   -0.0304    0.0284   -0.1154    0.0678   -0.0449
          62   -0.1192   -0.0422   -0.0234    0.1857    0.0633    0.1311   -0.0340   -0.0412
          63   -0.0066    0.0331   -0.0770    0.0143   -0.0247   -0.0674   -0.0219   -0.0223
          64    0.0096    0.1553    0.0237   -0.0982   -0.2342   -0.1444   -0.1284   -0.0491
          65   -0.0744    0.0000    0.0022    0.0440   -0.0423   -0.0336   -0.0202    0.0203
          66   -0.0239    0.0560   -0.0092    0.0055   -0.0195   -0.0635   -0.0502   -0.0455
          67   -0.0750    0.0845    0.0544    0.0018    0.0075    0.0619    0.1679   -0.0352
          68   -0.0549    0.0566    0.0073   -0.1109    0.0395    0.0230    0.1464   -0.0597
          69    0.0677    0.0117   -0.0160   -0.0082    0.0131   -0.0103   -0.0388    0.0031
          70    0.0554   -0.0601    0.0411    0.0743   -0.0868   -0.0026    0.0265    0.0105
          71    0.0716   -0.0722   -0.0060   -0.0382   -0.0460   -0.0369    0.0167   -0.0193
          72   -0.0050   -0.0106   -0.0064   -0.0573   -0.0121    0.0127   -0.0039    0.0037
          73    0.1635   -0.0360    0.0259    0.0156    0.1328   -0.0271   -0.0397    0.0060
          74    0.0701   -0.0702   -0.0070   -0.1306    0.0317   -0.0410   -0.0088   -0.0072
          75   -0.0382   -0.0154   -0.0019   -0.0859   -0.0355    0.0153   -0.0007    0.0118
          76    0.0922    0.0941    0.0246   -0.0062   -0.0222    0.0023    0.0521    0.0006
          77    0.0656   -0.0714   -0.0093   -0.1924    0.0019   -0.0290    0.0202   -0.0009
          78   -0.0168   -0.0437    0.0014   -0.0164    0.0329   -0.0060   -0.0532    0.0081
          79    0.0155    0.1585    0.0284    0.0134   -0.0876   -0.0100    0.0122    0.0170
          80   -0.0723    0.0209   -0.0011   -0.1705   -0.0995   -0.0543   -0.0676    0.0324
          81    0.0513   -0.0004   -0.0129    0.0043   -0.0120    0.0198    0.0246   -0.0136
          82   -0.1166    0.1977    0.0576   -0.0267    0.0860   -0.0282   -0.0333    0.0285
          83   -0.0809    0.0596    0.0071   -0.1555    0.0292   -0.0339    0.0009   -0.0046
          84    0.0876    0.0118   -0.0162    0.0238    0.0176    0.0402    0.0897   -0.0425
          85   -0.1033    0.0766    0.0553   -0.0183   -0.0054    0.1514    0.3410   -0.0787
          86   -0.0892    0.1217    0.0116   -0.1296    0.0701    0.1121    0.3425   -0.1174
          87    0.0824    0.0344   -0.0155    0.0046    0.0301   -0.0614   -0.1308    0.0244
          88    0.1371   -0.2080    0.0329    0.1627   -0.2627   -0.0554   -0.0908    0.0600
          89    0.0505   -0.0538   -0.0034    0.0037   -0.0947   -0.0249    0.0523   -0.0293
          90   -0.0256    0.0478   -0.0050   -0.1527    0.1336    0.0258    0.0146   -0.0095
          91   -0.0061   -0.0471    0.0485    0.0826   -0.1537    0.0189    0.0774    0.0036
          92    0.2048   -0.2084   -0.0201    0.0621   -0.1599   -0.1065   -0.1345    0.0285
          93   -0.0116   -0.0955   -0.0038    0.0382   -0.2252   -0.0052   -0.0331    0.0294
          94    0.2147   -0.0833    0.0218    0.0109    0.2631   -0.0495   -0.1142    0.0115
          95    0.1545   -0.1330   -0.0141   -0.1373    0.2318   -0.0738   -0.1139   -0.0022
          96   -0.0830   -0.0529    0.0059   -0.0893   -0.1230    0.0233    0.0195    0.0203
          97    0.2341   -0.0628    0.0167   -0.0059    0.3139   -0.0541   -0.1314    0.0118
          98   -0.0075   -0.0135    0.0000   -0.1404   -0.1611   -0.0083    0.0986   -0.0117
          99   -0.0308    0.0393   -0.0085   -0.1594   -0.0105    0.0216    0.0152    0.0132
         100    0.1740    0.1085    0.0125   -0.0372   -0.0512    0.0462    0.1874   -0.0264
         101    0.0680   -0.0762   -0.0115   -0.2530   -0.0303   -0.0082    0.0742   -0.0016
         102   -0.0397   -0.0504    0.0037   -0.0343    0.0277   -0.0107   -0.0725    0.0159
         103    0.0125    0.1256    0.0322    0.0170   -0.0487   -0.0229   -0.0250    0.0209
         104    0.1584   -0.1332   -0.0148   -0.1903    0.0788   -0.0171    0.0593   -0.0218
         105   -0.0248   -0.0957    0.0100    0.0495    0.1324   -0.0492   -0.1781    0.0171
         106    0.0928    0.1152    0.0168    0.0049   -0.1086    0.0056    0.0459    0.0055
         107   -0.1570    0.0736    0.0029   -0.1503   -0.1717   -0.0716   -0.1405    0.0620
         108    0.0765    0.0033   -0.0289    0.0453   -0.2069    0.0224   -0.0026    0.0104
         109   -0.1496    0.2405    0.0636   -0.0443    0.1518   -0.0669   -0.1214    0.0579
         110   -0.1733    0.1477    0.0244   -0.2019    0.1777   -0.1125   -0.1801    0.0563
         111    0.1411    0.0355   -0.0284    0.0493   -0.0152    0.0283    0.0726   -0.0408
         112   -0.1954    0.2698    0.0742   -0.0635    0.2225   -0.0953   -0.1776    0.0751
         113   -0.0142   -0.0077   -0.0058   -0.1190   -0.0794    0.0343    0.1483   -0.0536
         114    0.0657   -0.0081   -0.0067    0.0477    0.0818    0.0994    0.2243   -0.0975
         115   -0.0296    0.2161    0.0135    0.0331   -0.2583   -0.0195   -0.0706    0.0394
         116   -0.0777    0.0014   -0.0073   -0.1635   -0.2006   -0.0686   -0.1324    0.0553
         117    0.0645    0.0052   -0.0038   -0.0005    0.1080    0.0336    0.1008   -0.0406
         118    0.0751    0.2624    0.0397    0.2865    0.0321    0.1063    0.0423    0.0224
         119   -0.0000   -0.0277   -0.0017   -0.1545   -0.0331    0.0342    0.1178    0.1224
         120    0.0918    0.0851   -0.0093    0.0015    0.1197    0.1473    0.1738    0.1000
         121   -0.0069    0.1531    0.0365    0.0514   -0.1321   -0.1209   -0.0926   -0.0961
         122   -0.0644   -0.0026    0.0032    0.0276   -0.0360   -0.0225    0.0015    0.0306
         123    0.0284    0.0247   -0.0100   -0.1114    0.0174   -0.0035    0.0682    0.0106


   Root No.      17        18        19        20        21        22        23        24

                17 A      18 A      19 A      20 A      21 A      22 A      23 A      24 A   

                   0.1       0.1       0.1       0.1       0.2       0.2       0.2       0.2
  
           1    0.0120    0.0043    0.0115    0.0103    0.0241   -0.1195    0.0436    0.0361
           2   -0.0079    0.0119    0.0146   -0.0040   -0.0547    0.0241    0.0248   -0.0015
           3    0.0123   -0.0090   -0.0105   -0.1380   -0.0547   -0.0322   -0.0315   -0.0145
           4    0.0125    0.0037    0.0109    0.0101    0.0250   -0.1117    0.0393    0.0339
           5   -0.0058    0.0153    0.0230    0.0013   -0.0566   -0.0069    0.0280    0.0130
           6   -0.0412    0.0025   -0.0161   -0.0085    0.0386    0.0867    0.1489    0.0285
           7    0.0131    0.0014    0.0004    0.0111    0.0126   -0.0510    0.0239    0.0072
           8   -0.0050    0.0165    0.0275    0.0010   -0.0510   -0.0377    0.0326    0.0248
           9    0.0214    0.0055   -0.0122    0.0646    0.0551    0.0413   -0.0325   -0.0078
          10    0.0066   -0.0014   -0.0005    0.0121    0.0229   -0.0565    0.0358   -0.0036
          11   -0.0077    0.0153    0.0266    0.0041   -0.0537   -0.0264    0.0408    0.0144
          12    0.0941   -0.0106   -0.0503   -0.1386   -0.0277    0.0386    0.1315    0.0265
          13    0.0071   -0.0018   -0.0012    0.0121    0.0264   -0.0585    0.0353   -0.0035
          14   -0.0104    0.0121    0.0185   -0.0021   -0.0534    0.0114    0.0369    0.0008
          15    0.0553   -0.0056   -0.0162    0.0257    0.0329    0.0885    0.2005    0.0360
          16    0.0083    0.0013    0.0073    0.0126    0.0240   -0.0956    0.0483    0.0150
          17   -0.0113    0.0103    0.0125   -0.0035   -0.0506    0.0306    0.0278   -0.0086
          18    0.0549   -0.0055    0.0158    0.1499    0.0662    0.0681    0.1146    0.0121
          19    0.0170    0.0066    0.0143    0.0055    0.0252   -0.1587    0.0422    0.0591
          20   -0.0109    0.0104    0.0140   -0.0017   -0.0561    0.0451    0.0291   -0.0139
          21    0.0056   -0.0154   -0.0232   -0.4345   -0.2233   -0.2095   -0.3387   -0.0869
          22   -0.0112    0.0033    0.0462    0.0056    0.0356   -0.1604    0.0572    0.0630
          23   -0.0210    0.0158    0.0440   -0.0014   -0.0539   -0.0343    0.0402    0.0313
          24   -0.0980    0.0068   -0.0277    0.0106    0.0670    0.1876    0.4404    0.0830
          25    0.0040   -0.0043   -0.0051    0.0137    0.0366   -0.0508    0.0447   -0.0235
          26   -0.0064    0.0173    0.0293    0.0061   -0.0607   -0.0312    0.0370    0.0266
          27    0.1581   -0.0254   -0.0997   -0.4277   -0.1492   -0.0086    0.2368    0.0442
          28    0.0081    0.0013    0.0072    0.0107    0.0251   -0.0996    0.0492    0.0165
          29   -0.0149    0.0065    0.0072   -0.0065   -0.0529    0.0724    0.0259   -0.0361
          30    0.0776   -0.0011    0.0601    0.4612    0.1826    0.1172    0.1670    0.0141
          31    0.0022   -0.0092   -0.0139   -0.0057    0.1037   -0.0959   -0.0205    0.0404
          32   -0.0154    0.0085    0.0110   -0.0124   -0.0128   -0.0092    0.0008    0.0259
          33   -0.0502    0.0077    0.0016   -0.0293   -0.0141    0.0015    0.0142   -0.0030
          34    0.0030   -0.0091   -0.0147   -0.0040    0.1075   -0.0963   -0.0170    0.0436
          35   -0.0257    0.0010   -0.0005   -0.0359    0.0768   -0.0648   -0.0780    0.0844
          36   -0.0700    0.0072    0.0110   -0.0670   -0.0471   -0.0473   -0.0922   -0.0316
          37   -0.0030   -0.0165   -0.0266   -0.0241    0.1918   -0.1497   -0.0880    0.0965
          38   -0.0091    0.0122    0.0184   -0.0010   -0.0617    0.0225    0.0450   -0.0042
          39   -0.1507    0.0230    0.0128   -0.0662   -0.0367   -0.0737   -0.1542   -0.0306
          40    0.0125    0.0022    0.0004    0.0123    0.0103   -0.0490    0.0250    0.0029
          41    0.0140    0.0114   -0.0031   -0.0198    0.0277   -0.0450    0.0101    0.0643
          42    0.0102    0.0179    0.0091    0.1380    0.0587   -0.0273   -0.1791   -0.0480
          43    0.0312   -0.0000   -0.0226   -0.0613   -0.0711    0.1356    0.0483   -0.0026
          44   -0.0143    0.0243    0.0488    0.0179   -0.0068    0.0220   -0.0284    0.0083
          45    0.0303    0.0111   -0.0222    0.0807    0.0328    0.0297   -0.1432   -0.0228
          46    0.0240   -0.0002   -0.0130   -0.0574   -0.1104    0.2016    0.0383   -0.0340
          47   -0.0151    0.0210    0.0509    0.0002   -0.0667    0.1376   -0.0373   -0.0151
          48    0.0700   -0.0035   -0.0810   -0.0309   -0.0131    0.2146   -0.1089    0.0298
          49    0.0576   -0.0004   -0.0644   -0.1102   -0.0966    0.2115    0.0948    0.0365
          50   -0.0361    0.0353    0.0931    0.0653   -0.0509    0.0888   -0.1053   -0.0691
          51    0.0183    0.0250    0.0104    0.1121   -0.0352    0.1690   -0.2242   -0.1035
          52    0.0454   -0.0025   -0.0383   -0.1302   -0.1685    0.3682    0.0689   -0.0269
          53   -0.0288    0.0385    0.0720    0.0816   -0.0022   -0.0588   -0.0548   -0.0096
          54    0.0288    0.0029   -0.0247    0.0998    0.1187   -0.1152   -0.1538    0.0105
          55    0.0160   -0.0008   -0.0021    0.0739   -0.0214    0.1115   -0.1295   -0.0700
          56   -0.0104    0.0278    0.0380    0.0334   -0.0073   -0.0665   -0.0322    0.1201
          57    0.0207    0.0105   -0.0128    0.0622    0.0977   -0.1208   -0.0447   -0.0241
          58    0.0125    0.0001    0.0020    0.0714   -0.0218    0.1002   -0.1144   -0.1092
          59    0.0154    0.0164    0.0043    0.0002    0.0334   -0.0192   -0.1245    0.6944
          60    0.0136    0.0139   -0.0013   -0.0025    0.1213   -0.3380    0.2121   -0.1991
          61    0.0151   -0.0015   -0.0009    0.1418   -0.0534    0.2977   -0.3391   -0.0984
          62   -0.0599    0.0627    0.1080    0.1111   -0.0964   -0.1675    0.0767   -0.5113
          63    0.0413   -0.0031   -0.0384    0.0689    0.1156    0.0046   -0.1881    0.1959
          64   -0.3200   -0.0848    0.3907   -0.0318   -0.0911    0.0479    0.0504    0.0410
          65    0.0039   -0.1503   -0.0017   -0.2453    0.4869    0.1459   -0.0452   -0.1275
          66   -0.1435   -0.1364    0.5118   -0.1469    0.1456    0.0993    0.0073    0.0027
          67   -0.0673   -0.0608   -0.0022    0.0051    0.0091   -0.0019   -0.0049    0.0027
          68   -0.0879   -0.0386   -0.0572    0.0155   -0.0095   -0.0047    0.0069   -0.0002
          69   -0.0230    0.0662   -0.0360   -0.0033   -0.0046    0.0008    0.0014   -0.0023
          70    0.0057    0.0114    0.0213   -0.0015    0.0108   -0.0021   -0.0026   -0.0022
          71   -0.0213    0.0172   -0.0372    0.0097   -0.0084   -0.0054    0.0086   -0.0053
          72   -0.0421    0.0600   -0.0490    0.0057   -0.0131   -0.0010    0.0039    0.0011
          73   -0.0289   -0.0591   -0.0014    0.0049   -0.0068   -0.0078    0.0014   -0.0092
          74   -0.0207   -0.0075   -0.0349    0.0147   -0.0190   -0.0100    0.0072   -0.0084
          75   -0.0289    0.0782   -0.0406    0.0053   -0.0117   -0.0013    0.0016    0.0016
          76    0.0284    0.0527    0.0056   -0.0001   -0.0113   -0.0133   -0.0012   -0.0073
          77    0.0114    0.0870   -0.0060    0.0041   -0.0110   -0.0070    0.0062   -0.0109
          78   -0.0667   -0.0422   -0.0644    0.0143   -0.0149   -0.0031    0.0013    0.0028
          79    0.0563   -0.0466   -0.0307    0.0255   -0.0449   -0.0311   -0.0066   -0.0045
          80    0.0374   -0.0752   -0.0623    0.0454   -0.0644   -0.0290    0.0024   -0.0029
          81   -0.0548    0.0066   -0.0388   -0.0037    0.0036    0.0060    0.0034   -0.0046
          82    0.0379    0.0601    0.0036   -0.0034    0.0076   -0.0051   -0.0060   -0.0022
          83   -0.0152    0.0174   -0.0429    0.0197   -0.0242   -0.0099    0.0054    0.0010
          84   -0.0775    0.0252   -0.0438   -0.0077    0.0073    0.0040    0.0022   -0.0038
          85   -0.1584   -0.1162   -0.0358    0.0065    0.0093    0.0050    0.0123   -0.0031
          86   -0.1871   -0.0934   -0.1015    0.0135   -0.0046    0.0013    0.0227   -0.0085
          87    0.0284    0.1039   -0.0204   -0.0055   -0.0030   -0.0034   -0.0087   -0.0000
          88    0.0972    0.1262    0.0531   -0.0121    0.0192    0.0008    0.0004   -0.0068
          89   -0.0210    0.0369   -0.0335    0.0043    0.0014   -0.0014    0.0080   -0.0034
          90   -0.0871   -0.0138   -0.0701    0.0172   -0.0289   -0.0071    0.0032    0.0013
          91    0.0044    0.0344    0.0233   -0.0027    0.0166    0.0007   -0.0033    0.0015
          92    0.0653    0.1160   -0.0132   -0.0004   -0.0039   -0.0044    0.0125   -0.0118
          93    0.0251    0.1822   -0.0252   -0.0047    0.0016    0.0048    0.0051    0.0032
          94   -0.0662   -0.1583   -0.0166    0.0137   -0.0151   -0.0072    0.0051   -0.0122
          95   -0.0759   -0.1464   -0.0592    0.0266   -0.0310   -0.0099    0.0127   -0.0134
          96   -0.0098    0.1239   -0.0208    0.0016   -0.0026    0.0022   -0.0009    0.0046
          97   -0.0672   -0.1600   -0.0172    0.0128   -0.0180   -0.0075    0.0055   -0.0133
          98    0.0347    0.1323   -0.0178    0.0066   -0.0127   -0.0134    0.0028   -0.0049
          99   -0.0077    0.1380   -0.0405    0.0055   -0.0232   -0.0071    0.0022   -0.0003
         100    0.0721    0.2885    0.0785   -0.0507    0.0495    0.0093   -0.0023   -0.0226
         101    0.0433    0.2540    0.0306   -0.0185    0.0144    0.0040    0.0066   -0.0154
         102   -0.0681   -0.0451   -0.0729    0.0208   -0.0238   -0.0057    0.0019    0.0057
         103    0.0280   -0.0888   -0.0452    0.0340   -0.0548   -0.0335   -0.0049    0.0018
         104   -0.0166    0.1657    0.0271   -0.0238    0.0295    0.0123    0.0101   -0.0190
         105   -0.1370   -0.2705   -0.1318    0.0490   -0.0497   -0.0167    0.0016    0.0118
         106    0.0208   -0.0093   -0.0213    0.0159   -0.0350   -0.0164    0.0054   -0.0058
         107    0.0779   -0.2008   -0.1343    0.0876   -0.1152   -0.0541   -0.0023   -0.0051
         108    0.0178   -0.1781   -0.1357    0.0538   -0.0740   -0.0361   -0.0025   -0.0183
         109    0.0781    0.1468    0.0113   -0.0160    0.0228    0.0029   -0.0026   -0.0072
         110    0.0607    0.1938   -0.0228   -0.0071    0.0107    0.0084    0.0116   -0.0074
         111   -0.0570    0.0237   -0.0657    0.0002   -0.0118   -0.0065    0.0040   -0.0057
         112    0.0917    0.2228    0.0297   -0.0342    0.0495    0.0159    0.0001   -0.0099
         113   -0.0771   -0.1249   -0.0670    0.0440   -0.0542   -0.0241    0.0007    0.0072
         114   -0.1743    0.0167   -0.0337   -0.0247    0.0488    0.0268    0.0037   -0.0013
         115    0.0021   -0.1963   -0.1248    0.0737   -0.1072   -0.0303    0.0168    0.0013
         116    0.0334   -0.1670   -0.1228    0.0686   -0.0893   -0.0340    0.0075   -0.0093
         117   -0.0321    0.1011    0.0227   -0.0262    0.0267    0.0005   -0.0108   -0.0001
         118    0.1780    0.0157   -0.2794   -0.0036    0.0605   -0.0008   -0.0195   -0.0603
         119    0.3825   -0.2558    0.1283   -0.0808    0.1705    0.0265   -0.0300   -0.0706
         120    0.4916   -0.1637    0.2387    0.0886   -0.1921   -0.0784    0.0076    0.0239
         121   -0.2870    0.0455    0.0605   -0.0465    0.0016    0.0018   -0.0300    0.0394
         122    0.0591   -0.1510   -0.0295   -0.2184    0.4446    0.1219   -0.0495   -0.1234
         123    0.1443   -0.1306    0.4315    0.0303   -0.1662   -0.0533   -0.0022    0.0693


   Root No.      25        26        27        28        29        30        31        32

                25 A      26 A      27 A      28 A      29 A      30 A      31 A      32 A   

                   0.3       0.3       0.3       0.4       0.4       0.5       0.5       0.6
  
           1    0.0030    0.0011   -0.0009    0.0045   -0.0029    0.0403   -0.0467    0.0702
           2    0.0101   -0.0617   -0.0002   -0.0009   -0.0022    0.0117   -0.0163   -0.0704
           3    0.0110   -0.0005    0.0056   -0.0011    0.1994    0.0144   -0.0282   -0.0130
           4    0.0033   -0.0005   -0.0005    0.0038   -0.0007    0.0217   -0.0359    0.0523
           5   -0.0085    0.0349    0.0000    0.0039   -0.0086    0.0675   -0.0473   -0.0789
           6   -0.0067    0.0141    0.0085   -0.0041    0.1531    0.0306    0.0211   -0.0143
           7    0.0143   -0.0638   -0.0003   -0.0004   -0.0024   -0.0158   -0.0014   -0.1052
           8   -0.0158    0.0753   -0.0005    0.0066   -0.0107    0.0825   -0.0636   -0.0063
           9    0.0029   -0.0245    0.0049   -0.0029    0.1459   -0.0005    0.0092   -0.0130
          10    0.0378   -0.1781   -0.0000   -0.0050    0.0019   -0.0192    0.0205    0.0635
          11    0.0028   -0.0137   -0.0003    0.0035   -0.0081    0.0750   -0.0516    0.0682
          12   -0.0131    0.0093    0.0007   -0.0015    0.1863    0.0090   -0.0323   -0.0037
          13    0.0401   -0.1893    0.0001   -0.0057    0.0010   -0.0332    0.0316    0.0856
          14    0.0169   -0.0920   -0.0003   -0.0012   -0.0020    0.0301   -0.0208    0.0551
          15   -0.0181    0.0326    0.0033   -0.0033    0.5087    0.0307   -0.1084   -0.0109
          16    0.0299   -0.1312   -0.0004   -0.0012   -0.0036    0.0078   -0.0060    0.1643
          17    0.0211   -0.1181   -0.0003   -0.0035   -0.0025    0.0044    0.0041   -0.0034
          18   -0.0014    0.0240    0.0040   -0.0009    0.2129    0.0155   -0.0485   -0.0142
          19   -0.0198    0.1214   -0.0008    0.0110    0.0029    0.1158   -0.1342    0.0513
          20    0.0248   -0.1356   -0.0000   -0.0045   -0.0041   -0.0275    0.0275   -0.0589
          21    0.0346   -0.0412    0.0007    0.0025   -0.1121   -0.0204   -0.0022    0.0059
          22   -0.0118    0.0834    0.0010    0.0079   -0.0046    0.1706   -0.0741    0.2470
          23   -0.0183    0.0851    0.0014    0.0059   -0.0125    0.1617   -0.0601    0.0212
          24   -0.0295    0.0693    0.0076   -0.0041   -0.2570    0.0498    0.0766    0.0203
          25    0.0639   -0.3092    0.0011   -0.0124    0.0264   -0.0990    0.0967    0.2825
          26   -0.0121    0.0623   -0.0009    0.0081   -0.0143    0.1263   -0.1009   -0.0495
          27   -0.0225    0.0310   -0.0071    0.0037   -0.4456   -0.0008    0.0618    0.0026
          28    0.0300   -0.1312   -0.0004   -0.0012    0.0010    0.0099   -0.0098    0.1826
          29    0.0503   -0.2623    0.0013   -0.0116    0.0181   -0.0701    0.0790    0.0127
          30    0.0026    0.0357    0.0006    0.0036   -0.4596   -0.0121    0.0748    0.0097
          31   -0.0209    0.0797   -0.0015   -0.0021    0.0059   -0.0179    0.0184    0.0416
          32   -0.0182    0.0640   -0.0016    0.0016   -0.0083    0.0481   -0.0326    0.0243
          33   -0.0110    0.0039   -0.0010   -0.0006    0.1373    0.0076   -0.0345    0.0026
          34   -0.0237    0.0903   -0.0017   -0.0018    0.0158   -0.0155    0.0156    0.0434
          35   -0.1027    0.4411   -0.0041    0.0087   -0.0257    0.0980   -0.0723   -0.0456
          36    0.0054   -0.0323   -0.0013    0.0007   -0.0845   -0.0117    0.0177   -0.0039
          37   -0.0986    0.4256   -0.0039    0.0042    0.0014    0.0175   -0.0058   -0.0143
          38    0.0249   -0.1278   -0.0001   -0.0019    0.0027    0.0312   -0.0240    0.0574
          39   -0.0113   -0.0080   -0.0045    0.0010   -0.1240   -0.0117    0.0264    0.0084
          40    0.0156   -0.0701   -0.0004   -0.0006   -0.0074   -0.0293    0.0042   -0.1912
          41   -0.0346    0.1429   -0.0010    0.0008    0.0359   -0.2672    0.1434    0.0282
          42    0.0180   -0.0744    0.0022    0.0012   -0.0345    0.0558   -0.0282   -0.0483
          43   -0.0057   -0.0086    0.0000   -0.0007   -0.0026   -0.0072   -0.0062   -0.1632
          44   -0.0189    0.0576    0.0035    0.0005    0.0246   -0.1984    0.1073    0.0327
          45    0.0015   -0.0133    0.0004    0.0005   -0.0215    0.0401   -0.0157   -0.0027
          46   -0.0022   -0.0259    0.0003   -0.0001   -0.0016    0.0720   -0.0353   -0.2877
          47   -0.0262    0.0846    0.0033    0.0008    0.0402   -0.1867    0.1259    0.0455
          48   -0.0513    0.1868   -0.0029   -0.0052    0.0529   -0.2703    0.1850    0.5505
          49   -0.0290    0.0797   -0.0019   -0.0002    0.0472   -0.1817    0.1006   -0.2846
          50    0.0039   -0.0300    0.0111    0.0059   -0.0387    0.1751   -0.1037    0.1464
          51    0.0164   -0.0761    0.0092    0.0074   -0.0800    0.4396   -0.2406    0.0837
          52   -0.0256    0.0652    0.0050    0.0012    0.0252    0.1399   -0.0737    0.0876
          53   -0.0037   -0.0138    0.0004    0.0036    0.0045   -0.1738    0.1147   -0.0044
          54    0.0089   -0.0226   -0.0012   -0.0029   -0.0327   -0.1293    0.0482   -0.2316
          55    0.0026    0.0026    0.0011   -0.0018   -0.0154   -0.0441    0.0246   -0.1235
          56    0.0113   -0.0116    0.0039    0.0036    0.0015   -0.0657    0.0336   -0.0403
          57    0.0047   -0.0523   -0.0013    0.0007   -0.0071   -0.0320    0.0127   -0.0766
          58   -0.0011    0.0129    0.0009   -0.0023   -0.0144   -0.0572    0.0298   -0.1332
          59    0.0664   -0.1899    0.0037    0.0125   -0.0178    0.0207   -0.0474   -0.1167
          60   -0.0030   -0.0606   -0.0020   -0.0034    0.0383   -0.0563    0.0326   -0.1986
          61   -0.0081    0.0697    0.0019   -0.0013   -0.0506   -0.0830    0.0464   -0.0503
          62   -0.0252    0.0947    0.0069   -0.0048   -0.0013   -0.0369    0.0377   -0.0221
          63    0.0138   -0.0598   -0.0016    0.0037   -0.0223   -0.0621    0.0237   -0.0517
          64    0.0417    0.0285   -0.0227    0.0576   -0.0469   -0.2691   -0.3412    0.0099
          65    0.0196   -0.0749    0.0165   -0.0226   -0.0153    0.0353   -0.0273   -0.0116
          66    0.0350   -0.0104    0.0181   -0.0086   -0.0208   -0.1150   -0.1564   -0.0094
          67   -0.2442   -0.0562   -0.1683    0.0211   -0.0096   -0.0032   -0.0154    0.0028
          68   -0.1251   -0.0251   -0.0885   -0.0809   -0.0017   -0.0215   -0.0422    0.0055
          69    0.0160    0.0030   -0.0467   -0.0257    0.0055    0.0076    0.0151   -0.0054
          70   -0.1400   -0.0309   -0.0501    0.0708   -0.0073    0.0032    0.0048   -0.0011
          71   -0.0303   -0.0024    0.0261   -0.0147    0.0022   -0.0128   -0.0202    0.0025
          72    0.1042    0.0253   -0.0190   -0.1393   -0.0041   -0.0105   -0.0171    0.0001
          73   -0.0385   -0.0035    0.0387    0.0058   -0.0042   -0.0060   -0.0109   -0.0006
          74   -0.0836   -0.0153    0.1411    0.1233    0.0032   -0.0047    0.0002    0.0018
          75    0.0395    0.0089    0.0055   -0.0684   -0.0056   -0.0079   -0.0118    0.0005
          76   -0.0508   -0.0039    0.1752   -0.0711   -0.0045   -0.0173   -0.0363    0.0035
          77   -0.0452   -0.0058    0.0526    0.0518    0.0030    0.0003    0.0052    0.0008
          78   -0.0060   -0.0030    0.0678    0.0309   -0.0036   -0.0058   -0.0085    0.0015
          79   -0.0369    0.0022    0.1028   -0.1032    0.0015   -0.0018   -0.0207    0.0042
          80   -0.0283    0.0025   -0.0321   -0.0465    0.0075    0.0206    0.0327   -0.0006
          81    0.0217   -0.0004   -0.0592    0.1688    0.0079    0.0167    0.0334   -0.0031
          82   -0.0806   -0.0175   -0.0224   -0.0011   -0.0045   -0.0030   -0.0128    0.0028
          83   -0.0830   -0.0122   -0.0726   -0.1713    0.0002   -0.0039   -0.0039   -0.0011
          84    0.0168    0.0014   -0.0398    0.0456    0.0069    0.0038    0.0028   -0.0015
          85    0.3057    0.0701    0.0478    0.0696   -0.0040    0.0224    0.0508   -0.0050
          86    0.3928    0.0924    0.1310    0.0249    0.0086    0.0062    0.0214   -0.0004
          87   -0.2979   -0.0694   -0.1668   -0.0383    0.0036   -0.0061   -0.0232   -0.0008
          88    0.1180    0.0303    0.0260    0.0527   -0.0033    0.0192    0.0457   -0.0034
          89   -0.0170   -0.0003   -0.1114   -0.1025    0.0022   -0.0146   -0.0379    0.0068
          90   -0.0337   -0.0061    0.0892   -0.0498   -0.0070   -0.0201   -0.0249   -0.0028
          91   -0.1477   -0.0333   -0.1697   -0.0177   -0.0114   -0.0042   -0.0212    0.0060
[...]

 VIBRATION         85   85A           ATOM PAIR      ENERGY CONTRIBUTION    RADIAL
 FREQUENCY          1399.57         C  1 -- C  6         +15.4% ( 58.8%)     99.2%
 TRANSITION DIPOLE   1.1688         C  3 -- C  4         +10.8% ( 49.1%)     79.8%
 TRAVEL (Ang.)       0.1952         C  3 -- C 14         +10.5% ( 48.5%)     68.8%
 REDUCED MASS        1.2639         C  4 -- C  5          +8.9% ( 44.6%)     79.7%
 EFFECTIVE MASS     10.0264
 FORCE CONSTANT      1.4586

 VIBRATION         86   86A           ATOM PAIR      ENERGY CONTRIBUTION    RADIAL
 FREQUENCY          1408.09         C  1 -- C  2         +15.2% ( 58.0%)     96.4%
 TRANSITION DIPOLE   1.1530         C  3 -- C 14         +12.4% ( 52.3%)     86.6%
 TRAVEL (Ang.)       0.1925         C  2 -- C  3         +10.0% ( 47.1%)     89.8%
 REDUCED MASS        1.2924         C  5 -- C  6          +8.7% ( 43.9%)    100.0%
 EFFECTIVE MASS     10.4479
 FORCE CONSTANT      1.5098

 VIBRATION         87   87A           ATOM PAIR      ENERGY CONTRIBUTION    RADIAL
 FREQUENCY          1439.71         C 23 -- H 29         +31.1% ( 72.2%)      0.1%
 TRANSITION DIPOLE   1.0304         C 23 -- C 24         +25.8% ( 65.7%)     81.0%
 TRAVEL (Ang.)       0.1240         C 23 -- C 28         +23.7% ( 63.0%)     71.0%
 REDUCED MASS        3.0475         C 24 -- H 31          +3.6% ( 24.6%)     29.0%
 EFFECTIVE MASS      7.0829
 FORCE CONSTANT      3.7217

 VIBRATION         88   88A           ATOM PAIR      ENERGY CONTRIBUTION    RADIAL
 FREQUENCY          1473.01         N 19 -- O 21         +34.8% ( 82.9%)     88.5%
 TRANSITION DIPOLE   9.2376         N 19 -- O 20         +33.6% ( 81.4%)     86.7%
 TRAVEL (Ang.)       0.0882         C 14 -- N 19         +19.5% ( 62.0%)      0.0%
 REDUCED MASS        5.8819         O 20 -- O 21          +7.2% ( 37.7%)      0.2%
 EFFECTIVE MASS     14.4097
 FORCE CONSTANT      7.5193

 VIBRATION         89   89A           ATOM PAIR      ENERGY CONTRIBUTION    RADIAL
 FREQUENCY          1489.23         N 11 -- O 12         +30.0% ( 76.1%)     65.4%
 TRANSITION DIPOLE   6.7200         N 11 -- O 13         +29.0% ( 74.7%)     63.7%
 TRAVEL (Ang.)       0.0990         C  5 -- N 11         +17.3% ( 57.8%)     99.4%
 REDUCED MASS        4.6204         O 12 -- O 13         +15.9% ( 55.4%)    100.0%
 EFFECTIVE MASS     14.6716
 FORCE CONSTANT      6.0374

 VIBRATION         90   90A           ATOM PAIR      ENERGY CONTRIBUTION    RADIAL
 FREQUENCY          1502.88         C  4 -- C  5         +13.4% ( 50.5%)     97.7%
 TRANSITION DIPOLE   0.5624         C  5 -- C  6         +12.7% ( 49.3%)     19.1%
 TRAVEL (Ang.)       0.2033         C  5 -- N 11          +8.5% ( 40.2%)     89.1%
 REDUCED MASS        1.0855         C  1 -- C  6          +8.0% ( 39.1%)     28.7%
 EFFECTIVE MASS      9.1063
 FORCE CONSTANT      1.4445

 VIBRATION         91   91A           ATOM PAIR      ENERGY CONTRIBUTION    RADIAL
 FREQUENCY          1513.13         N 27 -- H 39         +29.2% ( 62.3%)      0.1%
 TRANSITION DIPOLE   0.9954         N 27 -- H 36         +23.6% ( 56.0%)      0.0%
 TRAVEL (Ang.)       0.3094         N 27 -- C 28          +5.0% ( 25.7%)     23.6%
 REDUCED MASS        0.4656         C 26 -- N 27          +4.4% ( 24.1%)     50.9%
 EFFECTIVE MASS      4.3698
 FORCE CONSTANT      0.6281

 VIBRATION         92   92A           ATOM PAIR      ENERGY CONTRIBUTION    RADIAL
 FREQUENCY          1552.47         C  2 -- C  3         +17.0% ( 58.1%)     71.7%
 TRANSITION DIPOLE   1.3883         C  3 -- C  4         +13.3% ( 51.3%)     48.4%
 TRAVEL (Ang.)       0.1703         C  3 -- C 14         +11.5% ( 47.8%)     97.3%
 REDUCED MASS        1.4968         C  5 -- C  6          +8.2% ( 40.4%)     81.9%
 EFFECTIVE MASS     10.3634
 FORCE CONSTANT      2.1256

 VIBRATION         93   93A           ATOM PAIR      ENERGY CONTRIBUTION    RADIAL
 FREQUENCY          1649.55         N 11 -- O 13         +34.9% ( 84.2%)     89.4%
 TRANSITION DIPOLE  10.6508         N 11 -- O 12         +34.5% ( 83.6%)     88.5%
 TRAVEL (Ang.)       0.0798         C  5 -- N 11         +20.6% ( 64.7%)      0.0%
 REDUCED MASS        6.4237         O 12 -- O 13          +6.2% ( 35.5%)      0.0%
 EFFECTIVE MASS     14.5678
 FORCE CONSTANT     10.2984

 VIBRATION         94   94A           ATOM PAIR      ENERGY CONTRIBUTION    RADIAL
 FREQUENCY          1657.69         C 14 -- N 19         +21.3% ( 67.8%)     99.9%
 TRANSITION DIPOLE   2.0178         C  3 -- C 14         +13.1% ( 53.2%)     27.8%
 TRAVEL (Ang.)       0.1394         C 14 -- C 15          +8.2% ( 42.1%)     18.2%
 REDUCED MASS        2.0926         C  2 -- C  3          +8.1% ( 41.7%)     97.0%
 EFFECTIVE MASS     12.3748
 FORCE CONSTANT      3.3880

 VIBRATION         95   95A           ATOM PAIR      ENERGY CONTRIBUTION    RADIAL
 FREQUENCY          1664.80         C 14 -- N 19         +19.9% ( 65.1%)     99.3%
 TRANSITION DIPOLE   4.2428         C  3 -- C 14         +11.5% ( 49.5%)     50.5%
 TRAVEL (Ang.)       0.1448         C  5 -- C  6          +9.6% ( 45.2%)     99.7%
 REDUCED MASS        1.9325         C 14 -- C 15          +7.5% ( 40.1%)     15.9%
 EFFECTIVE MASS     12.3993
 FORCE CONSTANT      3.1556

 VIBRATION         96   96A           ATOM PAIR      ENERGY CONTRIBUTION    RADIAL
 FREQUENCY          1685.68         C  4 -- C  5         +19.0% ( 62.0%)     99.3%
 TRANSITION DIPOLE   2.3800         C  1 -- C  2         +13.5% ( 52.2%)     97.0%
 TRAVEL (Ang.)       0.1320         C  3 -- C  4         +12.4% ( 50.1%)     65.6%
 REDUCED MASS        2.2965         C  1 -- C  6          +9.6% ( 44.1%)     62.4%
 EFFECTIVE MASS     11.8955
 FORCE CONSTANT      3.8447

 VIBRATION         97   97A           ATOM PAIR      ENERGY CONTRIBUTION    RADIAL
 FREQUENCY          1713.73         N 27 -- H 36         +60.6% ( 65.7%)      0.1%
 TRANSITION DIPOLE   0.4698         N 27 -- H 39         +26.4% ( 43.3%)      1.6%
 TRAVEL (Ang.)       0.2961         C  2 -- H  8          +3.6% ( 16.1%)      1.3%
 REDUCED MASS        0.4486         N 27 -- C 28          +2.5% ( 13.3%)     14.2%
 EFFECTIVE MASS      1.6013
 FORCE CONSTANT      0.7763

 VIBRATION         98   98A           ATOM PAIR      ENERGY CONTRIBUTION    RADIAL
 FREQUENCY          2009.88         H 22 -- O 41         +97.8% ( 98.6%)     98.8%
 TRANSITION DIPOLE   1.5112         H 40 -- O 41          +1.8% ( 13.5%)     52.0%
 TRAVEL (Ang.)       0.1390         N 27 -- H 39          +0.1% (  3.7%)     86.9%
 REDUCED MASS        1.7365
 EFFECTIVE MASS      2.7295
 FORCE CONSTANT      4.1330

 VIBRATION         99   99A           ATOM PAIR      ENERGY CONTRIBUTION    RADIAL
 FREQUENCY          2506.59         N 27 -- H 39         +85.3% ( 94.7%)    100.0%
 TRANSITION DIPOLE   2.3736         N 27 -- H 36          +8.5% ( 29.8%)     83.9%
 TRAVEL (Ang.)       0.1893         H 40 -- O 41          +3.4% ( 18.9%)     99.0%
 REDUCED MASS        0.7509         N 27 -- C 28          +0.8% (  9.0%)      0.6%
 EFFECTIVE MASS      1.4060
 FORCE CONSTANT      2.7797

 VIBRATION        100  100A           ATOM PAIR      ENERGY CONTRIBUTION    RADIAL
 FREQUENCY          2581.68         C 28 -- H 38         +69.8% ( 86.1%)     99.3%
 TRANSITION DIPOLE   0.2704         C 28 -- H 37         +24.9% ( 51.4%)     95.3%
 TRAVEL (Ang.)       0.2152         N 27 -- H 36          +1.7% ( 13.5%)     95.6%
 REDUCED MASS        0.5637         N 27 -- H 39          +1.1% ( 10.9%)     96.6%
 EFFECTIVE MASS      1.4082
 FORCE CONSTANT      2.2138

 VIBRATION        101  101A           ATOM PAIR      ENERGY CONTRIBUTION    RADIAL
 FREQUENCY          2609.82         C 24 -- H 31         +57.3% ( 78.2%)     99.0%
 TRANSITION DIPOLE   0.2204         C 24 -- H 30         +28.4% ( 55.1%)     96.6%
 TRAVEL (Ang.)       0.2469         C 25 -- H 33          +6.0% ( 25.3%)     98.9%
 REDUCED MASS        0.4240         C 25 -- H 32          +2.8% ( 17.4%)     98.1%
 EFFECTIVE MASS      1.3897
 FORCE CONSTANT      1.7014

 VIBRATION        102  102A           ATOM PAIR      ENERGY CONTRIBUTION    RADIAL
 FREQUENCY          2612.29         C 15 -- H 17         +68.7% ( 85.8%)     99.7%
 TRANSITION DIPOLE   1.3130         C 15 -- H 16         +16.4% ( 41.9%)     86.8%
 TRAVEL (Ang.)       0.2206         C 15 -- H 18         +13.4% ( 37.9%)     82.6%
 REDUCED MASS        0.5303         C 14 -- C 15          +0.8% (  9.1%)      0.0%
 EFFECTIVE MASS      1.4275
 FORCE CONSTANT      2.1320

 VIBRATION        103  103A           ATOM PAIR      ENERGY CONTRIBUTION    RADIAL
 FREQUENCY          2619.00         C 26 -- H 34         +46.1% ( 70.3%)     98.5%
 TRANSITION DIPOLE   0.5478         C 26 -- H 35         +40.3% ( 65.7%)     97.8%
 TRAVEL (Ang.)       0.2568         N 27 -- H 36          +4.1% ( 21.1%)     98.6%
 REDUCED MASS        0.3906         C 24 -- H 31          +2.9% ( 17.8%)     99.1%
 EFFECTIVE MASS      1.4337
 FORCE CONSTANT      1.5784

 VIBRATION        104  104A           ATOM PAIR      ENERGY CONTRIBUTION    RADIAL
 FREQUENCY          2646.24         C 25 -- H 32         +43.2% ( 67.7%)     98.1%
 TRANSITION DIPOLE   0.2969         C 25 -- H 33         +40.4% ( 65.5%)     98.3%
 TRAVEL (Ang.)       0.2651         N 27 -- H 36          +4.6% ( 22.0%)     98.4%
 REDUCED MASS        0.3625         C 24 -- H 30          +3.9% ( 20.3%)     97.7%
 EFFECTIVE MASS      1.4345
 FORCE CONSTANT      1.4958

 VIBRATION        105  105A           ATOM PAIR      ENERGY CONTRIBUTION    RADIAL
 FREQUENCY          2656.30         N 27 -- H 36         +53.0% ( 73.2%)     98.5%
 TRANSITION DIPOLE   1.8245         H 40 -- O 41         +17.2% ( 41.8%)     98.4%
 TRAVEL (Ang.)       0.2816         C 15 -- H 16          +7.7% ( 28.0%)     98.2%
 REDUCED MASS        0.3201         C 26 -- H 34          +5.9% ( 24.5%)     98.8%
 EFFECTIVE MASS      1.3696
 FORCE CONSTANT      1.3306

 VIBRATION        106  106A           ATOM PAIR      ENERGY CONTRIBUTION    RADIAL
 FREQUENCY          2657.55         C 15 -- H 16         +48.1% ( 71.1%)     98.2%
 TRANSITION DIPOLE   1.4703         C 15 -- H 18         +36.8% ( 62.2%)     97.9%
 TRAVEL (Ang.)       0.2580         N 27 -- H 36          +8.0% ( 29.0%)     98.4%
 REDUCED MASS        0.3811         H 40 -- O 41          +2.4% ( 15.8%)     98.4%
 EFFECTIVE MASS      1.4311
 FORCE CONSTANT      1.5858

 VIBRATION        107  107A           ATOM PAIR      ENERGY CONTRIBUTION    RADIAL
 FREQUENCY          2673.50         C 28 -- H 37         +72.1% ( 83.8%)     99.0%
 TRANSITION DIPOLE   0.4307         C 28 -- H 38         +22.3% ( 46.6%)     90.9%
 TRAVEL (Ang.)       0.2146         H 40 -- O 41          +3.2% ( 17.8%)     99.3%
 REDUCED MASS        0.5479         N 27 -- C 28          +0.5% (  7.1%)     17.4%
 EFFECTIVE MASS      1.2453
 FORCE CONSTANT      2.3072

 VIBRATION        108  108A           ATOM PAIR      ENERGY CONTRIBUTION    RADIAL
 FREQUENCY          2683.06         H 40 -- O 41         +67.1% ( 81.1%)     99.5%
 TRANSITION DIPOLE   0.8730         N 27 -- H 36         +15.6% ( 39.1%)     94.8%
 TRAVEL (Ang.)       0.2359         N 27 -- H 39          +5.6% ( 23.4%)     86.8%
 REDUCED MASS        0.4516         C  2 -- H  8          +4.2% ( 20.4%)     99.1%
 EFFECTIVE MASS      1.3164
 FORCE CONSTANT      1.9155

 VIBRATION        109  109A           ATOM PAIR      ENERGY CONTRIBUTION    RADIAL
 FREQUENCY          2704.60         C 24 -- H 30         +51.1% ( 70.3%)     98.6%
 TRANSITION DIPOLE   0.5126         C 24 -- H 31         +25.4% ( 49.5%)     94.5%
 TRAVEL (Ang.)       0.2719         C 26 -- H 35         +11.7% ( 33.6%)     97.3%
 REDUCED MASS        0.3373         C 26 -- H 34          +9.3% ( 29.9%)     95.7%
 EFFECTIVE MASS      1.2357
 FORCE CONSTANT      1.4536

 VIBRATION        110  110A           ATOM PAIR      ENERGY CONTRIBUTION    RADIAL
 FREQUENCY          2704.85         C 26 -- H 35         +39.7% ( 62.0%)     97.1%
 TRANSITION DIPOLE   0.5346         C 26 -- H 34         +31.3% ( 55.0%)     95.7%
 TRAVEL (Ang.)       0.2995         C 24 -- H 30         +14.0% ( 36.7%)     98.5%
 REDUCED MASS        0.2779         C 24 -- H 31          +7.5% ( 27.0%)     94.6%
 EFFECTIVE MASS      1.2402
 FORCE CONSTANT      1.1978

 VIBRATION        111  111A           ATOM PAIR      ENERGY CONTRIBUTION    RADIAL
 FREQUENCY          2707.50         C  4 -- H  9         +92.5% ( 97.2%)    100.0%
 TRANSITION DIPOLE   1.6055         C  6 -- H 10          +4.2% ( 20.7%)    100.0%
 TRAVEL (Ang.)       0.1729         C  3 -- C  4          +1.0% ( 10.2%)     22.6%
 REDUCED MASS        0.8332         C  4 -- C  5          +1.0% ( 10.1%)     22.5%
 EFFECTIVE MASS      1.3842
 FORCE CONSTANT      3.5986

 VIBRATION        112  112A           ATOM PAIR      ENERGY CONTRIBUTION    RADIAL
 FREQUENCY          2714.46         C  6 -- H 10         +88.6% ( 95.2%)    100.0%
 TRANSITION DIPOLE   1.0294         C  1 -- H  7          +6.0% ( 24.7%)     99.9%
 TRAVEL (Ang.)       0.1798         C  4 -- H  9          +3.2% ( 18.1%)     99.9%
 REDUCED MASS        0.7687         C  5 -- C  6          +1.0% ( 10.2%)     22.1%
 EFFECTIVE MASS      1.3981
 FORCE CONSTANT      3.3371

 VIBRATION        113  113A           ATOM PAIR      ENERGY CONTRIBUTION    RADIAL
 FREQUENCY          2723.52         C  2 -- H  8         +58.1% ( 76.8%)    100.0%
 TRANSITION DIPOLE   0.8910         C  1 -- H  7         +33.6% ( 58.5%)     99.9%
 TRAVEL (Ang.)       0.2388         C  6 -- H 10          +1.9% ( 14.1%)     98.9%
 REDUCED MASS        0.4343         N 27 -- H 36          +1.7% ( 13.3%)     93.3%
 EFFECTIVE MASS      1.3637
 FORCE CONSTANT      1.8980

 VIBRATION        114  114A           ATOM PAIR      ENERGY CONTRIBUTION    RADIAL
 FREQUENCY          2729.57         C 25 -- H 33         +49.8% ( 69.4%)     96.3%
 TRANSITION DIPOLE   0.6181         C 25 -- H 32         +47.5% ( 67.7%)     96.4%
 TRAVEL (Ang.)       0.2302         C 26 -- H 35          +1.0% (  9.7%)     93.2%
 REDUCED MASS        0.4661         C 24 -- C 25          +0.5% (  7.0%)     17.6%
 EFFECTIVE MASS      1.2515
 FORCE CONSTANT      2.0463

 VIBRATION        115  115A           ATOM PAIR      ENERGY CONTRIBUTION    RADIAL
 FREQUENCY          2739.08         C  1 -- H  7         +57.6% ( 76.4%)    100.0%
 TRANSITION DIPOLE   1.6918         C  2 -- H  8         +34.6% ( 59.3%)     99.9%
 TRAVEL (Ang.)       0.2363         C  6 -- H 10          +2.9% ( 17.2%)     99.1%
 REDUCED MASS        0.4407         C  4 -- H  9          +1.4% ( 11.8%)    100.0%
 EFFECTIVE MASS      1.4197
 FORCE CONSTANT      1.9482

 VIBRATION        116  116A           ATOM PAIR      ENERGY CONTRIBUTION    RADIAL
 FREQUENCY          2767.40         C 15 -- H 18         +36.9% ( 58.6%)     97.1%
 TRANSITION DIPOLE   1.0818         C 15 -- H 17         +22.4% ( 45.6%)     94.5%
 TRAVEL (Ang.)       0.3048         C 15 -- H 16         +21.6% ( 44.8%)     93.8%
 REDUCED MASS        0.2623         C 23 -- H 29         +18.2% ( 41.1%)    100.0%
 EFFECTIVE MASS      1.1771
 FORCE CONSTANT      1.1834

 VIBRATION        117  117A           ATOM PAIR      ENERGY CONTRIBUTION    RADIAL
 FREQUENCY          2767.64         C 23 -- H 29         +82.1% ( 90.4%)    100.0%
 TRANSITION DIPOLE   0.6877         C 15 -- H 18          +7.2% ( 26.8%)     97.2%
 TRAVEL (Ang.)       0.1957         C 15 -- H 17          +4.2% ( 20.6%)     94.3%
 REDUCED MASS        0.6364         C 15 -- H 16          +4.2% ( 20.3%)     93.7%
 EFFECTIVE MASS      1.3234
 FORCE CONSTANT      2.8721

      SYMMETRY NUMBER FOR POINT-GROUP C1  =  1


          SYSTEM IS A GROUND STATE



 Title: ASE calculation


          MOLECULE IS NOT LINEAR

          THERE ARE  117 GENUINE VIBRATIONS IN THIS SYSTEM
          THIS THERMODYNAMICS CALCULATION IS LIMITED TO
          MOLECULES WHICH HAVE NO INTERNAL ROTATIONS




                    CALCULATED THERMODYNAMIC PROPERTIES
                                          *
   TEMP. (K)   PARTITION FUNCTION   H.O.F.    ENTHALPY  HEAT CAPACITY ENTROPY
                                   KCAL/MOL   CAL/MOLE    CAL/K/MOL  CAL/K/MOL


 298.00  VIB.     0.2132D+10                 12887.7707    78.3648    85.9333
         ROT.     0.1045D+08                   888.2803     2.9808    35.0980
         INT.     0.2228D+17                 13776.0510    81.3456   121.0313
         TRA.     0.5007D+28                  1480.4672     4.9680    42.9838
         TOT.                      -81.511   15256.5182    86.3136   164.0152

   *: NOTE: HEATS OF FORMATION ARE RELATIVE TO THE
            ELEMENTS IN THEIR STANDARD STATE AT 298K
              (=  Standard Enthalpy of Formation).

            Hvib:  Zero-point energy is not included.
                   frequencies of less than zero cm-1 are not included.
            Hrot = (3/2)RT
            Htra = (3/2)RT + pV = (5/2)RT

            Heat capacity is Cp, not Cv

          For more information, see: HTTP://OpenMOPAC.net/Manual/thermochemistry.html


           FORCE CONSTANT IN CARTESIAN COORDINATES (Millidynes/A)

    ATOM   CHEMICAL       X               Y               Z
   NUMBER   SYMBOL  FORCE CONSTANT  FORCE CONSTANT  FORCE CONSTANT

      1       C       10.742908        9.908590        2.101262
      2       C       10.804554        9.756695        2.085790
      3       C       11.093086       11.331221        2.463656
      4       C       11.056559        9.966786        2.200210
      5       C       11.847360       10.710957        2.020144
      6       C        9.625121       11.372829        2.085017
      7       H        1.730868        3.364771        0.313052
      8       H        1.683031        3.376198        0.411630
      9       H        1.750307        3.288213        0.348131
     10       H        4.120977        0.854123        0.356747
     11       N       14.045374       12.076578        2.681683
     12       O       11.840239        1.666944        0.306555
     13       O        4.488411        9.002022        0.369611
     14       C       10.681142        3.804296        9.578757
     15       C        6.189658        5.784510        6.296346
     16       H        2.607722        1.807547        0.738766
     17       H        0.922038        2.434289        1.613834
     18       H        1.937475        1.381049        1.996044
     19       N       12.288736        4.293870       11.553535
     20       O        9.867360        0.727801        1.556885
     21       O        3.290817        1.446444        7.388452
     22       H        0.280150        4.114292        0.726844
     23       C        5.608969        6.343423        6.899990
     24       C        6.815656        7.248677        6.868332
     25       C        6.591195        6.920994        6.840337
     26       C        6.735049        6.865774        6.987505
     27       N        8.295216        7.559263        7.227253
     28       C        6.546190        7.041858        6.469285
     29       H        1.879348        0.842793        2.780147
     30       H        1.059166        2.403836        2.061396
     31       H        2.906678        1.121898        1.424708
     32       H        2.842741        1.830570        0.841128
     33       H        2.215200        2.202300        1.110044
     34       H        1.007793        1.275246        3.215759
     35       H        2.660166        1.984000        0.867347
     36       H        2.635876        2.028963        1.487288
     37       H        3.277156        1.334710        0.911364
     38       H        1.883075        2.519966        0.863230
     39       H        0.774037        2.049401        2.624778
     40       H        1.097640        0.617021        2.796339
     41       O        1.478686        4.382820        3.505960

 **********************
 *                    *
 * JOB ENDED NORMALLY *
 *                    *
 **********************



 TOTAL JOB TIME:            26.62 SECONDS

 == MOPAC DONE ==
