 *******************************************************************************
 **                                                                           **
 **                              MOPAC v22.0.6                                **
 **                                                                           **
 *******************************************************************************
 **          Digital Object Identifier (DOI): 10.5281/zenodo.6511958          **
 **    Visit the DOI location for information on how to cite this program.    **
 *******************************************************************************

                              PM7 CALCULATION RESULTS

 *******************************************************************************
 *  CALCULATION DONE:                                Sun Mar 24 02:19:49 2024  *
 *  PM7        - The PM7 Hamiltonian to be used
 *  SINGLET    - SPIN STATE DEFINED AS A SINGLET
 *
 *
 *
 *                 CHARGE ON SYSTEM = -1
 *
 *
 *
 *  EPS=78.4   - USE ANDREAS KLAMT'S COSMO IMPLICIT SOLVATION MODEL
 *  LET        - OVERRIDE SOME SAFETY CHECKS
 *  THREADS    - USE A MAXIMUM OF 30 THREADS
 *  T=         - A TIME OF 14.0 DAYS REQUESTED
 *  DUMP=N     - RESTART FILE WRITTEN EVERY 30.0 MINUTES REQUESTED
 *  RELSCF     - DEFAULT SCF CRITERION MULTIPLIED BY 1.0000
 *              (DEFAULT SCF CRITERION = 0.00010)
 *  ITRY=      - DO A MAXIMUM OF 15000 ITERATIONS FOR SCF
 *  AUX        - OUTPUT AUXILIARY INFORMATION
 *  ISOTOPE    - SAVE THE FORCE MATRIX FOR USE LATER
 *  BONDS      - FINAL BOND-ORDER MATRIX TO BE PRINTED
 *  LARGE      - EXPANDED OUTPUT TO BE PRINTED
 *  THERMO     - THERMODYNAMIC QUANTITIES TO BE CALCULATED
 *******************************************************************************
PM7 AUX LARGE THERMO(298,298) LET ISOTOPE BONDS DUMP=30M ITRY=15000 T=14D THREADS=30 CHARGE=-1 SINGLET eps=78.4 RELSCF=1
 Title: ASE calculation

   ATOM   CHEMICAL          X               Y               Z
  NUMBER   SYMBOL      (ANGSTROMS)     (ANGSTROMS)     (ANGSTROMS)

     1       C          0.11074488  *   1.08699691  *   0.93447072  *
     2       C          0.24184246  *   1.32304384  *  -0.42210820  *
     3       C          0.17433369  *   0.26954058  *  -1.35678943  *
     4       C          0.02121526  *  -1.04727202  *  -0.86739211  *
     5       C         -0.11033757  *  -1.29847407  *   0.48473775  *
     6       C         -0.08108680  *  -0.22643094  *   1.39205274  *
     7       H          0.15505114  *   1.91719090  *   1.64868299  *
     8       H          0.40317712  *   2.34776324  *  -0.76670332  *
     9       H         -0.01333116  *  -1.88479026  *  -1.56734652  *
    10       C          0.25474582  *   0.48662231  *  -2.77760063  *
    11       D          2.22074381  *   1.25416778  *  -2.92701163  *
    12       C          0.63707961  *  -0.64492232  *  -3.67675936  *
    13       H          0.96618405  *  -0.30373933  *  -4.67038010  *
    14       H         -0.20298346  *  -1.33528241  *  -3.84572941  *
    15       H          1.46778325  *  -1.23393683  *  -3.25961569  *
    16       N         -0.14560782  *   1.64113157  *  -3.36022978  *
    17       O         -0.15579168  *   1.76803408  *  -4.60846898  *
    18       O         -0.50713447  *   2.63304699  *  -2.68628480  *
    19       O          5.27971354  *   2.83812679  *  -3.03361545  *
    20       H          6.00007656  *   2.23211838  *  -2.83293154  *
    21       H         -0.24657886  *  -2.32261631  *   0.84726088  *
    22       N         -0.25033238  *  -0.47457828  *   2.78667255  *
    23       O         -0.37744215  *  -1.62827345  *   3.18876286  *
    24       O         -0.27340658  *   0.46888522  *   3.57296043  *
    25       H          3.37063192  *   0.52693758  *  -2.18525352  *
    26       H          4.48616784  *   2.28309658  *  -2.98874755  *
    27       O          3.21498461  *   1.12929153  *  -2.92490555  *


                                Isotopes Used

              Atom:   11  H  Default mass  1.0079,  mass used:  2.0140 amu


          CARTESIAN COORDINATES 

    NO.       ATOM           X           Y           Z

     1         C          0.1107      1.0870      0.9345
     2         C          0.2418      1.3230     -0.4221
     3         C          0.1743      0.2695     -1.3568
     4         C          0.0212     -1.0473     -0.8674
     5         C         -0.1103     -1.2985      0.4847
     6         C         -0.0811     -0.2264      1.3921
     7         H          0.1551      1.9172      1.6487
     8         H          0.4032      2.3478     -0.7667
     9         H         -0.0133     -1.8848     -1.5673
    10         C          0.2547      0.4866     -2.7776
    11         H          2.2207      1.2542     -2.9270
    12         C          0.6371     -0.6449     -3.6768
    13         H          0.9662     -0.3037     -4.6704
    14         H         -0.2030     -1.3353     -3.8457
    15         H          1.4678     -1.2339     -3.2596
    16         N         -0.1456      1.6411     -3.3602
    17         O         -0.1558      1.7680     -4.6085
    18         O         -0.5071      2.6330     -2.6863
    19         O          5.2797      2.8381     -3.0336
    20         H          6.0001      2.2321     -2.8329
    21         H         -0.2466     -2.3226      0.8473
    22         N         -0.2503     -0.4746      2.7867
    23         O         -0.3774     -1.6283      3.1888
    24         O         -0.2734      0.4689      3.5730
    25         H          3.3706      0.5269     -2.1853
    26         H          4.4862      2.2831     -2.9887
    27         O          3.2150      1.1293     -2.9249

 General Reference for PM7:
 "Optimization of Parameters for Semiempirical Methods VI: More Modifications to the 
 NDDO Approximations and Re-optimization of Parameters", J. J. P. Stewart, J. Mol. Mod., 1:32, 19 (2013)
 https://link.springer.com/article/10.1007/s00894-012-1667-x

           Empirical Formula: C8 H11 N2 O6  =    27 atoms



      MOLECULAR POINT GROUP   :   C1  


 SINGLET STATE CALCULATION


      RHF CALCULATION, NO. OF DOUBLY OCCUPIED LEVELS = 45

  SCF CRITERION =    0.1000E-03


          HEAT OF FORMATION =    -251.275453 KCALS/MOLE


          CARTESIAN COORDINATE DERIVATIVES

   NUMBER  ATOM         X            Y            Z

     1       C      0.066583    -0.018690     0.026276
     2       C     -0.059742    -0.098047     0.019357
     3       C     -0.110570     0.028787     0.023687
     4       C      0.014109    -0.189584     0.007226
     5       C     -0.068093    -0.004180     0.026339
     6       C     -0.077468     0.134100    -0.042523
     7       H     -0.045337    -0.063166     0.107173
     8       H      0.000848     0.058467    -0.052041
     9       H      0.084827     0.102932    -0.079070
    10       C      0.124059    -1.924018    -5.896663
    11       H     -2.302149     2.510211    23.352195
    12       C      0.105126    -0.021259     0.052348
    13       H     -0.050038     0.005196     0.114111
    14       H     -0.021811    -0.021584     0.001259
    15       H      0.014803     0.050653     0.023922
    16       N      0.090399    -0.135224     0.126230
    17       O      0.093924     0.102789     0.207062
    18       O     -0.195522     0.119336     0.032686
    19       O      0.137595     0.241307    -0.128283
    20       H      0.034682     0.391275    -0.170063
    21       H      0.048767    -0.000706     0.073251
    22       N      0.025262     0.038368     0.114223
    23       O     -0.037377     0.018214     0.168113
    24       O      0.085726     0.049408     0.306998
    25       H     -0.064887    -0.193794     0.001245
    26       H      0.000531     0.140342    -0.195542
    27       O      2.106354    -1.318997   -18.217640

 DIPOLE           X         Y         Z       TOTAL
 POINT-CHG.   -14.029     3.772    -2.731    14.782
 HYBRID        -0.824     0.143     0.472     0.961
 SUM          -14.854     3.915    -2.259    15.526


          GRADIENT NORM =  30.56708



 ** GRADIENT IS VERY LARGE, BUT SINCE "LET" IS USED, CALCULATION WILL CONTINUE


                              **** WARNING ****

           GRADIENT IS VERY LARGE FOR A THERMO CALCULATION
           RESULTS ARE LIKELY TO BE INACCURATE IF THERE ARE
           ANY LOW-LYING VIBRATIONS (LESS THAN ABOUT 400CM-1)
           GRADIENT NORM SHOULD BE LESS THAN ABOUT 1.0 FOR THERMO
           TO GIVE ACCURATE RESULTS


          TIME FOR SCF CALCULATION =    0.21

          TIME FOR DERIVATIVES     =    0.06

          MOLECULAR WEIGHT =  232.19



          ROTATIONAL CONSTANTS IN CM(-1)

          A =    0.02266116   B =    0.00787545   C =    0.00700895



           PRINCIPAL MOMENTS OF INERTIA IN UNITS OF 10**(-40)*GRAM-CM**2

          A =     1235.2747   B =     3554.4311   C =     3993.8567


          ORIENTATION OF MOLECULE IN FORCE CALCULATION

    NO.       ATOM         X         Y         Z

     1          C      -1.7798   -0.7671    0.4383
     2          C      -0.3966   -0.7671    0.4383
     3          C       0.3339    0.4389    0.4383
     4          C      -0.3853    1.6541    0.3848
     5          C      -1.7668    1.6698    0.3837
     6          C      -2.4709    0.4550    0.4259
     7          H      -2.3344   -1.7124    0.4487
     8          H       0.1315   -1.7242    0.4355
     9          H       0.1550    2.6029    0.3628
    10          C       1.7720    0.4748    0.4907
    11          H       2.2359   -0.4710   -1.3443
    12          C       2.4970    1.6995    0.0331
    13          H       3.5610    1.5087   -0.1758
    14          H       2.4653    2.4998    0.7877
    15          H       2.0661    2.1053   -0.8946
    16          N       2.5025   -0.5023    1.0775
    17          O       3.7475   -0.3993    1.1953
    18          O       1.9766   -1.5523    1.5130
    19          O       2.9007   -2.3460   -4.1585
    20          H       2.6687   -1.8719   -4.9635
    21          H      -2.3100    2.6201    0.3604
    22          N      -3.8971    0.4642    0.4593
    23          O      -4.5004    1.5330    0.4075
    24          O      -4.5094   -0.5971    0.5456
    25          H       1.4933   -0.0251   -2.6292
    26          H       2.6868   -1.7219   -3.4482
    27          O       2.3068   -0.4621   -2.3438


    FIRST DERIVATIVES WILL BE USED IN THE CALCULATION OF SECOND DERIVATIVES

          ESTIMATED TIME TO COMPLETE CALCULATION =       44.14 SECONDS

    FOR POINT-GROUP C1   THERE ARE   1 UNIQUE SYMMETRY FUNCTIONS.

 STEP:   1 TIME =     0.11 SECS, INTEGRAL =      0.11 TIME LEFT:1209599.62
 STEP:   2 TIME =     0.09 SECS, INTEGRAL =      0.20 TIME LEFT:1209599.53
 STEP:   3 TIME =     0.08 SECS, INTEGRAL =      0.28 TIME LEFT:1209599.45
 STEP:   4 TIME =     0.11 SECS, INTEGRAL =      0.39 TIME LEFT:1209599.34
 STEP:   5 TIME =     0.10 SECS, INTEGRAL =      0.49 TIME LEFT:1209599.24
 STEP:   6 TIME =     0.12 SECS, INTEGRAL =      0.61 TIME LEFT:1209599.12
 STEP:   7 TIME =     0.10 SECS, INTEGRAL =      0.71 TIME LEFT:1209599.02
 STEP:   8 TIME =     0.15 SECS, INTEGRAL =      0.86 TIME LEFT:1209598.87
 STEP:   9 TIME =     0.08 SECS, INTEGRAL =      0.94 TIME LEFT:1209598.79
 STEP:  10 TIME =     0.10 SECS, INTEGRAL =      1.04 TIME LEFT:1209598.69
 STEP:  11 TIME =     0.13 SECS, INTEGRAL =      1.17 TIME LEFT:1209598.56
 STEP:  12 TIME =     0.17 SECS, INTEGRAL =      1.34 TIME LEFT:1209598.39
 STEP:  13 TIME =     0.11 SECS, INTEGRAL =      1.45 TIME LEFT:1209598.28
 STEP:  14 TIME =     0.10 SECS, INTEGRAL =      1.56 TIME LEFT:1209598.17
 STEP:  15 TIME =     0.11 SECS, INTEGRAL =      1.66 TIME LEFT:1209598.07
 STEP:  16 TIME =     0.12 SECS, INTEGRAL =      1.78 TIME LEFT:1209597.95
 STEP:  17 TIME =     0.09 SECS, INTEGRAL =      1.87 TIME LEFT:1209597.86
 STEP:  18 TIME =     0.08 SECS, INTEGRAL =      1.95 TIME LEFT:1209597.78
 STEP:  19 TIME =     0.14 SECS, INTEGRAL =      2.09 TIME LEFT:1209597.64
 STEP:  20 TIME =     0.17 SECS, INTEGRAL =      2.26 TIME LEFT:1209597.47
 STEP:  21 TIME =     0.17 SECS, INTEGRAL =      2.43 TIME LEFT:1209597.30
 STEP:  22 TIME =     0.16 SECS, INTEGRAL =      2.59 TIME LEFT:1209597.14
 STEP:  23 TIME =     0.18 SECS, INTEGRAL =      2.78 TIME LEFT:1209596.95
 STEP:  24 TIME =     0.17 SECS, INTEGRAL =      2.94 TIME LEFT:1209596.79
 STEP:  25 TIME =     0.16 SECS, INTEGRAL =      3.10 TIME LEFT:1209596.63
 STEP:  26 TIME =     0.16 SECS, INTEGRAL =      3.26 TIME LEFT:1209596.46
 STEP:  27 TIME =     0.16 SECS, INTEGRAL =      3.42 TIME LEFT:1209596.30
 STEP:  28 TIME =     0.20 SECS, INTEGRAL =      3.62 TIME LEFT:1209596.11
 STEP:  29 TIME =     0.17 SECS, INTEGRAL =      3.79 TIME LEFT:1209595.93
 STEP:  30 TIME =     0.17 SECS, INTEGRAL =      3.97 TIME LEFT:1209595.76
 STEP:  31 TIME =     0.18 SECS, INTEGRAL =      4.14 TIME LEFT:1209595.58
 STEP:  32 TIME =     0.14 SECS, INTEGRAL =      4.29 TIME LEFT:1209595.44
 STEP:  33 TIME =     0.10 SECS, INTEGRAL =      4.38 TIME LEFT:1209595.34
 STEP:  34 TIME =     0.08 SECS, INTEGRAL =      4.47 TIME LEFT:1209595.26
 STEP:  35 TIME =     0.12 SECS, INTEGRAL =      4.59 TIME LEFT:1209595.14
 STEP:  36 TIME =     0.08 SECS, INTEGRAL =      4.67 TIME LEFT:1209595.05
 STEP:  37 TIME =     0.14 SECS, INTEGRAL =      4.81 TIME LEFT:1209594.92
 STEP:  38 TIME =     0.08 SECS, INTEGRAL =      4.89 TIME LEFT:1209594.83
 STEP:  39 TIME =     0.08 SECS, INTEGRAL =      4.98 TIME LEFT:1209594.75
 STEP:  40 TIME =     0.08 SECS, INTEGRAL =      5.06 TIME LEFT:1209594.67
 STEP:  41 TIME =     0.08 SECS, INTEGRAL =      5.14 TIME LEFT:1209594.59
 STEP:  42 TIME =     0.08 SECS, INTEGRAL =      5.23 TIME LEFT:1209594.50
 STEP:  43 TIME =     0.08 SECS, INTEGRAL =      5.31 TIME LEFT:1209594.42
 STEP:  44 TIME =     0.09 SECS, INTEGRAL =      5.40 TIME LEFT:1209594.33
 STEP:  45 TIME =     0.08 SECS, INTEGRAL =      5.48 TIME LEFT:1209594.25
 STEP:  46 TIME =     0.08 SECS, INTEGRAL =      5.56 TIME LEFT:1209594.17
 STEP:  47 TIME =     0.09 SECS, INTEGRAL =      5.65 TIME LEFT:1209594.08
 STEP:  48 TIME =     0.09 SECS, INTEGRAL =      5.74 TIME LEFT:1209593.99
 STEP:  49 TIME =     0.10 SECS, INTEGRAL =      5.84 TIME LEFT:1209593.89
 STEP:  50 TIME =     0.08 SECS, INTEGRAL =      5.92 TIME LEFT:1209593.81
 STEP:  51 TIME =     0.08 SECS, INTEGRAL =      6.00 TIME LEFT:1209593.73
 STEP:  52 TIME =     0.08 SECS, INTEGRAL =      6.08 TIME LEFT:1209593.64
 STEP:  53 TIME =     0.09 SECS, INTEGRAL =      6.18 TIME LEFT:1209593.55
 STEP:  54 TIME =     0.09 SECS, INTEGRAL =      6.27 TIME LEFT:1209593.46
 STEP:  55 TIME =     0.09 SECS, INTEGRAL =      6.35 TIME LEFT:1209593.37
 STEP:  56 TIME =     0.09 SECS, INTEGRAL =      6.44 TIME LEFT:1209593.28
 STEP:  57 TIME =     0.10 SECS, INTEGRAL =      6.54 TIME LEFT:1209593.18
 STEP:  58 TIME =     0.08 SECS, INTEGRAL =      6.63 TIME LEFT:1209593.10
 STEP:  59 TIME =     0.08 SECS, INTEGRAL =      6.71 TIME LEFT:1209593.02
 STEP:  60 TIME =     0.12 SECS, INTEGRAL =      6.83 TIME LEFT:1209592.90
 STEP:  61 TIME =     0.08 SECS, INTEGRAL =      6.91 TIME LEFT:1209592.82
 STEP:  62 TIME =     0.08 SECS, INTEGRAL =      6.99 TIME LEFT:1209592.74
 STEP:  63 TIME =     0.09 SECS, INTEGRAL =      7.08 TIME LEFT:1209592.65
 STEP:  64 TIME =     0.08 SECS, INTEGRAL =      7.16 TIME LEFT:1209592.57
 STEP:  65 TIME =     0.09 SECS, INTEGRAL =      7.25 TIME LEFT:1209592.48
 STEP:  66 TIME =     0.08 SECS, INTEGRAL =      7.33 TIME LEFT:1209592.40
 STEP:  67 TIME =     0.08 SECS, INTEGRAL =      7.41 TIME LEFT:1209592.32
 STEP:  68 TIME =     0.08 SECS, INTEGRAL =      7.49 TIME LEFT:1209592.24
 STEP:  69 TIME =     0.08 SECS, INTEGRAL =      7.57 TIME LEFT:1209592.16
 STEP:  70 TIME =     0.08 SECS, INTEGRAL =      7.65 TIME LEFT:1209592.08
 STEP:  71 TIME =     0.08 SECS, INTEGRAL =      7.73 TIME LEFT:1209592.00
 STEP:  72 TIME =     0.11 SECS, INTEGRAL =      7.84 TIME LEFT:1209591.89
 STEP:  73 TIME =     0.08 SECS, INTEGRAL =      7.92 TIME LEFT:1209591.81
 STEP:  74 TIME =     0.08 SECS, INTEGRAL =      8.00 TIME LEFT:1209591.73
 STEP:  75 TIME =     0.10 SECS, INTEGRAL =      8.09 TIME LEFT:1209591.63
 STEP:  76 TIME =     0.15 SECS, INTEGRAL =      8.24 TIME LEFT:1209591.49
 STEP:  77 TIME =     0.11 SECS, INTEGRAL =      8.35 TIME LEFT:1209591.38
 STEP:  78 TIME =     0.14 SECS, INTEGRAL =      8.49 TIME LEFT:1209591.24
 STEP:  79 TIME =     0.08 SECS, INTEGRAL =      8.57 TIME LEFT:1209591.16
 STEP:  80 TIME =     0.08 SECS, INTEGRAL =      8.65 TIME LEFT:1209591.07
 STEP:  81 TIME =     0.09 SECS, INTEGRAL =      8.74 TIME LEFT:1209590.99

(To convert to Hartree/Bohr^2, multiply by (10^(-21) x N x a0^2)/(4.184 x 627.51) =  0.0642)


           FORCE MATRIX IN MILLIDYNES/ANGSTROM


                  C  1       C  2       C  3       C  4       C  5       C  6
 ------------------------------------------------------------------------------
     C    1  15.030736
     C    2   6.356442  14.776712
     C    3   2.023513   5.213844  15.536051
     C    4   1.032896   1.647156   5.034816  14.804375
     C    5   1.681703   0.973302   2.020353   6.444997  15.125800
     C    6   5.435897   1.910802   1.112375   1.891207   5.468208  15.780443
     H    7   3.377403   0.721563   0.107510   0.020964   0.071354   0.730351
     H    8   0.808004   3.325725   0.743959   0.079842   0.016974   0.089234
     H    9   0.017758   0.079760   0.744895   3.370369   0.808084   0.089915
     C   10   0.295721   1.070533   4.235343   1.297891   0.304335   0.337585
     H   11   0.026971   0.043291   0.130967   0.042913   0.026196   0.037363
     C   12   0.017168   0.056466   0.668037   0.097162   0.010327   0.019612
     H   13   0.004164   0.007867   0.049229   0.010007   0.004097   0.005492
     H   14   0.005036   0.010804   0.024160   0.016655   0.007390   0.009526
     H   15   0.005449   0.012704   0.037103   0.015759   0.008011   0.010747
     N   16   0.277060   0.417363   2.069758   0.454990   0.267174   0.341367
     O   17   0.109314   0.172437   0.478091   0.174201   0.090865   0.132705
     O   18   0.100739   0.178329   0.484754   0.166487   0.099629   0.126246
     O   19   0.002327   0.002162   0.005982   0.002417   0.002073   0.002529
     H   20   0.000949   0.001807   0.003047   0.001622   0.001077   0.001433
     H   21   0.075454   0.022349   0.109507   0.728489   3.370939   0.738136
     N   22   1.448491   0.368889   0.347266   0.370085   1.387552   3.231814
     O   23   0.162635   0.109263   0.107738   0.079604   0.165225   1.600271
     O   24   0.132160   0.080396   0.106277   0.108064   0.158862   1.566646
     H   25   0.011054   0.015954   0.026193   0.012738   0.007932   0.012561
     H   26   0.003928   0.005993   0.013160   0.005106   0.003042   0.004682
     O   27   0.022544   0.037415   0.073087   0.033621   0.020230   0.028767


                  H  7       H  8       H  9       C 10       H 11       C 12
 ------------------------------------------------------------------------------
     H    7   4.264117
     H    8   0.036044   4.271763
     H    9   0.008861   0.009317   4.325274
     C   10   0.026904   0.053890   0.046341  15.472241
     H   11   0.004148   0.099451   0.005120   0.127371   4.017498
     C   12   0.003934   0.008166   0.048559   3.615359   0.041516  11.438647
     H   13   0.000798   0.001911   0.003004   0.697437   0.024464   3.341166
     H   14   0.000946   0.001361   0.028327   0.735044   0.008726   3.334754
     H   15   0.001477   0.001899   0.028724   0.695408   0.025546   3.357526
     N   16   0.031712   0.143479   0.044150   5.490598   0.342286   0.896945
     O   17   0.013259   0.026868   0.021671   2.081410   0.079639   0.134387
     O   18   0.012248   0.104204   0.017324   1.887265   0.090869   0.137431
     O   19   0.001026   0.026656   0.000642   0.018523   0.042602   0.002733
     H   20   0.000294   0.005994   0.000523   0.006681   0.015905   0.001372
     H   21   0.007345   0.008959   0.040208   0.023033   0.003188   0.004032
     N   22   0.099260   0.039743   0.035789   0.308398   0.038204   0.023235
     O   23   0.024589   0.011025   0.011681   0.091276   0.011441   0.006930
     O   24   0.042189   0.012835   0.010446   0.090467   0.010809   0.008583
     H   25   0.001733   0.013026   0.002199   0.063300   0.770314   0.023273
     H   26   0.001039   0.044049   0.000691   0.037798   0.120214   0.003934
     O   27   0.003462   0.087371   0.003721   0.267981   3.509055   0.048914


                  H 13       H 14       H 15       N 16       O 17       O 18
 ------------------------------------------------------------------------------
     H   13   4.167394
     H   14   0.461323   4.157559
     H   15   0.457913   0.461315   4.176872
     N   16   0.126361   0.052652   0.082487  18.806544
     O   17   0.054850   0.021471   0.022184   7.621319  10.386407
     O   18   0.038520   0.024887   0.024248   7.545755   2.286730  10.148841
     O   19   0.001772   0.001716   0.001707   0.039128   0.005054   0.013600
     H   20   0.000676   0.000384   0.000866   0.010467   0.002108   0.002297
     H   21   0.000700   0.002212   0.002207   0.024034   0.010255   0.009354
     N   22   0.005690   0.010926   0.012667   0.317994   0.129932   0.121148
     O   23   0.001276   0.003924   0.004059   0.093724   0.037354   0.035189
     O   24   0.002082   0.003037   0.003845   0.093713   0.039051   0.034959
     H   25   0.008860   0.003634   0.017178   0.065349   0.023869   0.024527
     H   26   0.003409   0.001758   0.003595   0.066602   0.009887   0.012441
     O   27   0.021065   0.007438   0.025907   0.177086   0.061540   0.071648


                  O 19       H 20       H 21       N 22       O 23       O 24
 ------------------------------------------------------------------------------
     O   19   8.302150
     H   20   4.016789   4.422474
     H   21   0.006731   0.004979   4.250700
     N   22   0.003708   0.001982   0.136245  18.691950
     O   23   0.001711   0.000764   0.073424   8.976175  11.831661
     O   24   0.001866   0.000665   0.028933   8.928684   2.611757  11.805079
     H   25   0.308513   0.217645   0.002396   0.014095   0.004529   0.004841
     H   26   3.689291   0.709960   0.001533   0.005725   0.002236   0.002309
     O   27   2.849690   0.075615   0.003477   0.030608   0.009657   0.008622


                  H 25       H 26       O 27
 ------------------------------------------
     H   25   4.269986
     H   26   0.157232   4.082714
     O   27   3.889591   0.197457   7.782816


          HEAT OF FORMATION =    -251.275453 KCALS/MOLE


          TRIVIAL VIBRATIONS, SHOULD BE ZERO

  45.6207=TX -36.9542=TY  48.8691=TZ -16.1998=RX -48.0803=RY   6.7295=RZ


      MOLECULAR POINT GROUP   :   C1  


           EIGENVECTORS  


   Root No.       1         2         3         4         5         6         7         8

                 1 A       2 A       3 A       4 A       5 A       6 A       7 A       8 A   

                  -0.1      -0.0      -0.0      -0.0      -0.0      -0.0       0.0       0.0
  
           1    0.0156    0.0254    0.0174    0.0651    0.0615   -0.0524   -0.0185    0.0053
           2   -0.0147    0.0238   -0.0057   -0.0106   -0.0103    0.0210    0.0311    0.0127
           3   -0.0781   -0.1791    0.0107   -0.0290   -0.1056    0.0096    0.0558   -0.0247
           4    0.0160    0.0253    0.0165    0.0645    0.0612   -0.0524   -0.0178    0.0048
           5   -0.0043    0.0423    0.0031    0.0129    0.0032    0.0202    0.0162    0.0206
           6   -0.1661   -0.2192    0.1658    0.0328   -0.1030   -0.0261    0.0464   -0.0473
           7   -0.0009   -0.0029    0.0140    0.0440    0.0520   -0.0521   -0.0024    0.0016
           8    0.0042    0.0578    0.0066    0.0265    0.0095    0.0196    0.0071    0.0238
           9   -0.0887    0.0059    0.1982    0.0492   -0.0489   -0.0096    0.0225   -0.0643
          10   -0.0066   -0.0069    0.0108    0.0256    0.0357   -0.0531    0.0054   -0.0142
          11    0.0031    0.0601    0.0050    0.0127    0.0037    0.0219    0.0150    0.0184
          12   -0.0058    0.2419    0.2862   -0.0001   -0.0230    0.0559    0.0696   -0.0569
          13   -0.0065   -0.0079    0.0093    0.0250    0.0366   -0.0531    0.0061   -0.0131
          14   -0.0090    0.0374   -0.0051   -0.0117   -0.0097    0.0227    0.0301    0.0111
          15    0.0313    0.1771    0.0966   -0.0741   -0.0199    0.0797    0.0782   -0.0213
          16    0.0083    0.0144    0.0105    0.0437    0.0487   -0.0528   -0.0069   -0.0058
          17   -0.0183    0.0195   -0.0094   -0.0225   -0.0177    0.0218    0.0373    0.0069
          18    0.0062   -0.0057   -0.0560   -0.0816   -0.0558    0.0538    0.0545   -0.0092
          19    0.0224    0.0352    0.0201    0.0787    0.0704   -0.0519   -0.0279    0.0122
          20   -0.0187    0.0172   -0.0079   -0.0188   -0.0158    0.0209    0.0367    0.0086
          21   -0.0696   -0.2474   -0.0608   -0.0368   -0.1228    0.0042    0.0536   -0.0124
          22    0.0306    0.0530    0.0206    0.0830    0.0665   -0.0530   -0.0317    0.0040
          23    0.0044    0.0587    0.0050    0.0233    0.0061    0.0200    0.0084    0.0200
          24   -0.2647   -0.3710    0.2263    0.0436   -0.1141   -0.0446    0.0552   -0.0293
          25   -0.0096   -0.0088    0.0057    0.0115    0.0210   -0.0553    0.0079   -0.0204
          26    0.0055    0.0639    0.0101    0.0206    0.0129    0.0242    0.0144    0.0218
          27    0.0283    0.3800    0.3867    0.0088    0.0043    0.0792    0.0768   -0.0526
          28   -0.0009    0.0027    0.0208    0.0406    0.0485   -0.0498    0.0014   -0.0041
          29    0.0125    0.0549    0.0041    0.0507    0.0355    0.0206    0.0052    0.0493
          30   -0.0593   -0.0034    0.0552    0.0883    0.0080   -0.0359   -0.0495   -0.0397
          31    0.1640    0.0111   -0.1248   -0.1273   -0.0825    0.2393   -0.3052   -0.1629
          32   -0.2437   -0.1606    0.1804   -0.3070    0.1001   -0.0902   -0.2806   -0.1182
          33    0.0348    0.0364   -0.0601    0.1909   -0.0314    0.0519    0.0287    0.0358
          34    0.0059   -0.0043   -0.0351    0.0351    0.0227   -0.0750   -0.0504    0.0076
          35    0.0093    0.0242    0.0095    0.0252    0.1107    0.0467    0.0519    0.0968
          36   -0.0514   -0.0867   -0.0218    0.0171    0.1696   -0.0069   -0.0054    0.1041
          37    0.0029   -0.0200   -0.0595    0.0295    0.1003   -0.0559    0.0111   -0.0804
          38   -0.0017   -0.0054    0.0123    0.0067    0.2477    0.0955    0.1719    0.0055
          39   -0.0590   -0.1364   -0.1489    0.0057    0.4451    0.0495    0.2075   -0.2678
          40    0.0214    0.0466    0.0535    0.0530   -0.2698   -0.1482   -0.2883    0.3364
          41    0.0014    0.0566    0.0036    0.0634    0.1221    0.0505    0.1021   -0.1184
          42   -0.0408   -0.1197   -0.0121   -0.0232    0.1448   -0.0131   -0.0671    0.3444
          43    0.0024   -0.0520   -0.1458    0.0197    0.2058   -0.0503    0.0675   -0.1994
          44    0.0253   -0.0119    0.0209   -0.0228    0.0347    0.0230   -0.0684    0.4166
          45   -0.0401   -0.0818    0.0345    0.0039    0.0499   -0.0287   -0.1123    0.3422
          46   -0.0238   -0.0189    0.0860    0.0429    0.0541   -0.0348    0.0424    0.0215
          47    0.0353    0.0677   -0.0123    0.0821   -0.0069    0.0147   -0.0104    0.0285
          48    0.0025    0.0260   -0.0541    0.1377   -0.0650   -0.0655   -0.1229   -0.0908
          49   -0.0314   -0.0103    0.1088    0.0369    0.0391   -0.0364    0.0401   -0.0066
          50    0.0518    0.0229   -0.0416    0.1170    0.0466    0.0295    0.0259    0.1538
          51    0.0707   -0.0100   -0.2493    0.1791    0.0587   -0.0599   -0.1211    0.0925
          52   -0.0359   -0.0584    0.1270    0.0546    0.0799   -0.0191    0.0864    0.0850
          53    0.0288    0.1199    0.0140    0.0810   -0.0987   -0.0124   -0.0614   -0.1011
          54   -0.0235    0.1194    0.0454    0.1434   -0.2657   -0.1085   -0.2013   -0.3412
          55   -0.2185    0.1710   -0.1828   -0.2926   -0.2654   -0.0836    0.2330    0.0409
          56   -0.1062   -0.0134   -0.1459    0.0958   -0.1613   -0.1096   -0.0200   -0.0978
          57    0.1109    0.0657    0.0593   -0.2567    0.1339   -0.1686   -0.0990    0.0194
          58    0.2391   -0.0875    0.0404   -0.2388   -0.2762   -0.2202    0.4746    0.0521
          59   -0.1650   -0.1327   -0.1160    0.3702   -0.2217    0.0447    0.1064   -0.0581
          60    0.0025    0.0565    0.0198   -0.1250    0.0896   -0.0374   -0.0869    0.0360
          61   -0.0166   -0.0263    0.0049    0.0120    0.0270   -0.0528    0.0155   -0.0193
          62   -0.0136    0.0297   -0.0076   -0.0209   -0.0146    0.0242    0.0366    0.0082
          63    0.0754    0.2596    0.0620   -0.1201    0.0111    0.1160    0.0949    0.0000
          64    0.0081    0.0110    0.0051    0.0422    0.0493   -0.0518   -0.0076   -0.0037
          65   -0.0310   -0.0071   -0.0185   -0.0444   -0.0325    0.0201    0.0550   -0.0048
          66    0.0416   -0.0128   -0.2208   -0.1293   -0.0370    0.0641    0.0327    0.0165
          67   -0.0035   -0.0079    0.0073    0.0280    0.0368   -0.0540    0.0081   -0.0143
          68   -0.0369   -0.0164   -0.0224   -0.0563   -0.0385    0.0201    0.0653   -0.0084
          69    0.0656    0.0197   -0.3549   -0.2330   -0.0288    0.0978    0.0664    0.0590
          70    0.0207    0.0306    0.0011    0.0551    0.0601   -0.0489   -0.0242    0.0055
          71   -0.0389   -0.0204   -0.0115   -0.0439   -0.0376    0.0152    0.0596   -0.0126
          72    0.0339   -0.0483   -0.1896   -0.0499   -0.0268    0.0334   -0.0240   -0.0080
          73    0.1442   -0.2083    0.1243    0.0297   -0.1070    0.5869   -0.0216    0.0057
          74    0.5757   -0.3682    0.2126   -0.1055   -0.1057   -0.0346    0.0120   -0.1046
          75    0.3592    0.0784   -0.1940    0.1584   -0.0947   -0.1336   -0.0425   -0.0650
          76   -0.3099    0.1097   -0.1249   -0.1867   -0.1476    0.1865    0.0229    0.0229
          77   -0.0782    0.0201   -0.0993   -0.0539   -0.0380   -0.1825   -0.1538   -0.1256
          78    0.0667    0.0207    0.0318   -0.1007    0.0597   -0.0231   -0.0484    0.0373
          79   -0.0373   -0.0156   -0.0310   -0.0750   -0.0289    0.4442   -0.2198   -0.0611
          80    0.0227   -0.0405    0.0160   -0.2697    0.0763   -0.1678   -0.2936   -0.1529
          81    0.0174    0.0340   -0.0559    0.2007   -0.0320    0.0665    0.0375    0.0434


   Root No.       9        10        11        12        13        14        15        16

                 9 A      10 A      11 A      12 A      13 A      14 A      15 A      16 A   

                   0.0       0.0       0.1       0.1       0.1       0.1       0.1       0.1
  
           1    0.0273    0.0103   -0.0337    0.0095    0.0013   -0.0280   -0.0060    0.0127
           2    0.0092    0.0033   -0.0245   -0.0118   -0.0184   -0.0624   -0.0186   -0.0577
           3   -0.0639   -0.0317    0.0259   -0.0269   -0.1562   -0.1657   -0.0685    0.2173
           4    0.0251    0.0092   -0.0301    0.0099    0.0035   -0.0172   -0.0056    0.0190
           5    0.0322    0.0243   -0.0687   -0.0140   -0.0293   -0.1250   -0.0237   -0.0821
           6   -0.0026   -0.1042    0.0204   -0.0277   -0.0873   -0.0442    0.0203   -0.1305
           7    0.0065   -0.0111   -0.0001    0.0099    0.0110    0.0157    0.0051    0.0184
           8    0.0442    0.0365   -0.0897   -0.0149   -0.0358   -0.1507   -0.0289   -0.0846
           9    0.0105   -0.0295   -0.0189   -0.0203   -0.0274    0.0147   -0.1232   -0.1361
          10   -0.0090   -0.0211    0.0292    0.0126    0.0212    0.0626    0.0052    0.0385
          11    0.0311    0.0293   -0.0647   -0.0120   -0.0297   -0.1197   -0.0283   -0.0708
          12   -0.0369    0.0011    0.0502    0.0035   -0.0605   -0.0270   -0.1571   -0.0461
          13   -0.0123   -0.0231    0.0355    0.0127    0.0227    0.0758    0.0063    0.0458
          14    0.0103    0.0074   -0.0217   -0.0096   -0.0171   -0.0590   -0.0100   -0.0530
          15   -0.0016    0.0155    0.0772    0.0308   -0.0525   -0.0905    0.2225    0.0628
          16    0.0074   -0.0026    0.0015    0.0125    0.0132    0.0263    0.0044    0.0362
          17    0.0002   -0.0041   -0.0056   -0.0103   -0.0122   -0.0327   -0.0131   -0.0467
          18   -0.0126    0.0320    0.0240    0.0059   -0.0546   -0.0847    0.0552    0.1178
          19    0.0432    0.0239   -0.0639    0.0077   -0.0072   -0.0758   -0.0146   -0.0062
          20   -0.0008   -0.0044   -0.0066   -0.0110   -0.0147   -0.0356   -0.0153   -0.0441
          21   -0.1124   -0.0290    0.0322   -0.0435   -0.2507   -0.2768   -0.1948    0.5076
          22    0.0406    0.0275   -0.0560    0.0104   -0.0027   -0.0338   -0.0171    0.0245
          23    0.0405    0.0349   -0.0832   -0.0135   -0.0330   -0.1343   -0.0312   -0.0785
          24    0.0394   -0.1794    0.0507   -0.0138   -0.0579    0.0199    0.1983   -0.3768
          25   -0.0203   -0.0284    0.0582    0.0168    0.0283    0.0938    0.0060    0.0515
          26    0.0363    0.0338   -0.0802   -0.0139   -0.0341   -0.1363   -0.0340   -0.0789
          27   -0.0745    0.0170    0.0831    0.0114   -0.0792    0.0084   -0.3713   -0.0676
          28    0.0063   -0.0112   -0.0039    0.0094    0.0116    0.0108    0.0040    0.0186
          29    0.0356    0.0230   -0.0472   -0.0112   -0.0259   -0.0692   -0.0158   -0.0481
          30    0.0574    0.0369   -0.0241    0.0120   -0.0101    0.0371   -0.1069   -0.1198
          31   -0.1716   -0.1558    0.0711   -0.3887   -0.2933    0.0444    0.0995   -0.2120
          32    0.1251    0.1221    0.1310   -0.0530    0.0956    0.0016    0.0950   -0.0814
          33   -0.0238   -0.0675   -0.0175   -0.0372    0.1937   -0.0337   -0.0623    0.0692
          34    0.0453    0.0426   -0.0485    0.0310   -0.0116   -0.1533    0.0186   -0.0375
          35   -0.0080   -0.0077   -0.0530   -0.0392   -0.0372    0.0396    0.0127    0.0232
          36    0.0071    0.0470   -0.1186   -0.0254   -0.0841    0.0549   -0.0142   -0.0196
          37    0.0369    0.0371   -0.0529    0.0319   -0.0200   -0.1491    0.0298   -0.0305
          38   -0.0599   -0.0577   -0.0519   -0.0732   -0.0423    0.2027    0.0352    0.1081
          39    0.0058    0.0597   -0.1407    0.0043   -0.1213   -0.0297    0.0209   -0.0379
          40    0.0844    0.0712   -0.0450    0.0327    0.0034   -0.2248   -0.0118   -0.0998
          41    0.0197   -0.0072    0.0130   -0.0033    0.0037   -0.0219   -0.0533   -0.0623
          42   -0.0207    0.0477   -0.1946   -0.0639   -0.1308    0.1244    0.0591    0.0731
          43    0.0551    0.0728   -0.0888    0.0560   -0.0456   -0.2815    0.0617   -0.0571
          44   -0.0218    0.0144   -0.1534   -0.0747   -0.0945    0.0553    0.0980    0.0995
          45   -0.0028    0.0430   -0.1483   -0.0508   -0.0969    0.1200    0.0070    0.0220
          46   -0.0292   -0.0731    0.0330   -0.0151    0.0431    0.1017   -0.0083    0.0122
          47    0.0464    0.0170    0.0357    0.0351   -0.0523    0.0468    0.0425    0.0088
          48    0.1170    0.0976    0.0713    0.1223   -0.0865    0.1049    0.0136   -0.0182
          49   -0.0226   -0.0734   -0.0350   -0.0469    0.0542    0.1109   -0.0068    0.0201
          50   -0.0120   -0.0478    0.3498    0.1337   -0.0772    0.1302    0.0384   -0.0277
          51    0.0818    0.1288    0.5365    0.3493   -0.1867   -0.0218   -0.0111   -0.0894
          52   -0.0786   -0.1490    0.1539   -0.0161    0.0551    0.1808   -0.0199   -0.0264
          53    0.1159    0.0711   -0.1734    0.0020   -0.0468    0.1134    0.1122    0.1150
          54    0.2358    0.1574   -0.3101    0.0427   -0.0681    0.3355    0.1640    0.1926
          55   -0.1909   -0.1541   -0.1574    0.2975   -0.0553    0.0133    0.0275   -0.0705
          56   -0.1162   -0.1006   -0.0142    0.0867    0.0625   -0.0242   -0.0536    0.0472
          57   -0.0049   -0.0231    0.0541   -0.0387    0.2206   -0.0553   -0.0612    0.1068
          58    0.1865    0.3757    0.1685   -0.3561   -0.0584    0.0312   -0.0345   -0.0185
          59    0.0298    0.0453    0.1176   -0.2570    0.3681   -0.1089    0.1230    0.0310
          60   -0.0422   -0.1081    0.0196   -0.0257    0.3790   -0.1028    0.0532    0.0737
          61   -0.0305   -0.0376    0.0634    0.0129    0.0335    0.1253    0.0096    0.0575
          62    0.0026   -0.0025   -0.0039   -0.0082   -0.0118   -0.0338    0.0047   -0.0450
          63    0.0331    0.0189    0.1384    0.0726   -0.0444   -0.1377    0.6508    0.1024
          64    0.0091   -0.0034    0.0021    0.0118    0.0148    0.0310    0.0012    0.0320
          65   -0.0454   -0.0285    0.0611   -0.0097    0.0088    0.1259    0.0005    0.0460
          66    0.0315    0.1090   -0.0323    0.0166    0.0772    0.0745   -0.0573   -0.0774
          67   -0.0266   -0.0336    0.0622    0.0107    0.0247    0.1666    0.0201    0.1342
          68   -0.0401   -0.0648    0.0962   -0.0121    0.0145    0.2083    0.0048    0.1030
          69    0.5851   -0.2715   -0.0350   -0.0156    0.0938    0.1576   -0.2210   -0.1515
          70    0.0422    0.0322   -0.0613    0.0134    0.0101   -0.0979   -0.0237   -0.0777
          71   -0.1075   -0.0133    0.0934   -0.0075    0.0209    0.2093    0.0169    0.0968
          72   -0.4786    0.5493   -0.0893    0.0550    0.1948    0.1637   -0.0459   -0.2679
          73    0.0933    0.1121   -0.0352    0.1896    0.1201   -0.0056   -0.0727    0.0848
          74   -0.0653   -0.1353   -0.1508    0.4130    0.0604    0.0006    0.0247   -0.0449
          75   -0.2742   -0.3527   -0.0526   -0.2588   -0.0919   -0.0040    0.0360   -0.1348
          76   -0.1340   -0.1251   -0.0767    0.1886    0.0293   -0.0153    0.0073   -0.0407
          77   -0.0684   -0.0066    0.0582    0.0644   -0.0706    0.0118   -0.2107    0.1378
          78   -0.0396   -0.1085    0.0159   -0.0525    0.3692   -0.0982    0.0691    0.0445
          79    0.0165    0.0879    0.1101   -0.1647   -0.0071   -0.0079   -0.0852    0.0709
          80   -0.0337    0.0180    0.1365   -0.0747    0.0485   -0.0320   -0.0723    0.0895
          81   -0.0131   -0.0556   -0.0176   -0.0254    0.2186   -0.0434   -0.0750    0.0840


   Root No.      17        18        19        20        21        22        23        24

                17 A      18 A      19 A      20 A      21 A      22 A      23 A      24 A   

                   0.2       0.2       0.3       0.3       0.4       0.4       0.5       0.5
  
           1   -0.0084    0.0402    0.1183   -0.0363   -0.0218    0.0031   -0.0654    0.0102
           2    0.0162    0.1342   -0.0958    0.0531    0.0142    0.0047   -0.0288   -0.0014
           3   -0.0445    0.0236    0.0291    0.0645   -0.0020    0.0054    0.0762    0.2092
           4   -0.0098    0.0243    0.1171   -0.0347   -0.0178    0.0024   -0.0483    0.0052
           5    0.0210    0.0314    0.0441    0.0514   -0.0144    0.0124   -0.1265    0.0212
           6    0.0969    0.0069    0.0506    0.0160   -0.1292   -0.0106    0.0846    0.1921
           7   -0.0049    0.0377    0.0261   -0.0231   -0.0104   -0.0002    0.0236    0.0013
           8    0.0198    0.0077    0.0986    0.0460   -0.0212    0.0134   -0.1503    0.0249
           9    0.0624    0.0297    0.1303    0.2112   -0.0107    0.0071    0.1458    0.1532
          10   -0.0120    0.1185   -0.0130   -0.0498   -0.0011   -0.0052    0.0284    0.0096
          11    0.0129    0.0565    0.0596    0.0358   -0.0147    0.0120   -0.1606    0.0257
          12   -0.0722   -0.0264    0.0040    0.0345   -0.0122    0.0020    0.0877    0.2111
          13   -0.0135    0.1149   -0.0069   -0.0546   -0.0014   -0.0062    0.0386    0.0052
          14    0.0164    0.1569   -0.0797    0.0395    0.0129    0.0042   -0.0575    0.0021
          15    0.0676    0.0153    0.0409    0.0706    0.0089    0.0057    0.0861    0.2292
          16   -0.0121    0.1010    0.0725   -0.0627   -0.0125   -0.0026   -0.0347    0.0146
          17    0.0145    0.1715   -0.1280    0.0442    0.0204    0.0021   -0.0121    0.0022
          18    0.0180    0.0229    0.0531    0.1301    0.0242    0.0109    0.1439    0.3862
          19   -0.0073   -0.0334    0.2434   -0.0490   -0.0525    0.0099   -0.1773    0.0166
          20    0.0141    0.1797   -0.1650    0.0607    0.0318    0.0015    0.0226   -0.0106
          21   -0.1955    0.0305   -0.0410   -0.0335    0.1026    0.0106   -0.1145   -0.3743
          22   -0.0134   -0.0283    0.2344    0.0163   -0.0273    0.0210   -0.2462    0.0426
          23    0.0188    0.0051    0.1049    0.0861   -0.0187    0.0238   -0.2427    0.0437
          24    0.1484   -0.0529   -0.0647   -0.3594   -0.2534   -0.0367   -0.1047   -0.1423
          25   -0.0202    0.1933   -0.1221   -0.0830    0.0200   -0.0185    0.1550   -0.0121
          26    0.0129    0.0176    0.1164    0.0458   -0.0276    0.0193   -0.2455    0.0292
          27   -0.2724   -0.1326   -0.1813   -0.3050   -0.0478   -0.0157   -0.1090   -0.1689
          28   -0.0077    0.0325    0.0206   -0.0344   -0.0113   -0.0012    0.0375    0.0190
          29    0.0162   -0.0793    0.0781   -0.0055    0.0054   -0.0110    0.1957   -0.0887
          30    0.0728    0.0596    0.2083    0.2758    0.0804    0.0151    0.1431   -0.2345
          31   -0.1695    0.0037    0.0371    0.0299    0.0722   -0.0231    0.0056   -0.0021
          32   -0.1715   -0.0189    0.0512   -0.1412    0.6437   -0.1045   -0.0571    0.0888
          33    0.2288   -0.0362   -0.0232   -0.1545    0.3107   -0.0887   -0.0457    0.0588
          34   -0.0121   -0.1350   -0.0569   -0.0211   -0.0043   -0.0060    0.0507    0.0139
          35   -0.0063   -0.0136    0.0465   -0.0703   -0.0144   -0.0147    0.1790   -0.0474
          36    0.0034    0.0084    0.0453    0.1277    0.0201    0.0063    0.0437   -0.1250
          37   -0.0247   -0.1483   -0.0864   -0.0431   -0.0077   -0.0076    0.0466    0.0398
          38   -0.0341    0.1781    0.0861   -0.1908   -0.0515   -0.0148    0.1159    0.0697
          39   -0.0366   -0.1304   -0.0858    0.1069    0.0171    0.0035    0.0320   -0.1004
          40    0.0245   -0.2431   -0.0208    0.0887    0.0467   -0.0090    0.2818   -0.1785
          41    0.0358   -0.0120    0.1872    0.0318    0.0478   -0.0161    0.4174   -0.2759
          42   -0.0442    0.0091   -0.1002    0.0154   -0.0483    0.0081   -0.1901    0.1076
          43   -0.0398   -0.3689   -0.2600   -0.0723   -0.0297   -0.0189    0.0579    0.1571
          44   -0.0661   -0.0968   -0.1146   -0.2409   -0.0697   -0.0272    0.1414    0.1598
          45   -0.0118    0.0649    0.0545    0.0875    0.0079    0.0089    0.0194   -0.1021
          46    0.0344   -0.0349   -0.0858    0.1422    0.0371    0.0083   -0.0051   -0.0147
          47   -0.0244   -0.1111   -0.0776   -0.0027   -0.0080   -0.0055    0.0987   -0.0140
          48   -0.0405    0.0642    0.0556    0.0665    0.0169    0.0109    0.0115   -0.0510
          49    0.0479   -0.0409   -0.0815    0.1630    0.0428    0.0084    0.0057   -0.0391
          50   -0.0399   -0.1915   -0.2872    0.1973    0.0381    0.0105   -0.1204    0.0334
          51   -0.1499    0.1320    0.0933   -0.1171   -0.0614    0.0091   -0.0011    0.1003
          52    0.0759   -0.1291   -0.2443    0.3959    0.1044    0.0213   -0.1956   -0.0525
          53   -0.0590   -0.1021   -0.1143   -0.1015   -0.0496   -0.0009    0.1243    0.0319
          54   -0.0828    0.0064   -0.1634    0.0669   -0.0363    0.0369   -0.1109    0.0144
          55   -0.1268    0.0156    0.0411    0.0781   -0.0109   -0.4723   -0.0108   -0.0134
          56    0.0982   -0.0035   -0.0168   -0.0158   -0.0187   -0.2980   -0.0254    0.0022
          57    0.1407   -0.0081   -0.0375   -0.0186   -0.1052    0.0408   -0.0043   -0.0002
          58    0.0962   -0.0077   -0.0057   -0.0258    0.0316    0.0783   -0.0018   -0.0045
          59   -0.3391    0.0193   -0.0056    0.0547   -0.1281    0.1102    0.0132   -0.0080
          60   -0.1579    0.0105   -0.0151    0.0481   -0.1624    0.0454    0.0093   -0.0069
          61   -0.0186    0.1988   -0.1188   -0.0640    0.0216   -0.0146    0.1693   -0.0179
          62    0.0183    0.2029   -0.1430    0.0359    0.0265    0.0002   -0.0003   -0.0276
          63    0.2055    0.0263    0.0271   -0.0234    0.0225    0.0001   -0.0919   -0.3340
          64   -0.0123    0.1018    0.0767   -0.0671   -0.0164   -0.0030   -0.0406    0.0063
          65   -0.0025   -0.0692    0.0565    0.0114   -0.0020    0.0036   -0.0209   -0.0034
          66   -0.0098   -0.0151    0.0081    0.0102    0.0031    0.0081    0.0301    0.0942
          67   -0.0279   -0.1612    0.3049   -0.1024   -0.0446   -0.0011   -0.0598    0.0205
          68   -0.0130   -0.2293    0.1921   -0.0109   -0.0207    0.0046   -0.0381   -0.0054
          69   -0.0515   -0.0408   -0.0240   -0.0684   -0.0203    0.0019   -0.0398   -0.0898
          70    0.0009    0.3723   -0.1436   -0.0498    0.0099   -0.0063   -0.0336   -0.0166
          71   -0.0095   -0.2342    0.1899   -0.0067   -0.0202    0.0053   -0.0351   -0.0058
          72    0.0026   -0.0232   -0.0356   -0.0632   -0.0221    0.0058   -0.0447   -0.0943
          73    0.1315   -0.0124   -0.0128   -0.0282    0.0251   -0.1203   -0.0149    0.0074
          74   -0.1238    0.0148    0.0321    0.0234    0.0326    0.1277    0.0154   -0.0141
          75    0.0492   -0.0185   -0.0011   -0.0811    0.1408    0.0530   -0.0175    0.0252
          76   -0.0318   -0.0067    0.0033   -0.0552    0.0823    0.7281    0.0360    0.0015
          77    0.5061   -0.0305   -0.0810   -0.1274   -0.0584    0.1832   -0.0189    0.0067
          78   -0.1801    0.0093   -0.0045    0.0437   -0.1044   -0.0611   -0.0017   -0.0020
          79    0.1616   -0.0048   -0.0370    0.0424   -0.2238   -0.1648   -0.0025   -0.0191
          80    0.0682    0.0164   -0.0349    0.0967   -0.3356   -0.0459    0.0167   -0.0390
          81    0.2534   -0.0355   -0.0231   -0.1511    0.2605   -0.0829   -0.0378    0.0440


   Root No.      25        26        27        28        29        30        31        32

                25 A      26 A      27 A      28 A      29 A      30 A      31 A      32 A   

                   0.7       0.9       1.0       1.0       1.0       1.1       1.2       1.3
  
           1   -0.0380    0.0013    0.0049   -0.0129   -0.0393   -0.0201   -0.0354    0.0108
           2    0.0907    0.0463    0.0166   -0.0736    0.0077   -0.1062   -0.0229    0.0077
           3   -0.0240   -0.0176    0.0904    0.0415   -0.0316   -0.0696   -0.0685    0.3831
           4   -0.0150    0.0065   -0.0016   -0.0032   -0.0335   -0.0270   -0.0396    0.0012
           5    0.1156    0.0563    0.0141   -0.0480    0.0326   -0.0741    0.0280   -0.0015
           6   -0.0238    0.0312   -0.1032   -0.0398    0.0924    0.1327    0.1315    0.4823
           7    0.1584    0.0495   -0.0489    0.0003   -0.0646   -0.0818   -0.0017    0.0099
           8    0.0208   -0.0009    0.0062   -0.0269    0.0060   -0.0090    0.0083    0.0052
           9   -0.0243    0.0637   -0.2339   -0.1311    0.1389    0.2456    0.1616    0.0476
          10   -0.0165    0.0063   -0.0192   -0.0089   -0.0202   -0.0197    0.0379   -0.0039
          11   -0.0686   -0.0621    0.0154   -0.0817   -0.0063   -0.0164    0.0298   -0.0193
          12   -0.0155    0.0242   -0.1148   -0.0883    0.0645    0.1705    0.2586   -0.4140
          13   -0.0469    0.0009   -0.0133   -0.0119   -0.0269   -0.0017    0.0334   -0.0044
          14   -0.0781   -0.0528    0.0313   -0.0865    0.0237   -0.0383   -0.0181   -0.0095
          15   -0.0265   -0.0244    0.0819    0.0184   -0.0450   -0.0412    0.0254   -0.3806
          16   -0.1899   -0.1328   -0.0195   -0.0478   -0.0934    0.0433   -0.0004    0.0014
          17    0.0044   -0.0004    0.0148   -0.0472    0.0073   -0.0551   -0.0051    0.0046
          18   -0.0390   -0.0710    0.2677    0.1244   -0.1442   -0.2524   -0.2537   -0.0529
          19    0.0784    0.4363    0.3796   -0.4418    0.1357   -0.1097    0.0090    0.0078
          20    0.0302   -0.1968   -0.1998    0.1584   -0.0931   -0.0803   -0.0571    0.0063
          21    0.0272    0.0292   -0.1202   -0.0591    0.0474    0.0968    0.0764   -0.2390
          22   -0.1353   -0.0236   -0.0980    0.6040    0.3238    0.0102   -0.0138   -0.0219
          23    0.0602    0.0453   -0.0392    0.2819    0.2439   -0.0658    0.0552   -0.0128
          24   -0.0230   -0.0430    0.1151    0.0844   -0.0574   -0.1077   -0.0904   -0.3084
          25   -0.1945   -0.0986    0.0482   -0.1383    0.6142   -0.2838   -0.0018   -0.0252
          26    0.0261   -0.0107   -0.0121   -0.0204   -0.3736    0.1198    0.0484    0.0069
          27    0.0095   -0.0291    0.1180    0.0851   -0.0634   -0.1360   -0.1822    0.2667
          28    0.2311    0.0250   -0.0884    0.0078   -0.0653   -0.0996    0.0215   -0.0070
          29   -0.0758   -0.0059    0.0115   -0.0291    0.0470    0.0916   -0.1363   -0.0012
          30   -0.0247    0.0248   -0.0920   -0.0531    0.0306    0.0488   -0.2641   -0.0280
          31    0.0002   -0.0010    0.0031   -0.0008    0.0030    0.0067    0.0031    0.0219
          32    0.0055    0.0042   -0.0033   -0.0062    0.0029    0.0069    0.0089    0.0109
          33    0.0072    0.0005    0.0012   -0.0009    0.0012    0.0029    0.0125    0.0144
          34    0.1669   -0.0387   -0.0277    0.0038   -0.0323   -0.0370   -0.0004    0.0011
          35   -0.0181    0.0102   -0.0098   -0.0041    0.0137    0.0250   -0.0948   -0.0121
          36   -0.0316   -0.0076    0.0129   -0.0064   -0.0026   -0.0032   -0.2066   -0.0419
          37    0.2370   -0.1124    0.0389    0.0247   -0.0292   -0.0225    0.1635    0.0259
          38    0.5124   -0.3357    0.0888   -0.0128    0.1203    0.2069    0.0202    0.0114
          39   -0.1782   -0.0525    0.2691    0.0995   -0.0495   -0.0818    0.4585    0.0517
          40    0.1004   -0.2681    0.2952    0.0712    0.0388    0.1249    0.1957    0.0169
          41   -0.0878    0.0851   -0.0502    0.0755   -0.1022   -0.2034   -0.0780   -0.0283
          42    0.0404   -0.0943    0.0639   -0.0925    0.1295    0.2514   -0.2774   -0.0322
          43   -0.0293    0.0977   -0.2967   -0.0976    0.0715    0.1424   -0.3636   -0.0498
          44   -0.1696    0.2907   -0.3322    0.0269   -0.0940   -0.2232    0.2373    0.0300
          45   -0.0105    0.0499   -0.0047    0.0526   -0.1036   -0.1936    0.0778   -0.0067
          46    0.1715    0.0365   -0.1040   -0.0063   -0.0674   -0.0953    0.0061   -0.0037
          47   -0.0907   -0.0159    0.0471   -0.0234    0.0458    0.0944   -0.0612    0.0001
          48    0.0509    0.0204   -0.0661   -0.0156   -0.0075   -0.0198   -0.0934   -0.0008
          49    0.1737    0.0382   -0.1128   -0.0099   -0.0724   -0.1026   -0.0189   -0.0094
          50   -0.2156   -0.0581    0.1798   -0.0420    0.0668    0.1409    0.0251    0.0135
          51    0.1760    0.0384   -0.1240    0.0133   -0.0444   -0.0814    0.0736   -0.0005
          52    0.0598    0.0144   -0.0471   -0.0026   -0.0692   -0.1193    0.0027   -0.0028
          53   -0.0393   -0.0121    0.0531   -0.0225    0.0227    0.0767    0.0051    0.0087
          54    0.0523    0.0013   -0.0020    0.0084   -0.0502   -0.0826    0.0545   -0.0004
          55    0.0022    0.0010   -0.0033    0.0008    0.0018    0.0029   -0.0005    0.0028
          56    0.0043   -0.0025    0.0024    0.0025   -0.0018   -0.0041    0.0026   -0.0135
          57    0.0001   -0.0022    0.0102    0.0054   -0.0016   -0.0012    0.0134    0.0132
          58    0.0017    0.0014   -0.0027   -0.0005    0.0005    0.0018   -0.0002   -0.0020
          59   -0.0032   -0.0034    0.0009   -0.0014    0.0013    0.0019    0.0093   -0.0042
          60   -0.0024   -0.0026    0.0094    0.0045   -0.0002    0.0012    0.0183    0.0181
          61    0.0241    0.4906    0.2203    0.3491   -0.1043    0.3974   -0.0194   -0.0128
          62   -0.0384    0.2168    0.1651    0.0970   -0.0117    0.1820   -0.0565    0.0068
          63    0.0314    0.0336   -0.1157   -0.0384    0.0608    0.0732    0.0188    0.2335
          64   -0.2227   -0.1548   -0.0233   -0.0722   -0.1302    0.0742    0.0018    0.0198
          65    0.0040    0.0023    0.0027   -0.0556    0.0170   -0.0419    0.0242    0.0075
          66   -0.0098   -0.0252    0.1003    0.0553   -0.0586   -0.0988   -0.1211   -0.0259
          67   -0.2594   -0.1945   -0.0257   -0.0422   -0.1935    0.1427   -0.0307    0.0106
          68   -0.0111   -0.0129   -0.0060   -0.0442   -0.0063    0.0000    0.0147    0.0074
          69    0.0153    0.0256   -0.0802   -0.0336    0.0499    0.0767    0.0862    0.0209
          70   -0.2513   -0.1842   -0.0419   -0.1585   -0.1521    0.0692    0.0537    0.0371
          71    0.0196    0.0175   -0.0023   -0.0201    0.0337   -0.0249    0.0116    0.0001
          72    0.0170    0.0232   -0.0784   -0.0342    0.0464    0.0739    0.0824    0.0177
          73   -0.0003   -0.0021    0.0052    0.0027    0.0011    0.0010    0.0120    0.0018
          74   -0.0012   -0.0018   -0.0025   -0.0045    0.0035    0.0058   -0.0108   -0.0029
          75    0.0038    0.0054   -0.0108   -0.0011   -0.0027   -0.0053    0.0033   -0.0231
          76   -0.0075    0.0016   -0.0108   -0.0090    0.0056    0.0082   -0.0114   -0.0018
          77    0.0011   -0.0056    0.0220    0.0126   -0.0065   -0.0073    0.0324    0.0029
          78    0.0023   -0.0013   -0.0008    0.0001   -0.0010   -0.0032    0.0013   -0.0031
          79    0.0012    0.0036   -0.0104    0.0000   -0.0021   -0.0047   -0.0024   -0.0242
          80    0.0026    0.0029   -0.0142   -0.0047   -0.0004   -0.0017   -0.0204   -0.0247
          81    0.0002   -0.0007    0.0066    0.0013    0.0021    0.0041    0.0034    0.0081


   Root No.      33        34        35        36        37        38        39        40

                33 A      34 A      35 A      36 A      37 A      38 A      39 A      40 A   

                   1.3       1.4       1.5       1.7       1.8       1.9       2.1       2.1
  
           1   -0.0082    0.2260    0.0435    0.0866   -0.0546    0.1950    0.0434   -0.0147
           2   -0.0040    0.1962    0.0396    0.0561   -0.0661    0.1346   -0.0047    0.0039
           3   -0.0167   -0.0086   -0.0042   -0.0305    0.0389    0.0519   -0.1064    0.0450
           4   -0.0081    0.2244    0.0551    0.0619   -0.0421    0.1903    0.0588   -0.0217
           5    0.0063   -0.2117    0.0633    0.0852   -0.0545   -0.0825   -0.0682    0.0269
           6   -0.0206    0.0215    0.0178    0.0120    0.0652    0.0697   -0.1377    0.0592
           7   -0.0025    0.0154    0.1273   -0.0112   -0.0261    0.0598   -0.0263    0.0143
           8    0.0041   -0.1112    0.0253    0.1165   -0.0401   -0.0002    0.0031   -0.0022
           9    0.0015    0.0260    0.0070    0.0416   -0.0280   -0.0372    0.1529   -0.0711
          10    0.0015   -0.2090    0.0963   -0.0732   -0.0265    0.1792    0.0448   -0.0142
          11    0.0069   -0.2181    0.0032    0.0901   -0.0652    0.0743    0.0239   -0.0095
          12    0.0186    0.0649    0.0203    0.0082    0.0725    0.0857   -0.1375    0.0614
          13    0.0019   -0.2079    0.0906   -0.0973   -0.0159    0.1828    0.0576   -0.0183
          14   -0.0035    0.1817   -0.1078    0.0713   -0.0078   -0.1381   -0.0597    0.0213
          15    0.0164    0.0131   -0.0021   -0.0278    0.0415    0.0202   -0.0708    0.0366
          16   -0.0037   -0.0031   -0.0296   -0.0000    0.0072   -0.0237    0.0025   -0.0017
          17   -0.0021    0.0987   -0.0299   -0.0586    0.0108   -0.0044   -0.0061    0.0030
          18    0.0029   -0.0473   -0.0259   -0.0377   -0.0496   -0.0795    0.1444   -0.0629
          19   -0.0091    0.2000   -0.0973   -0.0548   -0.0131    0.0820    0.0004    0.0012
          20   -0.0055    0.3182    0.1466    0.1824   -0.1402    0.3451    0.0374   -0.0097
          21    0.0089    0.0033    0.0024    0.0133   -0.0135   -0.0256    0.0444   -0.0185
          22   -0.0121    0.2493   -0.0731   -0.1841    0.0876    0.0681    0.0508   -0.0188
          23    0.0064   -0.3088    0.0032   -0.0227   -0.0002   -0.2605   -0.1421    0.0560
          24    0.0096    0.0026   -0.0034   -0.0133   -0.0196   -0.0215    0.0562   -0.0139
          25    0.0053   -0.2540    0.0473    0.1973   -0.0809    0.0482    0.0194   -0.0084
          26    0.0064   -0.3029    0.0531   -0.0375   -0.0810    0.2434    0.0790   -0.0289
          27   -0.0095   -0.0274   -0.0161   -0.0092   -0.0273   -0.0427    0.0536   -0.0231
          28   -0.0031    0.0197    0.1292   -0.0119   -0.0091   -0.0461   -0.0630    0.0258
          29    0.0036    0.0176    0.1424    0.0213    0.0291   -0.0486    0.1657   -0.0639
          30    0.0255   -0.0290   -0.0547    0.0160   -0.0777   -0.1043    0.3813   -0.1430
          31    0.4621    0.0151    0.0199   -0.0101   -0.0140   -0.0081    0.0883    0.2690
          32   -0.1063    0.0005    0.0100   -0.0012    0.0038    0.0073   -0.0737   -0.1463
          33   -0.0273    0.0003    0.0023   -0.0003    0.0039    0.0034    0.0368    0.1301
          34    0.0106   -0.0108    0.0440    0.1608    0.3431   -0.0289    0.0570   -0.0222
          35   -0.0059    0.0028    0.1004   -0.0835   -0.0885    0.0257   -0.1292    0.0491
          36    0.0116   -0.0447   -0.0312   -0.0115    0.1431    0.0959   -0.2214    0.0780
          37    0.0070    0.0098    0.0169    0.2276    0.4095   -0.0910    0.2164   -0.0804
          38    0.0090   -0.0407   -0.3730    0.0084   -0.0524    0.0129    0.0945   -0.0351
          39   -0.0338    0.0705    0.1124   -0.0596   -0.2417   -0.0484    0.0835   -0.0196
          40   -0.0317    0.0145   -0.1552   -0.1497   -0.2819    0.0429   -0.0912    0.0364
          41    0.0086   -0.0688   -0.1369   -0.0439    0.1141    0.1409   -0.3631    0.1307
          42   -0.0028    0.0232    0.2500   -0.1003   -0.0923    0.0171   -0.1317    0.0489
          43    0.0245   -0.0546   -0.2632   -0.0771   -0.0757    0.0607   -0.0801    0.0284
          44    0.0102   -0.0028   -0.2240    0.0111   -0.1922   -0.0744    0.2356   -0.0754
          45    0.0190   -0.0383   -0.0540    0.1752    0.4220    0.0338   -0.0491    0.0138
          46   -0.0159    0.0295    0.1921   -0.0713   -0.0842   -0.2019   -0.0817    0.0256
          47    0.0028    0.0284    0.2328   -0.0115    0.0497   -0.1173    0.1118   -0.0441
          48    0.0265   -0.0188   -0.0717    0.0089   -0.0603   -0.0530    0.2147   -0.0754
          49   -0.0072    0.0292    0.2035   -0.0751   -0.1032   -0.2467   -0.0431    0.0138
          50    0.0054   -0.0436   -0.0595    0.1024    0.2135    0.2161    0.0665   -0.0221
          51   -0.0181    0.0292    0.0514   -0.0601   -0.1134   -0.1125   -0.1443    0.0547
          52    0.0142   -0.0445   -0.2261    0.0077   -0.1126   -0.0175   -0.0446    0.0186
          53   -0.0299    0.0533    0.3875   -0.0432    0.0793   -0.1436   -0.0550    0.0138
          54   -0.0135   -0.0401   -0.2302    0.0155   -0.0373    0.1101   -0.1103    0.0476
          55    0.0655    0.0023    0.0016   -0.0015   -0.0049   -0.0006   -0.0625   -0.1757
          56   -0.0550   -0.0007    0.0010    0.0008    0.0053   -0.0012    0.1207    0.3345
          57    0.1926    0.0068    0.0046   -0.0020   -0.0037    0.0003   -0.0142   -0.0257
          58   -0.0321   -0.0009   -0.0004    0.0018    0.0008    0.0005    0.0194    0.0521
          59    0.1169    0.0043    0.0014   -0.0021   -0.0036    0.0003   -0.0581   -0.1535
          60    0.3093    0.0106    0.0059   -0.0049   -0.0105    0.0010   -0.1439   -0.3710
          61   -0.0006   -0.2096    0.0250    0.0513   -0.0110    0.0858    0.0578   -0.0186
          62   -0.0085    0.2770   -0.2050    0.2154   -0.0047   -0.3379   -0.1207    0.0425
          63   -0.0090   -0.0121    0.0105    0.0050   -0.0139    0.0073    0.0300   -0.0178
          64   -0.0034   -0.0074   -0.0581    0.0031    0.0167   -0.1033   -0.0254    0.0099
          65   -0.0008    0.0385   -0.0371   -0.3813    0.1633    0.0008    0.0875   -0.0330
          66    0.0003   -0.0282   -0.0100    0.0243   -0.0574   -0.0610    0.1132   -0.0527
          67   -0.0028   -0.0188   -0.0496    0.4477   -0.1508   -0.2236   -0.1643    0.0618
          68   -0.0009    0.0441   -0.0314   -0.1411    0.0752   -0.0519    0.0073   -0.0022
          69   -0.0024    0.0164    0.0119    0.0068    0.0222    0.0431   -0.0615    0.0232
          70   -0.0044   -0.0013   -0.1242   -0.4408    0.2289   -0.2125    0.0140   -0.0056
          71   -0.0010    0.0482   -0.0008   -0.1356    0.0544    0.0625    0.0495   -0.0178
          72   -0.0029    0.0170    0.0106    0.0226    0.0155    0.0344   -0.0650    0.0257
          73    0.0673    0.0037    0.0029    0.0000    0.0000    0.0037   -0.0371   -0.0749
          74    0.0261    0.0005    0.0022   -0.0009   -0.0024   -0.0014    0.0057    0.0019
          75   -0.3782   -0.0102   -0.0093    0.0048    0.0090    0.0090   -0.1369   -0.3449
          76   -0.1988   -0.0067   -0.0061    0.0056    0.0066    0.0017    0.0545    0.1192
          77    0.3984    0.0147    0.0091   -0.0067   -0.0094    0.0010   -0.0605   -0.1048
          78   -0.1149   -0.0025   -0.0024    0.0038    0.0085   -0.0006    0.1783    0.5003
          79   -0.3162   -0.0101   -0.0125    0.0068    0.0061    0.0032   -0.0658   -0.2008
          80   -0.3878   -0.0152   -0.0156    0.0089    0.0099   -0.0031    0.0530    0.0648
          81    0.0071    0.0019    0.0081   -0.0010    0.0040    0.0033    0.0412    0.1150


   Root No.      41        42        43        44        45        46        47        48

                41 A      42 A      43 A      44 A      45 A      46 A      47 A      48 A   

                   2.4       2.8       3.0       3.0       3.2       3.7       3.9       3.9
  
           1   -0.0196   -0.0205   -0.0267   -0.0158   -0.0102   -0.1750   -0.0978    0.2539
           2   -0.1625    0.0464    0.0773    0.0406    0.0083    0.1061    0.0396   -0.1960
           3    0.0414   -0.3908    0.3867   -0.2998   -0.0108   -0.1021    0.1117   -0.0446
           4    0.0330   -0.0343   -0.0481   -0.0350   -0.0116   -0.1769   -0.0922    0.2640
           5   -0.2245   -0.0219   -0.0043   -0.0123   -0.0058   -0.0898   -0.0294    0.1834
           6    0.0069    0.0090   -0.2591    0.3658   -0.0251    0.1547   -0.1408    0.0552
           7   -0.1274   -0.0312   -0.0573   -0.0206   -0.0049    0.0468    0.1652    0.2427
           8   -0.0113   -0.0394   -0.0532   -0.0409   -0.0127   -0.2380   -0.1947    0.1782
           9   -0.0136    0.4142   -0.1071   -0.1248    0.0244   -0.1332    0.1122   -0.0521
          10    0.0548    0.0350    0.0226    0.0257    0.0082    0.2079    0.2360   -0.0351
          11    0.2315   -0.0221   -0.0016   -0.0117   -0.0034   -0.1138   -0.1609   -0.0154
          12    0.0023   -0.1079    0.2245   -0.3408    0.0549    0.1739   -0.1238    0.0650
          13   -0.0029    0.0381    0.0337    0.0266    0.0079    0.1977    0.2252   -0.0508
          14    0.1815    0.0019   -0.0223    0.0170    0.0036    0.1334    0.1668    0.0034
          15   -0.0207   -0.2907   -0.1817    0.5339   -0.0966   -0.1334    0.0902   -0.0522
          16    0.0822   -0.0065   -0.0320   -0.0038   -0.0027    0.0262    0.1285    0.2160
          17    0.0071    0.0430    0.0288    0.0218    0.0108    0.1835    0.1556   -0.1448
          18   -0.0174    0.2203   -0.0598   -0.0672    0.0230   -0.0155    0.0086   -0.0087
          19   -0.1166    0.0724    0.0901    0.0614    0.0095    0.0955   -0.0011   -0.2244
          20   -0.2913    0.0530    0.0996    0.0640    0.0028   -0.0449   -0.1268   -0.1391
          21   -0.0129    0.1276   -0.1313    0.1058   -0.0022    0.0195   -0.0221    0.0115
          22    0.1930    0.0340    0.0118    0.0134    0.0070    0.0816    0.0129   -0.1906
          23   -0.3847    0.0169    0.0710    0.0281    0.0050    0.0874    0.1418    0.0769
          24   -0.0012    0.0050    0.0829   -0.1173    0.0363   -0.0408    0.0390   -0.0113
          25    0.1922   -0.0331   -0.0167   -0.0096   -0.0080   -0.1145   -0.1601   -0.0489
          26    0.4099    0.0178    0.0105    0.0367    0.0044    0.0728   -0.0103   -0.1831
          27   -0.0154    0.0445   -0.0760    0.1078   -0.0145   -0.0383    0.0302   -0.0085
          28   -0.0264   -0.0221   -0.0746   -0.0486    0.0032    0.0593    0.1087    0.1778
          29   -0.0335   -0.1444   -0.0987   -0.0586   -0.0314   -0.1070    0.0194   -0.0891
          30   -0.0433   -0.1826    0.0889    0.0493   -0.0641   -0.1627    0.2589   -0.0810
          31    0.0069   -0.0003   -0.0080    0.0117    0.1591   -0.0278    0.0124   -0.0071
          32   -0.0003    0.0147    0.0047   -0.0092   -0.1358    0.0074   -0.0035    0.0021
          33    0.0008   -0.0410   -0.0197    0.0496    0.5067   -0.0200   -0.0036    0.0054
          34    0.0049   -0.0531   -0.1363   -0.0862   -0.0005    0.0179    0.0058   -0.0446
          35   -0.0337   -0.0969   -0.2706   -0.1683    0.0018    0.0496    0.0261   -0.0464
          36    0.0331    0.0961    0.0947    0.0567    0.0083   -0.0012   -0.0302    0.0262
          37    0.0088   -0.1060   -0.2250   -0.1479   -0.0041    0.0440    0.0375   -0.2127
          38    0.0213    0.0501    0.1559    0.0979   -0.0020   -0.0310   -0.0206    0.0130
          39   -0.0236   -0.0186    0.0170    0.0121   -0.0001   -0.0064    0.0074    0.0488
          40    0.0033    0.0444    0.0528    0.0356    0.0053    0.0115   -0.0083    0.0263
          41    0.0193    0.0490   -0.1683   -0.1058    0.0150    0.0874   -0.0036   -0.0525
          42   -0.0303   -0.0909   -0.2790   -0.1764   -0.0039    0.0668    0.0382   -0.0781
          43    0.0266    0.1030    0.1960    0.1204   -0.0010   -0.0266   -0.0283    0.0550
          44   -0.0296   -0.0763   -0.0341   -0.0219   -0.0049    0.0006    0.0724   -0.0244
          45    0.0681    0.1661    0.2808    0.1720    0.0104   -0.0480   -0.1088    0.0721
          46    0.1196    0.0877    0.1308    0.0751    0.0023   -0.0797    0.0596   -0.0070
          47    0.0510   -0.0805    0.1107    0.0834   -0.0027    0.2090   -0.2675   -0.0159
          48   -0.0476   -0.2608    0.0576    0.0771   -0.0090    0.5167   -0.2728    0.2190
          49    0.1402    0.0282    0.1557    0.0968    0.0008   -0.0008   -0.0271    0.0016
          50   -0.1355    0.1133    0.0534    0.0246    0.0043   -0.0143    0.2810    0.1679
          51    0.1018    0.0775   -0.0393   -0.0409   -0.0061   -0.1999   -0.0139   -0.1474
          52    0.0284   -0.1430   -0.1700   -0.1009   -0.0095   -0.0225   -0.2451   -0.1597
          53    0.1076    0.1579    0.1897    0.1109    0.0045   -0.1076   -0.0052   -0.0625
          54   -0.0365    0.0088   -0.1481   -0.1047   -0.0076   -0.1369    0.0882   -0.0541
          55   -0.0014   -0.0131   -0.0032    0.0104    0.0825   -0.0051    0.0023   -0.0000
          56    0.0032    0.0282    0.0081   -0.0213   -0.1844    0.0072   -0.0016   -0.0003
          57    0.0002    0.0039    0.0010   -0.0026   -0.0292   -0.0013    0.0019   -0.0009
          58   -0.0001    0.0037   -0.0002   -0.0017   -0.0186   -0.0013    0.0013   -0.0005
          59   -0.0006   -0.0073   -0.0011    0.0040    0.0474    0.0002   -0.0006    0.0009
          60   -0.0017   -0.0148   -0.0037    0.0103    0.0925   -0.0096    0.0066   -0.0019
          61   -0.1353   -0.0141    0.0239    0.0035   -0.0085   -0.1467   -0.1913   -0.0542
          62    0.3015   -0.0363   -0.0769   -0.0504    0.0002    0.0237    0.1002    0.1755
          63   -0.0035    0.0894    0.0696   -0.1751    0.0291    0.0252   -0.0225    0.0055
          64   -0.0288    0.0115   -0.0122   -0.0072    0.0009    0.0180    0.0788    0.1482
          65   -0.0157    0.0040   -0.0417   -0.0341   -0.0017   -0.0890   -0.0975    0.0830
          66   -0.0160    0.3613   -0.1048   -0.1373    0.0635    0.1970   -0.2023    0.1003
          67   -0.2001    0.0231    0.0810    0.0343    0.0059    0.0793   -0.0181   -0.2597
          68   -0.0965   -0.0146    0.0109   -0.0058   -0.0034   -0.0808   -0.1490   -0.1381
          69    0.0195   -0.1483    0.0435    0.0475   -0.0231   -0.0613    0.0772   -0.0193
          70   -0.2309   -0.0143    0.0052   -0.0209   -0.0059   -0.1332   -0.1943   -0.0962
          71    0.0868   -0.0243   -0.0402   -0.0118   -0.0056   -0.0378    0.0656    0.2226
          72    0.0088   -0.1418    0.0421    0.0546   -0.0239   -0.0580    0.0680   -0.0453
          73   -0.0001    0.0219    0.0071   -0.0206   -0.2206    0.0187   -0.0071    0.0035
          74   -0.0005   -0.0163   -0.0057    0.0138    0.1453   -0.0126    0.0060   -0.0024
          75   -0.0029    0.0217    0.0107   -0.0277   -0.2823    0.0195   -0.0056    0.0025
          76   -0.0017   -0.0085   -0.0028    0.0066    0.0470    0.0022   -0.0023    0.0014
          77    0.0035    0.0359    0.0098   -0.0303   -0.2688    0.0154   -0.0082    0.0026
          78    0.0054    0.0573    0.0156   -0.0457   -0.4367    0.0336   -0.0200    0.0058
          79   -0.0026   -0.0029    0.0024   -0.0029   -0.0336    0.0035   -0.0012    0.0011
          80   -0.0043   -0.0517   -0.0115    0.0400    0.4092   -0.0170    0.0048    0.0007
          81   -0.0018   -0.0145   -0.0060    0.0179    0.1861   -0.0384    0.0281   -0.0118


   Root No.      49        50        51        52        53        54        55        56

                49 A      50 A      51 A      52 A      53 A      54 A      55 A      56 A   

                   4.2       4.7       4.9       5.6       6.4       6.8       7.5       8.2
  
           1    0.0146    0.0267    0.0059   -0.0049    0.0957   -0.0034   -0.2694    0.2260
           2   -0.0076   -0.0263   -0.0033    0.1026   -0.2320    0.0054   -0.0301    0.2688
           3    0.0768    0.0146   -0.3128    0.0241    0.0068    0.0004    0.0064   -0.0050
           4    0.0133   -0.0460    0.0149    0.0943    0.0129   -0.0042   -0.2810    0.2467
           5    0.0063   -0.0402    0.0102    0.0918   -0.1982    0.0077   -0.0015   -0.2460
           6   -0.3176   -0.0292    0.2092   -0.0475   -0.0117   -0.0040   -0.0122    0.0006
           7   -0.0265   -0.1699    0.0317    0.2706    0.0578    0.0014    0.0342    0.0137
           8    0.0320   -0.0413   -0.0086    0.0183   -0.2871    0.0108   -0.0136   -0.2110
           9    0.4868    0.0487   -0.2344    0.0945    0.0336    0.0122    0.0197    0.0158
          10   -0.0091    0.0411    0.0009    0.1764    0.0870   -0.0096   -0.2183   -0.2748
          11   -0.0023   -0.0157    0.0049   -0.0917   -0.2389    0.0108   -0.0509   -0.2528
          12   -0.2940   -0.0172    0.2088   -0.0396    0.0007   -0.0035   -0.0022    0.0060
          13   -0.0216    0.1322    0.0100    0.1460   -0.0198   -0.0058   -0.2262   -0.2529
          14   -0.0113    0.0925   -0.0154    0.0416   -0.2466    0.0064   -0.0301    0.2594
          15    0.0727    0.0013   -0.3322    0.0295    0.0124    0.0008   -0.0001   -0.0095
          16   -0.0019    0.2909    0.0004   -0.1248   -0.0214   -0.0038   -0.0425   -0.0082
          17   -0.0167    0.0545    0.0056    0.1152   -0.3037    0.0066   -0.0191    0.1741
          18    0.1782   -0.0046    0.5606   -0.0363   -0.0003   -0.0011    0.0039   -0.0026
          19   -0.0009    0.0768   -0.0125   -0.1413    0.1231   -0.0026    0.1253   -0.1457
          20    0.0148    0.0849   -0.0150   -0.2384    0.2860   -0.0049    0.1549   -0.2704
          21   -0.0048   -0.0030    0.0651   -0.0002   -0.0034    0.0000   -0.0024    0.0031
          22   -0.0051   -0.1047   -0.0050    0.0571   -0.1701    0.0056    0.1081   -0.1341
          23   -0.0124    0.1747    0.0004   -0.1015    0.3346   -0.0129   -0.1222    0.2681
          24    0.0662    0.0028   -0.0337    0.0070    0.0027    0.0016    0.0014    0.0021
          25    0.0066   -0.1467    0.0009   -0.0508    0.1511   -0.0021    0.1157    0.1542
          26    0.0038   -0.1720   -0.0012   -0.0381    0.3214   -0.0069    0.1456    0.2896
          27    0.0645    0.0092   -0.0332    0.0092   -0.0078    0.0013   -0.0039   -0.0077
          28    0.0372   -0.2330   -0.0021    0.1297   -0.0088    0.0041    0.2547    0.0157
          29   -0.1746    0.1623    0.0666    0.2902    0.0685   -0.0272    0.1270    0.0163
          30   -0.3448   -0.0701    0.0698   -0.0916    0.0033   -0.0260   -0.0433   -0.0125
          31   -0.0056    0.0026   -0.0004    0.0012    0.0013    0.0425   -0.0003   -0.0037
          32   -0.0049    0.0010    0.0023    0.0023    0.0004   -0.0103    0.0003    0.0007
          33    0.0309   -0.0030   -0.0111   -0.0076   -0.0166   -0.3962   -0.0020    0.0309
          34    0.0050   -0.0022    0.0017    0.0870   -0.0006   -0.0017    0.2603   -0.0323
          35    0.0214   -0.0050    0.0011    0.1342    0.0364   -0.0115    0.3426    0.0402
          36    0.0118    0.0015   -0.0000   -0.0455   -0.0100   -0.0004   -0.1016   -0.0031
          37    0.0098    0.0319   -0.0334   -0.2831   -0.0058    0.0025   -0.2548    0.0229
          38   -0.0197    0.0246    0.0060    0.0133   -0.0004    0.0011   -0.0067   -0.0070
          39   -0.0084   -0.0175    0.0095    0.0650    0.0017    0.0013    0.0622   -0.0039
          40    0.0204   -0.0105   -0.0061   -0.0152   -0.0028    0.0016   -0.0170    0.0020
          41    0.1127   -0.0618   -0.0485   -0.2355   -0.0397    0.0149   -0.1767   -0.0196
          42    0.0514   -0.0501   -0.0298   -0.1722   -0.0264    0.0093   -0.1189   -0.0152
          43   -0.0056    0.0248    0.0090    0.0748    0.0138   -0.0009    0.0329    0.0112
          44   -0.0295   -0.0619   -0.0073   -0.1268   -0.0217    0.0036   -0.0825   -0.0119
          45    0.0053    0.1045    0.0225    0.2239    0.0385   -0.0024    0.1257    0.0199
          46   -0.0411   -0.1170   -0.0139   -0.1887   -0.0581   -0.0034    0.0247    0.0017
          47    0.1394    0.2002   -0.0040    0.1219    0.0524    0.0144   -0.0976   -0.0096
          48    0.3074   -0.1257   -0.0427   -0.0867   -0.0358    0.0212    0.0454    0.0050
          49    0.0006   -0.1195   -0.0183   -0.2500   -0.0876    0.0126    0.0331   -0.0055
          50   -0.0247   -0.2959   -0.0172   -0.1250   -0.0441    0.0011    0.0689    0.0045
          51   -0.0895    0.1313    0.0136    0.0266    0.0079   -0.0037   -0.0282   -0.0036
          52    0.0030    0.3308    0.0247    0.2314    0.0676   -0.0023   -0.0700   -0.0108
          53   -0.0473    0.1008    0.0060    0.0152    0.0249   -0.0078   -0.1286   -0.0138
          54   -0.0857    0.0010    0.0126    0.0267   -0.0022   -0.0026    0.0563    0.0046
          55    0.0005   -0.0003    0.0001   -0.0018   -0.0049   -0.1841    0.0002   -0.0217
          56   -0.0060    0.0019    0.0034    0.0048    0.0129    0.4563   -0.0008    0.0408
          57   -0.0046    0.0011    0.0019    0.0032    0.0037    0.0505   -0.0008   -0.0465
          58   -0.0011    0.0002    0.0020    0.0003    0.0017    0.0790    0.0001    0.0161
          59    0.0018   -0.0002    0.0001   -0.0014   -0.0037   -0.1581   -0.0001   -0.0299
          60   -0.0050   -0.0008    0.0009    0.0017    0.0072    0.3007   -0.0001    0.0567
          61    0.0045    0.0485   -0.0079   -0.1042   -0.1876    0.0074    0.0753    0.1478
          62    0.0104   -0.1315    0.0214    0.0738    0.3703   -0.0109   -0.0790   -0.2747
          63   -0.0041    0.0037    0.0671   -0.0070   -0.0117    0.0001    0.0025    0.0090
          64   -0.0185    0.2876   -0.0223   -0.2054   -0.0550    0.0077    0.2804    0.0165
          65   -0.0203   -0.0215   -0.0287   -0.0272    0.0531   -0.0004    0.0016   -0.0106
          66   -0.4242   -0.0255   -0.5096    0.0258    0.0130   -0.0005   -0.0112   -0.0030
          67    0.0058   -0.1522    0.0101    0.0820   -0.0622    0.0012    0.0145    0.0177
          68    0.0192   -0.2911    0.0208    0.1534    0.0768   -0.0043   -0.2114   -0.0088
          69    0.1300    0.0292    0.1426   -0.0170   -0.0080   -0.0004    0.0143    0.0016
          70    0.0125   -0.1932    0.0077    0.0182    0.0711   -0.0012    0.0197   -0.0109
          71    0.0066    0.2681    0.0029   -0.1889   -0.0123    0.0041    0.2096    0.0164
          72    0.1304   -0.0049    0.1454    0.0065   -0.0050   -0.0009   -0.0123   -0.0000
          73    0.0012   -0.0008    0.0010    0.0010    0.0050    0.2194    0.0006   -0.0218
          74   -0.0042    0.0011    0.0011   -0.0005   -0.0032   -0.1358   -0.0001    0.0083
          75   -0.0051   -0.0021    0.0019   -0.0006    0.0014    0.0565    0.0015   -0.0075
          76    0.0020    0.0019    0.0015    0.0026    0.0033    0.1004   -0.0005    0.0036
          77    0.0060   -0.0030   -0.0024   -0.0069   -0.0102   -0.2910    0.0011    0.0019
          78    0.0125   -0.0022   -0.0032   -0.0065   -0.0116   -0.3383    0.0007    0.0020
          79    0.0000    0.0000   -0.0006   -0.0024   -0.0068   -0.2601   -0.0000    0.0265
          80    0.0069    0.0007   -0.0011    0.0033    0.0041    0.1386   -0.0008   -0.0234
          81   -0.0369    0.0071    0.0114    0.0144    0.0171    0.3239   -0.0010   -0.0372


   Root No.      57        58        59        60        61        62        63        64

                57 A      58 A      59 A      60 A      61 A      62 A      63 A      64 A   

                   8.3       8.6       8.8       8.9       9.1      10.5      11.3      12.5
  
           1   -0.0226    0.0076    0.0133    0.0861    0.0166   -0.1764   -0.0018   -0.1089
           2   -0.0347   -0.0103   -0.0177   -0.1806   -0.0242   -0.3724    0.0029   -0.0151
           3    0.0006   -0.0019    0.0000   -0.0003    0.0000    0.0084   -0.0003    0.0009
           4   -0.0233    0.0086    0.0090    0.0693    0.0067   -0.1279    0.0008    0.0246
           5    0.0206   -0.0214   -0.0119   -0.2676   -0.0854    0.1525    0.0030   -0.4712
           6    0.0033    0.0044   -0.0003    0.0111   -0.0012   -0.0052    0.0001   -0.0020
           7   -0.0131   -0.0279   -0.0264   -0.3073   -0.0454    0.2068   -0.0038    0.1018
           8    0.0228   -0.0018    0.0062    0.0010   -0.0076    0.0102    0.0004   -0.0295
           9   -0.0083   -0.0071    0.0128   -0.0094    0.0106    0.0081   -0.0029    0.0148
          10    0.0383    0.0082    0.0131    0.0690   -0.0023   -0.1112    0.0009   -0.0182
          11    0.0319    0.0117    0.0392    0.2399    0.0027   -0.1711   -0.0047    0.4767
          12    0.0009    0.0013   -0.0052   -0.0094    0.0006    0.0047    0.0009   -0.0193
          13    0.0351    0.0077    0.0189    0.0778   -0.0133   -0.1744   -0.0002   -0.0249
          14   -0.0270    0.0119    0.0113    0.1860    0.0430    0.3650   -0.0034    0.0237
          15   -0.0001   -0.0016   -0.0002   -0.0110   -0.0026   -0.0194    0.0001    0.0015
          16    0.0118    0.0244    0.0207    0.2761    0.0442    0.4164    0.0010   -0.1956
          17   -0.0201    0.0010   -0.0040    0.0005    0.0145    0.0069    0.0003   -0.0217
          18    0.0005   -0.0002   -0.0007   -0.0035   -0.0007   -0.0036    0.0002    0.0026
          19    0.0188    0.0027    0.0022    0.0467    0.0086    0.1081   -0.0005    0.0336
          20    0.0328    0.0040    0.0057    0.0720    0.0071    0.1790   -0.0008    0.0287
          21    0.0000   -0.0004   -0.0000   -0.0012    0.0001   -0.0022   -0.0004   -0.0004
          22    0.0124   -0.0097   -0.0079   -0.1126   -0.0269    0.0440    0.0006   -0.0646
[...]
 FREQUENCY          1026.59         C 12 -- H 15         +13.3% ( 56.8%)     24.2%
 TRANSITION DIPOLE   1.4435         C 12 -- H 13         +12.8% ( 55.6%)      4.8%
 TRAVEL (Ang.)       0.3292         C  4 -- C  5          +6.3% ( 38.9%)      3.4%
 REDUCED MASS        0.6062         C  1 -- C  6          +6.2% ( 38.7%)     18.6%
 EFFECTIVE MASS      9.0322
 FORCE CONSTANT      0.3764

 VIBRATION         42   42A           ATOM PAIR      ENERGY CONTRIBUTION    RADIAL
 FREQUENCY          1051.06         C 12 -- H 15         +11.5% ( 51.9%)      9.7%
 TRANSITION DIPOLE   0.3987         C  1 -- C  2         +10.5% ( 49.5%)      0.2%
 TRAVEL (Ang.)       0.3372         C 12 -- H 13         +10.4% ( 49.4%)     16.9%
 REDUCED MASS        0.5643         C  4 -- C  5          +9.9% ( 48.3%)      0.3%
 EFFECTIVE MASS      8.2293
 FORCE CONSTANT      0.3673

 VIBRATION         43   43A           ATOM PAIR      ENERGY CONTRIBUTION    RADIAL
 FREQUENCY          1055.39         C 12 -- H 14         +38.7% ( 78.6%)     17.0%
 TRANSITION DIPOLE   0.4963         C 12 -- H 13         +21.6% ( 58.7%)      4.8%
 TRAVEL (Ang.)       0.2787         C 12 -- H 15         +21.3% ( 58.3%)      6.8%
 REDUCED MASS        0.8226         C 10 -- C 12         +13.0% ( 45.5%)      0.0%
 EFFECTIVE MASS      3.9321
 FORCE CONSTANT      0.5398

 VIBRATION         44   44A           ATOM PAIR      ENERGY CONTRIBUTION    RADIAL
 FREQUENCY          1179.56         C  3 -- C  4         +15.1% ( 56.7%)     83.4%
 TRANSITION DIPOLE   1.1965         C  2 -- C  3         +11.9% ( 50.3%)     43.6%
 TRAVEL (Ang.)       0.2659         C 10 -- C 12         +10.3% ( 46.7%)     60.9%
 REDUCED MASS        0.8086         C  3 -- C 10         +10.3% ( 46.7%)     27.5%
 EFFECTIVE MASS      8.0244
 FORCE CONSTANT      0.6629

 VIBRATION         45   45A           ATOM PAIR      ENERGY CONTRIBUTION    RADIAL
 FREQUENCY          1207.04         C  1 -- H  7         +18.9% ( 59.0%)      2.2%
 TRANSITION DIPOLE   0.3528         C  2 -- C  3         +11.8% ( 46.7%)     88.2%
 TRAVEL (Ang.)       0.4001         C  5 -- H 21         +11.6% ( 46.2%)      2.6%
 REDUCED MASS        0.3489         C  4 -- H  9         +11.2% ( 45.4%)      2.2%
 EFFECTIVE MASS      4.7782
 FORCE CONSTANT      0.2995

 VIBRATION         46   46A           ATOM PAIR      ENERGY CONTRIBUTION    RADIAL
 FREQUENCY          1258.73         C  5 -- C  6         +14.8% ( 50.6%)     58.7%
 TRANSITION DIPOLE   2.8989         C  6 -- N 22         +14.8% ( 50.6%)     99.9%
 TRAVEL (Ang.)       0.2419         C  1 -- C  6         +14.8% ( 50.6%)     53.8%
 REDUCED MASS        0.9154         C  5 -- H 21         +14.7% ( 50.5%)      5.0%
 EFFECTIVE MASS      6.8065         C  1 -- H  7         +12.5% ( 46.4%)      6.7%
 FORCE CONSTANT      0.8545

 VIBRATION         47   47A           ATOM PAIR      ENERGY CONTRIBUTION    RADIAL
 FREQUENCY          1259.76         C 12 -- H 14         +43.9% ( 57.7%)      0.8%
 TRANSITION DIPOLE   0.6224         C 12 -- H 13         +34.2% ( 51.0%)      2.5%
 TRAVEL (Ang.)       0.3767         C 12 -- H 15         +11.5% ( 29.5%)     35.4%
 REDUCED MASS        0.3772         C 10 -- C 12          +4.1% ( 17.7%)      9.6%
 EFFECTIVE MASS      1.5450
 FORCE CONSTANT      0.3527

 VIBRATION         48   48A           ATOM PAIR      ENERGY CONTRIBUTION    RADIAL
 FREQUENCY          1272.67         H 25 -- O 27         +28.6% ( 46.7%)      4.4%
 TRANSITION DIPOLE   1.3904         C 12 -- H 15         +20.7% ( 39.7%)      0.1%
 TRAVEL (Ang.)       0.4406         H 11 -- O 27         +17.1% ( 36.0%)     13.5%
 REDUCED MASS        0.2729         C 12 -- H 14         +12.9% ( 31.3%)      6.2%
 EFFECTIVE MASS      2.3399
 FORCE CONSTANT      0.2605

 VIBRATION         49   49A           ATOM PAIR      ENERGY CONTRIBUTION    RADIAL
 FREQUENCY          1279.78         C 12 -- H 15         +23.3% ( 42.8%)      0.1%
 TRANSITION DIPOLE   1.0583         H 25 -- O 27         +21.4% ( 41.1%)      4.6%
 TRAVEL (Ang.)       0.4837         H 11 -- O 27         +12.6% ( 31.5%)     13.0%
 REDUCED MASS        0.2252         C 12 -- H 14         +12.2% ( 31.0%)      7.6%
 EFFECTIVE MASS      2.4597
 FORCE CONSTANT      0.2173

 VIBRATION         50   50A           ATOM PAIR      ENERGY CONTRIBUTION    RADIAL
 FREQUENCY          1303.39         C  2 -- H  8         +22.8% ( 56.0%)      1.5%
 TRANSITION DIPOLE   1.5022         C  4 -- H  9         +13.8% ( 43.7%)      3.0%
 TRAVEL (Ang.)       0.3006         C  6 -- N 22         +12.0% ( 40.6%)     99.8%
 REDUCED MASS        0.5727         C  5 -- C  6         +11.6% ( 40.0%)     37.8%
 EFFECTIVE MASS      4.6096         C  1 -- C  6         +11.0% ( 38.9%)     36.3%
 FORCE CONSTANT      0.5733

 VIBRATION         51   51A           ATOM PAIR      ENERGY CONTRIBUTION    RADIAL
 FREQUENCY          1323.28         C 10 -- C 12         +25.0% ( 75.2%)     97.1%
 TRANSITION DIPOLE   5.0158         C  3 -- C 10         +14.5% ( 57.2%)     17.5%
 TRAVEL (Ang.)       0.1370         C 10 -- N 16         +12.3% ( 52.8%)      6.2%
 REDUCED MASS        2.7145         N 16 -- O 18          +9.7% ( 46.9%)     78.4%
 EFFECTIVE MASS     12.4935
 FORCE CONSTANT      2.8005

 VIBRATION         52   52A           ATOM PAIR      ENERGY CONTRIBUTION    RADIAL
 FREQUENCY          1359.77         C  4 -- H  9         +28.2% ( 57.9%)      0.1%
 TRANSITION DIPOLE   0.2275         C  2 -- H  8         +17.1% ( 45.1%)      0.2%
 TRAVEL (Ang.)       0.4497         C  1 -- H  7         +17.0% ( 45.0%)      0.0%
 REDUCED MASS        0.2452         C  5 -- H 21          +9.7% ( 34.0%)      0.0%
 EFFECTIVE MASS      2.4297
 FORCE CONSTANT      0.2671

 VIBRATION         53   53A           ATOM PAIR      ENERGY CONTRIBUTION    RADIAL
 FREQUENCY          1380.56         O 19 -- H 26         +59.5% ( 67.3%)      6.4%
 TRANSITION DIPOLE   1.2626         O 19 -- H 20         +15.9% ( 34.8%)     14.5%
 TRAVEL (Ang.)       0.3500         H 25 -- O 27          +5.0% ( 19.5%)     11.2%
 REDUCED MASS        0.3988         C 12 -- H 13          +4.8% ( 19.0%)      1.6%
 EFFECTIVE MASS      1.9465
 FORCE CONSTANT      0.4478

 VIBRATION         54   54A           ATOM PAIR      ENERGY CONTRIBUTION    RADIAL
 FREQUENCY          1387.62         C 12 -- H 13         +25.8% ( 50.2%)      1.0%
 TRANSITION DIPOLE   1.5652         C 12 -- H 15         +22.0% ( 46.4%)      0.9%
 TRAVEL (Ang.)       0.4536         C 12 -- H 14         +15.9% ( 39.4%)      0.6%
 REDUCED MASS        0.2362         O 19 -- H 26          +5.6% ( 23.4%)      5.9%
 EFFECTIVE MASS      2.9482
 FORCE CONSTANT      0.2680

 VIBRATION         55   55A           ATOM PAIR      ENERGY CONTRIBUTION    RADIAL
 FREQUENCY          1422.90         C  3 -- C  4         +14.2% ( 58.2%)     98.5%
 TRANSITION DIPOLE   2.5672         C  4 -- C  5         +13.6% ( 56.9%)     99.4%
 TRAVEL (Ang.)       0.1859         C  2 -- C  3         +12.9% ( 55.5%)     98.5%
 REDUCED MASS        1.3710         C  1 -- C  2         +11.5% ( 52.4%)     97.1%
 EFFECTIVE MASS     10.1009
 FORCE CONSTANT      1.6354

 VIBRATION         56   56A           ATOM PAIR      ENERGY CONTRIBUTION    RADIAL
 FREQUENCY          1433.06         C  3 -- C 10         +16.2% ( 59.2%)     98.3%
 TRANSITION DIPOLE   8.5300         C 10 -- N 16         +10.5% ( 47.7%)     71.1%
 TRAVEL (Ang.)       0.1758         C 10 -- C 12          +9.7% ( 46.0%)      3.9%
 REDUCED MASS        1.5227         C  6 -- N 22          +9.6% ( 45.6%)     97.8%
 EFFECTIVE MASS     11.0068
 FORCE CONSTANT      1.8425

 VIBRATION         57   57A           ATOM PAIR      ENERGY CONTRIBUTION    RADIAL
 FREQUENCY          1467.24         N 22 -- O 24         +17.7% ( 57.4%)     69.2%
 TRANSITION DIPOLE   6.7521         N 22 -- O 23         +17.2% ( 56.6%)     67.4%
 TRAVEL (Ang.)       0.1641         O 23 -- O 24         +11.1% ( 45.5%)    100.0%
 REDUCED MASS        1.7071         C  6 -- N 22          +7.2% ( 36.6%)     99.7%
 EFFECTIVE MASS     12.5397
 FORCE CONSTANT      2.1652

 VIBRATION         58   58A           ATOM PAIR      ENERGY CONTRIBUTION    RADIAL
 FREQUENCY          1499.77         N 16 -- O 18         +14.3% ( 55.1%)     98.1%
 TRANSITION DIPOLE   4.5909         N 16 -- O 17         +10.4% ( 47.0%)     66.2%
 TRAVEL (Ang.)       0.1696         C  4 -- C  5          +9.9% ( 45.8%)     97.0%
 REDUCED MASS        1.5624         C  1 -- C  2          +9.4% ( 44.7%)     98.7%
 EFFECTIVE MASS     12.3354
 FORCE CONSTANT      2.0706

 VIBRATION         59   59A           ATOM PAIR      ENERGY CONTRIBUTION    RADIAL
 FREQUENCY          1520.40         N 16 -- O 17         +24.4% ( 70.4%)     96.5%
 TRANSITION DIPOLE   6.9309         N 16 -- O 18         +19.8% ( 63.4%)     70.2%
 TRAVEL (Ang.)       0.1223         C 10 -- N 16         +16.3% ( 57.5%)     16.8%
 REDUCED MASS        2.9670         C  3 -- C 10          +4.2% ( 29.2%)     65.0%
 EFFECTIVE MASS     13.0588
 FORCE CONSTANT      4.0409

 VIBRATION         60   60A           ATOM PAIR      ENERGY CONTRIBUTION    RADIAL
 FREQUENCY          1537.93         C 10 -- N 16         +21.7% ( 68.6%)     98.4%
 TRANSITION DIPOLE   7.5247         C  3 -- C 10         +13.7% ( 54.5%)     57.0%
 TRAVEL (Ang.)       0.1491         N 16 -- O 18          +9.3% ( 44.9%)     75.6%
 REDUCED MASS        1.9718         C 10 -- C 12          +9.2% ( 44.7%)     14.8%
 EFFECTIVE MASS     12.0532
 FORCE CONSTANT      2.7479

 VIBRATION         61   61A           ATOM PAIR      ENERGY CONTRIBUTION    RADIAL
 FREQUENCY          1575.41         C  3 -- C 10         +14.9% ( 53.6%)     83.2%
 TRANSITION DIPOLE   2.8008         C  2 -- C  3         +10.5% ( 45.1%)     72.2%
 TRAVEL (Ang.)       0.1667         C 10 -- N 16         +10.4% ( 44.8%)     75.9%
 REDUCED MASS        1.5409         C  3 -- C  4         +10.2% ( 44.2%)     45.7%
 EFFECTIVE MASS     11.3150
 FORCE CONSTANT      2.2533

 VIBRATION         62   62A           ATOM PAIR      ENERGY CONTRIBUTION    RADIAL
 FREQUENCY          1631.01         N 22 -- O 23         +34.9% ( 84.2%)     88.8%
 TRANSITION DIPOLE  10.5100         N 22 -- O 24         +34.5% ( 83.7%)     88.5%
 TRAVEL (Ang.)       0.0802         C  6 -- N 22         +20.7% ( 64.8%)      0.0%
 REDUCED MASS        6.4205         O 23 -- O 24          +6.2% ( 35.6%)      0.0%
 EFFECTIVE MASS     14.5618
 FORCE CONSTANT     10.0632

 VIBRATION         63   63A           ATOM PAIR      ENERGY CONTRIBUTION    RADIAL
 FREQUENCY          1646.75         C  5 -- C  6         +21.2% ( 66.3%)     85.9%
 TRANSITION DIPOLE   3.9487         C  1 -- C  6         +21.2% ( 66.3%)     86.1%
 TRAVEL (Ang.)       0.1185         C  6 -- N 22         +13.8% ( 53.4%)      0.0%
 REDUCED MASS        2.9159         C  2 -- C  3          +9.2% ( 43.7%)     92.1%
 EFFECTIVE MASS     11.9990
 FORCE CONSTANT      4.6588

 VIBRATION         64   64A           ATOM PAIR      ENERGY CONTRIBUTION    RADIAL
 FREQUENCY          1678.30         C  4 -- C  5         +18.4% ( 60.5%)    100.0%
 TRANSITION DIPOLE   3.6665         C  1 -- C  2         +15.8% ( 56.0%)    100.0%
 TRAVEL (Ang.)       0.1402         C  3 -- C  4          +8.6% ( 41.4%)     39.9%
 REDUCED MASS        2.0442         C  2 -- C  3          +7.3% ( 38.0%)     41.5%
 EFFECTIVE MASS     12.2143
 FORCE CONSTANT      3.3925

 VIBRATION         65   65A           ATOM PAIR      ENERGY CONTRIBUTION    RADIAL
 FREQUENCY          1921.92         H 11 -- O 27         +96.2% ( 98.1%)     98.7%
 TRANSITION DIPOLE   2.1716         H 25 -- O 27          +2.5% ( 16.0%)     48.6%
 TRAVEL (Ang.)       0.1435         C 10 -- N 16          +0.3% (  5.0%)     88.7%
 REDUCED MASS        1.7026         N 16 -- O 18          +0.2% (  4.4%)     47.6%
 EFFECTIVE MASS      2.8818
 FORCE CONSTANT      3.7054

 VIBRATION         66   66A           ATOM PAIR      ENERGY CONTRIBUTION    RADIAL
 FREQUENCY          2651.74         C 12 -- H 14         +61.8% ( 81.1%)     99.2%
 TRANSITION DIPOLE   0.7868         C 12 -- H 13         +33.3% ( 59.5%)     95.1%
 TRAVEL (Ang.)       0.2237         C 12 -- H 15          +3.9% ( 20.3%)     51.5%
 REDUCED MASS        0.5081         C 10 -- C 12          +0.8% (  9.5%)      0.0%
 EFFECTIVE MASS      1.4375
 FORCE CONSTANT      2.1052

 VIBRATION         67   67A           ATOM PAIR      ENERGY CONTRIBUTION    RADIAL
 FREQUENCY          2656.92         C 12 -- H 15         +62.0% ( 81.2%)     99.3%
 TRANSITION DIPOLE   0.8183         C 12 -- H 13         +31.1% ( 57.6%)     94.4%
 TRAVEL (Ang.)       0.2254         C 12 -- H 14          +5.9% ( 25.1%)     63.4%
 REDUCED MASS        0.4998         C 10 -- C 12          +0.9% (  9.8%)      0.0%
 EFFECTIVE MASS      1.4461
 FORCE CONSTANT      2.0786

 VIBRATION         68   68A           ATOM PAIR      ENERGY CONTRIBUTION    RADIAL
 FREQUENCY          2680.79         O 19 -- H 26         +82.5% ( 92.5%)     97.9%
 TRANSITION DIPOLE   2.3189         O 19 -- H 20         +14.7% ( 39.0%)     85.3%
 TRAVEL (Ang.)       0.1880         H 25 -- O 27          +2.7% ( 16.6%)     97.7%
 REDUCED MASS        0.7114
 EFFECTIVE MASS      1.4921
 FORCE CONSTANT      3.0121

 VIBRATION         69   69A           ATOM PAIR      ENERGY CONTRIBUTION    RADIAL
 FREQUENCY          2709.38         C  5 -- H 21         +62.2% ( 79.8%)    100.0%
 TRANSITION DIPOLE   1.2506         C  2 -- H  8         +23.0% ( 48.5%)    100.0%
 TRAVEL (Ang.)       0.2389         C  4 -- H  9          +7.2% ( 27.2%)     99.8%
 REDUCED MASS        0.4362         C  1 -- H  7          +5.4% ( 23.6%)     99.9%
 EFFECTIVE MASS      1.3840
 FORCE CONSTANT      1.8864

 VIBRATION         70   70A           ATOM PAIR      ENERGY CONTRIBUTION    RADIAL
 FREQUENCY          2710.88         C  2 -- H  8         +40.1% ( 63.9%)    100.0%
 TRANSITION DIPOLE   0.4397         C  1 -- H  7         +31.1% ( 56.3%)     99.9%
 TRAVEL (Ang.)       0.2862         C  5 -- H 21         +23.6% ( 49.0%)    100.0%
 REDUCED MASS        0.3036         C  4 -- H  9          +3.4% ( 18.5%)     99.8%
 EFFECTIVE MASS      1.3561
 FORCE CONSTANT      1.3144

 VIBRATION         71   71A           ATOM PAIR      ENERGY CONTRIBUTION    RADIAL
 FREQUENCY          2722.36         C  1 -- H  7         +47.6% ( 69.6%)    100.0%
 TRANSITION DIPOLE   1.9626         C  2 -- H  8         +25.8% ( 51.3%)    100.0%
 TRAVEL (Ang.)       0.2694         C  4 -- H  9         +23.9% ( 49.3%)    100.0%
 REDUCED MASS        0.3413         C  1 -- C  2          +0.9% (  9.6%)     90.4%
 EFFECTIVE MASS      1.3844
 FORCE CONSTANT      1.4904

 VIBRATION         72   72A           ATOM PAIR      ENERGY CONTRIBUTION    RADIAL
 FREQUENCY          2731.27         C  4 -- H  9         +63.2% ( 80.2%)    100.0%
 TRANSITION DIPOLE   0.4821         C  1 -- H  7         +13.8% ( 37.5%)    100.0%
 TRAVEL (Ang.)       0.2402         C  5 -- H 21         +11.5% ( 34.1%)     99.7%
 REDUCED MASS        0.4278         C  2 -- H  8          +8.8% ( 29.9%)    100.0%
 EFFECTIVE MASS      1.4221
 FORCE CONSTANT      1.8804

 VIBRATION         73   73A           ATOM PAIR      ENERGY CONTRIBUTION    RADIAL
 FREQUENCY          2739.97         H 25 -- O 27         +93.1% ( 96.0%)     99.6%
 TRANSITION DIPOLE   1.7664         O 19 -- H 26          +4.7% ( 21.5%)     95.0%
 TRAVEL (Ang.)       0.1736         O 19 -- H 20          +1.5% ( 12.1%)     99.4%
 REDUCED MASS        0.8164         H 11 -- O 27          +0.4% (  6.0%)      0.1%
 EFFECTIVE MASS      1.3167
 FORCE CONSTANT      3.6113

 VIBRATION         74   74A           ATOM PAIR      ENERGY CONTRIBUTION    RADIAL
 FREQUENCY          2772.69         C 12 -- H 13         +34.9% ( 56.6%)     95.7%
 TRANSITION DIPOLE   0.6007         C 12 -- H 15         +33.2% ( 55.3%)     95.5%
 TRAVEL (Ang.)       0.2738         C 12 -- H 14         +31.2% ( 53.5%)     95.0%
 REDUCED MASS        0.3244         C 10 -- C 12          +0.3% (  5.1%)     99.6%
 EFFECTIVE MASS      1.1430
 FORCE CONSTANT      1.4693

 VIBRATION         75   75A           ATOM PAIR      ENERGY CONTRIBUTION    RADIAL
 FREQUENCY          2862.19         O 19 -- H 20         +86.7% ( 90.5%)     98.8%
 TRANSITION DIPOLE   0.5224         O 19 -- H 26          +9.7% ( 30.3%)     96.0%
 TRAVEL (Ang.)       0.1834         H 25 -- O 27          +3.5% ( 18.2%)     97.3%
 REDUCED MASS        0.7000
 EFFECTIVE MASS      1.2223
 FORCE CONSTANT      3.3789

      SYMMETRY NUMBER FOR POINT-GROUP C1  =  1


          SYSTEM IS A GROUND STATE



 Title: ASE calculation


          MOLECULE IS NOT LINEAR

          THERE ARE 75 GENUINE VIBRATIONS IN THIS SYSTEM
          THIS THERMODYNAMICS CALCULATION IS LIMITED TO
          MOLECULES WHICH HAVE NO INTERNAL ROTATIONS




                    CALCULATED THERMODYNAMIC PROPERTIES
                                          *
   TEMP. (K)   PARTITION FUNCTION   H.O.F.    ENTHALPY  HEAT CAPACITY ENTROPY
                                   KCAL/MOL   CAL/MOLE    CAL/K/MOL  CAL/K/MOL


 298.00  VIB.     0.3309D+08                  9786.0023    58.3446    67.2470
         ROT.     0.4724D+07                   888.2803     2.9808    33.5205
         INT.     0.1563D+15                 10674.2826    61.3254   100.7675
         TRA.     0.3421D+28                  1480.4672     4.9680    42.2268
         TOT.                     -251.275   12154.7498    66.2934   142.9943

   *: NOTE: HEATS OF FORMATION ARE RELATIVE TO THE
            ELEMENTS IN THEIR STANDARD STATE AT 298K
              (=  Standard Enthalpy of Formation).

            Hvib:  Zero-point energy is not included.
                   frequencies of less than zero cm-1 are not included.
            Hrot = (3/2)RT
            Htra = (3/2)RT + pV = (5/2)RT

            Heat capacity is Cp, not Cv

          For more information, see: HTTP://OpenMOPAC.net/Manual/thermochemistry.html


           FORCE CONSTANT IN CARTESIAN COORDINATES (Millidynes/A)

    ATOM   CHEMICAL       X               Y               Z
   NUMBER   SYMBOL  FORCE CONSTANT  FORCE CONSTANT  FORCE CONSTANT

      1       C       11.321522        9.662118        2.159379
      2       C       11.186878        9.282918        2.004866
      3       C       11.158002       10.833247        2.371694
      4       C       11.392399        9.235453        1.973477
      5       C       11.328416        9.677302        2.227764
      6       C        9.814478       12.314560        2.100842
      7       H        1.741234        3.338541        0.366779
      8       H        1.725564        3.370361        0.339896
      9       H        1.781483        3.376636        0.327287
     10       C       10.580968        9.525703        3.603845
     11       H        0.616093        0.395523        3.927460
     12       C        6.596380        6.961808        6.093782
     13       H        3.857157        0.838216        0.697735
     14       H        0.598415        2.559272        2.160011
     15       H        1.149032        1.183181        3.045190
     16       N       12.607369       10.759123        5.053038
     17       O       10.150618        1.550842        0.721852
     18       O        3.163315        7.745699        1.560867
     19       O        0.711148        4.405737        6.164115
     20       H        0.350033        0.778740        3.782256
     21       H        1.687493        3.345163        0.351094
     22       N       11.250792       14.701079        3.039761
     23       O        3.905631        9.349352        0.385617
     24       O        3.879487        9.222038        0.387601
     25       H        2.861407        0.870839        1.067924
     26       H        0.452430        1.754521        2.948696
     27       O        3.418753        2.563601        5.499785

 **********************
 *                    *
 * JOB ENDED NORMALLY *
 *                    *
 **********************



 TOTAL JOB TIME:             9.22 SECONDS

 == MOPAC DONE ==
