 *******************************************************************************
 **                                                                           **
 **                              MOPAC v22.1.1                                **
 **                                                                           **
 *******************************************************************************
 **          Digital Object Identifier (DOI): 10.5281/zenodo.6511958          **
 **    Visit the DOI location for information on how to cite this program.    **
 *******************************************************************************

                              PM7 CALCULATION RESULTS

 *******************************************************************************
 *  CALCULATION DONE:                                Wed Nov  6 13:10:22 2024  *
 *  PM7        - The PM7 Hamiltonian to be used
 *  SINGLET    - SPIN STATE DEFINED AS A SINGLET
 *
 *
 *
 *                 CHARGE ON SYSTEM = -1
 *
 *
 *
 *  EPS=78.4   - USE ANDREAS KLAMT'S COSMO IMPLICIT SOLVATION MODEL
 *  THREADS=1  - MULTI-THREADING NOT USED
 *  T=         - A TIME OF 14.0 DAYS REQUESTED
 *  DUMP=N     - RESTART FILE WRITTEN EVERY 30.0 MINUTES REQUESTED
 *  RELSCF     - DEFAULT SCF CRITERION MULTIPLIED BY 1.0000
 *              (DEFAULT SCF CRITERION = 0.00010)
 *  ITRY=      - DO A MAXIMUM OF 15000 ITERATIONS FOR SCF
 *  AUX        - OUTPUT AUXILIARY INFORMATION
 *  BONDS      - FINAL BOND-ORDER MATRIX TO BE PRINTED
 *******************************************************************************
PM7 BONDS AUX DUMP=30M ITRY=15000 T=14D CHARGE=-1 SINGLET eps=78.4 THREADS=True RELSCF=1
 Title: ASE calculation

   ATOM   CHEMICAL          X               Y               Z
  NUMBER   SYMBOL      (ANGSTROMS)     (ANGSTROMS)     (ANGSTROMS)

     1       C          1.16955847  *   0.92417081  *  -1.39225391  *
     2       C          1.14688432  *  -0.44221290  *  -1.10435956  *
     3       C         -0.07846071  *  -1.05679194  *  -0.87427889  *
     4       C         -1.27356487  *  -0.34274607  *  -0.91142703  *
     5       C         -1.23394482  *   1.02093214  *  -1.19408915  *
     6       C         -0.01497584  *   1.65339962  *  -1.43696434  *
     7       H          2.12381258  *   1.41914500  *  -1.58261320  *
     8       C          2.46669515  *  -1.17073801  *  -1.06721077  *
     9       I         -0.16604514  *  -3.13529352  *  -0.46514604  *
    10       H         -2.23939570  *  -0.81657477  *  -0.72669542  *
    11       H         -2.16154811  *   1.59378237  *  -1.22598417  *
    12       H          0.00779245  *   2.72111445  *  -1.66145671  *
    13       O          2.93428724  *  -1.47910425  *  -2.19363638  *
    14       C          3.04312865     -1.41283888      0.13982151   
    15       O          6.84016097     -2.23855045      0.34284131   
    16       H          7.06026368  *  -2.25447176  *   1.28976612  *
    17       H          7.20646422  *  -3.80437084  *  -0.22974402  *
    18       O          7.39143104  *  -4.70152401  *  -0.55919506  *
    19       H          7.15560814  *  -5.27848372  *   0.17266005  *
    20       H          3.97940625  *  -1.91057526  *   0.23616509  *
    21       H          2.60129362  *  -1.13477513  *   1.06586504  *
    22       H          5.84479011     -2.20702653  *   0.36403361  *



          CARTESIAN COORDINATES 

    NO.       ATOM           X           Y           Z

     1         C          1.1696      0.9242     -1.3923
     2         C          1.1469     -0.4422     -1.1044
     3         C         -0.0785     -1.0568     -0.8743
     4         C         -1.2736     -0.3427     -0.9114
     5         C         -1.2339      1.0209     -1.1941
     6         C         -0.0150      1.6534     -1.4370
     7         H          2.1238      1.4191     -1.5826
     8         C          2.4667     -1.1707     -1.0672
     9         I         -0.1660     -3.1353     -0.4651
    10         H         -2.2394     -0.8166     -0.7267
    11         H         -2.1615      1.5938     -1.2260
    12         H          0.0078      2.7211     -1.6615
    13         O          2.9343     -1.4791     -2.1936
    14         C          3.0431     -1.4128      0.1398
    15         O          6.8402     -2.2386      0.3428
    16         H          7.0603     -2.2545      1.2898
    17         H          7.2065     -3.8044     -0.2297
    18         O          7.3914     -4.7015     -0.5592
    19         H          7.1556     -5.2785      0.1727
    20         H          3.9794     -1.9106      0.2362
    21         H          2.6013     -1.1348      1.0659
    22         H          5.8448     -2.2070      0.3640

 General Reference for PM7:
 "Optimization of Parameters for Semiempirical Methods VI: More Modifications to the 
 NDDO Approximations and Re-optimization of Parameters", J. J. P. Stewart, J. Mol. Mod., 1:32, 19 (2013)
 https://link.springer.com/article/10.1007/s00894-012-1667-x

           Empirical Formula: C8 H10 O3 I  =    22 atoms



      MOLECULAR POINT GROUP   :   C1  


 SINGLET STATE CALCULATION


      RHF CALCULATION, NO. OF DOUBLY OCCUPIED LEVELS = 34


          Geometry optimization using EF
  SCF CRITERION =    0.1000E-03

          DIAGONAL MATRIX USED AS START HESSIAN

 CYCLE:     1 TIME:   0.039 TIME LEFT:  2.00W  GRAD.:     1.741 HEAT: -219.3320
 CYCLE:     2 TIME:   0.023 TIME LEFT:  2.00W  GRAD.:     5.680 HEAT: -219.3288
 CYCLE:     3 TIME:   0.062 TIME LEFT:  2.00W  GRAD.:     2.313 HEAT: -219.3260
 CYCLE:     4 TIME:   0.012 TIME LEFT:  2.00W  GRAD.:     2.851 HEAT: -219.3318
 CYCLE:     5 TIME:   0.012 TIME LEFT:  2.00W  GRAD.:     2.586 HEAT: -219.3407
 CYCLE:     6 TIME:   0.027 TIME LEFT:  2.00W  GRAD.:     2.558 HEAT: -219.3350
 CYCLE:     7 TIME:   0.012 TIME LEFT:  2.00W  GRAD.:     2.074 HEAT: -219.3437
 CYCLE:     8 TIME:   0.012 TIME LEFT:  2.00W  GRAD.:     1.862 HEAT: -219.3471
 CYCLE:     9 TIME:   0.012 TIME LEFT:  2.00W  GRAD.:     1.842 HEAT: -219.3758
 CYCLE:    10 TIME:   0.016 TIME LEFT:  2.00W  GRAD.:     1.547 HEAT: -219.4375
 CYCLE:    11 TIME:   0.012 TIME LEFT:  2.00W  GRAD.:     1.857 HEAT: -219.4422
 CYCLE:    12 TIME:   0.012 TIME LEFT:  2.00W  GRAD.:     1.184 HEAT: -219.5224
 CYCLE:    13 TIME:   0.012 TIME LEFT:  2.00W  GRAD.:     1.052 HEAT: -219.5593
 CYCLE:    14 TIME:   0.016 TIME LEFT:  2.00W  GRAD.:     1.073 HEAT: -219.5670
 CYCLE:    15 TIME:   0.035 TIME LEFT:  2.00W  GRAD.:     0.965 HEAT: -219.5679

     GRADIENT =  0.96516 IS LESS THAN CUTOFF =  1.00000



 -------------------------------------------------------------------------------
 PM7 BONDS AUX DUMP=30M ITRY=15000 T=14D CHARGE=-1 SINGLET eps=78.4 THREADS=True RELSCF=1
 Title: ASE calculation



     GEOMETRY OPTIMISED USING EIGENVECTOR FOLLOWING (EF).     
     SCF FIELD WAS ACHIEVED                                   


                              PM7 CALCULATION
                                                       MOPAC v22.1.1 Linux
                                                       Wed Nov  6 13:10:22 2024




          FINAL HEAT OF FORMATION =       -219.56788 KCAL/MOL =    -918.67201 KJ/MOL
          VAN DER WAALS AREA      =        249.36 SQUARE ANGSTROMS



          DIELECTRIC ENERGY       =         -3.71839 EV
          COSMO AREA              =        249.36 SQUARE ANGSTROMS
          COSMO VOLUME            =        245.64 CUBIC ANGSTROMS

          GRADIENT NORM           =          0.96516          =       0.20577 PER ATOM
          IONIZATION POTENTIAL    =          8.378588 EV
          HOMO LUMO ENERGIES (EV) =         -8.379 -0.167
          NO. OF FILLED LEVELS    =         34
          MOLECULAR WEIGHT        =        281.0697         POINT GROUP:  C1  

          MOLECULAR DIMENSIONS (Angstroms)

            Atom       Atom       Distance
            H    19    H    11    11.66656
            I     9    H    16     5.13659
            H    21    O    13     3.19807


          SCF CALCULATIONS        =         22

          WALL-CLOCK TIME         =      0.332 SECONDS
          COMPUTATION TIME        =     16.751 SECONDS




   ATOM   CHEMICAL          X               Y               Z
  NUMBER   SYMBOL      (ANGSTROMS)     (ANGSTROMS)     (ANGSTROMS)

     1       C          1.17120055  *   0.92615219  *  -1.38960728  *
     2       C          1.14857804  *  -0.44097886  *  -1.10525062  *
     3       C         -0.07680288  *  -1.05711206  *  -0.87942110  *
     4       C         -1.27229806  *  -0.34327383  *  -0.91640431  *
     5       C         -1.23280995  *   1.02094397  *  -1.19508924  *
     6       C         -0.01367216  *   1.65496735  *  -1.43325331  *
     7       H          2.12545944  *   1.42221803  *  -1.57593321  *
     8       C          2.46871895  *  -1.16929705  *  -1.06757419  *
     9       I         -0.16389687  *  -3.13669183  *  -0.47633368  *
    10       H         -2.23819393  *  -0.81831866  *  -0.73487078  *
    11       H         -2.16060305  *   1.59368760  *  -1.22653865  *
    12       H          0.00902374  *   2.72333761  *  -1.65474684  *
    13       O          2.93754749  *  -1.47606180  *  -2.19406758  *
    14       C          3.04312865     -1.41283888      0.13982151   
    15       O          6.84016097     -2.23855045      0.34284131   
    16       H          7.08703826  *  -2.24906088  *   1.28290758  *
    17       H          7.20352554  *  -3.80119701  *  -0.24027467  *
    18       O          7.38226443  *  -4.69811765  *  -0.57507075  *
    19       H          7.16668773  *  -5.27500572  *   0.16315455  *
    20       H          3.97795472  *  -1.91257065  *   0.23773840  *
    21       H          2.59978177  *  -1.13503010  *   1.06519276  *
    22       H          5.84479011     -2.18202407  *   0.38035419  *

                             CARTESIAN COORDINATES

   1    C        1.171200551     0.926152192    -1.389607284
   2    C        1.148578040    -0.440978861    -1.105250624
   3    C       -0.076802876    -1.057112055    -0.879421101
   4    C       -1.272298056    -0.343273828    -0.916404307
   5    C       -1.232809948     1.020943973    -1.195089243
   6    C       -0.013672157     1.654967352    -1.433253308
   7    H        2.125459441     1.422218026    -1.575933205
   8    C        2.468718954    -1.169297054    -1.067574189
   9    I       -0.163896869    -3.136691825    -0.476333683
  10    H       -2.238193929    -0.818318662    -0.734870784
  11    H       -2.160603045     1.593687602    -1.226538651
  12    H        0.009023741     2.723337610    -1.654746839
  13    O        2.937547494    -1.476061804    -2.194067582
  14    C        3.043128650    -1.412838880     0.139821510
  15    O        6.840160970    -2.238550450     0.342841310
  16    H        7.087038256    -2.249060876     1.282907585
  17    H        7.203525544    -3.801197011    -0.240274672
  18    O        7.382264425    -4.698117646    -0.575070751
  19    H        7.166687727    -5.275005715     0.163154552
  20    H        3.977954723    -1.912570649     0.237738398
  21    H        2.599781775    -1.135030104     1.065192756
  22    H        5.844790110    -2.182024067     0.380354190


           Empirical Formula: C8 H10 O3 I  =    22 atoms



      MOLECULAR POINT GROUP   :   C1  


                  EIGENVALUES  
 -30.86733 -29.59455 -28.74405 -28.67849 -26.42594 -26.16030 -24.21010 -23.31515
 -21.23949 -20.45348 -18.36633 -17.66495 -17.60972 -16.71899 -15.84463 -15.29435
 -14.90442 -14.70322 -14.53959 -14.35565 -13.56644 -13.44137 -12.88044 -12.70583
 -12.43255 -12.30315 -12.01484 -11.30839 -10.64326  -9.99994  -9.72721  -9.45711
  -9.14649  -8.37859  -0.16687  -0.03170   0.62284   2.05178   2.27080   3.57833
   3.89133   4.31450   4.60124   4.80308   4.83950   4.85490   4.98637   5.63456
   5.70458   5.76440   6.07711   6.11249   6.15203   6.19387   6.39162   6.83314
   7.16432   7.94223 123.32596 123.42700 123.57105 123.60846 123.65246


              NET ATOMIC CHARGES AND DIPOLE CONTRIBUTIONS

  ATOM NO.   TYPE          CHARGE      No. of ELECS.   s-Pop       p-Pop       d-Pop       
    1          C          -0.156855        4.1569     1.08618     3.07068
    2          C          -0.081647        4.0816     1.09511     2.98654
    3          C          -0.060734        4.0607     1.10828     2.95245
    4          C          -0.158230        4.1582     1.08642     3.07181
    5          C          -0.158403        4.1584     1.08673     3.07167
    6          C          -0.136833        4.1368     1.08948     3.04735
    7          H           0.173835        0.8262     0.82616
    8          C           0.516591        3.4834     1.06071     2.42270
    9          I          -0.082592        7.0826     1.91692     5.15809     0.00758
   10          H           0.175131        0.8249     0.82487
   11          H           0.166024        0.8340     0.83398
   12          H           0.168117        0.8319     0.83188
   13          O          -0.878210        6.8782     1.88427     4.99394
   14          C          -0.769750        4.7698     1.05727     3.71248
   15          O          -0.728732        6.7287     1.82752     4.90121
   16          H           0.380211        0.6198     0.61979
   17          H           0.379037        0.6210     0.62096
   18          O          -0.778783        6.7788     1.81630     4.96249
   19          H           0.371264        0.6287     0.62874
   20          H           0.142116        0.8579     0.85788
   21          H           0.145605        0.8544     0.85440
   22          H           0.372837        0.6272     0.62716
 DIPOLE           X         Y         Z       TOTAL
 POINT-CHG.   -10.435     1.439     7.704    13.050
 HYBRID        -0.388     0.609     0.194     0.748
 SUM          -10.824     2.048     7.898    13.555


          ATOMIC ORBITAL ELECTRON POPULATIONS

     Atom    s        px        py        pz      x^2-y^2     xz        z^2       yz        xy
    1  C   1.08618   1.06799   0.99684   1.00585
    2  C   1.09511   1.02467   1.00548   0.95639
    3  C   1.10828   0.99879   0.87290   1.08077
    4  C   1.08642   1.05562   1.01244   1.00375
    5  C   1.08673   1.06757   1.00639   0.99771
    6  C   1.08948   0.98197   1.08739   0.97799
    7  H   0.82616
    8  C   1.06071   0.81640   0.76840   0.83790
    9  I   1.91692   1.99363   1.21038   1.95408   0.00308   0.00013   0.00123   0.00130   0.00184
   10  H   0.82487
   11  H   0.83398
   12  H   0.83188
   13  O   1.88427   1.80433   1.75413   1.43547
   14  C   1.05727   1.21524   1.42145   1.07580
   15  O   1.82752   1.44597   1.97250   1.48275
   16  H   0.61979
   17  H   0.62096
   18  O   1.81630   1.94971   1.43581   1.57696
   19  H   0.62874
   20  H   0.85788
   21  H   0.85440
   22  H   0.62716

          BONDING CONTRIBUTION OF EACH M.O.

  1.9189  1.1231  1.3156  1.3239  1.6618  1.6615  1.7033  1.1277  1.9353  1.7209
  1.6645  1.5993  1.6370  1.6857  1.9933  1.7391  0.9412  1.8047  1.4096  0.7575
  1.8144  1.7439  1.5035  1.5774  0.1414  0.0003  1.7163  1.6824  1.4862  1.9416
  0.7318  0.0890  0.5857  0.9798 -2.0535 -1.9815 -2.0005 -2.1282 -2.0139 -1.7618
 -1.9867 -1.9584 -2.0144 -1.9545 -1.8713 -1.8759 -2.0049 -1.9885 -1.9739 -1.9541
 -1.9665 -1.7453 -1.9554 -1.9570 -1.9569 -1.7229 -1.9420 -1.9260 -0.0027 -0.0045
 -0.0006 -0.0042 -0.0117





            (VALENCIES)   BOND ORDERS

     1  C     (3.969)     6  C 1.451     2  C 1.412     7  H 0.957     4  C 0.112     9  I 0.012

     2  C     (3.970)     3  C 1.422     1  C 1.412     8  C 0.927     5  C 0.109    13  O 0.046     9  I 0.019
                         14  C 0.013

     3  C     (3.962)     2  C 1.422     4  C 1.418     9  I 0.977     6  C 0.111

     4  C     (3.969)     5  C 1.449     3  C 1.418    10  H 0.956     1  C 0.112     9  I 0.018

     5  C     (3.972)     4  C 1.449     6  C 1.430    11  H 0.960     2  C 0.109     9  I 0.011

     6  C     (3.970)     1  C 1.451     5  C 1.430    12  H 0.959     3  C 0.111

     7  H     (0.970)     1  C 0.957

     8  C     (3.864)    14  C 1.595    13  O 1.319     2  C 0.927

     9  I     (1.049)     3  C 0.977     2  C 0.019     4  C 0.018     1  C 0.012     5  C 0.011

    10  H     (0.969)     4  C 0.956

    11  H     (0.972)     5  C 0.960

    12  H     (0.972)     6  C 0.959

    13  O     (1.539)     8  C 1.319    14  C 0.148     2  C 0.046

    14  C     (3.711)     8  C 1.595    21  H 0.968    20  H 0.962    13  O 0.148     2  C 0.013

    15  O     (1.770)    16  H 0.852    22  H 0.850    17  H 0.043    18  O 0.020

    16  H     (0.855)    15  O 0.852

    17  H     (0.856)    18  O 0.812    15  O 0.043

    18  O     (1.695)    19  H 0.861    17  H 0.812    15  O 0.020

    19  H     (0.862)    18  O 0.861

    20  H     (0.980)    14  C 0.962

    21  H     (0.979)    14  C 0.968

    22  H     (0.861)    15  O 0.850


 **********************
 *                    *
 * JOB ENDED NORMALLY *
 *                    *
 **********************



 TOTAL JOB TIME:             0.34 SECONDS

 == MOPAC DONE ==
