 *******************************************************************************
 **                                                                           **
 **                              MOPAC v22.1.1                                **
 **                                                                           **
 *******************************************************************************
 **          Digital Object Identifier (DOI): 10.5281/zenodo.6511958          **
 **    Visit the DOI location for information on how to cite this program.    **
 *******************************************************************************

                              PM7 CALCULATION RESULTS

 *******************************************************************************
 *  CALCULATION DONE:                                Wed Nov  6 13:10:24 2024  *
 *  PM7        - The PM7 Hamiltonian to be used
 *  SINGLET    - SPIN STATE DEFINED AS A SINGLET
 *
 *
 *
 *                 CHARGE ON SYSTEM = -1
 *
 *
 *
 *  EPS=78.4   - USE ANDREAS KLAMT'S COSMO IMPLICIT SOLVATION MODEL
 *  LET        - OVERRIDE SOME SAFETY CHECKS
 *  THREADS=1  - MULTI-THREADING NOT USED
 *  T=         - A TIME OF 14.0 DAYS REQUESTED
 *  DUMP=N     - RESTART FILE WRITTEN EVERY 30.0 MINUTES REQUESTED
 *  RELSCF     - DEFAULT SCF CRITERION MULTIPLIED BY 1.0000
 *              (DEFAULT SCF CRITERION = 0.00010)
 *  ITRY=      - DO A MAXIMUM OF 15000 ITERATIONS FOR SCF
 *  AUX        - OUTPUT AUXILIARY INFORMATION
 *  ISOTOPE    - SAVE THE FORCE MATRIX FOR USE LATER
 *  BONDS      - FINAL BOND-ORDER MATRIX TO BE PRINTED
 *  LARGE      - EXPANDED OUTPUT TO BE PRINTED
 *  THERMO     - THERMODYNAMIC QUANTITIES TO BE CALCULATED
 *******************************************************************************
PM7 AUX LARGE THERMO(298,298) LET ISOTOPE BONDS DUMP=30M ITRY=15000 T=14D CHARGE=-1 SINGLET eps=78.4 THREADS=True RELSCF=1
 Title: ASE calculation

   ATOM   CHEMICAL          X               Y               Z
  NUMBER   SYMBOL      (ANGSTROMS)     (ANGSTROMS)     (ANGSTROMS)

     1       C          1.17120055  *   0.92615219  *  -1.38960728  *
     2       C          1.14857804  *  -0.44097886  *  -1.10525062  *
     3       C         -0.07680288  *  -1.05711205  *  -0.87942110  *
     4       C         -1.27229806  *  -0.34327383  *  -0.91640431  *
     5       C         -1.23280995  *   1.02094397  *  -1.19508924  *
     6       C         -0.01367216  *   1.65496735  *  -1.43325331  *
     7       H          2.12545944  *   1.42221803  *  -1.57593320  *
     8       C          2.46871895  *  -1.16929705  *  -1.06757419  *
     9       I         -0.16389687  *  -3.13669183  *  -0.47633368  *
    10       H         -2.23819393  *  -0.81831866  *  -0.73487078  *
    11       H         -2.16060305  *   1.59368760  *  -1.22653865  *
    12       H          0.00902374  *   2.72333761  *  -1.65474684  *
    13       O          2.93754749  *  -1.47606180  *  -2.19406758  *
    14       C          3.04312865  *  -1.41283888  *   0.13982151  *
    15       O          6.84016097  *  -2.23855045  *   0.34284131  *
    16       H          7.08703826  *  -2.24906088  *   1.28290759  *
    17       H          7.20352554  *  -3.80119701  *  -0.24027467  *
    18       O          7.38226442  *  -4.69811765  *  -0.57507075  *
    19       H          7.16668773  *  -5.27500571  *   0.16315455  *
    20       H          3.97795472  *  -1.91257065  *   0.23773840  *
    21       H          2.59978177  *  -1.13503010  *   1.06519276  *
    22       T          5.84479011  *  -2.18202407  *   0.38035419  *


                                Isotopes Used

              Atom:   22  H  Default mass  1.0079,  mass used:  3.0160 amu


          CARTESIAN COORDINATES 

    NO.       ATOM           X           Y           Z

     1         C          1.1712      0.9262     -1.3896
     2         C          1.1486     -0.4410     -1.1053
     3         C         -0.0768     -1.0571     -0.8794
     4         C         -1.2723     -0.3433     -0.9164
     5         C         -1.2328      1.0209     -1.1951
     6         C         -0.0137      1.6550     -1.4333
     7         H          2.1255      1.4222     -1.5759
     8         C          2.4687     -1.1693     -1.0676
     9         I         -0.1639     -3.1367     -0.4763
    10         H         -2.2382     -0.8183     -0.7349
    11         H         -2.1606      1.5937     -1.2265
    12         H          0.0090      2.7233     -1.6547
    13         O          2.9375     -1.4761     -2.1941
    14         C          3.0431     -1.4128      0.1398
    15         O          6.8402     -2.2386      0.3428
    16         H          7.0870     -2.2491      1.2829
    17         H          7.2035     -3.8012     -0.2403
    18         O          7.3823     -4.6981     -0.5751
    19         H          7.1667     -5.2750      0.1632
    20         H          3.9780     -1.9126      0.2377
    21         H          2.5998     -1.1350      1.0652
    22         H          5.8448     -2.1820      0.3804

 General Reference for PM7:
 "Optimization of Parameters for Semiempirical Methods VI: More Modifications to the 
 NDDO Approximations and Re-optimization of Parameters", J. J. P. Stewart, J. Mol. Mod., 1:32, 19 (2013)
 https://link.springer.com/article/10.1007/s00894-012-1667-x

           Empirical Formula: C8 H10 O3 I  =    22 atoms



      MOLECULAR POINT GROUP   :   C1  


 SINGLET STATE CALCULATION


      RHF CALCULATION, NO. OF DOUBLY OCCUPIED LEVELS = 34

  SCF CRITERION =    0.1000E-03


          HEAT OF FORMATION =    -219.569203 KCALS/MOLE


          CARTESIAN COORDINATE DERIVATIVES

   NUMBER  ATOM         X            Y            Z

     1       C     -0.123632    -0.161950     0.268307
     2       C     -0.004388     0.076693    -0.229840
     3       C      0.058462    -0.037832     0.068726
     4       C     -0.176947     0.164731    -0.166009
     5       C      0.325178     0.099491     0.136328
     6       C     -0.098113     0.049687    -0.166764
     7       H      0.040974     0.068081    -0.028537
     8       C      0.162636    -0.083781    -0.207439
     9       I     -0.124431     0.023441    -0.020612
    10       H     -0.035896    -0.000498    -0.004375
    11       H     -0.001250     0.072217    -0.014459
    12       H      0.061466    -0.012327     0.072980
    13       O      0.019769     0.054743     0.074590
    14       C     -0.576298     1.087617     0.290415
    15       O      0.327490   -16.438953    -1.132023
    16       H      0.157463    -0.133157    -0.051201
    17       H     -0.005206    -0.263807    -0.087793
    18       O     -0.166706    -0.125907    -0.083578
    19       H      0.169170     0.247405    -0.037504
    20       H      0.042674     0.047036     0.029504
    21       H     -0.009448    -0.021231     0.043708
    22       H     -0.040223    15.288850     1.246787

 DIPOLE           X         Y         Z       TOTAL
 POINT-CHG.   -13.969    11.541    -6.526    19.259
 HYBRID        -0.551     0.421    -0.282     0.749
 SUM          -14.520    11.962    -6.809    20.007


          GRADIENT NORM =  22.56925



 ** GRADIENT IS VERY LARGE, BUT SINCE "LET" IS USED, CALCULATION WILL CONTINUE


                              **** WARNING ****

           GRADIENT IS VERY LARGE FOR A THERMO CALCULATION
           RESULTS ARE LIKELY TO BE INACCURATE IF THERE ARE
           ANY LOW-LYING VIBRATIONS (LESS THAN ABOUT 400CM-1)
           GRADIENT NORM SHOULD BE LESS THAN ABOUT 1.0 FOR THERMO
           TO GIVE ACCURATE RESULTS


          TIME FOR SCF CALCULATION =    0.04

          TIME FOR DERIVATIVES     =    0.02

          MOLECULAR WEIGHT =  283.08



          ROTATIONAL CONSTANTS IN CM(-1)

          A =    0.02077363   B =    0.00834531   C =    0.00625842



           PRINCIPAL MOMENTS OF INERTIA IN UNITS OF 10**(-40)*GRAM-CM**2

          A =     1347.5136   B =     3354.3112   C =     4472.8130


          ORIENTATION OF MOLECULE IN FORCE CALCULATION

    NO.       ATOM         X         Y         Z

     1          C      -2.9794    0.1417    0.1068
     2          C      -1.5829    0.1417    0.1068
     3          C      -0.9139    1.3602    0.1068
     4          C      -1.6008    2.5718    0.0927
     5          C      -2.9937    2.5553    0.0864
     6          C      -3.6826    1.3428    0.0953
     7          H      -3.5184   -0.8074    0.1137
     8          C      -0.8836   -1.1946    0.1134
     9          I       1.2053    1.4105    0.1397
    10          H      -1.0832    3.5329    0.0871
    11          H      -3.5457    3.4960    0.0744
    12          H      -4.7739    1.3378    0.0943
    13          O      -0.8203   -1.7545    1.2383
    14          C      -0.4087   -1.6861   -1.0613
    15          O       0.3795   -5.4822   -1.3909
    16          H       0.5772   -5.6595   -2.3259
    17          H       1.7846   -5.9370   -0.5348
    18          O       2.5915   -6.1683   -0.0410
    19          H       3.3100   -5.9174   -0.6285
    20          H       0.0853   -2.6266   -1.1295
    21          H      -0.4850   -1.1672   -1.9860
    22          H       0.3479   -4.4855   -1.3608


    FIRST DERIVATIVES WILL BE USED IN THE CALCULATION OF SECOND DERIVATIVES

          ESTIMATED TIME TO COMPLETE CALCULATION =        6.70 SECONDS

    FOR POINT-GROUP C1   THERE ARE   1 UNIQUE SYMMETRY FUNCTIONS.

 STEP:   1 TIME =     0.05 SECS, INTEGRAL =      0.05 TIME LEFT:1209599.90
 STEP:   2 TIME =     0.03 SECS, INTEGRAL =      0.07 TIME LEFT:1209599.88
 STEP:   3 TIME =     0.02 SECS, INTEGRAL =      0.10 TIME LEFT:1209599.85
 STEP:   4 TIME =     0.02 SECS, INTEGRAL =      0.12 TIME LEFT:1209599.83
 STEP:   5 TIME =     0.02 SECS, INTEGRAL =      0.14 TIME LEFT:1209599.80
 STEP:   6 TIME =     0.03 SECS, INTEGRAL =      0.17 TIME LEFT:1209599.78
 STEP:   7 TIME =     0.02 SECS, INTEGRAL =      0.20 TIME LEFT:1209599.75
 STEP:   8 TIME =     0.02 SECS, INTEGRAL =      0.22 TIME LEFT:1209599.73
 STEP:   9 TIME =     0.02 SECS, INTEGRAL =      0.24 TIME LEFT:1209599.71
 STEP:  10 TIME =     0.02 SECS, INTEGRAL =      0.27 TIME LEFT:1209599.68
 STEP:  11 TIME =     0.02 SECS, INTEGRAL =      0.29 TIME LEFT:1209599.66
 STEP:  12 TIME =     0.02 SECS, INTEGRAL =      0.31 TIME LEFT:1209599.64
 STEP:  13 TIME =     0.02 SECS, INTEGRAL =      0.34 TIME LEFT:1209599.61
 STEP:  14 TIME =     0.03 SECS, INTEGRAL =      0.36 TIME LEFT:1209599.59
 STEP:  15 TIME =     0.02 SECS, INTEGRAL =      0.39 TIME LEFT:1209599.56
 STEP:  16 TIME =     0.02 SECS, INTEGRAL =      0.41 TIME LEFT:1209599.54
 STEP:  17 TIME =     0.02 SECS, INTEGRAL =      0.43 TIME LEFT:1209599.52
 STEP:  18 TIME =     0.02 SECS, INTEGRAL =      0.46 TIME LEFT:1209599.49
 STEP:  19 TIME =     0.02 SECS, INTEGRAL =      0.48 TIME LEFT:1209599.47
 STEP:  20 TIME =     0.02 SECS, INTEGRAL =      0.50 TIME LEFT:1209599.45
 STEP:  21 TIME =     0.02 SECS, INTEGRAL =      0.53 TIME LEFT:1209599.42
 STEP:  22 TIME =     0.02 SECS, INTEGRAL =      0.55 TIME LEFT:1209599.40
 STEP:  23 TIME =     0.03 SECS, INTEGRAL =      0.58 TIME LEFT:1209599.37
 STEP:  24 TIME =     0.02 SECS, INTEGRAL =      0.60 TIME LEFT:1209599.35
 STEP:  25 TIME =     0.02 SECS, INTEGRAL =      0.62 TIME LEFT:1209599.32
 STEP:  26 TIME =     0.02 SECS, INTEGRAL =      0.65 TIME LEFT:1209599.30
 STEP:  27 TIME =     0.02 SECS, INTEGRAL =      0.67 TIME LEFT:1209599.28
 STEP:  28 TIME =     0.03 SECS, INTEGRAL =      0.70 TIME LEFT:1209599.25
 STEP:  29 TIME =     0.02 SECS, INTEGRAL =      0.72 TIME LEFT:1209599.23
 STEP:  30 TIME =     0.02 SECS, INTEGRAL =      0.75 TIME LEFT:1209599.20
 STEP:  31 TIME =     0.02 SECS, INTEGRAL =      0.77 TIME LEFT:1209599.18
 STEP:  32 TIME =     0.02 SECS, INTEGRAL =      0.79 TIME LEFT:1209599.16
 STEP:  33 TIME =     0.02 SECS, INTEGRAL =      0.82 TIME LEFT:1209599.13
 STEP:  34 TIME =     0.02 SECS, INTEGRAL =      0.84 TIME LEFT:1209599.11
 STEP:  35 TIME =     0.03 SECS, INTEGRAL =      0.87 TIME LEFT:1209599.08
 STEP:  36 TIME =     0.02 SECS, INTEGRAL =      0.89 TIME LEFT:1209599.06
 STEP:  37 TIME =     0.02 SECS, INTEGRAL =      0.91 TIME LEFT:1209599.04
 STEP:  38 TIME =     0.02 SECS, INTEGRAL =      0.94 TIME LEFT:1209599.01
 STEP:  39 TIME =     0.02 SECS, INTEGRAL =      0.96 TIME LEFT:1209598.99
 STEP:  40 TIME =     0.02 SECS, INTEGRAL =      0.98 TIME LEFT:1209598.96
 STEP:  41 TIME =     0.02 SECS, INTEGRAL =      1.01 TIME LEFT:1209598.94
 STEP:  42 TIME =     0.02 SECS, INTEGRAL =      1.03 TIME LEFT:1209598.92
 STEP:  43 TIME =     0.03 SECS, INTEGRAL =      1.06 TIME LEFT:1209598.89
 STEP:  44 TIME =     0.02 SECS, INTEGRAL =      1.08 TIME LEFT:1209598.87
 STEP:  45 TIME =     0.02 SECS, INTEGRAL =      1.11 TIME LEFT:1209598.84
 STEP:  46 TIME =     0.02 SECS, INTEGRAL =      1.13 TIME LEFT:1209598.82
 STEP:  47 TIME =     0.02 SECS, INTEGRAL =      1.15 TIME LEFT:1209598.80
 STEP:  48 TIME =     0.02 SECS, INTEGRAL =      1.18 TIME LEFT:1209598.77
 STEP:  49 TIME =     0.02 SECS, INTEGRAL =      1.20 TIME LEFT:1209598.75
 STEP:  50 TIME =     0.02 SECS, INTEGRAL =      1.22 TIME LEFT:1209598.73
 STEP:  51 TIME =     0.02 SECS, INTEGRAL =      1.25 TIME LEFT:1209598.70
 STEP:  52 TIME =     0.03 SECS, INTEGRAL =      1.27 TIME LEFT:1209598.68
 STEP:  53 TIME =     0.02 SECS, INTEGRAL =      1.30 TIME LEFT:1209598.65
 STEP:  54 TIME =     0.02 SECS, INTEGRAL =      1.32 TIME LEFT:1209598.63
 STEP:  55 TIME =     0.02 SECS, INTEGRAL =      1.34 TIME LEFT:1209598.61
 STEP:  56 TIME =     0.02 SECS, INTEGRAL =      1.37 TIME LEFT:1209598.58
 STEP:  57 TIME =     0.03 SECS, INTEGRAL =      1.39 TIME LEFT:1209598.55
 STEP:  58 TIME =     0.02 SECS, INTEGRAL =      1.42 TIME LEFT:1209598.53
 STEP:  59 TIME =     0.02 SECS, INTEGRAL =      1.44 TIME LEFT:1209598.51
 STEP:  60 TIME =     0.02 SECS, INTEGRAL =      1.46 TIME LEFT:1209598.48
 STEP:  61 TIME =     0.03 SECS, INTEGRAL =      1.49 TIME LEFT:1209598.46
 STEP:  62 TIME =     0.02 SECS, INTEGRAL =      1.52 TIME LEFT:1209598.43
 STEP:  63 TIME =     0.02 SECS, INTEGRAL =      1.54 TIME LEFT:1209598.41
 STEP:  64 TIME =     0.02 SECS, INTEGRAL =      1.56 TIME LEFT:1209598.39
 STEP:  65 TIME =     0.02 SECS, INTEGRAL =      1.59 TIME LEFT:1209598.36
 STEP:  66 TIME =     0.02 SECS, INTEGRAL =      1.61 TIME LEFT:1209598.34

(To convert to Hartree/Bohr^2, multiply by (10^(-21) x N x a0^2)/(4.184 x 627.51) =  0.0642)


           FORCE MATRIX IN MILLIDYNES/ANGSTROM


                  C  1       C  2       C  3       C  4       C  5       C  6
 ------------------------------------------------------------------------------
     C    1  15.239007
     C    2   5.997621  15.769083
     C    3   1.940863   6.202069  14.125871
     C    4   1.238429   1.885474   6.124031  15.287618
     C    5   1.955293   1.168706   1.944175   6.268716  15.376499
     C    6   6.290200   1.927372   1.186717   1.929093   6.210363  15.443190
     H    7   3.425868   0.749137   0.083363   0.012197   0.087561   0.751016
     C    8   0.747933   3.079734   0.707174   0.089546   0.021975   0.087171
     I    9   0.072069   0.755844   2.074232   0.789370   0.075944   0.006440
     H   10   0.010163   0.078218   0.727404   3.407684   0.759909   0.088761
     H   11   0.079982   0.013125   0.083736   0.755059   3.390696   0.751141
     H   12   0.747390   0.088451   0.006908   0.087024   0.747435   3.399251
     O   13   0.045132   1.419645   0.097690   0.031367   0.009136   0.024011
     C   14   0.067852   0.806385   0.056322   0.021193   0.008900   0.014278
     O   15   0.003292   0.006774   0.002956   0.001376   0.001466   0.001282
     H   16   0.000525   0.001540   0.001363   0.000495   0.000721   0.000579
     H   17   0.000737   0.001764   0.002305   0.000765   0.000833   0.000668
     O   18   0.001029   0.001998   0.003249   0.000898   0.001078   0.000997
     H   19   0.000525   0.000351   0.001537   0.000453   0.000352   0.000360
     H   20   0.009712   0.095298   0.011352   0.003228   0.001504   0.002883
     H   21   0.012847   0.040964   0.009542   0.003745   0.003110   0.003919
     H   22   0.002942   0.006798   0.002358   0.001612   0.001111   0.001581


                  H  7       C  8       I  9       H 10       H 11       H 12
 ------------------------------------------------------------------------------
     H    7   4.326815
     C    8   0.086664  17.681406
     I    9   0.009055   0.129146   3.506591
     H   10   0.010923   0.018467   0.081840   4.307689
     H   11   0.009229   0.024070   0.008574   0.040010   4.295358
     H   12   0.030288   0.020873   0.007159   0.010012   0.031791   4.285831
     O   13   0.028274   8.520891   0.027138   0.006357   0.009311   0.007866
     C   14   0.031364   8.077392   0.042062   0.007505   0.008769   0.007377
     O   15   0.001993   0.075416   0.002401   0.001025   0.001141   0.001081
     H   16   0.000599   0.005668   0.000895   0.000483   0.000498   0.000452
     H   17   0.000673   0.004185   0.001640   0.000641   0.000571   0.000414
     O   18   0.000828   0.013591   0.002160   0.000800   0.000691   0.000642
     H   19   0.000422   0.002328   0.001103   0.000299   0.000209   0.000191
     H   20   0.004539   0.837458   0.002811   0.001132   0.001019   0.000992
     H   21   0.006845   0.914337   0.007329   0.002167   0.002650   0.002046
     H   22   0.002540   0.080810   0.001174   0.000864   0.001119   0.001075


                  O 13       C 14       O 15       H 16       H 17       O 18
 ------------------------------------------------------------------------------
     O   13  10.786394
     C   14   1.928247  14.359355
     O   15   0.053411   0.089452   7.202183
     H   16   0.002402   0.041542   3.867215   4.279772
     H   17   0.002603   0.007834   0.222734   0.122587   3.886768
     O   18   0.006680   0.012835   3.067372   0.049485   3.517435   8.301270
     H   19   0.001821   0.002577   0.058522   0.011033   0.778679   3.916868
     H   20   0.085139   3.604840   0.080326   0.037847   0.007651   0.013400
     H   21   0.149697   3.590753   0.031577   0.001354   0.001213   0.003449
     H   22   0.051125   0.058212   3.772019   0.774195   0.110528   0.036421


                  H 19       H 20       H 21       H 22
 ------------------------------------------------------
     H   19   4.330177
     H   20   0.002174   4.359916
     H   21   0.000762   0.443666   4.404054
     H   22   0.010051   0.074728   0.025859   4.055220


          HEAT OF FORMATION =    -219.569203 KCALS/MOLE


          TRIVIAL VIBRATIONS, SHOULD BE ZERO

 -36.1383=TX  14.8301=TY -28.3501=TZ  -1.2580=RX -48.5891=RY  -0.5044=RZ


      MOLECULAR POINT GROUP   :   C1  


           EIGENVECTORS  


   Root No.       1         2         3         4         5         6         7         8

                 1 A       2 A       3 A       4 A       5 A       6 A       7 A       8 A   

                  -0.0      -0.0      -0.0      -0.0      -0.0      -0.0       0.0       0.0
  
           1    0.0084   -0.0015    0.0494    0.0578   -0.0473    0.1167   -0.0063    0.0069
           2   -0.0124   -0.0500   -0.0787   -0.0477   -0.0091   -0.0773    0.0161    0.0038
           3    0.0043    0.0167   -0.0516    0.1065    0.0324   -0.0684    0.0229   -0.0877
           4    0.0079   -0.0002    0.0486    0.0587   -0.0474    0.1167   -0.0066    0.0072
           5   -0.0101   -0.0542   -0.0754    0.0146   -0.0918    0.0101   -0.0126    0.0061
           6   -0.0132   -0.0265   -0.0126    0.0077   -0.0434   -0.0135    0.0541   -0.0979
           7    0.0055    0.0012    0.0445    0.0031    0.0239    0.0412    0.0188    0.0037
           8   -0.0081   -0.0554   -0.0722    0.0441   -0.1302    0.0510   -0.0262    0.0080
           9   -0.0021   -0.0692    0.0013   -0.0790   -0.0305    0.0720    0.0113   -0.0560
          10    0.0036    0.0013    0.0424   -0.0535    0.0944   -0.0335    0.0446    0.0002
          11   -0.0091   -0.0549   -0.0736    0.0124   -0.0896    0.0093   -0.0125    0.0074
          12    0.0119   -0.0882    0.0009   -0.0895    0.0289    0.1145   -0.0551    0.0561
          13    0.0037    0.0011    0.0425   -0.0532    0.0933   -0.0323    0.0445   -0.0000
          14   -0.0118   -0.0517   -0.0774   -0.0501   -0.0075   -0.0779    0.0160    0.0051
          15    0.0172   -0.0357   -0.0337    0.0161    0.0900    0.0347   -0.0704    0.0828
          16    0.0063   -0.0008    0.0465    0.0023    0.0224    0.0425    0.0191    0.0034
          17   -0.0132   -0.0502   -0.0797   -0.0807    0.0328   -0.1210    0.0305    0.0028
          18    0.0181    0.0199   -0.0684    0.1207    0.1062   -0.0591   -0.0377   -0.0007
          19    0.0099   -0.0030    0.0498    0.0983   -0.1016    0.1741   -0.0243    0.0093
          20   -0.0135   -0.0506   -0.0778   -0.0716    0.0211   -0.1102    0.0275    0.0024
          21    0.0017    0.0549   -0.0658    0.1736    0.0282   -0.1207    0.0498   -0.1410
          22    0.0209   -0.0295    0.0696    0.0976   -0.1120    0.1866   -0.0234    0.0037
          23   -0.0052   -0.0678   -0.0671    0.0350   -0.1263    0.0455   -0.0211    0.0051
          24   -0.0803    0.0050    0.0436   -0.0023   -0.1561   -0.0691    0.1447   -0.0638
          25    0.0060    0.0014    0.0437    0.0021    0.0287    0.0365    0.0193    0.0054
          26   -0.0002   -0.0540   -0.0666    0.1357   -0.2443    0.1679   -0.0649    0.0131
          27   -0.0158   -0.0786    0.0170   -0.1831   -0.1024    0.1246    0.0521   -0.1670
          28    0.0020    0.0019    0.0394   -0.0970    0.1502   -0.0932    0.0649   -0.0028
          29   -0.0080   -0.0555   -0.0715    0.0353   -0.1197    0.0417   -0.0236    0.0096
          30    0.0147   -0.1325    0.0264   -0.1673    0.0243    0.1964   -0.0902    0.1244
          31    0.0022    0.0024    0.0402   -0.0947    0.1482   -0.0895    0.0636   -0.0020
          32   -0.0126   -0.0511   -0.0791   -0.0749    0.0249   -0.1122    0.0268    0.0050
          33    0.0188   -0.0353   -0.0346    0.0167    0.1172    0.0438   -0.1029    0.1596
          34    0.0064   -0.0011    0.0467    0.0020    0.0217    0.0435    0.0191    0.0033
          35   -0.0154   -0.0495   -0.0809   -0.1331    0.0959   -0.1879    0.0542   -0.0004
          36    0.0255    0.0665   -0.1032    0.2080    0.1679   -0.1212   -0.0573    0.0107
          37    0.0858   -0.3581    0.2540    0.0569   -0.1621    0.2821   -0.0271   -0.0259
          38   -0.0414   -0.1949    0.0823    0.0014   -0.2448    0.0346    0.0626    0.0470
          39   -0.1024   -0.0388    0.1046   -0.0170   -0.2130   -0.0785    0.1882   -0.0400
          40   -0.0297    0.2405   -0.0727    0.1293   -0.0945    0.1070   -0.0129    0.0324
          41    0.0566    0.0098   -0.1950    0.0621   -0.0185    0.0746   -0.0999   -0.0568
          42   -0.1264    0.0809    0.0369   -0.0013   -0.1951   -0.1120    0.1840   -0.0265
          43   -0.0242   -0.1404   -0.0466    0.0031    0.0361   -0.2155   -0.0576   -0.0280
          44   -0.1796    0.1307    0.3840    0.0580    0.0572   -0.1171   -0.2661    0.0409
          45    0.0091    0.1177    0.0067   -0.2633    0.0149    0.0934   -0.2544    0.0964
          46    0.3044   -0.1860   -0.0324    0.1567    0.0785   -0.2354    0.1706   -0.2473
          47    0.4888    0.1675    0.4041    0.0898   -0.0595   -0.2569   -0.0304    0.0148
          48   -0.0533    0.1011    0.0085   -0.2365    0.0471    0.1157   -0.2543    0.0567
          49   -0.0094   -0.0548   -0.0994   -0.1903    0.0047   -0.1401   -0.0323    0.0247
          50   -0.1171    0.1303    0.2130   -0.0527    0.2208    0.1240    0.0815   -0.2525
          51    0.0075   -0.0188    0.0025   -0.0051    0.1531    0.1029   -0.1106   -0.1373
          52    0.0070    0.0003   -0.1323   -0.3309   -0.0119   -0.0863   -0.0167    0.0073
          53   -0.0895    0.1255    0.0917   -0.1223    0.3294    0.2817    0.3260   -0.3679
          54   -0.0036   -0.1135   -0.0002    0.1933    0.2325    0.0869   -0.0214   -0.1679
          55   -0.0066   -0.0667   -0.0960   -0.1621    0.0094   -0.1504   -0.0264    0.0479
          56    0.0022    0.0460    0.0173   -0.0608    0.2389    0.1620    0.4561    0.6345
          57    0.0187   -0.2300    0.0131    0.4277    0.2200   -0.0440    0.0220    0.3116
          58    0.0474    0.2423   -0.0447    0.1308   -0.1101    0.1309    0.0141    0.0160
          59    0.1015    0.0057   -0.1875    0.0627   -0.0202    0.0932   -0.0893   -0.0737
          60   -0.2047    0.1419    0.0868   -0.0047   -0.2801   -0.1603    0.2495    0.0464
          61   -0.0928    0.5290   -0.2308    0.1635   -0.0533    0.0185   -0.0128    0.0770
          62    0.1025    0.0956   -0.3003    0.0862    0.0788    0.0806   -0.1691   -0.1004
          63   -0.0956    0.1053   -0.0108    0.0095   -0.1432   -0.1004    0.1451   -0.0541
          64   -0.3648   -0.1793   -0.0625    0.0196    0.0288   -0.2201   -0.2321    0.0575
          65   -0.2044    0.1286    0.3904    0.0568    0.0619   -0.1159   -0.2814    0.0460
          66    0.5496    0.1573    0.0327   -0.2307   -0.0989   -0.0379   -0.0694    0.0952


   Root No.       9        10        11        12        13        14        15        16

                 9 A      10 A      11 A      12 A      13 A      14 A      15 A      16 A   

                   0.0       0.1       0.1       0.1       0.2       0.2       0.3       0.3
  
           1    0.0227    0.0087   -0.0027   -0.1570   -0.0495   -0.0250   -0.0039   -0.1247
           2   -0.0422   -0.0035    0.0211   -0.0199    0.0407    0.0099    0.0196   -0.0160
           3    0.1700    0.0148   -0.1158   -0.0383    0.1142    0.0505    0.0816    0.0091
           4    0.0228    0.0087   -0.0002   -0.1625   -0.0477   -0.0246   -0.0034   -0.1221
           5   -0.0423    0.0022    0.0242   -0.1031    0.0067   -0.0029    0.0075   -0.0699
           6    0.1987    0.0133   -0.1466    0.0069   -0.1083   -0.0622   -0.0162   -0.0125
           7    0.0268    0.0047   -0.0123   -0.0824   -0.0437   -0.0224   -0.0113   -0.0894
           8   -0.0452    0.0042    0.0291   -0.1399    0.0080   -0.0028    0.0154   -0.0847
           9    0.1292   -0.0063   -0.0271   -0.0154   -0.0157   -0.0155   -0.0683   -0.0146
          10    0.0296   -0.0010   -0.0175    0.0095   -0.0225   -0.0133   -0.0097   -0.0281
          11   -0.0461    0.0013    0.0273   -0.0959    0.0214    0.0027    0.0159   -0.0583
          12   -0.1132    0.0139   -0.1465   -0.0297    0.0837    0.0331   -0.0748   -0.0074
          13    0.0303   -0.0011   -0.0163    0.0082   -0.0211   -0.0126   -0.0115   -0.0281
          14   -0.0457   -0.0044    0.0237   -0.0047    0.0460    0.0123    0.0229    0.0019
          15   -0.1916    0.0039    0.0314    0.0272   -0.1122   -0.0610    0.1326    0.0033
          16    0.0264    0.0035   -0.0090   -0.0699   -0.0319   -0.0173   -0.0061   -0.0711
          17   -0.0429   -0.0069    0.0185    0.0404    0.0535    0.0157    0.0200    0.0272
          18   -0.0213   -0.0097    0.1530    0.0070    0.0092    0.0062   -0.0955   -0.0081
          19    0.0217    0.0137   -0.0008   -0.2475   -0.0818   -0.0400   -0.0097   -0.2256
          20   -0.0418   -0.0063    0.0198    0.0308    0.0594    0.0183    0.0237    0.0399
          21    0.2797    0.0303   -0.2595   -0.1268    0.4371    0.2078    0.4067    0.0482
          22    0.0206    0.0001    0.0113    0.0155   -0.0053    0.0035   -0.0014    0.0920
          23   -0.0443   -0.0025    0.0292   -0.0106    0.0254    0.0113    0.0047    0.0384
          24    0.0823    0.0145   -0.1214    0.0471   -0.1821   -0.0969   -0.0806   -0.0101
          25    0.0218    0.0056   -0.0231   -0.0691   -0.0439   -0.0225   -0.0164   -0.0800
          26   -0.0510    0.0114    0.0392   -0.2430   -0.0038   -0.0102    0.0277   -0.1689
          27    0.4002   -0.0984    0.5953   -0.0652    0.1200    0.0603    0.1965    0.0087
          28    0.0328   -0.0057   -0.0198    0.0873   -0.0076   -0.0063   -0.0136    0.0320
          29   -0.0488    0.0040    0.0280   -0.1402    0.0156   -0.0001    0.0177   -0.0950
          30   -0.2489    0.0350   -0.3473   -0.0925    0.3645    0.1737   -0.3113   -0.0104
          31    0.0316   -0.0051   -0.0203    0.0797   -0.0084   -0.0072   -0.0127    0.0181
          32   -0.0475   -0.0068    0.0224    0.0376    0.0540    0.0156    0.0284    0.0307
          33   -0.3652    0.0035    0.0943    0.0737   -0.3171   -0.1651    0.5636    0.0297
          34    0.0266    0.0037   -0.0103   -0.0725   -0.0337   -0.0182   -0.0058   -0.0765
          35   -0.0395   -0.0120    0.0109    0.1313    0.0769    0.0259    0.0279    0.1029
          36   -0.0574   -0.0412    0.4757    0.0224    0.0608    0.0471   -0.5160   -0.0374
          37    0.0747   -0.0147    0.0250    0.2742    0.0325    0.0361   -0.0099    0.5198
          38   -0.1862   -0.0125    0.1083    0.0887    0.0617    0.0347   -0.0355    0.2237
          39    0.0040    0.0092   -0.0795    0.0764   -0.1599   -0.0870   -0.0981    0.0595
          40   -0.0577   -0.0071    0.0249    0.1286    0.0697    0.0371    0.0189    0.0184
          41    0.1214    0.0020   -0.0788    0.1108   -0.0727   -0.0378   -0.0283    0.0014
          42   -0.0207    0.0094   -0.0708    0.0385   -0.1153   -0.0667   -0.0632   -0.0260
          43   -0.0244   -0.0076   -0.0046   -0.0232   -0.0512    0.1279    0.0160   -0.0065
          44    0.0858    0.0571   -0.0056    0.0196    0.0536   -0.1061   -0.0002   -0.0077
          45    0.0415    0.0391    0.0205    0.0176    0.0541   -0.1238   -0.0011   -0.0024
          46   -0.1529    0.4942    0.0581   -0.0306    0.2031   -0.3940   -0.0071    0.0058
          47    0.0059   -0.0750   -0.0233   -0.0580   -0.1107    0.2066    0.0010    0.0084
          48    0.0307    0.1664    0.0368    0.0318    0.1418   -0.2979   -0.0060   -0.0039
          49   -0.0013   -0.2858   -0.0292   -0.0331    0.0397   -0.0908    0.0008   -0.0014
          50   -0.0802   -0.2012   -0.0276   -0.0338    0.0563   -0.1631   -0.0093    0.0195
          51   -0.0819    0.3348    0.0473    0.0052   -0.0778    0.1779    0.0227    0.0039
          52    0.0025   -0.0053    0.0091   -0.0244   -0.0093    0.0249    0.0070   -0.0029
          53   -0.1543   -0.1127   -0.0143   -0.0359   -0.1142    0.1919   -0.0044   -0.0008
          54   -0.1249   -0.0764   -0.0087   -0.0101   -0.0849    0.1680    0.0135   -0.0038
          55    0.0043   -0.3910   -0.0426   -0.0363    0.0660   -0.1530   -0.0032   -0.0012
          56    0.2632    0.2816    0.0368    0.0016   -0.0172    0.0360    0.0020    0.0019
          57    0.0560   -0.3998   -0.0526   -0.0092    0.0531   -0.1272    0.0027   -0.0006
          58   -0.0790   -0.0375    0.0261    0.5936    0.1990    0.1032    0.0712   -0.3397
          59    0.1279   -0.0128   -0.0936    0.3620   -0.0344   -0.0190   -0.0170   -0.1870
          60   -0.2097   -0.0110    0.0520    0.0601    0.0981    0.0572    0.0367   -0.0872
          61   -0.1388    0.0067    0.0527   -0.2171    0.0862    0.0359    0.0153    0.5297
          62    0.2620    0.0227   -0.1917    0.0392   -0.2803   -0.1349   -0.1395    0.2022
          63    0.0628    0.0194   -0.1339    0.0222   -0.2264   -0.1191   -0.1215    0.0471
          64    0.0587    0.2121    0.0016    0.0290   -0.2384    0.4786   -0.0034   -0.0185
          65    0.0919    0.0702   -0.0038    0.0229    0.0539   -0.1043   -0.0003   -0.0100
          66   -0.0203   -0.0646    0.0035   -0.0490   -0.1368    0.2406   -0.0040    0.0148


   Root No.      17        18        19        20        21        22        23        24

                17 A      18 A      19 A      20 A      21 A      22 A      23 A      24 A   

                   0.3       0.4       0.5       0.6       0.8       0.9       0.9       1.0
  
           1   -0.0000   -0.0010   -0.0145   -0.0222   -0.1072   -0.0599   -0.0347    0.0459
           2    0.0035    0.0001    0.0510   -0.0016   -0.1097   -0.0559   -0.0700    0.0152
           3   -0.0004    0.0092    0.1610   -0.0739   -0.0177    0.0814   -0.0165    0.0044
           4    0.0002   -0.0004   -0.0002    0.0012   -0.1022   -0.0510   -0.0042    0.0266
           5    0.0004   -0.0026   -0.0407   -0.1549    0.0340    0.0178   -0.0181    0.0164
           6    0.0124    0.0167    0.3248   -0.0858   -0.0142   -0.1045    0.0220   -0.0136
           7    0.0006   -0.0013   -0.0502   -0.0436    0.0653    0.0125   -0.0297   -0.0222
           8    0.0003   -0.0018   -0.0011   -0.1215   -0.0911   -0.0408   -0.0028    0.0334
           9    0.0117    0.0175    0.3636   -0.1520   -0.0224    0.1913   -0.0407   -0.0048
          10    0.0023   -0.0009   -0.0399   -0.0181    0.0636    0.0208    0.0210    0.0326
          11    0.0014   -0.0014    0.0110   -0.1059   -0.1288   -0.0467    0.0469    0.0935
          12    0.0060    0.0076    0.1770   -0.1006   -0.0235    0.2736   -0.0634    0.0075
          13    0.0024   -0.0005   -0.0315    0.0045    0.0750    0.0322    0.0515    0.0194
          14    0.0037    0.0007    0.0706    0.0265   -0.1664   -0.0734   -0.0322    0.0912
          15    0.0008    0.0062    0.1290   -0.0817   -0.0227    0.2682   -0.0569    0.0173
          16    0.0013   -0.0005   -0.0109    0.0085   -0.0736   -0.0369    0.0430    0.1197
          17    0.0044    0.0008    0.0631    0.0325   -0.1002   -0.0482   -0.0361    0.0250
          18    0.0031    0.0078    0.1380   -0.0788   -0.0215    0.2156   -0.0319    0.0130
          19   -0.0016   -0.0041   -0.1152   -0.2205    0.0773    0.0692    0.2020   -0.2872
          20    0.0045    0.0017    0.1092    0.1086   -0.2450   -0.1441   -0.2134    0.2160
          21   -0.0239   -0.0109   -0.2537    0.0631    0.0111    0.0085   -0.0083   -0.0009
          22    0.0003    0.0010    0.0296    0.0386   -0.1268   -0.0447    0.0262    0.0134
          23   -0.0001   -0.0001   -0.0525   -0.1827    0.1696    0.0333   -0.0316    0.0439
          24    0.0125   -0.0077   -0.0332    0.0747   -0.0739   -0.0787    0.0277   -0.0118
          25    0.0007   -0.0010   -0.0507   -0.0706    0.0546    0.0129   -0.0291   -0.0019
          26    0.0019    0.0121    0.2638    0.7094    0.3275    0.1368    0.0248    0.0398
          27   -0.0096   -0.0107   -0.1711    0.0559    0.0087   -0.0260    0.0060    0.0024
          28    0.0037    0.0008   -0.0259    0.0765    0.2327    0.1309    0.0511    0.5704
          29    0.0006   -0.0023    0.0035   -0.1620   -0.2382   -0.1188    0.0362   -0.1818
          30    0.0010   -0.0151   -0.2584    0.1258    0.0248   -0.2274    0.0513   -0.0038
          31    0.0037    0.0013   -0.0059    0.1353    0.2588    0.0432   -0.4055   -0.5505
          32    0.0043    0.0018    0.0886    0.1047   -0.0942   -0.0905   -0.3046   -0.2385
          33   -0.0125   -0.0085   -0.1757    0.0860    0.0249   -0.2242    0.0450   -0.0069
          34    0.0013   -0.0007   -0.0137    0.0071   -0.0821   -0.0413    0.0467    0.1368
          35    0.0056    0.0022    0.0940    0.0951    0.0172    0.1257    0.7691   -0.2777
          36    0.0057   -0.0042   -0.1201    0.0739    0.0146   -0.1784    0.0361   -0.0125
          37   -0.0055    0.0106    0.1902    0.0185    0.0011   -0.2608    0.0552   -0.0462
          38   -0.0031   -0.0296   -0.3617   -0.1175    0.0884    0.4870   -0.1254    0.0391
          39    0.0150   -0.0233   -0.1862    0.1025   -0.1181    0.1596   -0.0207   -0.0109
          40    0.0058    0.0043    0.0173    0.0553   -0.1365    0.0278    0.0166    0.0036
          41    0.0078    0.0044   -0.0138   -0.1492    0.2330   -0.0918   -0.0124    0.0441
          42    0.0143   -0.0097   -0.0657    0.0660   -0.0918    0.0052    0.0139   -0.0126
          43    0.3825   -0.0765    0.0005   -0.0026    0.0034   -0.0035    0.0002    0.0006
          44    0.0599   -0.1648    0.0077   -0.0061    0.0098   -0.0053   -0.0001    0.0014
          45   -0.0843   -0.0570    0.0001    0.0006   -0.0026    0.0034   -0.0009   -0.0002
          46   -0.2376   -0.0070    0.0054   -0.0081    0.0086   -0.0070    0.0009    0.0019
          47    0.0654   -0.0286    0.0040   -0.0045    0.0011    0.0027   -0.0003    0.0007
          48   -0.2140   -0.0823    0.0027   -0.0010    0.0009    0.0008   -0.0008    0.0002
          49    0.0840   -0.0365   -0.0004   -0.0011    0.0023   -0.0032   -0.0004    0.0008
          50   -0.0083    0.7614   -0.0480    0.0073   -0.0130    0.0090   -0.0011   -0.0010
          51    0.5304    0.2140   -0.0201    0.0007    0.0022   -0.0034    0.0006    0.0001
          52    0.2416   -0.0836    0.0011   -0.0017    0.0034   -0.0042   -0.0008    0.0009
          53   -0.2561   -0.4034    0.0291   -0.0011    0.0032   -0.0053    0.0003    0.0010
          54    0.0960   -0.2305    0.0125   -0.0009    0.0036   -0.0040    0.0015    0.0003
          55   -0.0148   -0.0289   -0.0006   -0.0007    0.0016   -0.0027   -0.0005    0.0007
          56    0.0687    0.0342   -0.0033   -0.0007   -0.0011   -0.0011   -0.0006    0.0006
          57   -0.1051    0.0318   -0.0035    0.0006   -0.0010    0.0003    0.0015   -0.0003
          58    0.0022    0.0103    0.0141    0.0842   -0.1931    0.0926    0.0028   -0.0370
          59    0.0087    0.0028   -0.0612   -0.1099    0.1769   -0.0190   -0.0250    0.0216
          60   -0.0110    0.0306    0.1476   -0.2506    0.4905   -0.3516    0.0065    0.0626
          61    0.0046   -0.0094    0.1080   -0.0500   -0.0063    0.0563   -0.0117   -0.0251
          62   -0.0000   -0.0178   -0.2215    0.0352    0.1257   -0.0710   -0.0037    0.0162
          63    0.0116   -0.0200   -0.1683    0.1758   -0.1716   -0.0058    0.0278   -0.0305
          64   -0.4777    0.2240   -0.0067    0.0095   -0.0200    0.0168   -0.0008   -0.0030
          65    0.0266   -0.1698    0.0083   -0.0015    0.0013   -0.0004    0.0001   -0.0002
          66   -0.2597    0.1386   -0.0004   -0.0006   -0.0005   -0.0036    0.0005    0.0011


   Root No.      25        26        27        28        29        30        31        32

                25 A      26 A      27 A      28 A      29 A      30 A      31 A      32 A   

                   1.1       1.3       1.4       1.4       1.5       1.7       1.9       2.0
  
           1   -0.0108   -0.0321    0.0370    0.1001    0.0231   -0.0013    0.0369    0.1229
           2    0.1420   -0.0199    0.0252    0.2823    0.0495    0.0014    0.0082   -0.0681
           3   -0.0052   -0.2223   -0.3499    0.0500   -0.1344    0.0131   -0.3625    0.1095
           4   -0.0234   -0.0248    0.0290    0.1201    0.0459   -0.0017    0.0195    0.0802
           5   -0.0029    0.0411   -0.0335    0.0635   -0.0076    0.0025   -0.0542   -0.1485
           6    0.0380    0.1807   -0.2072    0.0390   -0.1334    0.0111   -0.1861    0.0357
           7   -0.1593    0.0202   -0.0026    0.3167    0.0330    0.0017    0.0086   -0.0069
           8    0.0159    0.0103   -0.0097   -0.0654   -0.0232    0.0011   -0.0471   -0.1511
           9    0.0088    0.4415    0.2933   -0.0132    0.0123    0.0066   -0.2690    0.0933
          10   -0.1681    0.0145   -0.0012   -0.0327   -0.0842    0.0037   -0.0126   -0.1346
          11    0.0166   -0.0060    0.0090   -0.2555   -0.1081    0.0026   -0.0513   -0.2356
          12   -0.0310    0.0499    0.3128   -0.0469    0.1351   -0.0106    0.2254   -0.0561
          13   -0.1869    0.0159    0.0019   -0.0600   -0.0884    0.0035   -0.0095   -0.0980
          14    0.2050   -0.0500    0.0455   -0.0781   -0.0163   -0.0005    0.0492    0.1747
          15   -0.0435   -0.3119    0.0610   -0.0342    0.1094   -0.0136    0.3724   -0.1122
          16   -0.1197   -0.0335    0.0454   -0.2359   -0.1081    0.0002    0.0635    0.2758
          17    0.1120   -0.0267    0.0231    0.0643    0.0003    0.0012    0.0222    0.0146
          18   -0.0342   -0.4251   -0.2260    0.0128   -0.0214    0.0000   -0.0369    0.0194
          19    0.5762   -0.0611    0.0535    0.1315   -0.0260    0.0019    0.0350   -0.0032
          20   -0.1656   -0.0124    0.0311    0.3795    0.0994   -0.0007    0.0284    0.0120
          21   -0.0021    0.1410    0.2286   -0.0319    0.0820   -0.0060    0.1510   -0.0432
          22   -0.0215    0.0403   -0.1231   -0.1104    0.3859   -0.0143   -0.0500    0.0380
          23   -0.0516    0.0879   -0.1318   -0.0478    0.1696   -0.0051   -0.0424   -0.0418
          24    0.0240    0.0813   -0.1416   -0.0085   -0.0002   -0.0034    0.2280   -0.0359
          25   -0.1833    0.0361   -0.0028    0.3854    0.0578    0.0013   -0.0006   -0.0306
          26   -0.0628    0.0013    0.0153    0.0069   -0.0789    0.0029    0.0053   -0.0218
          27   -0.0095   -0.1190   -0.0671    0.0133   -0.0068   -0.0010    0.0434   -0.0151
          28    0.3726    0.0400   -0.0516   -0.1661   -0.0262    0.0022   -0.0861   -0.3140
          29   -0.2944   -0.0224    0.0374   -0.2821   -0.2021    0.0056   -0.0468   -0.3372
          30    0.0228   -0.0644   -0.2096    0.0297   -0.0737    0.0041   -0.0909    0.0219
          31   -0.0669    0.0336   -0.0674   -0.1666    0.0083    0.0004   -0.0566   -0.1645
          32    0.3550   -0.0507    0.0161   -0.1542    0.0512   -0.0031    0.0383    0.2700
          33    0.0259    0.2167   -0.0351    0.0203   -0.0657    0.0066   -0.1904    0.0508
          34   -0.1483   -0.0438    0.0612   -0.3164   -0.1500    0.0002    0.1021    0.4551
          35   -0.0892    0.0006   -0.0030    0.0598    0.1034   -0.0027    0.0091    0.0950
          36    0.0239    0.2697    0.1326   -0.0098    0.0126   -0.0006    0.0214   -0.0090
          37    0.0719   -0.1031    0.1029    0.0416   -0.1105    0.0005    0.0955   -0.1399
          38   -0.0759    0.0754    0.0090    0.0364   -0.0780    0.0103   -0.2282    0.2228
          39    0.0063    0.0933   -0.1025    0.0255   -0.1007    0.0032    0.1442    0.1096
          40   -0.0180    0.0490   -0.1709   -0.1669    0.5600   -0.0156   -0.1353   -0.0245
          41   -0.0504    0.1270   -0.2389   -0.0707    0.2102   -0.0094    0.1989    0.0707
          42    0.0206    0.0634   -0.1175   -0.0251    0.0589   -0.0034    0.1189   -0.1051
          43   -0.0011   -0.0028    0.0039   -0.0025    0.0113    0.4693    0.0108    0.0005
          44   -0.0015   -0.0037    0.0044   -0.0024    0.0100    0.1339   -0.0112    0.0052
          45    0.0014    0.0079   -0.0114    0.0020   -0.0092   -0.0583    0.0239   -0.0040
          46   -0.0027   -0.0009    0.0012   -0.0031    0.0102    0.0087   -0.0042    0.0019
          47    0.0005    0.0146   -0.0193    0.0010   -0.0101   -0.3465    0.0316   -0.0053
          48    0.0008    0.0036   -0.0054    0.0018   -0.0072   -0.0353    0.0142   -0.0018
          49   -0.0014   -0.0017    0.0003   -0.0015    0.0052    0.1814    0.0227   -0.0038
          50    0.0011    0.0039   -0.0045   -0.0001    0.0004    0.1570    0.0115   -0.0016
          51   -0.0006   -0.0047    0.0085    0.0032   -0.0106   -0.3831   -0.0284    0.0039
          52   -0.0015   -0.0037    0.0033    0.0004   -0.0018   -0.0948   -0.0051    0.0005
          53   -0.0004   -0.0002   -0.0022   -0.0021    0.0057   -0.0978   -0.0109    0.0008
          54    0.0002    0.0016   -0.0017   -0.0015    0.0058    0.2399    0.0219   -0.0037
          55   -0.0014   -0.0037    0.0059    0.0022   -0.0086   -0.4498   -0.0366    0.0052
          56   -0.0005   -0.0000   -0.0012   -0.0009    0.0025    0.0553    0.0041   -0.0004
          57    0.0005    0.0025    0.0011    0.0012   -0.0042   -0.1034   -0.0081    0.0014
          58    0.0481   -0.0633    0.1548    0.0735   -0.2073    0.0100   -0.1548   -0.0555
          59   -0.0149    0.1227   -0.1409    0.0637   -0.2344    0.0050    0.3452    0.0639
          60   -0.0775   -0.2342    0.2409   -0.0137    0.0841   -0.0095   -0.0485    0.1212
          61    0.0417    0.1133   -0.0722    0.0850   -0.3076    0.0066    0.1464   -0.0024
          62   -0.0391   -0.2900    0.3625    0.0011    0.0573    0.0018   -0.2444    0.0800
          63    0.0324   -0.1668    0.1944   -0.0057    0.0363   -0.0007   -0.1175   -0.1867
          64    0.0040    0.0117   -0.0086    0.0056   -0.0218   -0.1140    0.0104   -0.0023
          65    0.0009   -0.0028    0.0062    0.0007   -0.0008    0.0854   -0.0153    0.0017
          66   -0.0021   -0.0049    0.0020   -0.0081    0.0311    0.3444   -0.0265    0.0061


   Root No.      33        34        35        36        37        38        39        40

                33 A      34 A      35 A      36 A      37 A      38 A      39 A      40 A   

                   2.1       2.8       3.0       3.2       3.4       3.4       3.7       4.1
  
           1   -0.0002   -0.1239   -0.2422   -0.0210    0.0153    0.0065   -0.0732   -0.1757
           2    0.0018   -0.1775    0.1482    0.0094    0.0294    0.0192    0.0479    0.0830
           3   -0.0226   -0.0256    0.0252    0.4221    0.0815    0.0416   -0.2174   -0.0004
           4   -0.0010   -0.0469   -0.2677   -0.0325   -0.0472   -0.0314   -0.1044   -0.1456
           5    0.0003    0.1632   -0.1123   -0.0085    0.1577    0.0958    0.0753   -0.0775
           6   -0.0035    0.0236   -0.0883    0.1700   -0.1166   -0.0616    0.5361   -0.0413
           7    0.0012    0.1920    0.0538    0.0112   -0.0027   -0.0014    0.0138   -0.0106
           8   -0.0001    0.1038   -0.2633   -0.0183    0.0730    0.0430   -0.0194   -0.1967
           9   -0.0220   -0.0284    0.0811   -0.4449    0.0169    0.0090   -0.0887   -0.0156
          10    0.0018   -0.0580    0.2491    0.0243   -0.0677   -0.0391    0.0359    0.1912
          11    0.0009    0.0043   -0.1071   -0.0083   -0.0419   -0.0256   -0.0548   -0.1112
          12    0.0103   -0.0065   -0.0141    0.5128    0.0807    0.0409   -0.3338    0.0703
          13    0.0013   -0.1247    0.2224    0.0124   -0.0002    0.0014    0.0565    0.1942
          14    0.0009    0.1205    0.1615    0.0121   -0.0592   -0.0343    0.0197    0.1131
          15    0.0245    0.0287   -0.0720   -0.0311   -0.1070   -0.0563    0.4987   -0.0845
          16   -0.0001    0.0137    0.0211    0.0026    0.0664    0.0397    0.0258   -0.0047
          17    0.0017   -0.0273    0.2712    0.0260   -0.0183   -0.0085    0.0734    0.2140
          18   -0.0038   -0.0078    0.0596   -0.4929    0.0249    0.0152   -0.2536    0.0563
          19    0.0027   -0.2699    0.1890    0.0139    0.0525    0.0333    0.0514    0.0574
          20    0.0006   -0.4190   -0.1054   -0.0215    0.1218    0.0722    0.0152   -0.0726
          21    0.0101    0.0075    0.0008   -0.1306   -0.0249   -0.0119    0.0667   -0.0104
          22   -0.0078   -0.0408   -0.3199   -0.0306   -0.1632   -0.1015   -0.0388    0.5943
          23   -0.0032    0.1570   -0.1140   -0.0149    0.2629    0.1565    0.1397    0.3406
          24    0.0252   -0.0257   -0.0655   -0.0306   -0.0998   -0.0528   -0.0879    0.0955
          25    0.0006    0.5474    0.1212    0.0096   -0.1898   -0.1134   -0.0866   -0.0739
          26    0.0022    0.0051    0.1000    0.0100   -0.0191   -0.0110    0.0085    0.0260
          27    0.0022    0.0136   -0.0098    0.0616   -0.0046   -0.0034    0.0124    0.0005
          28   -0.0002    0.0132   -0.1439   -0.0084   -0.0900   -0.0552   -0.0809   -0.1068
          29    0.0031   -0.0638    0.1654    0.0081   -0.2403   -0.1442   -0.1006    0.0112
          30   -0.0055    0.0031   -0.0001   -0.1480   -0.0220   -0.0119    0.0928   -0.0155
          31   -0.0013   -0.1756   -0.2101   -0.0211    0.1106    0.0656    0.0138   -0.0951
          32   -0.0014    0.3602   -0.0409   -0.0015   -0.1515   -0.0925   -0.0935   -0.0424
          33   -0.0125   -0.0153    0.0249    0.0086    0.0341    0.0178   -0.1347    0.0190
          34   -0.0001    0.0136    0.0601    0.0054    0.2480    0.1501    0.1240   -0.0556
          35   -0.0014    0.0078   -0.2058   -0.0100    0.0081    0.0030   -0.0400   -0.1009
          36    0.0030    0.0030   -0.0199    0.1579   -0.0080   -0.0041    0.0713   -0.0141
          37    0.0059    0.0537    0.1141   -0.0181    0.0964    0.0568   -0.0413   -0.1481
          38   -0.0132   -0.0758    0.0284    0.0555   -0.0444   -0.0241    0.1216   -0.0714
          39    0.0176   -0.1548   -0.0207    0.0069   -0.3027   -0.1776   -0.1114   -0.0798
          40   -0.0162   -0.0550    0.3332    0.0393    0.0039    0.0006    0.0225   -0.3451
          41    0.0147   -0.0723    0.1700   -0.0033   -0.0063   -0.0029   -0.0493   -0.1788
          42    0.0113    0.0743    0.0907   -0.0230    0.1542    0.0927   -0.0238   -0.0555
          43    0.0340    0.0002   -0.0034   -0.0029    0.2900   -0.4903    0.0063    0.0033
          44    0.2165   -0.0015    0.0016   -0.0001   -0.0312    0.0548   -0.0037   -0.0026
          45   -0.2863   -0.0004    0.0015   -0.0016    0.1180   -0.1997    0.0034   -0.0016
          46    0.0438   -0.0008   -0.0004    0.0010   -0.0284    0.0478   -0.0013    0.0004
          47   -0.4372   -0.0015    0.0036    0.0005    0.0668   -0.1152    0.0012   -0.0024
          48   -0.1899   -0.0008   -0.0000   -0.0013    0.0929   -0.1602    0.0030   -0.0001
          49   -0.3380    0.0003   -0.0051    0.0030   -0.3252    0.5442   -0.0067    0.0017
          50   -0.0913    0.0004   -0.0009   -0.0005    0.0467   -0.0789    0.0013    0.0002
          51    0.2129   -0.0000   -0.0004    0.0008   -0.1045    0.1767   -0.0025   -0.0001
          52    0.0025    0.0001   -0.0024   -0.0003   -0.0055    0.0074    0.0007    0.0015
          53    0.1145    0.0005    0.0029   -0.0007    0.0407   -0.0661    0.0009   -0.0018
          54   -0.2585    0.0006   -0.0012    0.0011   -0.0744    0.1238   -0.0008    0.0004
          55    0.3498   -0.0001   -0.0001   -0.0009    0.0691   -0.1151    0.0014    0.0007
          56   -0.0469    0.0003   -0.0006   -0.0001   -0.0139    0.0230   -0.0004   -0.0002
          57    0.0911    0.0001    0.0002    0.0002    0.0293   -0.0477    0.0002    0.0003
          58   -0.0091    0.0480   -0.1009    0.0256   -0.0368   -0.0212    0.0995    0.0566
          59    0.0370   -0.0153   -0.0460   -0.0657    0.1001    0.0646   -0.1727    0.0680
          60   -0.0246   -0.0829   -0.0315   -0.0008   -0.0932   -0.0660   -0.0468    0.0044
          61    0.0166    0.0125   -0.0636   -0.0123    0.0085    0.0071   -0.0179    0.0567
          62   -0.0308   -0.0714   -0.0522    0.0313   -0.1757   -0.1113    0.0317   -0.0030
          63   -0.0169    0.1943    0.0355   -0.0366    0.3881    0.2237    0.0200    0.0748
          64   -0.0862    0.0007   -0.0043   -0.0000   -0.0040    0.0079   -0.0004    0.0033
          65    0.2314    0.0025   -0.0045    0.0007   -0.1056    0.1824   -0.0020    0.0054
          66    0.4378   -0.0004    0.0038   -0.0003   -0.0629    0.1115   -0.0030   -0.0028


   Root No.      41        42        43        44        45        46        47        48

                41 A      42 A      43 A      44 A      45 A      46 A      47 A      48 A   

                   4.9       5.4       5.8       6.7       7.0       7.8       7.8       8.6
  
           1   -0.0747    0.2149   -0.1230   -0.0553    0.0116   -0.0304   -0.0804    0.2630
           2    0.0397   -0.1178   -0.0516   -0.1599    0.0089    0.0760    0.2686    0.1554
           3   -0.4006   -0.1866   -0.0666    0.0369   -0.0033   -0.0014   -0.0069    0.0038
           4   -0.0726    0.1911   -0.1801   -0.1402    0.0158   -0.0020    0.0164    0.2213
           5    0.1399   -0.1808   -0.2482    0.0623   -0.0155    0.0378    0.0998   -0.2351
           6    0.3589    0.3068    0.1284   -0.1035    0.0085    0.0054    0.0221   -0.0230
           7    0.0216    0.1239   -0.3827    0.2085   -0.0268    0.1215    0.3863   -0.0714
           8    0.0916   -0.1901   -0.1515   -0.1629    0.0070   -0.0041   -0.0221   -0.2070
           9   -0.2677   -0.1290   -0.0546    0.0311   -0.0024   -0.0000   -0.0012    0.0052
          10   -0.0372    0.1364   -0.1884    0.0657   -0.0048   -0.0457   -0.1666   -0.2193
          11    0.0354   -0.1263    0.0202   -0.2065    0.0167   -0.0667   -0.2247   -0.2295
          12    0.3166    0.0961    0.0286   -0.0060    0.0005    0.0005    0.0023    0.0013
          13    0.0017    0.0651   -0.2120   -0.0338    0.0033   -0.0639   -0.2232   -0.2121
          14    0.0035   -0.0383   -0.0930   -0.2604    0.0234   -0.0263   -0.0635    0.2696
          15   -0.3761   -0.0997   -0.0312    0.0119   -0.0009   -0.0006   -0.0023   -0.0044
          16   -0.0095    0.0613   -0.0741   -0.0790    0.0133   -0.1054   -0.3427    0.1132
          17    0.0534   -0.1373   -0.1133   -0.2711    0.0189    0.0240    0.0965    0.1372
          18    0.4098    0.1250    0.0392   -0.0108    0.0007    0.0005    0.0017   -0.0000
          19   -0.0030   -0.0329    0.2042    0.1262   -0.0089   -0.0253   -0.0957   -0.1105
          20   -0.0269    0.0338    0.2986    0.2713   -0.0186   -0.0489   -0.1844   -0.2001
          21    0.0724    0.0355    0.0108   -0.0084    0.0005    0.0005    0.0016   -0.0007
          22   -0.0791   -0.0414    0.1098   -0.1186    0.0050    0.0422    0.1381   -0.1696
          23    0.0291   -0.0172    0.0071    0.3007   -0.0180   -0.0535   -0.1777    0.3040
          24    0.0598   -0.2102   -0.0818    0.1460   -0.0139   -0.0096   -0.0462    0.0514
          25    0.0022   -0.2219    0.4732   -0.1407    0.0161   -0.0570   -0.1787    0.0313
          26   -0.0027    0.0020    0.0194    0.0134   -0.0012   -0.0029   -0.0111   -0.0130
          27    0.0167    0.0057    0.0115   -0.0041    0.0003   -0.0008   -0.0024   -0.0002
          28   -0.0421    0.0589    0.1413    0.1258   -0.0100    0.0492    0.1658    0.1114
          29   -0.1204    0.1924    0.2300    0.2340   -0.0165    0.0723    0.2466    0.2341
          30   -0.0508   -0.0135   -0.0044   -0.0016    0.0003   -0.0005   -0.0010   -0.0015
          31    0.0544   -0.1683    0.0895   -0.1669    0.0132    0.0060    0.0338    0.1392
          32   -0.0923    0.2668   -0.0447    0.3224   -0.0250   -0.0105   -0.0600   -0.2462
          33    0.0700    0.0125    0.0052   -0.0051    0.0005    0.0000    0.0009    0.0030
          34    0.1150   -0.2862    0.2530    0.1338   -0.0195    0.1161    0.3738   -0.0972
          35   -0.0211    0.0393    0.0275    0.0335   -0.0018    0.0006    0.0021    0.0178
          36   -0.0737   -0.0180   -0.0045    0.0007   -0.0002    0.0001    0.0001   -0.0008
          37    0.0076   -0.0377   -0.0491    0.0288   -0.0027   -0.0040   -0.0153    0.0093
          38   -0.0117    0.1871    0.0757   -0.0836    0.0094   -0.0004    0.0071    0.0192
          39    0.0623   -0.1792   -0.0803   -0.0035   -0.0036    0.0145    0.0432   -0.0880
          40    0.0094    0.0675   -0.0044   -0.1102    0.0079    0.0195    0.0659   -0.1198
          41    0.0198   -0.0154   -0.0367    0.0947    0.0054   -0.0349   -0.0877    0.1634
          42    0.0153   -0.0685   -0.0611    0.1727   -0.0134   -0.0313   -0.1120    0.1570
          43    0.0015   -0.0018    0.0003   -0.0069   -0.1243   -0.0721    0.0172    0.0269
          44   -0.0051    0.0089    0.0060   -0.0422   -0.3830    0.2622   -0.0773   -0.0997
          45    0.0014   -0.0021   -0.0018    0.0242    0.3452   -0.2403    0.0866   -0.1133
          46   -0.0007    0.0002    0.0001    0.0045    0.0765   -0.0348    0.0141   -0.0240
          47    0.0002    0.0009    0.0003   -0.0051   -0.0612    0.0240   -0.0091    0.0201
          48    0.0002    0.0016    0.0013   -0.0263   -0.3797    0.1816   -0.0693    0.1106
          49   -0.0023    0.0027    0.0017   -0.0183   -0.2467   -0.0831    0.0200    0.0057
          50    0.0008   -0.0010   -0.0008    0.0060    0.0770    0.0307   -0.0078   -0.0002
          51   -0.0012    0.0016    0.0010   -0.0117   -0.1633   -0.0634    0.0155    0.0049
          52    0.0007   -0.0013   -0.0013    0.0111    0.1110   -0.2595    0.0824   -0.0179
          53    0.0001    0.0005    0.0002   -0.0097   -0.1691   -0.2082    0.0589   -0.0012
          54    0.0006   -0.0015   -0.0013    0.0229    0.3701    0.4694   -0.1343    0.0028
          55    0.0003   -0.0008   -0.0002    0.0101    0.2020    0.4377   -0.1286    0.0106
          56    0.0000   -0.0002   -0.0003    0.0037    0.0726    0.1517   -0.0446    0.0035
          57   -0.0003    0.0004    0.0003   -0.0084   -0.1691   -0.3547    0.1041   -0.0083
          58    0.1203   -0.1321   -0.0654    0.1590   -0.0127   -0.0223   -0.0792    0.1100
          59   -0.2268    0.2329    0.1201   -0.2732    0.0184    0.0414    0.1371   -0.1874
          60   -0.0356    0.0313    0.0224   -0.0713    0.0104    0.0076    0.0393   -0.0503
          61   -0.0130    0.0025    0.0073   -0.0020   -0.0000    0.0005    0.0009    0.0018
          62    0.0907   -0.1331   -0.0603    0.0865   -0.0075   -0.0065   -0.0255    0.0191
          63   -0.1769    0.2903    0.1384   -0.1843    0.0191    0.0130    0.0616   -0.0517
          64   -0.0005   -0.0001    0.0004   -0.0017   -0.0194    0.0128   -0.0040   -0.0018
          65    0.0027   -0.0071   -0.0048    0.0461    0.4597   -0.2577    0.0790    0.0759
          66   -0.0012    0.0013    0.0005   -0.0012   -0.0061    0.0094   -0.0032    0.0026


   Root No.      49        50        51        52        53        54        55        56

                49 A      50 A      51 A      52 A      53 A      54 A      55 A      56 A   

                   8.7      10.0      10.3      11.0      14.0      14.6      15.9      16.5
  
           1    0.0544    0.0230   -0.2105    0.0014    0.4380   -0.0225   -0.0240   -0.3323
           2    0.0253    0.0781   -0.3746    0.0017   -0.0759    0.2930    0.4070   -0.2306
           3    0.0012    0.0052    0.0045    0.0002   -0.0039    0.0011   -0.0040   -0.0001
           4    0.0428    0.0352   -0.2333    0.0010   -0.3996    0.0190   -0.2763    0.3345
           5   -0.0471   -0.0176    0.1695   -0.0007    0.0286    0.4990   -0.3113   -0.2855
           6   -0.0060   -0.0347   -0.0107   -0.0007   -0.0055   -0.0048    0.0042    0.0035
           7   -0.0167   -0.0460    0.3327   -0.0021   -0.1718   -0.3281    0.2963    0.0126
           8   -0.0439    0.0156    0.0368   -0.0004    0.3419   -0.1261   -0.0217    0.3796
           9    0.0016    0.0035    0.0045    0.0001    0.0059   -0.0068    0.0037   -0.0010
          10   -0.0435    0.0535   -0.1915    0.0004    0.2990   -0.2983   -0.2156   -0.2939
          11   -0.0483    0.0572   -0.1526    0.0008   -0.3577   -0.3574    0.3326   -0.2162
          12    0.0003   -0.0006    0.0000   -0.0000    0.0007    0.0038   -0.0047   -0.0001
          13   -0.0421    0.0517   -0.2016    0.0008   -0.2614    0.3235   -0.1032    0.2642
          14    0.0573   -0.0912    0.3398   -0.0012   -0.2585   -0.1613   -0.4020   -0.2854
          15   -0.0009    0.0022   -0.0041   -0.0000   -0.0043    0.0055    0.0038    0.0040
          16    0.0306   -0.1091    0.3948   -0.0013    0.0961    0.3146    0.4627    0.0326
          17    0.0253   -0.0047    0.0102    0.0002    0.3436   -0.1348   -0.0000    0.4303
          18   -0.0000   -0.0010    0.0005   -0.0000    0.0076   -0.0031    0.0011   -0.0034
          19   -0.0200   -0.0249    0.1264   -0.0006   -0.0200   -0.0496   -0.0172    0.0523
          20   -0.0362   -0.0396    0.2030   -0.0010   -0.0495   -0.0674   -0.0815    0.0552
          21   -0.0002   -0.0008   -0.0004    0.0000    0.0005   -0.0002    0.0003    0.0005
          22   -0.0389    0.0548    0.0820   -0.0009    0.0192    0.0263    0.0234   -0.0490
          23    0.0734   -0.1228   -0.1390    0.0006   -0.0349   -0.0737    0.0483    0.0599
          24    0.0131    0.0240    0.0001    0.0037    0.0055    0.0180   -0.0062   -0.0410
          25    0.0071    0.0061   -0.0646    0.0006    0.0267    0.0586   -0.0139   -0.0032
          26   -0.0023    0.0002   -0.0004    0.0000    0.0125   -0.0039    0.0009   -0.0164
          27    0.0002   -0.0006   -0.0012    0.0000    0.0002    0.0009   -0.0003   -0.0001
          28    0.0222   -0.0198    0.0614   -0.0003    0.0355    0.0603    0.0034    0.0489
          29    0.0474   -0.0388    0.1016   -0.0004    0.0466    0.1261   -0.0457    0.0524
          30   -0.0002    0.0000   -0.0003   -0.0001   -0.0002   -0.0010    0.0004   -0.0004
          31    0.0280   -0.0323    0.1162   -0.0004   -0.0319   -0.0504   -0.0106   -0.0502
          32   -0.0491    0.0520   -0.1814    0.0005    0.0221    0.0834    0.0713    0.0590
          33    0.0006   -0.0008    0.0022   -0.0001   -0.0002   -0.0010   -0.0007   -0.0008
          34   -0.0256    0.0630   -0.2121    0.0006   -0.0362   -0.0988   -0.1056   -0.0057
          35    0.0038   -0.0011   -0.0016    0.0001    0.0152   -0.0082    0.0031   -0.0287
          36   -0.0002   -0.0001   -0.0005   -0.0000   -0.0009    0.0002   -0.0005    0.0003
          37    0.0033   -0.0269   -0.0074   -0.0002   -0.0020    0.0114   -0.0097    0.0002
          38    0.0004    0.0258   -0.0182    0.0004   -0.0169   -0.0385    0.0018    0.0065
          39   -0.0183    0.0753    0.0680    0.0001    0.0260    0.0611    0.0002    0.0077
          40   -0.0302   -0.2371   -0.0085   -0.0032    0.0154    0.0473   -0.0103   -0.0158
          41    0.0215    0.6231    0.0839    0.0060   -0.0243   -0.0457   -0.0017    0.0278
          42    0.0441   -0.4176   -0.1728   -0.0049   -0.0408   -0.0976    0.0035    0.0345
          43   -0.1243    0.0005   -0.0003   -0.2451    0.0002    0.0004   -0.0001   -0.0004
          44    0.5185    0.0131   -0.0008    0.1632   -0.0007   -0.0007    0.0004    0.0006
          45    0.4950    0.0058   -0.0011   -0.2885    0.0001    0.0006   -0.0000   -0.0004
          46    0.1032    0.0006   -0.0001   -0.0223    0.0001    0.0000   -0.0000   -0.0001
          47   -0.0953   -0.0033   -0.0000    0.0128    0.0001    0.0002   -0.0001   -0.0001
          48   -0.4856   -0.0058    0.0006    0.1176   -0.0000   -0.0001   -0.0001    0.0001
          49   -0.0134    0.0049   -0.0006   -0.2971   -0.0000   -0.0000    0.0001    0.0001
          50   -0.0022   -0.0014    0.0002    0.0903    0.0001    0.0001   -0.0001   -0.0000
          51   -0.0150    0.0029   -0.0005   -0.1878   -0.0001   -0.0000    0.0000    0.0001
          52    0.0468   -0.0104    0.0018    0.7480    0.0001   -0.0001   -0.0001   -0.0001
          53    0.0036    0.0013   -0.0005   -0.1115   -0.0000    0.0001    0.0001    0.0000
          54   -0.0010   -0.0025    0.0004    0.2072   -0.0001   -0.0002   -0.0000    0.0001
          55   -0.0247    0.0031   -0.0004   -0.1908   -0.0000   -0.0000    0.0001    0.0000
          56   -0.0083    0.0009   -0.0002   -0.0587    0.0001    0.0001   -0.0000   -0.0000
          57    0.0193   -0.0025    0.0002    0.1407    0.0000   -0.0000   -0.0001   -0.0000
          58    0.0290    0.1692    0.0065    0.0031   -0.0080   -0.0131   -0.0001    0.0065
          59   -0.0440   -0.3201   -0.0207   -0.0040    0.0106    0.0233   -0.0021   -0.0091
          60   -0.0155   -0.0033    0.0144   -0.0025    0.0030    0.0073   -0.0013   -0.0028
          61   -0.0001    0.0396    0.0091    0.0009    0.0008   -0.0000    0.0009   -0.0012
          62    0.0100   -0.2161   -0.0558   -0.0033   -0.0030   -0.0081    0.0011    0.0010
          63   -0.0220    0.3504    0.0958    0.0030    0.0065    0.0167    0.0006   -0.0009
          64    0.0122    0.0011   -0.0000    0.0074   -0.0001   -0.0002    0.0001    0.0002
          65   -0.4096   -0.0106    0.0008   -0.0955    0.0003    0.0005   -0.0003   -0.0002
          66   -0.0106    0.0010    0.0002    0.0122   -0.0001   -0.0002    0.0000    0.0003


   Root No.      57        58        59        60

                57 A      58 A      59 A      60 A   

                  17.2      19.9      20.4      23.1
  
           1    0.0052    0.4479   -0.1532   -0.0215
           2    0.0042   -0.1499    0.3108    0.0071
           3   -0.0013    0.0024   -0.0042    0.0059
           4    0.0335   -0.4119   -0.1037    0.0306
           5   -0.0688   -0.1210   -0.3213   -0.0694
           6   -0.0049    0.0005    0.0057   -0.0196
           7   -0.0055    0.1412   -0.0050    0.0068
           8   -0.0062    0.0396    0.5365    0.0410
           9    0.0007    0.0010   -0.0040    0.0034
          10    0.0410   -0.4574    0.1325    0.0061
          11    0.0143    0.0653   -0.3132   -0.0108
          12   -0.0003   -0.0031    0.0038    0.0023
          13   -0.0244    0.5087    0.1106    0.0018
          14    0.0355    0.1557    0.2819    0.0072
          15   -0.0007    0.0009   -0.0031    0.0000
          16   -0.0229   -0.2685    0.0231    0.0002
          17   -0.0328   -0.0034   -0.5133   -0.0118
          18    0.0003   -0.0012    0.0052    0.0020
          19    0.0016   -0.0074   -0.0041    0.0018
          20    0.0028   -0.0023   -0.0148   -0.0005
          21    0.0003   -0.0001    0.0002   -0.0024
          22   -0.2249    0.0057    0.0191   -0.1647
          23    0.4981    0.0168   -0.0025    0.0309
          24   -0.1306    0.0091   -0.0411    0.7617
          25   -0.0013    0.0214   -0.0019   -0.0012
          26   -0.0002   -0.0008   -0.0028    0.0002
          27   -0.0002    0.0004    0.0000   -0.0000
          28   -0.0058    0.0091    0.0078    0.0002
          29   -0.0070    0.0121    0.0172   -0.0003
          30   -0.0002    0.0000   -0.0001   -0.0002
          31    0.0054   -0.0117    0.0040   -0.0001
          32   -0.0084    0.0064   -0.0114   -0.0002
          33    0.0001   -0.0000    0.0003   -0.0003
          34    0.0071    0.0240   -0.0023    0.0003
          35    0.0019   -0.0017    0.0049   -0.0002
          36    0.0000    0.0002   -0.0001   -0.0005
          37    0.0298   -0.0042   -0.0054   -0.0189
          38   -0.2608   -0.0056    0.0082    0.1717
          39    0.5233    0.0068   -0.0072   -0.3533
          40    0.1983    0.0047   -0.0246    0.1723
          41   -0.2054   -0.0128    0.0232   -0.1764
          42   -0.4838   -0.0181    0.0487   -0.4076
          43   -0.0004    0.0001   -0.0003    0.0030
          44   -0.0002   -0.0002    0.0003   -0.0026
          45   -0.0003    0.0001   -0.0005    0.0043
          46    0.0002    0.0001   -0.0000    0.0004
          47    0.0003    0.0000   -0.0000    0.0006
          48   -0.0002   -0.0001    0.0001   -0.0012
          49    0.0001    0.0001   -0.0001    0.0003
          50   -0.0002   -0.0000    0.0001   -0.0000
          51    0.0001    0.0000   -0.0000   -0.0001
          52   -0.0007   -0.0002    0.0002   -0.0009
          53    0.0002   -0.0000   -0.0001    0.0007
          54    0.0001   -0.0000    0.0001   -0.0008
          55    0.0001    0.0000   -0.0001   -0.0001
          56    0.0000   -0.0000   -0.0000    0.0002
          57   -0.0003   -0.0000    0.0001   -0.0001
          58   -0.0332   -0.0024    0.0028   -0.0179
          59    0.0613    0.0018   -0.0057    0.0272
          60    0.0045   -0.0002   -0.0007    0.0008
          61   -0.0043    0.0008    0.0001    0.0043
          62   -0.0291   -0.0002    0.0020   -0.0126
          63    0.0928    0.0014   -0.0034    0.0087
          64    0.0008   -0.0001    0.0003   -0.0027
          65    0.0007    0.0000    0.0000   -0.0021
          66    0.0006   -0.0001    0.0002   -0.0028


          FORCE CONSTANTS IN MILLIDYNES/ANGSTROM (= 10**5 DYNES/CM)

  -0.03953  -0.01213  -0.01109  -0.00467  -0.00284  -0.00190   0.00383   0.02188
   0.02471   0.08499   0.08869   0.11805   0.16289   0.17017   0.26239   0.29022
   0.31120   0.43273   0.45115   0.58349   0.81840   0.85259   0.88706   0.95021
   1.12801   1.27064   1.35228   1.44250   1.47304   1.69028   1.90055   2.01565
   2.09763   2.80444   2.96350   3.21471   3.41705   3.43195   3.66692   4.13495
   4.88006   5.39339   5.76180   6.68831   6.98874   7.75246   7.78111   8.55811
   8.66580   9.98569  10.31384  11.01460  13.97078  14.55050  15.94130  16.46675
  17.20448  19.93695  20.43564  23.13790


           ASSOCIATED EIGENVECTORS




    ROOT NO.    1           2           3           4           5           6

            -0.03953    -0.01213    -0.01109    -0.00467    -0.00284    -0.00190
  
         1   0.00839    -0.00155     0.04942     0.05778    -0.04734     0.11666
         2  -0.01236    -0.05003    -0.07875    -0.04773    -0.00910    -0.07728
         3   0.00433     0.01673    -0.05163     0.10648     0.03242    -0.06836
         4   0.00794    -0.00015     0.04864     0.05869    -0.04745     0.11675
         5  -0.01006    -0.05416    -0.07543     0.01456    -0.09182     0.01010
         6  -0.01319    -0.02651    -0.01257     0.00774    -0.04338    -0.01350
         7   0.00550     0.00119     0.04452     0.00311     0.02389     0.04116
         8  -0.00815    -0.05535    -0.07223     0.04410    -0.13023     0.05104
         9  -0.00205    -0.06916     0.00134    -0.07904    -0.03052     0.07196
        10   0.00360     0.00129     0.04238    -0.05354     0.09442    -0.03353
        11  -0.00906    -0.05488    -0.07357     0.01241    -0.08960     0.00926
        12   0.01195    -0.08816     0.00087    -0.08950     0.02891     0.11453
        13   0.00366     0.00108     0.04247    -0.05325     0.09331    -0.03229
        14  -0.01175    -0.05171    -0.07744    -0.05007    -0.00752    -0.07785
        15   0.01722    -0.03572    -0.03373     0.01611     0.09002     0.03469
        16   0.00633    -0.00079     0.04652     0.00229     0.02240     0.04250
        17  -0.01322    -0.05019    -0.07974    -0.08075     0.03284    -0.12099
        18   0.01808     0.01994    -0.06844     0.12070     0.10619    -0.05913
        19   0.00993    -0.00300     0.04982     0.09827    -0.10163     0.17414
        20  -0.01345    -0.05057    -0.07784    -0.07161     0.02110    -0.11015
        21   0.00174     0.05491    -0.06580     0.17361     0.02819    -0.12072
        22   0.02090    -0.02951     0.06955     0.09761    -0.11200     0.18664
        23  -0.00523    -0.06782    -0.06706     0.03502    -0.12626     0.04546
        24  -0.08027     0.00498     0.04358    -0.00229    -0.15610    -0.06914
        25   0.00597     0.00144     0.04371     0.00207     0.02869     0.03648
        26  -0.00022    -0.05404    -0.06657     0.13572    -0.24433     0.16794
        27  -0.01580    -0.07862     0.01703    -0.18314    -0.10241     0.12461
        28   0.00196     0.00195     0.03935    -0.09695     0.15020    -0.09324
        29  -0.00802    -0.05551    -0.07147     0.03529    -0.11969     0.04174
        30   0.01474    -0.13254     0.02639    -0.16727     0.02434     0.19638
        31   0.00222     0.00245     0.04023    -0.09473     0.14825    -0.08955
        32  -0.01265    -0.05114    -0.07909    -0.07495     0.02488    -0.11218
        33   0.01883    -0.03526    -0.03464     0.01670     0.11716     0.04383
        34   0.00637    -0.00105     0.04670     0.00205     0.02172     0.04351
        35  -0.01539    -0.04950    -0.08087    -0.13314     0.09588    -0.18786
        36   0.02549     0.06646    -0.10321     0.20796     0.16793    -0.12116
        37   0.08582    -0.35809     0.25398     0.05694    -0.16215     0.28206
        38  -0.04141    -0.19488     0.08229     0.00142    -0.24480     0.03463
        39  -0.10237    -0.03876     0.10462    -0.01699    -0.21302    -0.07847
        40  -0.02972     0.24048    -0.07265     0.12934    -0.09446     0.10701
        41   0.05663     0.00980    -0.19499     0.06213    -0.01851     0.07464
        42  -0.12639     0.08089     0.03693    -0.00129    -0.19508    -0.11198
        43  -0.02418    -0.14037    -0.04660     0.00313     0.03610    -0.21550
        44  -0.17960     0.13070     0.38399     0.05799     0.05715    -0.11708
        45   0.00911     0.11768     0.00666    -0.26333     0.01492     0.09344
        46   0.30444    -0.18602    -0.03238     0.15670     0.07848    -0.23544
        47   0.48883     0.16747     0.40407     0.08980    -0.05947    -0.25689
        48  -0.05326     0.10106     0.00855    -0.23645     0.04712     0.11575
        49  -0.00936    -0.05481    -0.09936    -0.19034     0.00473    -0.14008
        50  -0.11712     0.13032     0.21302    -0.05273     0.22078     0.12398
        51   0.00746    -0.01882     0.00248    -0.00514     0.15306     0.10287
        52   0.00698     0.00030    -0.13230    -0.33093    -0.01191    -0.08626
        53  -0.08950     0.12553     0.09175    -0.12228     0.32935     0.28169
        54  -0.00356    -0.11352    -0.00020     0.19331     0.23246     0.08689
        55  -0.00658    -0.06674    -0.09598    -0.16206     0.00939    -0.15038
        56   0.00216     0.04598     0.01726    -0.06082     0.23885     0.16197
        57   0.01866    -0.23003     0.01305     0.42773     0.21997    -0.04395
        58   0.04741     0.24228    -0.04465     0.13078    -0.11013     0.13093
        59   0.10145     0.00574    -0.18745     0.06266    -0.02022     0.09315
        60  -0.20470     0.14192     0.08678    -0.00468    -0.28010    -0.16032
        61  -0.09282     0.52898    -0.23082     0.16345    -0.05334     0.01853
        62   0.10250     0.09565    -0.30025     0.08619     0.07880     0.08060
        63  -0.09556     0.10526    -0.01078     0.00949    -0.14320    -0.10036
        64  -0.36477    -0.17935    -0.06254     0.01958     0.02882    -0.22009
        65  -0.20438     0.12862     0.39038     0.05678     0.06192    -0.11590
        66   0.54955     0.15727     0.03275    -0.23071    -0.09886    -0.03785




    ROOT NO.    7           8           9          10          11          12

             0.00383     0.02188     0.02471     0.08499     0.08869     0.11805
  
         1  -0.00630     0.00694     0.02273     0.00867    -0.00273    -0.15697
         2   0.01606     0.00381    -0.04222    -0.00345     0.02113    -0.01992
         3   0.02289    -0.08774     0.17003     0.01476    -0.11584    -0.03830
         4  -0.00662     0.00719     0.02279     0.00869    -0.00021    -0.16253
         5  -0.01260     0.00608    -0.04234     0.00217     0.02417    -0.10307
         6   0.05414    -0.09790     0.19873     0.01335    -0.14663     0.00691
         7   0.01879     0.00373     0.02676     0.00468    -0.01232    -0.08237
         8  -0.02625     0.00805    -0.04524     0.00416     0.02906    -0.13987
         9   0.01129    -0.05598     0.12924    -0.00626    -0.02710    -0.01541
        10   0.04459     0.00021     0.02961    -0.00097    -0.01754     0.00950
        11  -0.01249     0.00744    -0.04612     0.00129     0.02730    -0.09591
        12  -0.05513     0.05607    -0.11319     0.01393    -0.14653    -0.02971
        13   0.04445    -0.00001     0.03032    -0.00109    -0.01634     0.00818
        14   0.01599     0.00507    -0.04569    -0.00443     0.02375    -0.00472
        15  -0.07040     0.08285    -0.19163     0.00388     0.03142     0.02718
        16   0.01909     0.00337     0.02635     0.00352    -0.00904    -0.06990
        17   0.03050     0.00283    -0.04290    -0.00691     0.01855     0.04042
        18  -0.03770    -0.00066    -0.02133    -0.00969     0.15299     0.00697
        19  -0.02433     0.00927     0.02171     0.01369    -0.00083    -0.24747
        20   0.02747     0.00240    -0.04183    -0.00631     0.01982     0.03080
        21   0.04985    -0.14098     0.27965     0.03031    -0.25952    -0.12684
        22  -0.02336     0.00369     0.02062     0.00005     0.01132     0.01550
        23  -0.02108     0.00511    -0.04430    -0.00250     0.02924    -0.01061
        24   0.14470    -0.06384     0.08233     0.01448    -0.12141     0.04714
        25   0.01928     0.00542     0.02185     0.00561    -0.02306    -0.06911
        26  -0.06490     0.01308    -0.05096     0.01145     0.03921    -0.24302
        27   0.05206    -0.16698     0.40023    -0.09842     0.59533    -0.06522
        28   0.06487    -0.00279     0.03283    -0.00565    -0.01979     0.08729
        29  -0.02361     0.00959    -0.04884     0.00396     0.02800    -0.14019
        30  -0.09016     0.12443    -0.24891     0.03495    -0.34734    -0.09249
        31   0.06358    -0.00202     0.03161    -0.00511    -0.02028     0.07966
        32   0.02683     0.00496    -0.04747    -0.00682     0.02237     0.03762
        33  -0.10288     0.15960    -0.36520     0.00346     0.09430     0.07372
        34   0.01913     0.00329     0.02660     0.00369    -0.01027    -0.07245
        35   0.05417    -0.00036    -0.03948    -0.01201     0.01094     0.13129
        36  -0.05734     0.01069    -0.05739    -0.04125     0.47569     0.02244
        37  -0.02706    -0.02585     0.07467    -0.01466     0.02498     0.27418
        38   0.06264     0.04701    -0.18624    -0.01248     0.10829     0.08868
        39   0.18822    -0.04001     0.00402     0.00920    -0.07947     0.07643
        40  -0.01289     0.03244    -0.05771    -0.00706     0.02486     0.12861
        41  -0.09989    -0.05682     0.12141     0.00198    -0.07878     0.11084
        42   0.18403    -0.02654    -0.02075     0.00937    -0.07083     0.03852
        43  -0.05758    -0.02801    -0.02438    -0.00755    -0.00462    -0.02323
        44  -0.26613     0.04090     0.08580     0.05708    -0.00558     0.01963
        45  -0.25444     0.09643     0.04148     0.03911     0.02047     0.01765
        46   0.17060    -0.24730    -0.15286     0.49420     0.05815    -0.03064
        47  -0.03045     0.01482     0.00595    -0.07496    -0.02335    -0.05800
        48  -0.25434     0.05669     0.03069     0.16639     0.03683     0.03180
        49  -0.03233     0.02473    -0.00133    -0.28577    -0.02916    -0.03311
        50   0.08149    -0.25252    -0.08019    -0.20118    -0.02756    -0.03378
        51  -0.11062    -0.13728    -0.08188     0.33484     0.04734     0.00525
        52  -0.01672     0.00730     0.00254    -0.00526     0.00912    -0.02442
        53   0.32598    -0.36787    -0.15433    -0.11273    -0.01433    -0.03589
        54  -0.02139    -0.16792    -0.12494    -0.07637    -0.00867    -0.01012
        55  -0.02635     0.04786     0.00433    -0.39095    -0.04257    -0.03626
        56   0.45609     0.63451     0.26319     0.28162     0.03684     0.00159
        57   0.02205     0.31161     0.05603    -0.39985    -0.05262    -0.00924
        58   0.01411     0.01598    -0.07899    -0.03752     0.02606     0.59356
        59  -0.08932    -0.07367     0.12794    -0.01283    -0.09358     0.36204
        60   0.24948     0.04641    -0.20974    -0.01097     0.05203     0.06010
        61  -0.01283     0.07701    -0.13877     0.00671     0.05266    -0.21706
        62  -0.16913    -0.10043     0.26196     0.02270    -0.19174     0.03918
        63   0.14507    -0.05410     0.06281     0.01941    -0.13392     0.02220
        64  -0.23212     0.05753     0.05872     0.21207     0.00162     0.02901
        65  -0.28136     0.04604     0.09189     0.07020    -0.00375     0.02290
        66  -0.06938     0.09515    -0.02029    -0.06464     0.00350    -0.04898




    ROOT NO.   13          14          15          16          17          18

             0.16289     0.17017     0.26239     0.29022     0.31120     0.43273
  
         1  -0.04948    -0.02501    -0.00392    -0.12469    -0.00005    -0.00101
         2   0.04074     0.00985     0.01961    -0.01599     0.00348     0.00014
         3   0.11425     0.05054     0.08161     0.00907    -0.00043     0.00921
         4  -0.04771    -0.02456    -0.00342    -0.12211     0.00018    -0.00043
         5   0.00674    -0.00290     0.00754    -0.06990     0.00036    -0.00257
         6  -0.10833    -0.06222    -0.01623    -0.01250     0.01244     0.01671
         7  -0.04373    -0.02237    -0.01133    -0.08943     0.00058    -0.00126
         8   0.00795    -0.00277     0.01535    -0.08466     0.00034    -0.00179
[...]
 TRANSITION DIPOLE   1.1666         O 15 -- H 16          +1.8% ( 13.3%)      3.2%
 TRAVEL (Ang.)       0.3282         O 18 -- H 19          +1.6% ( 12.5%)      1.0%
 REDUCED MASS        0.8871         O 15 -- H 22          +0.9% (  9.4%)     35.4%
 EFFECTIVE MASS      1.7051
 FORCE CONSTANT      0.2603

 VIBRATION         26   26A           ATOM PAIR      ENERGY CONTRIBUTION    RADIAL
 FREQUENCY           739.26         C  2 -- C  3         +22.4% ( 77.9%)      0.0%
 TRANSITION DIPOLE   0.3094         C  2 -- C  8         +17.1% ( 68.1%)      0.3%
 TRAVEL (Ang.)       0.1676         C  1 -- C  2         +14.7% ( 63.2%)      0.1%
 REDUCED MASS        3.2490         C  2 -- I  9         +13.7% ( 61.0%)      0.1%
 EFFECTIVE MASS     10.4162
 FORCE CONSTANT      1.0462

 VIBRATION         27   27A           ATOM PAIR      ENERGY CONTRIBUTION    RADIAL
 FREQUENCY           775.40         O 18 -- H 19         +35.5% ( 69.1%)      4.6%
 TRANSITION DIPOLE   1.5388         O 15 -- H 22         +22.2% ( 54.6%)      0.1%
 TRAVEL (Ang.)       0.1176         O 15 -- H 16         +21.1% ( 53.2%)      3.2%
 REDUCED MASS        6.2846         H 17 -- O 18         +20.4% ( 52.4%)     82.0%
 EFFECTIVE MASS     17.8101
 FORCE CONSTANT      2.2263

 VIBRATION         28   28A           ATOM PAIR      ENERGY CONTRIBUTION    RADIAL
 FREQUENCY           786.46         C  5 -- C  6         +13.3% ( 82.6%)      0.2%
 TRANSITION DIPOLE   0.4972         C  4 -- C  5         +11.9% ( 78.3%)      0.1%
 TRAVEL (Ang.)       0.2533         C  1 -- C  6          +7.7% ( 62.8%)      0.0%
 REDUCED MASS        1.3367         C  4 -- I  9          +6.8% ( 59.3%)      4.5%
 EFFECTIVE MASS     13.2718
 FORCE CONSTANT      0.4871

 VIBRATION         29   29A           ATOM PAIR      ENERGY CONTRIBUTION    RADIAL
 FREQUENCY           814.12         C  5 -- H 11         +30.7% ( 67.7%)      0.1%
 TRANSITION DIPOLE   0.9795         C  6 -- H 12         +24.5% ( 60.5%)      0.2%
 TRAVEL (Ang.)       0.5323         C  4 -- H 10         +17.7% ( 51.3%)      0.3%
 REDUCED MASS        0.2923         C  1 -- H  7          +5.4% ( 28.4%)      0.0%
 EFFECTIVE MASS      2.5641
 FORCE CONSTANT      0.1142

 VIBRATION         30   30A           ATOM PAIR      ENERGY CONTRIBUTION    RADIAL
 FREQUENCY           915.69         C  4 -- H 10         +28.1% ( 61.2%)      0.0%
 TRANSITION DIPOLE   0.3047         C  1 -- H  7         +18.0% ( 48.9%)      0.0%
 TRAVEL (Ang.)       0.4121         C  6 -- H 12         +17.9% ( 48.9%)      0.0%
 REDUCED MASS        0.4337         C  3 -- C  4          +5.8% ( 27.7%)      0.0%
 EFFECTIVE MASS      3.6371
 FORCE CONSTANT      0.2143

 VIBRATION         31   31A           ATOM PAIR      ENERGY CONTRIBUTION    RADIAL
 FREQUENCY           949.21         C 14 -- H 20         +46.5% ( 71.8%)      0.0%
 TRANSITION DIPOLE   1.7432         C 14 -- H 21         +26.2% ( 53.9%)      0.1%
 TRAVEL (Ang.)       0.2599         C  8 -- C 14         +14.1% ( 39.6%)      0.1%
 REDUCED MASS        1.0518         C  8 -- O 13          +3.4% ( 19.5%)      0.0%
 EFFECTIVE MASS      3.7942
 FORCE CONSTANT      0.5584

 VIBRATION         32   32A           ATOM PAIR      ENERGY CONTRIBUTION    RADIAL
 FREQUENCY           990.91         C  1 -- H  7         +30.6% ( 60.6%)      0.0%
 TRANSITION DIPOLE   0.3818         C  5 -- H 11         +17.9% ( 46.4%)      0.0%
 TRAVEL (Ang.)       0.3561         C  4 -- H 10         +16.4% ( 44.4%)      0.0%
 REDUCED MASS        0.5366         C  4 -- C  5          +6.7% ( 28.4%)      0.0%
 EFFECTIVE MASS      3.8309
 FORCE CONSTANT      0.3105

 VIBRATION         33   33A           ATOM PAIR      ENERGY CONTRIBUTION    RADIAL
 FREQUENCY          1003.02         C 14 -- H 20         +11.1% ( 56.4%)     15.4%
 TRANSITION DIPOLE   1.0039         C  2 -- C  3         +10.6% ( 55.2%)      2.9%
 TRAVEL (Ang.)       0.2476         C 14 -- H 21         +10.4% ( 54.7%)     15.7%
 REDUCED MASS        1.0969         C  3 -- C  4          +9.8% ( 53.3%)      0.1%
 EFFECTIVE MASS      9.2596
 FORCE CONSTANT      0.6502

 VIBRATION         34   34A           ATOM PAIR      ENERGY CONTRIBUTION    RADIAL
 FREQUENCY          1034.99         C  6 -- H 12         +23.6% ( 53.1%)      0.0%
 TRANSITION DIPOLE   0.2174         C  5 -- H 11         +23.2% ( 52.7%)      0.0%
 TRAVEL (Ang.)       0.2938         C  1 -- H  7         +11.9% ( 37.7%)      0.0%
 REDUCED MASS        0.7546         C  5 -- C  6         +11.5% ( 37.1%)      0.0%
 EFFECTIVE MASS      4.8177
 FORCE CONSTANT      0.4763

 VIBRATION         35   35A           ATOM PAIR      ENERGY CONTRIBUTION    RADIAL
 FREQUENCY          1061.92         C 14 -- H 21         +16.9% ( 61.4%)     36.7%
 TRANSITION DIPOLE   1.0803         C 14 -- H 20         +14.1% ( 56.0%)      5.3%
 TRAVEL (Ang.)       0.2331         C  8 -- C 14          +9.6% ( 46.1%)      5.3%
 REDUCED MASS        1.1687         C  3 -- C  4          +8.5% ( 43.4%)      1.5%
 EFFECTIVE MASS      9.4120
 FORCE CONSTANT      0.7765

 VIBRATION         36   36A           ATOM PAIR      ENERGY CONTRIBUTION    RADIAL
 FREQUENCY          1164.26         O 15 -- H 16         +71.7% ( 72.4%)      5.5%
 TRANSITION DIPOLE   1.0159         O 15 -- H 22         +26.2% ( 43.8%)     12.0%
 TRAVEL (Ang.)       0.2595         C 14 -- H 21          +1.1% (  9.0%)      0.3%
 REDUCED MASS        0.8601         O 18 -- H 19          +0.2% (  3.9%)     38.1%
 EFFECTIVE MASS      2.9583
 FORCE CONSTANT      0.6869

 VIBRATION         37   37A           ATOM PAIR      ENERGY CONTRIBUTION    RADIAL
 FREQUENCY          1195.48         C  5 -- C  6         +17.1% ( 54.5%)    100.0%
 TRANSITION DIPOLE   0.5171         C  1 -- H  7         +15.7% ( 52.4%)     11.4%
 TRAVEL (Ang.)       0.3402         C  4 -- H 10         +13.4% ( 48.4%)      6.6%
 REDUCED MASS        0.4872         C  5 -- H 11         +13.0% ( 47.6%)     43.6%
 EFFECTIVE MASS      5.4993         C  1 -- C  6         +10.2% ( 42.2%)     61.4%
 FORCE CONSTANT      0.4103

 VIBRATION         38   38A           ATOM PAIR      ENERGY CONTRIBUTION    RADIAL
 FREQUENCY          1213.46         C  6 -- H 12         +42.9% ( 81.1%)      0.2%
 TRANSITION DIPOLE   0.2216         C  1 -- H  7         +13.1% ( 44.9%)      1.8%
 TRAVEL (Ang.)       0.3221         C  2 -- C  3          +7.1% ( 33.1%)     35.8%
 REDUCED MASS        0.5356         C  4 -- C  5          +6.9% ( 32.5%)     94.7%
 EFFECTIVE MASS      3.1766
 FORCE CONSTANT      0.4646

 VIBRATION         39   39A           ATOM PAIR      ENERGY CONTRIBUTION    RADIAL
 FREQUENCY          1237.54         C  5 -- H 11         +43.0% ( 80.5%)      1.6%
 TRANSITION DIPOLE   0.2777         C  4 -- H 10         +14.9% ( 47.3%)      7.6%
 TRAVEL (Ang.)       0.3210         C  3 -- C  4         +10.2% ( 39.2%)     97.1%
 REDUCED MASS        0.5289         C  2 -- C  3          +5.7% ( 29.2%)     23.3%
 EFFECTIVE MASS      3.4301
 FORCE CONSTANT      0.4773

 VIBRATION         40   40A           ATOM PAIR      ENERGY CONTRIBUTION    RADIAL
 FREQUENCY          1298.90         C  2 -- C  3         +13.6% ( 54.8%)     87.4%
 TRANSITION DIPOLE   0.7151         C  1 -- C  2         +12.5% ( 52.5%)     75.7%
 TRAVEL (Ang.)       0.2083         C  2 -- I  9         +10.1% ( 47.1%)      2.5%
 REDUCED MASS        1.1962         C  2 -- C  8          +9.4% ( 45.6%)     98.7%
 EFFECTIVE MASS      9.5060
 FORCE CONSTANT      1.1891

 VIBRATION         41   41A           ATOM PAIR      ENERGY CONTRIBUTION    RADIAL
 FREQUENCY          1336.12         C  1 -- H  7         +31.3% ( 63.0%)      1.1%
 TRANSITION DIPOLE   0.0591         C  4 -- H 10         +28.9% ( 60.6%)      0.8%
 TRAVEL (Ang.)       0.3655         C  2 -- C  3          +5.9% ( 27.4%)      0.0%
 REDUCED MASS        0.3779         C  1 -- C  2          +5.2% ( 25.8%)     46.0%
 EFFECTIVE MASS      2.3799
 FORCE CONSTANT      0.3974

 VIBRATION         42   42A           ATOM PAIR      ENERGY CONTRIBUTION    RADIAL
 FREQUENCY          1351.96         C 14 -- H 20         +23.5% ( 53.9%)      0.0%
 TRANSITION DIPOLE   1.1697         C 14 -- H 21         +20.3% ( 50.2%)      2.0%
 TRAVEL (Ang.)       0.3383         C  2 -- C  8         +13.1% ( 40.3%)     99.8%
 REDUCED MASS        0.4357         C  8 -- O 13          +6.7% ( 28.8%)     34.8%
 EFFECTIVE MASS      3.9359
 FORCE CONSTANT      0.4692

 VIBRATION         43   43A           ATOM PAIR      ENERGY CONTRIBUTION    RADIAL
 FREQUENCY          1429.06         C  4 -- C  5         +13.4% ( 61.5%)     98.8%
 TRANSITION DIPOLE   0.5179         C  1 -- C  2         +12.6% ( 59.7%)     98.2%
 TRAVEL (Ang.)       0.1646         C  1 -- C  6         +12.4% ( 59.1%)     95.9%
 REDUCED MASS        1.7423         C  3 -- C  4         +11.0% ( 55.6%)     95.5%
 EFFECTIVE MASS     10.6448
 FORCE CONSTANT      2.0963

 VIBRATION         44   44A           ATOM PAIR      ENERGY CONTRIBUTION    RADIAL
 FREQUENCY          1446.22         H 17 -- O 18         +65.8% ( 66.7%)      8.0%
 TRANSITION DIPOLE   1.0745         O 18 -- H 19         +33.7% ( 47.8%)      9.3%
 TRAVEL (Ang.)       0.2888         O 15 -- H 22          +0.3% (  4.6%)     40.4%
 REDUCED MASS        0.5589         O 15 -- H 16          +0.1% (  2.8%)      0.1%
 EFFECTIVE MASS      1.7592
 FORCE CONSTANT      0.6887

 VIBRATION         45   45A           ATOM PAIR      ENERGY CONTRIBUTION    RADIAL
 FREQUENCY          1471.83         C  8 -- O 13         +33.1% ( 76.9%)     81.4%
 TRANSITION DIPOLE   4.2329         C  8 -- C 14         +26.4% ( 68.7%)     37.7%
 TRAVEL (Ang.)       0.1140         C  2 -- C  8         +15.0% ( 51.8%)     91.4%
 REDUCED MASS        3.5228         C 14 -- H 21         +13.2% ( 48.6%)      2.1%
 EFFECTIVE MASS     11.8532
 FORCE CONSTANT      4.4962

 VIBRATION         46   46A           ATOM PAIR      ENERGY CONTRIBUTION    RADIAL
 FREQUENCY          1510.04         C  3 -- C  4         +10.8% ( 48.0%)    100.0%
 TRANSITION DIPOLE   1.0570         C  1 -- C  2         +10.7% ( 47.9%)     60.9%
 TRAVEL (Ang.)       0.1835         C  5 -- H 11          +9.9% ( 46.0%)      0.2%
 REDUCED MASS        1.3261         C  1 -- C  6          +9.7% ( 45.7%)     87.3%
 EFFECTIVE MASS      9.5569
 FORCE CONSTANT      1.7816

 VIBRATION         47   47A           ATOM PAIR      ENERGY CONTRIBUTION    RADIAL
 FREQUENCY          1547.42         C  2 -- C  3         +14.5% ( 55.6%)     88.4%
 TRANSITION DIPOLE   1.0618         C  5 -- C  6         +12.3% ( 51.3%)     85.1%
 TRAVEL (Ang.)       0.1739         C  1 -- C  2          +9.7% ( 45.4%)     39.2%
 REDUCED MASS        1.4417         C  1 -- C  6          +7.9% ( 41.0%)      5.6%
 EFFECTIVE MASS      9.5945
 FORCE CONSTANT      2.0339

 VIBRATION         48   48A           ATOM PAIR      ENERGY CONTRIBUTION    RADIAL
 FREQUENCY          1621.25         O 15 -- H 22         +96.3% ( 98.5%)     99.2%
 TRANSITION DIPOLE   1.7976         O 15 -- H 16          +3.1% ( 17.6%)     25.7%
 TRAVEL (Ang.)       0.1305         H 17 -- O 18          +0.2% (  4.3%)      8.5%
 REDUCED MASS        2.4409         C  8 -- C 14          +0.1% (  3.4%)     77.6%
 EFFECTIVE MASS      4.2719
 FORCE CONSTANT      3.7801

 VIBRATION         49   49A           ATOM PAIR      ENERGY CONTRIBUTION    RADIAL
 FREQUENCY          1676.31         C  4 -- C  5         +18.3% ( 64.1%)     99.1%
 TRANSITION DIPOLE   0.6086         C  1 -- C  2         +14.8% ( 57.7%)     99.8%
 TRAVEL (Ang.)       0.1240         C  5 -- C  6         +10.9% ( 49.4%)     48.3%
 REDUCED MASS        2.6144         C  1 -- C  6          +8.6% ( 44.1%)     45.2%
 EFFECTIVE MASS     11.9474
 FORCE CONSTANT      4.3284

 VIBRATION         50   50A           ATOM PAIR      ENERGY CONTRIBUTION    RADIAL
 FREQUENCY          1697.06         C  2 -- C  3         +15.4% ( 57.6%)     85.7%
 TRANSITION DIPOLE   0.8369         C  3 -- C  4         +14.5% ( 55.8%)     89.5%
 TRAVEL (Ang.)       0.1275         C  1 -- C  6         +13.9% ( 54.8%)     91.3%
 REDUCED MASS        2.4455         C  5 -- C  6         +12.4% ( 51.7%)     84.8%
 EFFECTIVE MASS     11.9759
 FORCE CONSTANT      4.1497

 VIBRATION         51   51A           ATOM PAIR      ENERGY CONTRIBUTION    RADIAL
 FREQUENCY          1771.99         C  8 -- C 14         +39.0% ( 91.9%)     96.3%
 TRANSITION DIPOLE   9.1180         C  8 -- O 13         +27.3% ( 76.9%)     78.8%
 TRAVEL (Ang.)       0.0805         C  2 -- C  8         +20.7% ( 67.0%)      8.8%
 REDUCED MASS        5.8715         C 14 -- H 20          +6.0% ( 36.1%)     18.2%
 EFFECTIVE MASS     12.2615
 FORCE CONSTANT     10.8623

 VIBRATION         52   52A           ATOM PAIR      ENERGY CONTRIBUTION    RADIAL
 FREQUENCY          2566.95         H 17 -- O 18         +80.4% ( 92.2%)     97.8%
 TRANSITION DIPOLE   2.5682         O 18 -- H 19         +15.1% ( 40.0%)     90.2%
 TRAVEL (Ang.)       0.1948         O 15 -- H 16          +4.5% ( 21.7%)     98.0%
 REDUCED MASS        0.6922
 EFFECTIVE MASS      1.5276
 FORCE CONSTANT      2.6872

 VIBRATION         53   53A           ATOM PAIR      ENERGY CONTRIBUTION    RADIAL
 FREQUENCY          2725.77         C  5 -- H 11         +59.3% ( 77.9%)    100.0%
 TRANSITION DIPOLE   0.5450         C  4 -- H 10         +24.0% ( 49.6%)     99.9%
 TRAVEL (Ang.)       0.2430         C  6 -- H 12         +14.4% ( 38.5%)     99.9%
 REDUCED MASS        0.4190         C  4 -- C  5          +0.8% (  9.0%)      0.6%
 EFFECTIVE MASS      1.3681
 FORCE CONSTANT      1.8341

 VIBRATION         54   54A           ATOM PAIR      ENERGY CONTRIBUTION    RADIAL
 FREQUENCY          2729.16         C  6 -- H 12         +69.9% ( 84.6%)    100.0%
 TRANSITION DIPOLE   1.4694         C  4 -- H 10         +26.5% ( 52.1%)    100.0%
 TRAVEL (Ang.)       0.2126         C  5 -- H 11          +0.8% (  9.1%)     93.9%
 REDUCED MASS        0.5465         C  5 -- C  6          +0.8% (  8.8%)     24.0%
 EFFECTIVE MASS      1.3709
 FORCE CONSTANT      2.3981

 VIBRATION         55   55A           ATOM PAIR      ENERGY CONTRIBUTION    RADIAL
 FREQUENCY          2738.50         C  4 -- H 10         +42.6% ( 66.1%)    100.0%
 TRANSITION DIPOLE   1.9259         C  5 -- H 11         +33.8% ( 58.9%)    100.0%
 TRAVEL (Ang.)       0.2803         C  1 -- H  7         +10.3% ( 32.5%)    100.0%
 REDUCED MASS        0.3134         C  6 -- H 12         +10.0% ( 31.9%)     99.8%
 EFFECTIVE MASS      1.4106
 FORCE CONSTANT      1.3847

 VIBRATION         56   56A           ATOM PAIR      ENERGY CONTRIBUTION    RADIAL
 FREQUENCY          2746.32         O 15 -- H 16         +90.9% ( 95.0%)     99.6%
 TRANSITION DIPOLE   1.7150         O 18 -- H 19          +5.5% ( 23.3%)     97.2%
 TRAVEL (Ang.)       0.1764         H 17 -- O 18          +1.4% ( 11.9%)     95.5%
 REDUCED MASS        0.7886         C 14 -- H 20          +1.1% ( 10.4%)     99.6%
 EFFECTIVE MASS      1.3513
 FORCE CONSTANT      3.5044

 VIBRATION         57   57A           ATOM PAIR      ENERGY CONTRIBUTION    RADIAL
 FREQUENCY          2751.13         C  1 -- H  7         +68.8% ( 84.1%)    100.0%
 TRANSITION DIPOLE   0.9438         C 14 -- H 20         +11.1% ( 33.8%)     99.2%
 TRAVEL (Ang.)       0.2233         C 14 -- H 21          +9.9% ( 32.0%)     98.0%
 REDUCED MASS        0.4917         C  4 -- H 10          +2.9% ( 17.3%)    100.0%
 EFFECTIVE MASS      1.4235
 FORCE CONSTANT      2.1928

 VIBRATION         58   58A           ATOM PAIR      ENERGY CONTRIBUTION    RADIAL
 FREQUENCY          2753.46         C 14 -- H 20         +44.9% ( 68.6%)     99.4%
 TRANSITION DIPOLE   0.6477         C 14 -- H 21         +32.5% ( 58.3%)     97.6%
 TRAVEL (Ang.)       0.2673         C  1 -- H  7         +17.0% ( 42.2%)    100.0%
 REDUCED MASS        0.3428         C  4 -- H 10          +1.3% ( 11.6%)    100.0%
 EFFECTIVE MASS      1.4776
 FORCE CONSTANT      1.5313

 VIBRATION         59   59A           ATOM PAIR      ENERGY CONTRIBUTION    RADIAL
 FREQUENCY          2800.93         O 18 -- H 19         +83.4% ( 88.3%)     99.6%
 TRANSITION DIPOLE   0.9441         H 17 -- O 18         +13.6% ( 35.7%)     97.9%
 TRAVEL (Ang.)       0.1917         O 15 -- H 16          +2.9% ( 16.6%)     99.7%
 REDUCED MASS        0.6553
 EFFECTIVE MASS      1.2200
 FORCE CONSTANT      3.0291

 VIBRATION         60   60A           ATOM PAIR      ENERGY CONTRIBUTION    RADIAL
 FREQUENCY          2810.14         C 14 -- H 21         +56.9% ( 74.5%)     96.6%
 TRANSITION DIPOLE   0.7609         C 14 -- H 20         +42.1% ( 64.0%)     93.6%
 TRAVEL (Ang.)       0.2211         C  8 -- C 14          +0.8% (  8.9%)     99.6%
 REDUCED MASS        0.4908
 EFFECTIVE MASS      1.2725
 FORCE CONSTANT      2.2838

      SYMMETRY NUMBER FOR POINT-GROUP C1  =  1


          SYSTEM IS A GROUND STATE



 Title: ASE calculation


          MOLECULE IS NOT LINEAR

          THERE ARE 60 GENUINE VIBRATIONS IN THIS SYSTEM
          THIS THERMODYNAMICS CALCULATION IS LIMITED TO
          MOLECULES WHICH HAVE NO INTERNAL ROTATIONS




                    CALCULATED THERMODYNAMIC PROPERTIES
                                          *
   TEMP. (K)   PARTITION FUNCTION   H.O.F.    ENTHALPY  HEAT CAPACITY ENTROPY
                                   KCAL/MOL   CAL/MOLE    CAL/K/MOL  CAL/K/MOL


 298.00  VIB.     0.4047D+08                  8177.6081    46.8698    62.2496
         ROT.     0.5072D+07                   888.2803     2.9808    33.6618
         INT.     0.2053D+15                  9065.8884    49.8506    95.9114
         TRA.     0.4605D+28                  1480.4672     4.9680    42.8175
         TOT.                     -219.569   10546.3555    54.8186   138.7289

   *: NOTE: HEATS OF FORMATION ARE RELATIVE TO THE
            ELEMENTS IN THEIR STANDARD STATE AT 298K
              (=  Standard Enthalpy of Formation).

            Hvib:  Zero-point energy is not included.
                   frequencies of less than zero cm-1 are not included.
            Hrot = (3/2)RT
            Htra = (3/2)RT + pV = (5/2)RT

            Heat capacity is Cp, not Cv

          For more information, see: HTTP://OpenMOPAC.net/Manual/thermochemistry.html


           FORCE CONSTANT IN CARTESIAN COORDINATES (Millidynes/A)

    ATOM   CHEMICAL       X               Y               Z
   NUMBER   SYMBOL  FORCE CONSTANT  FORCE CONSTANT  FORCE CONSTANT

      1       C       10.928288       10.209818        2.324548
      2       C       10.941064       11.030379        2.889959
      3       C        7.822060       11.632394        1.751266
      4       C       11.088467       10.201902        2.255137
      5       C       11.247971       10.216426        2.271946
      6       C        9.707682       11.749499        2.330584
      7       H        1.774398        3.421801        0.397606
      8       C        4.610121        7.703836       14.537455
      9       I        3.437950        0.507174        0.111881
     10       H        1.707294        3.436030        0.356019
     11       H        1.762669        3.333352        0.396912
     12       H        4.173356        0.885819        0.374054
     13       O        0.452145        2.767870        8.798978
     14       C        3.638505        6.383002       11.024399
     15       O        2.493491        4.562665        4.851970
     16       H        0.215974        0.746301        3.830348
     17       H        3.140703        0.487975        1.221467
     18       O        6.884150        0.877557        3.628420
     19       H        2.990020        0.298195        1.546567
     20       H        1.231312        3.369764        0.733270
     21       H        0.364602        1.413640        3.560124
     22       H        0.199132        3.902245        0.723175

 **********************
 *                    *
 * JOB ENDED NORMALLY *
 *                    *
 **********************



 TOTAL JOB TIME:             1.73 SECONDS

 == MOPAC DONE ==
