 *******************************************************************************
 **                                                                           **
 **                              MOPAC v22.0.6                                **
 **                                                                           **
 *******************************************************************************
 **          Digital Object Identifier (DOI): 10.5281/zenodo.6511958          **
 **    Visit the DOI location for information on how to cite this program.    **
 *******************************************************************************

                              PM7 CALCULATION RESULTS

 *******************************************************************************
 *  CALCULATION DONE:                                Tue Mar 26 12:07:49 2024  *
 *  PM7        - The PM7 Hamiltonian to be used
 *  SINGLET    - SPIN STATE DEFINED AS A SINGLET
 *
 *
 *
 *                 CHARGE ON SYSTEM = -1
 *
 *
 *
 *  EPS=78.4   - USE ANDREAS KLAMT'S COSMO IMPLICIT SOLVATION MODEL
 *  SADDLE     - TRANSITION STATE TO BE OPTIMIZED
 *  T=         - A TIME OF 14.0 DAYS REQUESTED
 *  DUMP=N     - RESTART FILE WRITTEN EVERY 30.0 MINUTES REQUESTED
 *  RELSCF     - DEFAULT SCF CRITERION MULTIPLIED BY 1.0000
 *              (DEFAULT SCF CRITERION = 0.00010)
 *  ITRY=      - DO A MAXIMUM OF 15000 ITERATIONS FOR SCF
 *  AUX        - OUTPUT AUXILIARY INFORMATION
 *  BONDS      - FINAL BOND-ORDER MATRIX TO BE PRINTED
 *******************************************************************************
SADDLE PM7 BONDS AUX DUMP=30M ITRY=15000 T=14D CHARGE=-1 SINGLET eps=78.4 RELSCF=1


   ATOM   CHEMICAL          X               Y               Z
  NUMBER   SYMBOL      (ANGSTROMS)     (ANGSTROMS)     (ANGSTROMS)

     1       C          0.57973994  *  -0.76362469  *   0.69813387  *
     2       H          1.17293621  *  -1.12859217  *  -0.16894498  *
     3       H          0.73605111  *   0.33785492  *   0.76576871  *
     4       H          0.97374709  *  -1.23324771  *   1.62231330  *
     5       N         -0.83995426  *  -1.03657934  *   0.52491079  *
     6       O         -1.50837471  *  -1.35701815  *   1.49631575  *
     7       O         -1.33425465  *  -0.91971890  *  -0.58774774  *
     8       C          5.69815585  *   0.38047125  *   0.14629882  *
     9       O          5.72489782  *   0.30285292  *  -1.09626280  *
    10       O          5.79523150  *  -0.59284346  *   0.91121640  *
    11       C          5.55624779  *   1.78459916  *   0.72491847  *
    12      Cl          6.07210729  *   1.79993530  *   2.42551792  *
    13       H          4.50299831  *   2.11974537  *   0.69821107  *
    14       H          6.18176326  *   2.51574147  *   0.18721436  *
    15       H          2.67468839  *   0.61101640  *   1.61738584  *
    16       O          3.03161126  *   0.33785492  *   0.76576871  *
    17       H          3.59715137  *  -0.41810632  *   0.97617468  *



          CARTESIAN COORDINATES 

    NO.       ATOM           X           Y           Z

     1         C          0.5797     -0.7636      0.6981
     2         H          1.1729     -1.1286     -0.1689
     3         H          0.7361      0.3379      0.7658
     4         H          0.9737     -1.2332      1.6223
     5         N         -0.8400     -1.0366      0.5249
     6         O         -1.5084     -1.3570      1.4963
     7         O         -1.3343     -0.9197     -0.5877
     8         C          5.6982      0.3805      0.1463
     9         O          5.7249      0.3029     -1.0963
    10         O          5.7952     -0.5928      0.9112
    11         C          5.5562      1.7846      0.7249
    12        Cl          6.0721      1.7999      2.4255
    13         H          4.5030      2.1197      0.6982
    14         H          6.1818      2.5157      0.1872
    15         H          2.6747      0.6110      1.6174
    16         O          3.0316      0.3379      0.7658
    17         H          3.5972     -0.4181      0.9762

 General Reference for PM7:
 "Optimization of Parameters for Semiempirical Methods VI: More Modifications to the 
 NDDO Approximations and Re-optimization of Parameters", J. J. P. Stewart, J. Mol. Mod., 1:32, 19 (2013)
 https://link.springer.com/article/10.1007/s00894-012-1667-x

           Empirical Formula: C3 H7 N O5 Cl  =    17 atoms



      MOLECULAR POINT GROUP   :   C1  


 SINGLET STATE CALCULATION


      RHF CALCULATION, NO. OF DOUBLY OCCUPIED LEVELS = 31



  CARTESIAN GEOMETRY OF FIRST SYSTEM


   1    C          0.50386      -0.82486       0.69608
   2    H          1.05537      -1.68769       0.37046
   3    H          2.25103       0.47923       0.33332
   4    H          0.51444      -0.62940       1.75237
   5    N         -0.20512      -0.09365      -0.13880
   6    O         -0.85817       0.91458       0.25463
   7    O         -0.24970      -0.35058      -1.37586
   8    C          5.99911       0.32064      -0.60638
   9    O          7.07717      -0.02034      -1.04047
  10    O          5.01181      -0.57601      -0.58689
  11    C          5.68598       1.69081      -0.07475
  12   Cl          5.82940       1.58787       1.68561
  13    H          4.65701       2.03629      -0.32001
  14    H          6.39555       2.45963      -0.43880
  15    H          2.93936      -0.21343       1.52737
  16    O          3.10240       0.42106       0.80473
  17    H          4.14422      -0.23844      -0.09274


  CARTESIAN GEOMETRY OF SECOND SYSTEM


   1    C          0.78831      -0.31403       0.19997
   2    H          1.34926      -0.86146      -0.58906
   3    H          1.08336       0.75861       0.13183
   4    H          1.09752      -0.70265       1.19157
   5    N         -0.65037      -0.42863       0.00740
   6    O         -1.37639      -0.53205       0.98480
   7    O         -1.10008      -0.39936      -1.12966
   8    C          6.02257       0.10088      -0.29199
   9    O          6.06740      -0.14313      -1.51230
  10    O          5.97626      -0.76715       0.59471
  11    C          6.04923       1.57586       0.09565
  12   Cl          6.52392       1.75166       1.79921
  13    H          5.04869       2.03301      -0.01532
  14    H          6.77564       2.14585      -0.50636
  15    H          3.02113       0.89855       1.01708
  16    O          3.35927       0.47285       0.22228
  17    H          3.81798      -0.31310       0.55005


   "DISTANCE":     3.978276


  REACTION COORDINATE VECTOR


   1    C         -0.28445      -0.51083       0.49611
   2    H         -0.29388      -0.82623       0.95952
   3    H          1.16766      -0.27938       0.20149
   4    H         -0.58308       0.07325       0.56080
   5    N          0.44525       0.33498      -0.14621
   6    O          0.51822       1.44663      -0.73016
   7    O          0.85038       0.04878      -0.24620
   8    C         -0.02346       0.21975      -0.31439
   9    O          1.00977       0.12278       0.47183
  10    O         -0.96445       0.19114      -1.18160
  11    C         -0.36325       0.11495      -0.17039
  12   Cl         -0.69452      -0.16379      -0.11361
  13    H         -0.39168       0.00328      -0.30469
  14    H         -0.38009       0.31378       0.06756
  15    H         -0.08177      -1.11198       0.51029
  16    O         -0.25687      -0.05179       0.58246
  17    H          0.32624       0.07467      -0.64280
 *+*+*+*+*+*+*+*+*+*+*+*+*+*+*+*+*+*+*+*+*+*+*+*+*+*+*+*+*+*+*+*+*+*+*+*+*+*+*+*+
            BAR SHORTENED BY       0.000 PERCENT
 GRADIENT CRITERION IN FLEPO =     1.000
  SCF CRITERION =    0.1000E-03


          FOR POINT    1 SECOND STRUCTURE
 DISTANCE A - B      3.978276
 HEAT             -302.745816
 GRADIENT NORM       4.003564
 DIRECTION COSINE    0.000028
* ===============================
* Input file for Mopac
* ===============================
 PM7 BONDS AUX DUMP=30M ITRY=15000 T=14D CHARGE=-1 SINGLET eps=78.4 RELSCF=1


  C     0.00000000 +0    0.0000000 +0    0.0000000 +0     0     0     0
  H     1.07470228 +1    0.0000000 +0    0.0000000 +0     1     0     0
  H     2.21030981 +1   91.0374623 +1    0.0000000 +0     1     2     0
  H     1.07429150 +1  116.0325955 +1  -93.4524245 +1     1     2     3
  N     1.31694316 +1  122.0145236 +1   90.2346921 +1     1     2     3
  O     1.26407106 +1  121.5810706 +1  179.5330080 +1     5     1     2
  O     1.26429030 +1  121.7670070 +1   -1.6394557 +1     5     1     2
  C     3.86728537 +1  141.4229594 +1   -7.3200402 +1     3     1     2
  O     1.21118239 +1  164.0090176 +1   25.3725038 +1     8     3     1
  O     1.33408688 +1   46.0978930 +1   10.2709753 +1     8     3     1
  C     1.50269752 +1   71.0103950 +1 -165.0241765 +1     8     3     1
 Cl     1.76916729 +1  106.3855034 +1   85.6306842 +1    11     8     3
  H     1.11277432 +1  113.4416503 +1  -33.2051611 +1    11     8     3
  H     1.10776430 +1  112.5227856 +1 -155.8193948 +1    11     8     3
  H     1.54268230 +1   87.7519652 +1  -69.2071103 +1     3     1     2
  O     0.97595564 +1   37.9018586 +1  172.7276995 +1    15     3     1
  H     1.05388266 +1  113.6335114 +1  -11.5030945 +1    10     8     3

 TIME=     0.91
  REACTANTS AND PRODUCTS SWAPPED AROUND
 *+*+*+*+*+*+*+*+*+*+*+*+*+*+*+*+*+*+*+*+*+*+*+*+*+*+*+*+*+*+*+*+*+*+*+*+*+*+*+*+
            BAR SHORTENED BY       1.000 PERCENT
 GRADIENT CRITERION IN FLEPO =     1.004
           THERE HAVE BEEN 3 ATTEMPTS TO REDUCE THE GRADIENT.
           DURING THESE ATTEMPTS THE ENERGY DROPPED BY LESS THAN 0.3 KCAL/MOLE
           FURTHER CALCULATION IS NOT JUSTIFIED AT THIS TIME.
           TO CONTINUE, START AGAIN WITH THE WORD "PRECISE"


          FOR POINT    2 FIRST  STRUCTURE
 DISTANCE A - B      3.938493
 HEAT             -309.257812
 GRADIENT NORM       7.434978
 DIRECTION COSINE    0.009247
* ===============================
* Input file for Mopac
* ===============================
 PM7 BONDS AUX DUMP=30M ITRY=15000 T=14D CHARGE=-1 SINGLET eps=78.4 RELSCF=1


  C     0.00000000 +0    0.0000000 +0    0.0000000 +0     0     0     0
  H     1.11138957 +1    0.0000000 +0    0.0000000 +0     1     0     0
  H     1.11301485 +1  106.9555584 +1    0.0000000 +0     1     2     0
  H     1.10909389 +1  108.3308910 +1 -115.2431254 +1     1     2     3
  N     1.45718504 +1  111.1823381 +1  120.6515013 +1     1     2     3
  O     1.22194538 +1  119.6260010 +1  136.5932790 +1     5     1     2
  O     1.22388972 +1  118.9481093 +1  -43.6272502 +1     5     1     2
  C     5.10358260 +1  114.3934163 +1   55.1592711 +1     2     1     3
  O     1.24085954 +1  125.0253454 +1 -163.9768382 +1     8     2     1
  O     1.24914743 +1   53.4275595 +1   86.4601177 +1     8     2     1
  C     1.52587775 +1   92.2184062 +1  -38.6231411 +1     8     2     1
 Cl     1.77791583 +1  107.7580958 +1   99.7769574 +1    11     8     2
  H     1.10243857 +1  112.3310334 +1  -19.1671789 +1    11     8     2
  H     1.09966537 +1  112.4236053 +1 -142.0056559 +1    11     8     2
  H     2.66989990 +1  105.5589220 +1   75.7251808 +1    13    11     8
  O     0.95823711 +1  103.6091775 +1  -79.0903416 +1    15    13    11
  H     0.97995670 +1  105.1648712 +1   34.8920840 +1    16    15    13

 *+*+*+*+*+*+*+*+*+*+*+*+*+*+*+*+*+*+*+*+*+*+*+*+*+*+*+*+*+*+*+*+*+*+*+*+*+*+*+*+
            BAR SHORTENED BY       1.000 PERCENT
 GRADIENT CRITERION IN FLEPO =     4.435


          FOR POINT    3 FIRST  STRUCTURE
 DISTANCE A - B      3.899108
 HEAT             -309.223668
 GRADIENT NORM       6.501618
 DIRECTION COSINE   -0.180140
* ===============================
* Input file for Mopac
* ===============================
 PM7 BONDS AUX DUMP=30M ITRY=15000 T=14D CHARGE=-1 SINGLET eps=78.4 RELSCF=1


  C     0.00000000 +0    0.0000000 +0    0.0000000 +0     0     0     0
  H     1.10898621 +1    0.0000000 +0    0.0000000 +0     1     0     0
  H     1.11269630 +1  107.1413643 +1    0.0000000 +0     1     2     0
  H     1.10967852 +1  108.4201293 +1 -115.2274080 +1     1     2     3
  N     1.45411037 +1  111.0678403 +1  120.9872157 +1     1     2     3
  O     1.22208112 +1  119.4425055 +1  136.6099842 +1     5     1     2
  O     1.22368556 +1  119.0844097 +1  -43.7017872 +1     5     1     2
  C     5.10413821 +1  114.2652364 +1   54.1392847 +1     2     1     3
  O     1.23932403 +1  125.2196312 +1 -163.7661107 +1     8     2     1
  O     1.24714884 +1   52.7637696 +1   87.2642815 +1     8     2     1
  C     1.52410371 +1   92.1444527 +1  -37.7190350 +1     8     2     1
 Cl     1.77418209 +1  107.8826727 +1   99.6013330 +1    11     8     2
  H     1.10356024 +1  112.3279966 +1  -19.5869695 +1    11     8     2
  H     1.10524380 +1  112.2002010 +1 -142.1651506 +1    11     8     2
  H     2.67770708 +1  105.5148823 +1   76.0296623 +1    13    11     8
  O     0.95199658 +1  103.0052757 +1  -79.2411575 +1    15    13    11
  H     0.98257225 +1  105.6151158 +1   34.7553901 +1    16    15    13

 *+*+*+*+*+*+*+*+*+*+*+*+*+*+*+*+*+*+*+*+*+*+*+*+*+*+*+*+*+*+*+*+*+*+*+*+*+*+*+*+
            BAR SHORTENED BY       1.000 PERCENT
 GRADIENT CRITERION IN FLEPO =     3.502


          FOR POINT    4 FIRST  STRUCTURE
 DISTANCE A - B      3.860117
 HEAT             -309.203786
 GRADIENT NORM       8.509103
 DIRECTION COSINE    0.720719
* ===============================
* Input file for Mopac
* ===============================
 PM7 BONDS AUX DUMP=30M ITRY=15000 T=14D CHARGE=-1 SINGLET eps=78.4 RELSCF=1


  C     0.00000000 +0    0.0000000 +0    0.0000000 +0     0     0     0
  H     1.10811750 +1    0.0000000 +0    0.0000000 +0     1     0     0
  H     1.11207024 +1  107.3284906 +1    0.0000000 +0     1     2     0
  H     1.10969500 +1  108.5526982 +1 -115.3808517 +1     1     2     3
  N     1.45351848 +1  110.9385492 +1  121.2050988 +1     1     2     3
  O     1.22198613 +1  119.2287220 +1  136.8762505 +1     5     1     2
  O     1.22349988 +1  119.1943798 +1  -43.7225133 +1     5     1     2
  C     5.10006457 +1  114.1022108 +1   53.2481807 +1     2     1     3
  O     1.23791469 +1  125.6368841 +1 -163.4380536 +1     8     2     1
  O     1.24875770 +1   52.3433712 +1   88.1677192 +1     8     2     1
  C     1.52479393 +1   92.2411730 +1  -36.9455265 +1     8     2     1
 Cl     1.77589236 +1  107.7811216 +1   99.2572980 +1    11     8     2
  H     1.10430327 +1  112.1445434 +1  -19.5707942 +1    11     8     2
  H     1.10305998 +1  112.3019448 +1 -142.4662835 +1    11     8     2
  H     2.68141672 +1  105.7961421 +1   76.0537237 +1    13    11     8
  O     0.94993015 +1  102.4402951 +1  -79.4571497 +1    15    13    11
  H     0.98155019 +1  105.8759492 +1   34.6737862 +1    16    15    13

 TIME=     4.37
  REACTANTS AND PRODUCTS SWAPPED AROUND
 *+*+*+*+*+*+*+*+*+*+*+*+*+*+*+*+*+*+*+*+*+*+*+*+*+*+*+*+*+*+*+*+*+*+*+*+*+*+*+*+
            BAR SHORTENED BY       0.000 PERCENT
 GRADIENT CRITERION IN FLEPO =     5.509


          FOR POINT    5 SECOND STRUCTURE
 DISTANCE A - B      3.860117
 HEAT             -302.745816
 GRADIENT NORM       4.003492
 DIRECTION COSINE   -0.233128
* ===============================
* Input file for Mopac
* ===============================
 PM7 BONDS AUX DUMP=30M ITRY=15000 T=14D CHARGE=-1 SINGLET eps=78.4 RELSCF=1


  C     0.00000000 +0    0.0000000 +0    0.0000000 +0     0     0     0
  H     1.07470228 +1    0.0000000 +0    0.0000000 +0     1     0     0
  H     2.21030981 +1   91.0374623 +1    0.0000000 +0     1     2     0
  H     1.07429150 +1  116.0325955 +1  -93.4524245 +1     1     2     3
  N     1.31694316 +1  122.0145236 +1   90.2346921 +1     1     2     3
  O     1.26407106 +1  121.5810706 +1  179.5330080 +1     5     1     2
  O     1.26429030 +1  121.7670070 +1   -1.6394557 +1     5     1     2
  C     3.86728537 +1  141.4229594 +1   -7.3200402 +1     3     1     2
  O     1.21118239 +1  164.0090176 +1   25.3725038 +1     8     3     1
  O     1.33408688 +1   46.0978930 +1   10.2709753 +1     8     3     1
  C     1.50269752 +1   71.0103950 +1 -165.0241765 +1     8     3     1
 Cl     1.76916729 +1  106.3855034 +1   85.6306842 +1    11     8     3
  H     1.11277432 +1  113.4416503 +1  -33.2051611 +1    11     8     3
  H     1.10776430 +1  112.5227856 +1 -155.8193948 +1    11     8     3
  H     1.54268230 +1   87.7519652 +1  -69.2071103 +1     3     1     2
  O     0.97595564 +1   37.9018586 +1  172.7276995 +1    15     3     1
  H     1.05388266 +1  113.6335114 +1  -11.5030945 +1    10     8     3

 TIME=     0.09
  REACTANTS AND PRODUCTS SWAPPED AROUND
 *+*+*+*+*+*+*+*+*+*+*+*+*+*+*+*+*+*+*+*+*+*+*+*+*+*+*+*+*+*+*+*+*+*+*+*+*+*+*+*+
            BAR SHORTENED BY       1.000 PERCENT
 GRADIENT CRITERION IN FLEPO =     1.003
 

                    SINCE COS WAS JUST RESET,THE SEARCH IS BEING ENDED


          FOR POINT    6 FIRST  STRUCTURE
 DISTANCE A - B      3.821516
 HEAT             -309.259745
 GRADIENT NORM       4.552853
 DIRECTION COSINE    0.034206
* ===============================
* Input file for Mopac
* ===============================
 PM7 BONDS AUX DUMP=30M ITRY=15000 T=14D CHARGE=-1 SINGLET eps=78.4 RELSCF=1


  C     0.00000000 +0    0.0000000 +0    0.0000000 +0     0     0     0
  H     1.10972139 +1    0.0000000 +0    0.0000000 +0     1     0     0
  H     1.11236794 +1  107.2861010 +1    0.0000000 +0     1     2     0
  H     1.10905153 +1  108.4343565 +1 -115.5046969 +1     1     2     3
  N     1.45873154 +1  111.4027409 +1  121.1826454 +1     1     2     3
  O     1.22373010 +1  119.0577142 +1  136.8297402 +1     5     1     2
  O     1.22349926 +1  119.3856165 +1  -43.2084353 +1     5     1     2
  C     5.08170921 +1  114.4150808 +1   52.3450260 +1     2     1     3
  O     1.23955890 +1  126.0122090 +1 -162.7783051 +1     8     2     1
  O     1.24918321 +1   51.6761373 +1   88.9649378 +1     8     2     1
  C     1.52600120 +1   92.2380080 +1  -36.2467879 +1     8     2     1
 Cl     1.77638956 +1  107.6908056 +1   98.9907709 +1    11     8     2
  H     1.10281417 +1  112.0181843 +1  -19.7131262 +1    11     8     2
  H     1.10246237 +1  112.5025940 +1 -142.7174309 +1    11     8     2
  H     2.69194578 +1  106.2295152 +1   76.1908694 +1    13    11     8
  O     0.95708017 +1  101.8933040 +1  -79.6458743 +1    15    13    11
  H     0.97878802 +1  105.8063702 +1   34.4411018 +1    16    15    13

 *+*+*+*+*+*+*+*+*+*+*+*+*+*+*+*+*+*+*+*+*+*+*+*+*+*+*+*+*+*+*+*+*+*+*+*+*+*+*+*+
            BAR SHORTENED BY       1.000 PERCENT
 GRADIENT CRITERION IN FLEPO =     1.553
           THERE HAVE BEEN 3 ATTEMPTS TO REDUCE THE GRADIENT.
           DURING THESE ATTEMPTS THE ENERGY DROPPED BY LESS THAN 0.3 KCAL/MOLE
           FURTHER CALCULATION IS NOT JUSTIFIED AT THIS TIME.
           TO CONTINUE, START AGAIN WITH THE WORD "PRECISE"


          FOR POINT    7 FIRST  STRUCTURE
 DISTANCE A - B      3.783300
 HEAT             -309.250002
 GRADIENT NORM       3.982076
 DIRECTION COSINE    0.121319
* ===============================
* Input file for Mopac
* ===============================
 PM7 BONDS AUX DUMP=30M ITRY=15000 T=14D CHARGE=-1 SINGLET eps=78.4 RELSCF=1


  C     0.00000000 +0    0.0000000 +0    0.0000000 +0     0     0     0
  H     1.11062402 +1    0.0000000 +0    0.0000000 +0     1     0     0
  H     1.11312726 +1  107.2564139 +1    0.0000000 +0     1     2     0
  H     1.11071682 +1  108.4606448 +1 -115.4994063 +1     1     2     3
  N     1.45742211 +1  111.3347316 +1  121.2566443 +1     1     2     3
  O     1.22339831 +1  118.9091318 +1  137.0818394 +1     5     1     2
  O     1.22299751 +1  119.4670613 +1  -43.0438389 +1     5     1     2
  C     5.07768481 +1  114.2124629 +1   51.5623448 +1     2     1     3
  O     1.23862645 +1  126.2496065 +1 -162.5221807 +1     8     2     1
  O     1.24714856 +1   51.1104704 +1   89.6983815 +1     8     2     1
  C     1.52612368 +1   92.2834636 +1  -35.6310804 +1     8     2     1
 Cl     1.77649828 +1  107.6983801 +1   98.7115607 +1    11     8     2
  H     1.10387704 +1  111.9903775 +1  -19.9463217 +1    11     8     2
  H     1.10300586 +1  112.6154216 +1 -142.9228947 +1    11     8     2
  H     2.69427059 +1  106.1379242 +1   76.2922768 +1    13    11     8
  O     0.95523883 +1  101.6434319 +1  -79.8452151 +1    15    13    11
  H     0.98006536 +1  105.7891795 +1   34.3237132 +1    16    15    13

 *+*+*+*+*+*+*+*+*+*+*+*+*+*+*+*+*+*+*+*+*+*+*+*+*+*+*+*+*+*+*+*+*+*+*+*+*+*+*+*+
            BAR SHORTENED BY       1.000 PERCENT
 GRADIENT CRITERION IN FLEPO =     1.553
           THERE HAVE BEEN 3 ATTEMPTS TO REDUCE THE GRADIENT.
           DURING THESE ATTEMPTS THE ENERGY DROPPED BY LESS THAN 0.3 KCAL/MOLE
           FURTHER CALCULATION IS NOT JUSTIFIED AT THIS TIME.
           TO CONTINUE, START AGAIN WITH THE WORD "PRECISE"


          FOR POINT    8 FIRST  STRUCTURE
 DISTANCE A - B      3.745467
 HEAT             -309.209829
 GRADIENT NORM       5.051617
 DIRECTION COSINE    0.408406
* ===============================
* Input file for Mopac
* ===============================
 PM7 BONDS AUX DUMP=30M ITRY=15000 T=14D CHARGE=-1 SINGLET eps=78.4 RELSCF=1


  C     0.00000000 +0    0.0000000 +0    0.0000000 +0     0     0     0
  H     1.10962193 +1    0.0000000 +0    0.0000000 +0     1     0     0
  H     1.11342232 +1  107.3044895 +1    0.0000000 +0     1     2     0
  H     1.11098163 +1  108.5223917 +1 -115.4584778 +1     1     2     3
  N     1.45567646 +1  111.3155186 +1  121.4348009 +1     1     2     3
  O     1.22349242 +1  118.7832439 +1  137.1854913 +1     5     1     2
  O     1.22288804 +1  119.5407951 +1  -42.9628583 +1     5     1     2
  C     5.07300421 +1  114.0854307 +1   50.6768500 +1     2     1     3
  O     1.23921637 +1  126.6833964 +1 -162.2580200 +1     8     2     1
  O     1.24848130 +1   50.6994558 +1   90.5711282 +1     8     2     1
  C     1.52609564 +1   92.2663571 +1  -34.9363719 +1     8     2     1
 Cl     1.77646566 +1  107.6349809 +1   98.5237640 +1    11     8     2
  H     1.10112693 +1  111.9764990 +1  -20.2009358 +1    11     8     2
  H     1.10420050 +1  112.5630345 +1 -143.3696422 +1    11     8     2
  H     2.69960006 +1  106.1278927 +1   76.4518246 +1    13    11     8
  O     0.95313801 +1  101.2575349 +1  -80.1867441 +1    15    13    11
  H     0.98101818 +1  105.9150003 +1   34.3362559 +1    16    15    13

 TIME=     4.77
  REACTANTS AND PRODUCTS SWAPPED AROUND
 *+*+*+*+*+*+*+*+*+*+*+*+*+*+*+*+*+*+*+*+*+*+*+*+*+*+*+*+*+*+*+*+*+*+*+*+*+*+*+*+
            BAR SHORTENED BY       0.000 PERCENT
 GRADIENT CRITERION IN FLEPO =     2.052
 

                    SINCE COS WAS JUST RESET,THE SEARCH IS BEING ENDED


          FOR POINT    9 SECOND STRUCTURE
 DISTANCE A - B      3.745467
 HEAT             -302.745816
 GRADIENT NORM       4.003455
 DIRECTION COSINE   -0.053789
* ===============================
* Input file for Mopac
* ===============================
 PM7 BONDS AUX DUMP=30M ITRY=15000 T=14D CHARGE=-1 SINGLET eps=78.4 RELSCF=1


  C     0.00000000 +0    0.0000000 +0    0.0000000 +0     0     0     0
  H     1.07470228 +1    0.0000000 +0    0.0000000 +0     1     0     0
  H     2.21030982 +1   91.0374621 +1    0.0000000 +0     1     2     0
  H     1.07429150 +1  116.0325952 +1  -93.4524244 +1     1     2     3
  N     1.31694316 +1  122.0145236 +1   90.2346923 +1     1     2     3
  O     1.26407108 +1  121.5810705 +1  179.5330086 +1     5     1     2
  O     1.26429030 +1  121.7670070 +1   -1.6394560 +1     5     1     2
  C     3.86728536 +1  141.4229596 +1   -7.3200401 +1     3     1     2
  O     1.21118239 +1  164.0090176 +1   25.3725038 +1     8     3     1
  O     1.33408688 +1   46.0978930 +1   10.2709750 +1     8     3     1
  C     1.50269752 +1   71.0103950 +1 -165.0241766 +1     8     3     1
 Cl     1.76916729 +1  106.3855034 +1   85.6306842 +1    11     8     3
  H     1.11277432 +1  113.4416503 +1  -33.2051611 +1    11     8     3
  H     1.10776430 +1  112.5227856 +1 -155.8193948 +1    11     8     3
  H     1.54268230 +1   87.7519653 +1  -69.2071105 +1     3     1     2
  O     0.97595563 +1   37.9018585 +1  172.7276995 +1    15     3     1
  H     1.05388266 +1  113.6335115 +1  -11.5030946 +1    10     8     3

 TIME=     0.49
  REACTANTS AND PRODUCTS SWAPPED AROUND
 *+*+*+*+*+*+*+*+*+*+*+*+*+*+*+*+*+*+*+*+*+*+*+*+*+*+*+*+*+*+*+*+*+*+*+*+*+*+*+*+
            BAR SHORTENED BY       1.000 PERCENT
 GRADIENT CRITERION IN FLEPO =     1.003
           THERE HAVE BEEN 3 ATTEMPTS TO REDUCE THE GRADIENT.
           DURING THESE ATTEMPTS THE ENERGY DROPPED BY LESS THAN 0.3 KCAL/MOLE
           FURTHER CALCULATION IS NOT JUSTIFIED AT THIS TIME.
           TO CONTINUE, START AGAIN WITH THE WORD "PRECISE"


          FOR POINT   10 FIRST  STRUCTURE
 DISTANCE A - B      3.708013
 HEAT             -309.295249
 GRADIENT NORM       2.769909
 DIRECTION COSINE    0.329718
* ===============================
* Input file for Mopac
* ===============================
 PM7 BONDS AUX DUMP=30M ITRY=15000 T=14D CHARGE=-1 SINGLET eps=78.4 RELSCF=1


  C     0.00000000 +0    0.0000000 +0    0.0000000 +0     0     0     0
  H     1.11023676 +1    0.0000000 +0    0.0000000 +0     1     0     0
  H     1.11267038 +1  107.0748838 +1    0.0000000 +0     1     2     0
  H     1.11034609 +1  108.3912307 +1 -115.3578442 +1     1     2     3
  N     1.45807466 +1  111.6061469 +1  121.1720745 +1     1     2     3
  O     1.22364528 +1  119.0436849 +1  137.4218464 +1     5     1     2
  O     1.22328215 +1  119.4626073 +1  -42.8237157 +1     5     1     2
  C     5.06122233 +1  114.0497232 +1   50.1411227 +1     2     1     3
  O     1.23961369 +1  127.2133074 +1 -162.0382005 +1     8     2     1
  O     1.24765986 +1   49.9316221 +1   91.2240023 +1     8     2     1
  C     1.52572285 +1   92.3823201 +1  -34.3247654 +1     8     2     1
 Cl     1.77613985 +1  107.7708689 +1   98.0473564 +1    11     8     2
  H     1.10346023 +1  111.8177192 +1  -20.5408290 +1    11     8     2
  H     1.10294958 +1  112.6834620 +1 -143.5768819 +1    11     8     2
  H     2.70229770 +1  106.2548392 +1   76.5952012 +1    13    11     8
  O     0.95580132 +1  101.7087032 +1  -79.9000582 +1    15    13    11
  H     0.97890053 +1  105.7932768 +1   33.5856171 +1    16    15    13

 *+*+*+*+*+*+*+*+*+*+*+*+*+*+*+*+*+*+*+*+*+*+*+*+*+*+*+*+*+*+*+*+*+*+*+*+*+*+*+*+
            BAR SHORTENED BY       1.000 PERCENT
 GRADIENT CRITERION IN FLEPO =     1.003
           THERE HAVE BEEN 3 ATTEMPTS TO REDUCE THE GRADIENT.
           DURING THESE ATTEMPTS THE ENERGY DROPPED BY LESS THAN 0.3 KCAL/MOLE
           FURTHER CALCULATION IS NOT JUSTIFIED AT THIS TIME.
           TO CONTINUE, START AGAIN WITH THE WORD "PRECISE"


          FOR POINT   11 FIRST  STRUCTURE
 DISTANCE A - B      3.670933
 HEAT             -309.293582
 GRADIENT NORM       6.762678
 DIRECTION COSINE    0.364333
* ===============================
* Input file for Mopac
* ===============================
 PM7 BONDS AUX DUMP=30M ITRY=15000 T=14D CHARGE=-1 SINGLET eps=78.4 RELSCF=1


  C     0.00000000 +0    0.0000000 +0    0.0000000 +0     0     0     0
  H     1.11038024 +1    0.0000000 +0    0.0000000 +0     1     0     0
  H     1.11209237 +1  107.0528103 +1    0.0000000 +0     1     2     0
  H     1.10994585 +1  108.4424792 +1 -115.4882364 +1     1     2     3
  N     1.45640739 +1  111.3662932 +1  121.3506873 +1     1     2     3
  O     1.22538260 +1  119.2242278 +1  137.5148706 +1     5     1     2
  O     1.22317676 +1  119.2630143 +1  -42.6694281 +1     5     1     2
  C     5.06218100 +1  113.6902113 +1   49.3288945 +1     2     1     3
  O     1.23799814 +1  127.5845175 +1 -161.7204468 +1     8     2     1
  O     1.24713634 +1   49.5467139 +1   92.0581187 +1     8     2     1
  C     1.52625687 +1   92.4002457 +1  -33.6226340 +1     8     2     1
 Cl     1.77601926 +1  107.6732058 +1   97.8163957 +1    11     8     2
  H     1.10404847 +1  111.9747092 +1  -20.7650382 +1    11     8     2
  H     1.10482221 +1  112.6569586 +1 -143.8929498 +1    11     8     2
  H     2.70553585 +1  106.1059879 +1   76.6067811 +1    13    11     8
  O     0.95455565 +1  101.4627615 +1  -79.8575929 +1    15    13    11
  H     0.98036601 +1  105.8191716 +1   33.2740325 +1    16    15    13

 *+*+*+*+*+*+*+*+*+*+*+*+*+*+*+*+*+*+*+*+*+*+*+*+*+*+*+*+*+*+*+*+*+*+*+*+*+*+*+*+
            BAR SHORTENED BY       1.000 PERCENT
 GRADIENT CRITERION IN FLEPO =     3.763


          FOR POINT   12 FIRST  STRUCTURE
 DISTANCE A - B      3.634223
 HEAT             -309.172490
 GRADIENT NORM       5.193896
 DIRECTION COSINE    0.180195
* ===============================
* Input file for Mopac
* ===============================
 PM7 BONDS AUX DUMP=30M ITRY=15000 T=14D CHARGE=-1 SINGLET eps=78.4 RELSCF=1


  C     0.00000000 +0    0.0000000 +0    0.0000000 +0     0     0     0
  H     1.10825406 +1    0.0000000 +0    0.0000000 +0     1     0     0
  H     1.11246031 +1  107.2727701 +1    0.0000000 +0     1     2     0
  H     1.10887653 +1  108.6944304 +1 -115.7726226 +1     1     2     3
  N     1.45788856 +1  111.2061852 +1  121.3414058 +1     1     2     3
  O     1.22364626 +1  119.0438275 +1  137.6261614 +1     5     1     2
  O     1.22356955 +1  119.3375986 +1  -42.5367240 +1     5     1     2
  C     5.05987256 +1  113.3738049 +1   48.6723878 +1     2     1     3
  O     1.23990440 +1  127.7617970 +1 -161.5749260 +1     8     2     1
  O     1.24717132 +1   49.0772606 +1   93.0317074 +1     8     2     1
  C     1.52541522 +1   92.4976506 +1  -33.1031332 +1     8     2     1
 Cl     1.77584148 +1  107.5807557 +1   97.2524039 +1    11     8     2
  H     1.10577516 +1  111.8902590 +1  -20.9033017 +1    11     8     2
  H     1.10236460 +1  112.6826103 +1 -144.1481348 +1    11     8     2
  H     2.70932962 +1  106.0246792 +1   76.6112580 +1    13    11     8
  O     0.95230724 +1  100.9756123 +1  -80.1628110 +1    15    13    11
  H     0.98045668 +1  106.1497796 +1   33.2376134 +1    16    15    13

 TIME=     2.63
  REACTANTS AND PRODUCTS SWAPPED AROUND
 *+*+*+*+*+*+*+*+*+*+*+*+*+*+*+*+*+*+*+*+*+*+*+*+*+*+*+*+*+*+*+*+*+*+*+*+*+*+*+*+
            BAR SHORTENED BY       0.000 PERCENT
 GRADIENT CRITERION IN FLEPO =     2.194
 

                    SINCE COS WAS JUST RESET,THE SEARCH IS BEING ENDED


          FOR POINT   13 SECOND STRUCTURE
 DISTANCE A - B      3.634223
 HEAT             -302.745816
 GRADIENT NORM       3.997234
 DIRECTION COSINE   -0.121309
* ===============================
* Input file for Mopac
* ===============================
 PM7 BONDS AUX DUMP=30M ITRY=15000 T=14D CHARGE=-1 SINGLET eps=78.4 RELSCF=1


  C     0.00000000 +0    0.0000000 +0    0.0000000 +0     0     0     0
  H     1.07470228 +1    0.0000000 +0    0.0000000 +0     1     0     0
  H     2.21030982 +1   91.0374618 +1    0.0000000 +0     1     2     0
  H     1.07429150 +1  116.0325949 +1  -93.4524244 +1     1     2     3
  N     1.31694316 +1  122.0145236 +1   90.2346924 +1     1     2     3
  O     1.26407109 +1  121.5810704 +1  179.5330092 +1     5     1     2
  O     1.26429030 +1  121.7670069 +1   -1.6394562 +1     5     1     2
  C     3.86728536 +1  141.4229597 +1   -7.3200400 +1     3     1     2
  O     1.21118239 +1  164.0090176 +1   25.3725037 +1     8     3     1
  O     1.33408688 +1   46.0978930 +1   10.2709746 +1     8     3     1
  C     1.50269751 +1   71.0103949 +1 -165.0241767 +1     8     3     1
 Cl     1.76916729 +1  106.3855033 +1   85.6306842 +1    11     8     3
  H     1.11277432 +1  113.4416503 +1  -33.2051611 +1    11     8     3
  H     1.10776430 +1  112.5227856 +1 -155.8193948 +1    11     8     3
  H     1.54268229 +1   87.7519654 +1  -69.2071107 +1     3     1     2
  O     0.97595562 +1   37.9018584 +1  172.7276995 +1    15     3     1
  H     1.05388266 +1  113.6335116 +1  -11.5030948 +1    10     8     3

 TIME=     0.79
  REACTANTS AND PRODUCTS SWAPPED AROUND
 *+*+*+*+*+*+*+*+*+*+*+*+*+*+*+*+*+*+*+*+*+*+*+*+*+*+*+*+*+*+*+*+*+*+*+*+*+*+*+*+
            BAR SHORTENED BY       1.000 PERCENT
 GRADIENT CRITERION IN FLEPO =     2.194
           THERE HAVE BEEN 3 ATTEMPTS TO REDUCE THE GRADIENT.
           DURING THESE ATTEMPTS THE ENERGY DROPPED BY LESS THAN 0.3 KCAL/MOLE
           FURTHER CALCULATION IS NOT JUSTIFIED AT THIS TIME.
           TO CONTINUE, START AGAIN WITH THE WORD "PRECISE"


          FOR POINT   14 FIRST  STRUCTURE
 DISTANCE A - B      3.597881
 HEAT             -309.212530
 GRADIENT NORM       6.836828
 DIRECTION COSINE    0.246030
* ===============================
* Input file for Mopac
* ===============================
 PM7 BONDS AUX DUMP=30M ITRY=15000 T=14D CHARGE=-1 SINGLET eps=78.4 RELSCF=1


  C     0.00000000 +0    0.0000000 +0    0.0000000 +0     0     0     0
  H     1.11034710 +1    0.0000000 +0    0.0000000 +0     1     0     0
  H     1.11322949 +1  107.2472925 +1    0.0000000 +0     1     2     0
  H     1.10949008 +1  108.7031616 +1 -115.7177360 +1     1     2     3
  N     1.45759731 +1  111.2729140 +1  121.4351143 +1     1     2     3
  O     1.22357016 +1  118.8666334 +1  137.6786181 +1     5     1     2
  O     1.22297441 +1  119.4376938 +1  -42.3153803 +1     5     1     2
  C     5.05242754 +1  113.2708481 +1   47.8259830 +1     2     1     3
  O     1.23962232 +1  128.2664986 +1 -161.0984023 +1     8     2     1
  O     1.24508842 +1   48.6017380 +1   94.0094565 +1     8     2     1
  C     1.52528848 +1   92.6118235 +1  -32.4069991 +1     8     2     1
 Cl     1.77598634 +1  107.5745014 +1   96.9746416 +1    11     8     2
  H     1.10435194 +1  111.7907769 +1  -21.3437038 +1    11     8     2
  H     1.10392646 +1  112.8575661 +1 -144.4200249 +1    11     8     2
  H     2.71610351 +1  105.7636603 +1   76.8861232 +1    13    11     8
  O     0.95433600 +1  100.7482485 +1  -80.9659004 +1    15    13    11
  H     0.97901711 +1  105.8860661 +1   33.4848460 +1    16    15    13

 *+*+*+*+*+*+*+*+*+*+*+*+*+*+*+*+*+*+*+*+*+*+*+*+*+*+*+*+*+*+*+*+*+*+*+*+*+*+*+*+
            BAR SHORTENED BY       1.000 PERCENT
 GRADIENT CRITERION IN FLEPO =     3.837


          FOR POINT   15 FIRST  STRUCTURE
 DISTANCE A - B      3.561902
 HEAT             -309.266322
 GRADIENT NORM       6.128434
 DIRECTION COSINE    0.166717
* ===============================
* Input file for Mopac
* ===============================
 PM7 BONDS AUX DUMP=30M ITRY=15000 T=14D CHARGE=-1 SINGLET eps=78.4 RELSCF=1


  C     0.00000000 +0    0.0000000 +0    0.0000000 +0     0     0     0
  H     1.10846295 +1    0.0000000 +0    0.0000000 +0     1     0     0
  H     1.11487765 +1  107.2730379 +1    0.0000000 +0     1     2     0
  H     1.11001858 +1  108.7904354 +1 -115.6018241 +1     1     2     3
  N     1.45692318 +1  111.0620549 +1  121.7596975 +1     1     2     3
  O     1.22399016 +1  118.7344033 +1  137.5717690 +1     5     1     2
  O     1.22334351 +1  119.5244515 +1  -42.2420585 +1     5     1     2
  C     5.05532385 +1  112.8621574 +1   46.8333272 +1     2     1     3
  O     1.23999598 +1  128.6797420 +1 -160.4286349 +1     8     2     1
  O     1.24751378 +1   48.2383566 +1   94.6977814 +1     8     2     1
  C     1.52606344 +1   92.4613461 +1  -31.7923197 +1     8     2     1
 Cl     1.77602597 +1  107.4661702 +1   96.8388987 +1    11     8     2
  H     1.10096450 +1  112.0580268 +1  -21.6899954 +1    11     8     2
  H     1.10566295 +1  112.5352679 +1 -144.8736700 +1    11     8     2
  H     2.72016668 +1  105.5357557 +1   77.0398023 +1    13    11     8
  O     0.95376472 +1  100.3605601 +1  -81.1105527 +1    15    13    11
  H     0.98029950 +1  106.2423265 +1   33.3884741 +1    16    15    13

 *+*+*+*+*+*+*+*+*+*+*+*+*+*+*+*+*+*+*+*+*+*+*+*+*+*+*+*+*+*+*+*+*+*+*+*+*+*+*+*+
            BAR SHORTENED BY       1.000 PERCENT
 GRADIENT CRITERION IN FLEPO =     3.128
           THERE HAVE BEEN 3 ATTEMPTS TO REDUCE THE GRADIENT.
           DURING THESE ATTEMPTS THE ENERGY DROPPED BY LESS THAN 0.3 KCAL/MOLE
           FURTHER CALCULATION IS NOT JUSTIFIED AT THIS TIME.
           TO CONTINUE, START AGAIN WITH THE WORD "PRECISE"


          FOR POINT   16 FIRST  STRUCTURE
 DISTANCE A - B      3.526283
 HEAT             -309.193100
 GRADIENT NORM      18.231162
 DIRECTION COSINE    0.226702
* ===============================
* Input file for Mopac
* ===============================
 PM7 BONDS AUX DUMP=30M ITRY=15000 T=14D CHARGE=-1 SINGLET eps=78.4 RELSCF=1


  C     0.00000000 +0    0.0000000 +0    0.0000000 +0     0     0     0
  H     1.11148887 +1    0.0000000 +0    0.0000000 +0     1     0     0
  H     1.11324250 +1  107.3373577 +1    0.0000000 +0     1     2     0
  H     1.11022689 +1  108.6647561 +1 -115.7402911 +1     1     2     3
  N     1.45801338 +1  111.3440091 +1  121.4605983 +1     1     2     3
  O     1.22326719 +1  118.6602107 +1  137.6587242 +1     5     1     2
  O     1.22309615 +1  119.6131351 +1  -42.1971682 +1     5     1     2
  C     5.04179126 +1  112.8460955 +1   46.2967779 +1     2     1     3
  O     1.24724673 +1  128.9946096 +1 -160.2328013 +1     8     2     1
  O     1.24441998 +1   47.7034561 +1   95.8904610 +1     8     2     1
  C     1.52369664 +1   92.7587534 +1  -31.1631837 +1     8     2     1
 Cl     1.77556636 +1  107.4559706 +1   96.5275807 +1    11     8     2
  H     1.10295987 +1  111.8936829 +1  -21.8943382 +1    11     8     2
  H     1.10389584 +1  112.7659325 +1 -145.0849676 +1    11     8     2
  H     2.71409719 +1  104.0230228 +1  -81.6489221 +1     3     1     2
  O     0.95651093 +1   71.0008048 +1   29.4530721 +1    15     3     1
  H     0.98040403 +1  106.4102163 +1  128.8748640 +1    16    15     3

 TIME=     1.56
  REACTANTS AND PRODUCTS SWAPPED AROUND
 *+*+*+*+*+*+*+*+*+*+*+*+*+*+*+*+*+*+*+*+*+*+*+*+*+*+*+*+*+*+*+*+*+*+*+*+*+*+*+*+
            BAR SHORTENED BY       0.000 PERCENT
 GRADIENT CRITERION IN FLEPO =    10.000


          FOR POINT   17 SECOND STRUCTURE
 DISTANCE A - B      3.526283
 HEAT             -302.745816
 GRADIENT NORM       4.003482
 DIRECTION COSINE    0.299328
* ===============================
* Input file for Mopac
* ===============================
 PM7 BONDS AUX DUMP=30M ITRY=15000 T=14D CHARGE=-1 SINGLET eps=78.4 RELSCF=1


  C     0.00000000 +0    0.0000000 +0    0.0000000 +0     0     0     0
  H     1.07470228 +1    0.0000000 +0    0.0000000 +0     1     0     0
  H     2.21030982 +1   91.0374618 +1    0.0000000 +0     1     2     0
  H     1.07429150 +1  116.0325949 +1  -93.4524244 +1     1     2     3
  N     1.31694316 +1  122.0145236 +1   90.2346924 +1     1     2     3
  O     1.26407109 +1  121.5810704 +1  179.5330092 +1     5     1     2
  O     1.26429030 +1  121.7670069 +1   -1.6394562 +1     5     1     2
  C     3.86728536 +1  141.4229597 +1   -7.3200400 +1     3     1     2
  O     1.21118239 +1  164.0090176 +1   25.3725037 +1     8     3     1
  O     1.33408688 +1   46.0978930 +1   10.2709746 +1     8     3     1
  C     1.50269751 +1   71.0103949 +1 -165.0241767 +1     8     3     1
 Cl     1.76916729 +1  106.3855033 +1   85.6306842 +1    11     8     3
  H     1.11277432 +1  113.4416503 +1  -33.2051611 +1    11     8     3
  H     1.10776430 +1  112.5227856 +1 -155.8193948 +1    11     8     3
  H     1.54268229 +1   87.7519654 +1  -69.2071107 +1     3     1     2
  O     0.97595562 +1   37.9018584 +1  172.7276995 +1    15     3     1
  H     1.05388266 +1  113.6335116 +1  -11.5030948 +1    10     8     3

 TIME=     0.05
  REACTANTS AND PRODUCTS SWAPPED AROUND
 *+*+*+*+*+*+*+*+*+*+*+*+*+*+*+*+*+*+*+*+*+*+*+*+*+*+*+*+*+*+*+*+*+*+*+*+*+*+*+*+
            BAR SHORTENED BY       1.000 PERCENT
 GRADIENT CRITERION IN FLEPO =     1.003
 

                    SINCE COS WAS JUST RESET,THE SEARCH IS BEING ENDED


          FOR POINT   18 FIRST  STRUCTURE
 DISTANCE A - B      3.491020
 HEAT             -309.201257
 GRADIENT NORM      12.098325
 DIRECTION COSINE   -0.338661
* ===============================
* Input file for Mopac
* ===============================
 PM7 BONDS AUX DUMP=30M ITRY=15000 T=14D CHARGE=-1 SINGLET eps=78.4 RELSCF=1


  C     0.00000000 +0    0.0000000 +0    0.0000000 +0     0     0     0
  H     1.10814364 +1    0.0000000 +0    0.0000000 +0     1     0     0
  H     1.11533469 +1  107.4290553 +1    0.0000000 +0     1     2     0
  H     1.11262140 +1  108.6048358 +1 -115.4784951 +1     1     2     3
  N     1.45175127 +1  111.2176484 +1  121.8565326 +1     1     2     3
  O     1.22358383 +1  118.5096625 +1  137.6697548 +1     5     1     2
  O     1.22279496 +1  119.7216760 +1  -42.2846437 +1     5     1     2
  C     5.04830155 +1  112.6263520 +1   45.2683157 +1     2     1     3
  O     1.24067233 +1  129.1980205 +1 -160.0350583 +1     8     2     1
  O     1.25050064 +1   47.2856957 +1   96.6646071 +1     8     2     1
  C     1.52399634 +1   92.6803562 +1  -30.4994764 +1     8     2     1
 Cl     1.77871165 +1  107.2874448 +1   96.3407127 +1    11     8     2
  H     1.10303047 +1  112.0450804 +1  -22.1106467 +1    11     8     2
  H     1.10213868 +1  112.7263525 +1 -145.5005326 +1    11     8     2
  H     2.70029559 +1  104.5207802 +1  -81.4991771 +1     3     1     2
  O     0.94920157 +1   70.7870633 +1   30.3864479 +1    15     3     1
  H     0.97857480 +1  106.7633417 +1  129.0353802 +1    16    15     3

 TIME=     0.41
  REACTANTS AND PRODUCTS SWAPPED AROUND
 *+*+*+*+*+*+*+*+*+*+*+*+*+*+*+*+*+*+*+*+*+*+*+*+*+*+*+*+*+*+*+*+*+*+*+*+*+*+*+*+
            BAR SHORTENED BY       1.000 PERCENT
 GRADIENT CRITERION IN FLEPO =     9.098


          FOR POINT   19 SECOND STRUCTURE
 DISTANCE A - B      3.456110
 HEAT             -302.749504
 GRADIENT NORM       8.959656
 DIRECTION COSINE   -0.108418
* ===============================
* Input file for Mopac
* ===============================
 PM7 BONDS AUX DUMP=30M ITRY=15000 T=14D CHARGE=-1 SINGLET eps=78.4 RELSCF=1


  C     0.00000000 +0    0.0000000 +0    0.0000000 +0     0     0     0
  H     1.07373562 +1    0.0000000 +0    0.0000000 +0     1     0     0
  H     2.19660879 +1   90.8348360 +1    0.0000000 +0     1     2     0
  H     1.07334217 +1  116.2823605 +1  -93.2158516 +1     1     2     3
  N     1.31637222 +1  121.6019315 +1   90.9150850 +1     1     2     3
  O     1.26430216 +1  121.2420636 +1  179.3613256 +1     5     1     2
  O     1.26384200 +1  121.9240404 +1   -2.0685662 +1     5     1     2
  C     3.87505425 +1  141.5075681 +1   -7.8713992 +1     3     1     2
  O     1.20951493 +1  163.8546076 +1   26.4391852 +1     8     3     1
  O     1.33244886 +1   45.9195070 +1    9.6018479 +1     8     3     1
  C     1.50407195 +1   71.2325263 +1 -165.0524939 +1     8     3     1
 Cl     1.76792553 +1  106.4832881 +1   85.8263561 +1    11     8     3
  H     1.11244827 +1  113.2599798 +1  -33.1350230 +1    11     8     3
  H     1.10792273 +1  112.3152797 +1 -155.7444794 +1    11     8     3
  H     1.54273072 +1   87.9036338 +1  -70.1974714 +1     3     1     2
  O     0.97820195 +1  125.6816024 +1  -64.6876604 +1     3     1     2
  H     1.05331879 +1  114.0607342 +1  -11.9903784 +1    10     8     3

 TIME=     0.44
  REACTANTS AND PRODUCTS SWAPPED AROUND
 *+*+*+*+*+*+*+*+*+*+*+*+*+*+*+*+*+*+*+*+*+*+*+*+*+*+*+*+*+*+*+*+*+*+*+*+*+*+*+*+
            BAR SHORTENED BY       1.000 PERCENT
 GRADIENT CRITERION IN FLEPO =     5.960


          FOR POINT   20 FIRST  STRUCTURE
 DISTANCE A - B      3.421549
 HEAT             -309.173381
 GRADIENT NORM       8.634346
 DIRECTION COSINE    0.332590
* ===============================
* Input file for Mopac
* ===============================
 PM7 BONDS AUX DUMP=30M ITRY=15000 T=14D CHARGE=-1 SINGLET eps=78.4 RELSCF=1


  C     0.00000000 +0    0.0000000 +0    0.0000000 +0     0     0     0
  H     1.10740571 +1    0.0000000 +0    0.0000000 +0     1     0     0
  H     1.11324433 +1  107.5739336 +1    0.0000000 +0     1     2     0
  H     1.11029978 +1  108.8592674 +1 -116.0513029 +1     1     2     3
  N     1.45929431 +1  111.0969977 +1  121.5923819 +1     1     2     3
  O     1.22338917 +1  118.3388745 +1  137.6436891 +1     5     1     2
  O     1.22237269 +1  119.6725815 +1  -42.2303267 +1     5     1     2
  C     5.04085971 +1  112.3460820 +1   44.7126367 +1     2     1     3
  O     1.24198862 +1  130.0895246 +1 -159.8658723 +1     8     2     1
  O     1.24923804 +1   47.0043802 +1   97.1479886 +1     8     2     1
  C     1.52600118 +1   92.6897637 +1  -29.7159690 +1     8     2     1
 Cl     1.77664873 +1  107.5067578 +1   96.0033098 +1    11     8     2
  H     1.10297630 +1  112.0731643 +1  -22.5254051 +1    11     8     2
  H     1.10286558 +1  112.7668065 +1 -145.6500524 +1    11     8     2
  H     2.69132037 +1  104.7776502 +1  -81.6662966 +1     3     1     2
  O     0.95603303 +1   69.2633780 +1   30.6181792 +1    15     3     1
  H     0.97843549 +1  105.5401141 +1  129.1276194 +1    16    15     3

 *+*+*+*+*+*+*+*+*+*+*+*+*+*+*+*+*+*+*+*+*+*+*+*+*+*+*+*+*+*+*+*+*+*+*+*+*+*+*+*+
            BAR SHORTENED BY       1.000 PERCENT
 GRADIENT CRITERION IN FLEPO =     5.634


          FOR POINT   21 FIRST  STRUCTURE
 DISTANCE A - B      3.387334
 HEAT             -309.306907
 GRADIENT NORM      11.416615
 DIRECTION COSINE   -0.203082
* ===============================
* Input file for Mopac
* ===============================
 PM7 BONDS AUX DUMP=30M ITRY=15000 T=14D CHARGE=-1 SINGLET eps=78.4 RELSCF=1


  C     0.00000000 +0    0.0000000 +0    0.0000000 +0     0     0     0
  H     1.10765868 +1    0.0000000 +0    0.0000000 +0     1     0     0
  H     1.11531842 +1  107.4735355 +1    0.0000000 +0     1     2     0
  H     1.11297746 +1  108.5923540 +1 -115.5353446 +1     1     2     3
  N     1.45514459 +1  111.2126467 +1  122.0120338 +1     1     2     3
  O     1.22424311 +1  118.2338630 +1  137.6255878 +1     5     1     2
  O     1.22239752 +1  119.7673363 +1  -42.3604475 +1     5     1     2
  C     5.03993940 +1  112.3289076 +1   43.6991970 +1     2     1     3
  O     1.23606402 +1  130.3371096 +1 -159.4823821 +1     8     2     1
  O     1.24712280 +1   46.4228431 +1   97.8635782 +1     8     2     1
  C     1.52901905 +1   92.6381436 +1  -29.1607267 +1     8     2     1
 Cl     1.77681188 +1  107.3180308 +1   95.8176936 +1    11     8     2
  H     1.10559012 +1  111.9909031 +1  -22.5404691 +1    11     8     2
  H     1.10157416 +1  112.8452241 +1 -146.0327079 +1    11     8     2
  H     2.67371520 +1  105.2871489 +1  -81.4712832 +1     3     1     2
  O     0.95070892 +1   69.1917239 +1   31.6611345 +1    15     3     1
  H     0.97916286 +1  106.2971277 +1  129.1419804 +1    16    15     3

 TIME=     0.66
  REACTANTS AND PRODUCTS SWAPPED AROUND
 *+*+*+*+*+*+*+*+*+*+*+*+*+*+*+*+*+*+*+*+*+*+*+*+*+*+*+*+*+*+*+*+*+*+*+*+*+*+*+*+
            BAR SHORTENED BY       1.000 PERCENT
 GRADIENT CRITERION IN FLEPO =     8.417


          FOR POINT   22 SECOND STRUCTURE
 DISTANCE A - B      3.353460
 HEAT             -302.756673
 GRADIENT NORM       8.253531
 DIRECTION COSINE   -0.016386
* ===============================
* Input file for Mopac
* ===============================
 PM7 BONDS AUX DUMP=30M ITRY=15000 T=14D CHARGE=-1 SINGLET eps=78.4 RELSCF=1


  C     0.00000000 +0    0.0000000 +0    0.0000000 +0     0     0     0
  H     1.07558754 +1    0.0000000 +0    0.0000000 +0     1     0     0
  H     2.19131772 +1   90.6604243 +1    0.0000000 +0     1     2     0
  H     1.07242570 +1  116.3121597 +1  -92.6504608 +1     1     2     3
  N     1.31746688 +1  121.4696872 +1   91.5503818 +1     1     2     3
  O     1.26221419 +1  121.0253013 +1  179.1928758 +1     5     1     2
  O     1.26372330 +1  121.9636349 +1   -2.2756018 +1     5     1     2
  C     3.87505639 +1  141.5123448 +1   -7.9933610 +1     3     1     2
  O     1.21190966 +1  163.6679181 +1   27.0738973 +1     8     3     1
  O     1.33252274 +1   45.9150639 +1    8.8313812 +1     8     3     1
  C     1.50147311 +1   71.3972502 +1 -165.3844468 +1     8     3     1
 Cl     1.76929624 +1  106.5482810 +1   85.8806330 +1    11     8     3
  H     1.11200268 +1  113.1894517 +1  -33.0971259 +1    11     8     3
  H     1.10967906 +1  112.2737033 +1 -155.7092506 +1    11     8     3
  H     1.53850825 +1   88.4563217 +1  -70.9768658 +1     3     1     2
  O     0.97088982 +1  125.9245972 +1  -65.1802701 +1     3     1     2
  H     1.05628646 +1  113.8757996 +1  -12.1046736 +1    10     8     3

 TIME=     0.31
  REACTANTS AND PRODUCTS SWAPPED AROUND
 *+*+*+*+*+*+*+*+*+*+*+*+*+*+*+*+*+*+*+*+*+*+*+*+*+*+*+*+*+*+*+*+*+*+*+*+*+*+*+*+
            BAR SHORTENED BY       1.000 PERCENT
 GRADIENT CRITERION IN FLEPO =     5.254
 

                    SINCE COS WAS JUST RESET,THE SEARCH IS BEING ENDED


          FOR POINT   23 FIRST  STRUCTURE
 DISTANCE A - B      3.319926
 HEAT             -309.101666
 GRADIENT NORM      24.537047
 DIRECTION COSINE   -0.001538
* ===============================
* Input file for Mopac
* ===============================
 PM7 BONDS AUX DUMP=30M ITRY=15000 T=14D CHARGE=-1 SINGLET eps=78.4 RELSCF=1


  C     0.00000000 +0    0.0000000 +0    0.0000000 +0     0     0     0
  H     1.10667864 +1    0.0000000 +0    0.0000000 +0     1     0     0
  H     1.12242634 +1  107.1291485 +1    0.0000000 +0     1     2     0
  H     1.11143607 +1  108.6525814 +1 -115.0385214 +1     1     2     3
  N     1.44882194 +1  111.2484013 +1  122.0873793 +1     1     2     3
  O     1.21895505 +1  118.0540386 +1  137.9683349 +1     5     1     2
  O     1.22215016 +1  119.8807338 +1  -42.1011874 +1     5     1     2
  C     5.04203066 +1  112.3094979 +1   43.0205157 +1     2     1     3
  O     1.23509990 +1  130.5312489 +1 -159.5070195 +1     8     2     1
  O     1.24648701 +1   46.0573898 +1   98.4043999 +1     8     2     1
  C     1.52856702 +1   92.6874308 +1  -28.8020809 +1     8     2     1
 Cl     1.77650791 +1  107.3088073 +1   95.6761905 +1    11     8     2
  H     1.10563459 +1  112.0027057 +1  -22.6866239 +1    11     8     2
  H     1.10158444 +1  112.8395882 +1 -146.1774190 +1    11     8     2
  H     2.65890086 +1  105.5420895 +1  -81.4190688 +1     3     1     2
  O     0.93783073 +1   69.0879706 +1   32.6080862 +1    15     3     1
  H     0.98391821 +1  106.7901064 +1  129.1934504 +1    16    15     3

 TIME=     0.38
  REACTANTS AND PRODUCTS SWAPPED AROUND
 *+*+*+*+*+*+*+*+*+*+*+*+*+*+*+*+*+*+*+*+*+*+*+*+*+*+*+*+*+*+*+*+*+*+*+*+*+*+*+*+
            BAR SHORTENED BY       1.000 PERCENT
 GRADIENT CRITERION IN FLEPO =    10.000


          FOR POINT   24 SECOND STRUCTURE
 DISTANCE A - B      3.286726
 HEAT             -302.748268
 GRADIENT NORM      16.974834
 DIRECTION COSINE   -0.336228
* ===============================
* Input file for Mopac
* ===============================
 PM7 BONDS AUX DUMP=30M ITRY=15000 T=14D CHARGE=-1 SINGLET eps=78.4 RELSCF=1


  C     0.00000000 +0    0.0000000 +0    0.0000000 +0     0     0     0
  H     1.07225317 +1    0.0000000 +0    0.0000000 +0     1     0     0
  H     2.17739476 +1   90.5302487 +1    0.0000000 +0     1     2     0
  H     1.07889838 +1  115.8503617 +1  -91.9773748 +1     1     2     3
  N     1.31319739 +1  121.9306020 +1   92.0927969 +1     1     2     3
  O     1.26401561 +1  121.1251657 +1  179.2430268 +1     5     1     2
  O     1.26431311 +1  121.9352576 +1   -2.2068036 +1     5     1     2
  C     3.89019126 +1  141.3121061 +1   -7.8918038 +1     3     1     2
  O     1.20701972 +1  163.5308433 +1   28.6725082 +1     8     3     1
  O     1.33418918 +1   45.5839679 +1    8.2645589 +1     8     3     1
  C     1.50503106 +1   71.5479308 +1 -165.6772923 +1     8     3     1
 Cl     1.76992719 +1  106.4909682 +1   86.0779021 +1    11     8     3
  H     1.11706035 +1  113.2769768 +1  -32.8147469 +1    11     8     3
  H     1.10668485 +1  112.4236334 +1 -155.4866006 +1    11     8     3
  H     1.54277776 +1   88.9377406 +1  -71.1658316 +1     3     1     2
  O     0.97167438 +1  126.1437366 +1  -65.2059128 +1     3     1     2
  H     1.05414422 +1  114.0946993 +1  -12.4254565 +1    10     8     3

 TIME=     0.59
  REACTANTS AND PRODUCTS SWAPPED AROUND
 *+*+*+*+*+*+*+*+*+*+*+*+*+*+*+*+*+*+*+*+*+*+*+*+*+*+*+*+*+*+*+*+*+*+*+*+*+*+*+*+
            BAR SHORTENED BY       1.000 PERCENT
 GRADIENT CRITERION IN FLEPO =    10.000


          FOR POINT   25 FIRST  STRUCTURE
 DISTANCE A - B      3.253859
 HEAT             -309.048601
 GRADIENT NORM      15.958864
 DIRECTION COSINE   -0.109324
* ===============================
* Input file for Mopac
* ===============================
 PM7 BONDS AUX DUMP=30M ITRY=15000 T=14D CHARGE=-1 SINGLET eps=78.4 RELSCF=1


  C     0.00000000 +0    0.0000000 +0    0.0000000 +0     0     0     0
  H     1.10052794 +1    0.0000000 +0    0.0000000 +0     1     0     0
  H     1.11263901 +1  108.1609187 +1    0.0000000 +0     1     2     0
  H     1.11421493 +1  108.9406067 +1 -116.2917988 +1     1     2     3
  N     1.45891807 +1  111.1264315 +1  121.7328718 +1     1     2     3
  O     1.22319953 +1  118.0336212 +1  137.1164845 +1     5     1     2
  O     1.22253519 +1  119.8065273 +1  -41.7171444 +1     5     1     2
  C     5.03832287 +1  111.6549545 +1   42.4769478 +1     2     1     3
  O     1.23893632 +1  130.6789414 +1 -159.2122538 +1     8     2     1
  O     1.24360740 +1   45.2933147 +1  100.3465844 +1     8     2     1
  C     1.52618879 +1   92.7353425 +1  -28.0270786 +1     8     2     1
 Cl     1.77610512 +1  107.0704433 +1   95.3602206 +1    11     8     2
  H     1.10588425 +1  112.0146350 +1  -22.7422318 +1    11     8     2
  H     1.09726718 +1  113.0688912 +1 -146.1249932 +1    11     8     2
  H     2.68492503 +1  105.8207936 +1  -80.9901906 +1     3     1     2
  O     0.95397555 +1   66.1024776 +1   31.6076393 +1    15     3     1
  H     0.98036613 +1  103.9056914 +1  129.6176954 +1    16    15     3

 TIME=     0.62
  REACTANTS AND PRODUCTS SWAPPED AROUND
 *+*+*+*+*+*+*+*+*+*+*+*+*+*+*+*+*+*+*+*+*+*+*+*+*+*+*+*+*+*+*+*+*+*+*+*+*+*+*+*+
            BAR SHORTENED BY       1.000 PERCENT
 GRADIENT CRITERION IN FLEPO =    10.000


          FOR POINT   26 SECOND STRUCTURE
 DISTANCE A - B      3.221321
 HEAT             -302.785480
 GRADIENT NORM      13.922416
 DIRECTION COSINE    0.156185
* ===============================
* Input file for Mopac
* ===============================
 PM7 BONDS AUX DUMP=30M ITRY=15000 T=14D CHARGE=-1 SINGLET eps=78.4 RELSCF=1


  C     0.00000000 +0    0.0000000 +0    0.0000000 +0     0     0     0
  H     1.07401208 +1    0.0000000 +0    0.0000000 +0     1     0     0
  H     2.15990914 +1   90.4675258 +1    0.0000000 +0     1     2     0
  H     1.07304013 +1  116.1800269 +1  -92.0429019 +1     1     2     3
  N     1.31568493 +1  121.5083694 +1   92.5871781 +1     1     2     3
  O     1.26958646 +1  120.8830614 +1  179.0452749 +1     5     1     2
  O     1.26293276 +1  122.1027866 +1   -2.4060214 +1     5     1     2
  C     3.90062744 +1  141.2649790 +1   -8.6518133 +1     3     1     2
  O     1.21180288 +1  163.1883561 +1   29.8850018 +1     8     3     1
  O     1.33234470 +1   45.5614712 +1    7.6840083 +1     8     3     1
  C     1.50232665 +1   71.7062105 +1 -165.5681050 +1     8     3     1
 Cl     1.76859918 +1  106.4906099 +1   86.3865365 +1    11     8     3
  H     1.11291454 +1  113.2896668 +1  -32.6725056 +1    11     8     3
  H     1.10544916 +1  111.8971851 +1 -155.2640658 +1    11     8     3
  H     1.53576071 +1   88.6497314 +1  -72.4174572 +1     3     1     2
  O     0.97803944 +1   38.5157541 +1  171.4718653 +1    15     3     1
  H     1.05613894 +1  113.9958322 +1  -12.6329043 +1    10     8     3

 TIME=     0.10
  REACTANTS AND PRODUCTS SWAPPED AROUND
 *+*+*+*+*+*+*+*+*+*+*+*+*+*+*+*+*+*+*+*+*+*+*+*+*+*+*+*+*+*+*+*+*+*+*+*+*+*+*+*+
            BAR SHORTENED BY       1.000 PERCENT
 GRADIENT CRITERION IN FLEPO =    10.000


          FOR POINT   27 FIRST  STRUCTURE
 DISTANCE A - B      3.189107
 HEAT             -309.107825
 GRADIENT NORM      17.196419
 DIRECTION COSINE    0.115933
* ===============================
* Input file for Mopac
* ===============================
 PM7 BONDS AUX DUMP=30M ITRY=15000 T=14D CHARGE=-1 SINGLET eps=78.4 RELSCF=1


  C     0.00000000 +0    0.0000000 +0    0.0000000 +0     0     0     0
  H     1.12649946 +1    0.0000000 +0    0.0000000 +0     1     0     0
  H     1.11438616 +1  106.6674146 +1    0.0000000 +0     1     2     0
  H     1.11155789 +1  108.0594081 +1 -115.2434260 +1     1     2     3
  N     1.45602214 +1  112.4210669 +1  121.9870971 +1     1     2     3
  O     1.22308826 +1  117.8842299 +1  138.0391790 +1     5     1     2
  O     1.22244307 +1  120.0050917 +1  -41.7225830 +1     5     1     2
  C     5.00095028 +1  112.8902898 +1   41.4048494 +1     2     1     3
  O     1.23949492 +1  131.2024014 +1 -158.3123951 +1     8     2     1
  O     1.24746325 +1   44.8504186 +1  101.0148225 +1     8     2     1
  C     1.52464434 +1   92.8667582 +1  -27.2280931 +1     8     2     1
 Cl     1.77594299 +1  107.2950193 +1   95.0817998 +1    11     8     2
  H     1.10551066 +1  111.7095661 +1  -23.3990605 +1    11     8     2
  H     1.10194889 +1  112.9149560 +1 -146.2461493 +1    11     8     2
  H     2.66516566 +1  106.1078689 +1  -80.2707250 +1     3     1     2
  O     0.95244805 +1   66.1160519 +1   33.4922034 +1    15     3     1
  H     0.98899057 +1  106.3110995 +1  130.0471319 +1    16    15     3

 *+*+*+*+*+*+*+*+*+*+*+*+*+*+*+*+*+*+*+*+*+*+*+*+*+*+*+*+*+*+*+*+*+*+*+*+*+*+*+*+
            BAR SHORTENED BY       1.000 PERCENT
 GRADIENT CRITERION IN FLEPO =    10.000


          FOR POINT   28 FIRST  STRUCTURE
 DISTANCE A - B      3.157216
 HEAT             -309.056449
 GRADIENT NORM      13.110534
 DIRECTION COSINE    0.682642
* ===============================
* Input file for Mopac
* ===============================
 PM7 BONDS AUX DUMP=30M ITRY=15000 T=14D CHARGE=-1 SINGLET eps=78.4 RELSCF=1


  C     0.00000000 +0    0.0000000 +0    0.0000000 +0     0     0     0
  H     1.11481744 +1    0.0000000 +0    0.0000000 +0     1     0     0
  H     1.11704357 +1  106.8269151 +1    0.0000000 +0     1     2     0
  H     1.11239770 +1  108.4757186 +1 -115.1781077 +1     1     2     3
  N     1.45236578 +1  112.4310872 +1  121.8341220 +1     1     2     3
  O     1.22408102 +1  117.8041224 +1  138.6301957 +1     5     1     2
  O     1.22227705 +1  120.0733141 +1  -41.5960155 +1     5     1     2
  C     5.00200559 +1  112.8533031 +1   40.9607676 +1     2     1     3
  O     1.23889144 +1  131.7211600 +1 -158.8642068 +1     8     2     1
  O     1.24562778 +1   44.5153492 +1  101.9726317 +1     8     2     1
  C     1.52518930 +1   92.7552496 +1  -26.9318176 +1     8     2     1
 Cl     1.77649522 +1  107.3637857 +1   95.1182439 +1    11     8     2
  H     1.10242542 +1  112.2367032 +1  -23.6064690 +1    11     8     2
  H     1.10557051 +1  112.8184371 +1 -146.7734967 +1    11     8     2
  H     2.66002351 +1  106.2664351 +1  -80.1660518 +1     3     1     2
  O     0.94824173 +1   65.7456212 +1   34.0143522 +1    15     3     1
  H     0.98562250 +1  106.3692454 +1  130.4867920 +1    16    15     3

 *+*+*+*+*+*+*+*+*+*+*+*+*+*+*+*+*+*+*+*+*+*+*+*+*+*+*+*+*+*+*+*+*+*+*+*+*+*+*+*+
            BAR SHORTENED BY       1.000 PERCENT
 GRADIENT CRITERION IN FLEPO =    10.000


          FOR POINT   29 FIRST  STRUCTURE
 DISTANCE A - B      3.125644
 HEAT             -308.981666
 GRADIENT NORM      20.021464
 DIRECTION COSINE    0.027971
* ===============================
* Input file for Mopac
* ===============================
 PM7 BONDS AUX DUMP=30M ITRY=15000 T=14D CHARGE=-1 SINGLET eps=78.4 RELSCF=1


  C     0.00000000 +0    0.0000000 +0    0.0000000 +0     0     0     0
  H     1.10443518 +1    0.0000000 +0    0.0000000 +0     1     0     0
  H     1.11660869 +1  107.3544588 +1    0.0000000 +0     1     2     0
  H     1.11055280 +1  108.8972571 +1 -115.7587364 +1     1     2     3
  N     1.45912930 +1  111.9549463 +1  121.9265007 +1     1     2     3
  O     1.22445330 +1  117.8456870 +1  138.4469338 +1     5     1     2
  O     1.22238252 +1  120.0341510 +1  -41.7056023 +1     5     1     2
  C     5.00879310 +1  112.1606915 +1   40.2684680 +1     2     1     3
  O     1.23182413 +1  132.4439358 +1 -158.7822008 +1     8     2     1
  O     1.25084032 +1   44.1869793 +1  102.5921444 +1     8     2     1
  C     1.52709396 +1   92.8122707 +1  -26.0009363 +1     8     2     1
 Cl     1.77579190 +1  107.5736670 +1   94.6470871 +1    11     8     2
  H     1.10531278 +1  111.9802368 +1  -23.9151194 +1    11     8     2
  H     1.10263692 +1  112.6219104 +1 -146.9327334 +1    11     8     2
  H     2.64667722 +1  106.6564396 +1  -80.6337213 +1     3     1     2
  O     0.95304208 +1   64.9368526 +1   34.6460967 +1    15     3     1
  H     0.98136767 +1  105.8520205 +1  130.7643179 +1    16    15     3

 TIME=     0.76
  REACTANTS AND PRODUCTS SWAPPED AROUND
 *+*+*+*+*+*+*+*+*+*+*+*+*+*+*+*+*+*+*+*+*+*+*+*+*+*+*+*+*+*+*+*+*+*+*+*+*+*+*+*+
            BAR SHORTENED BY       0.000 PERCENT
 GRADIENT CRITERION IN FLEPO =    10.000


          FOR POINT   30 SECOND STRUCTURE
 DISTANCE A - B      3.125644
 HEAT             -302.875571
 GRADIENT NORM       8.596399
 DIRECTION COSINE    0.125125
* ===============================
* Input file for Mopac
* ===============================
 PM7 BONDS AUX DUMP=30M ITRY=15000 T=14D CHARGE=-1 SINGLET eps=78.4 RELSCF=1


  C     0.00000000 +0    0.0000000 +0    0.0000000 +0     0     0     0
  H     1.07525406 +1    0.0000000 +0    0.0000000 +0     1     0     0
  H     2.16495711 +1   90.5015776 +1    0.0000000 +0     1     2     0
  H     1.07471295 +1  116.2157663 +1  -91.8217254 +1     1     2     3
  N     1.31749835 +1  121.8644690 +1   92.5224669 +1     1     2     3
  O     1.26372812 +1  121.3107708 +1  179.1512601 +1     5     1     2
  O     1.26487002 +1  121.9371003 +1   -2.3045862 +1     5     1     2
  C     3.89753813 +1  141.1692569 +1   -8.4881225 +1     3     1     2
  O     1.21266690 +1  162.9670901 +1   29.5589072 +1     8     3     1
  O     1.33753384 +1   45.7664304 +1    7.2702319 +1     8     3     1
  C     1.50083907 +1   71.6720396 +1 -165.6849752 +1     8     3     1
 Cl     1.77170189 +1  106.4474615 +1   86.4455584 +1    11     8     3
  H     1.11259268 +1  113.5974156 +1  -32.5911293 +1    11     8     3
  H     1.10695220 +1  112.0794389 +1 -155.4299049 +1    11     8     3
  H     1.53736724 +1   88.6922067 +1  -72.2357823 +1     3     1     2
  O     0.97521266 +1   38.0907201 +1  171.5141419 +1    15     3     1
  H     1.05431271 +1  113.5290091 +1  -12.3262326 +1    10     8     3

 TIME=     0.32
  REACTANTS AND PRODUCTS SWAPPED AROUND
 *+*+*+*+*+*+*+*+*+*+*+*+*+*+*+*+*+*+*+*+*+*+*+*+*+*+*+*+*+*+*+*+*+*+*+*+*+*+*+*+
            BAR SHORTENED BY       1.000 PERCENT
 GRADIENT CRITERION IN FLEPO =     5.596


          FOR POINT   31 FIRST  STRUCTURE
 DISTANCE A - B      3.094388
 HEAT             -309.050690
 GRADIENT NORM      12.060387
 DIRECTION COSINE   -0.019291
* ===============================
* Input file for Mopac
* ===============================
 PM7 BONDS AUX DUMP=30M ITRY=15000 T=14D CHARGE=-1 SINGLET eps=78.4 RELSCF=1


  C     0.00000000 +0    0.0000000 +0    0.0000000 +0     0     0     0
  H     1.10809861 +1    0.0000000 +0    0.0000000 +0     1     0     0
  H     1.11822777 +1  107.2169177 +1    0.0000000 +0     1     2     0
  H     1.11034364 +1  108.8740304 +1 -115.6611811 +1     1     2     3
  N     1.45478174 +1  111.7357343 +1  121.7067379 +1     1     2     3
  O     1.22539746 +1  117.5879042 +1  138.7757338 +1     5     1     2
  O     1.22220994 +1  120.2658803 +1  -41.4327167 +1     5     1     2
  C     5.00829067 +1  111.8934210 +1   39.8526050 +1     2     1     3
  O     1.23744986 +1  132.4509537 +1 -159.0162439 +1     8     2     1
  O     1.24866854 +1   43.7677025 +1  103.1823941 +1     8     2     1
  C     1.52578448 +1   92.9241255 +1  -25.8749683 +1     8     2     1
 Cl     1.77531650 +1  107.2956735 +1   94.5327261 +1    11     8     2
  H     1.09980427 +1  111.9747752 +1  -23.7664094 +1    11     8     2
  H     1.10126049 +1  112.7977685 +1 -147.2445075 +1    11     8     2
  H     2.63646600 +1  106.8394612 +1  -80.7477372 +1     3     1     2
  O     0.94748102 +1   64.5197545 +1   35.5147535 +1    15     3     1
  H     0.97885719 +1  106.1023926 +1  130.7832756 +1    16    15     3

 TIME=     0.19
  REACTANTS AND PRODUCTS SWAPPED AROUND
 *+*+*+*+*+*+*+*+*+*+*+*+*+*+*+*+*+*+*+*+*+*+*+*+*+*+*+*+*+*+*+*+*+*+*+*+*+*+*+*+
            BAR SHORTENED BY       1.000 PERCENT
 GRADIENT CRITERION IN FLEPO =     9.060


          FOR POINT   32 SECOND STRUCTURE
 DISTANCE A - B      3.063444
 HEAT             -302.859048
 GRADIENT NORM      11.742570
 DIRECTION COSINE   -0.122359
* ===============================
* Input file for Mopac
* ===============================
 PM7 BONDS AUX DUMP=30M ITRY=15000 T=14D CHARGE=-1 SINGLET eps=78.4 RELSCF=1


  C     0.00000000 +0    0.0000000 +0    0.0000000 +0     0     0     0
  H     1.07146685 +1    0.0000000 +0    0.0000000 +0     1     0     0
  H     2.15455828 +1   90.5317319 +1    0.0000000 +0     1     2     0
  H     1.07060908 +1  116.4484580 +1  -91.8423571 +1     1     2     3
  N     1.31875649 +1  121.3900251 +1   93.0504891 +1     1     2     3
  O     1.26323907 +1  120.9025121 +1  178.9544614 +1     5     1     2
  O     1.26387521 +1  122.1065086 +1   -2.7640005 +1     5     1     2
  C     3.90427167 +1  141.0077239 +1   -8.9763290 +1     3     1     2
  O     1.21164078 +1  163.0506721 +1   30.7155927 +1     8     3     1
  O     1.33064029 +1   45.7423731 +1    6.7427369 +1     8     3     1
  C     1.50140746 +1   71.8155905 +1 -165.5304190 +1     8     3     1
 Cl     1.76775268 +1  106.7098017 +1   86.5300482 +1    11     8     3
  H     1.10729151 +1  113.3237434 +1  -32.8210102 +1    11     8     3
  H     1.10998842 +1  112.2146107 +1 -155.0491131 +1    11     8     3
  H     1.54192778 +1   89.1737804 +1  -72.7497206 +1     3     1     2
  O     0.96927553 +1   38.1153673 +1  171.0546849 +1    15     3     1
  H     1.05817403 +1  113.9201664 +1  -12.5903281 +1    10     8     3

 TIME=     0.17
  REACTANTS AND PRODUCTS SWAPPED AROUND
 *+*+*+*+*+*+*+*+*+*+*+*+*+*+*+*+*+*+*+*+*+*+*+*+*+*+*+*+*+*+*+*+*+*+*+*+*+*+*+*+
            BAR SHORTENED BY       1.000 PERCENT
 GRADIENT CRITERION IN FLEPO =     8.743


          FOR POINT   33 FIRST  STRUCTURE
 DISTANCE A - B      3.032809
 HEAT             -308.988501
 GRADIENT NORM      14.520096
 DIRECTION COSINE    0.060272
* ===============================
* Input file for Mopac
* ===============================
 PM7 BONDS AUX DUMP=30M ITRY=15000 T=14D CHARGE=-1 SINGLET eps=78.4 RELSCF=1


  C     0.00000000 +0    0.0000000 +0    0.0000000 +0     0     0     0
  H     1.10583682 +1    0.0000000 +0    0.0000000 +0     1     0     0
  H     1.11844936 +1  107.5167451 +1    0.0000000 +0     1     2     0
  H     1.11319297 +1  108.6695017 +1 -115.5232608 +1     1     2     3
  N     1.45118336 +1  111.6660168 +1  121.8072086 +1     1     2     3
  O     1.22583571 +1  117.5220678 +1  138.5503520 +1     5     1     2
  O     1.22220350 +1  120.3094429 +1  -41.3184418 +1     5     1     2
  C     5.01073240 +1  111.5493041 +1   39.1776220 +1     2     1     3
  O     1.24021133 +1  132.7586531 +1 -158.3954430 +1     8     2     1
  O     1.24787278 +1   43.3454449 +1  104.1640863 +1     8     2     1
  C     1.52492520 +1   93.0973208 +1  -25.4058379 +1     8     2     1
 Cl     1.77796498 +1  107.1855633 +1   94.2482476 +1    11     8     2
  H     1.10440181 +1  112.0494515 +1  -23.8503427 +1    11     8     2
  H     1.10201941 +1  113.1722547 +1 -147.1956825 +1    11     8     2
  H     2.62750679 +1  107.1269078 +1  -80.6724346 +1     3     1     2
  O     0.94510889 +1   63.9334276 +1   36.1556767 +1    15     3     1
  H     0.97324744 +1  106.2564568 +1  130.7429136 +1    16    15     3

 *+*+*+*+*+*+*+*+*+*+*+*+*+*+*+*+*+*+*+*+*+*+*+*+*+*+*+*+*+*+*+*+*+*+*+*+*+*+*+*+
            BAR SHORTENED BY       1.000 PERCENT
 GRADIENT CRITERION IN FLEPO =    10.000


          FOR POINT   34 FIRST  STRUCTURE
 DISTANCE A - B      3.002481
 HEAT             -308.936083
 GRADIENT NORM      16.041245
 DIRECTION COSINE    0.683889
* ===============================
* Input file for Mopac
* ===============================
 PM7 BONDS AUX DUMP=30M ITRY=15000 T=14D CHARGE=-1 SINGLET eps=78.4 RELSCF=1


  C     0.00000000 +0    0.0000000 +0    0.0000000 +0     0     0     0
  H     1.10847934 +1    0.0000000 +0    0.0000000 +0     1     0     0
  H     1.11868959 +1  107.2907540 +1    0.0000000 +0     1     2     0
  H     1.11024225 +1  108.6498502 +1 -115.8040990 +1     1     2     3
  N     1.45195999 +1  111.4858712 +1  121.6369844 +1     1     2     3
  O     1.22796396 +1  117.8219543 +1  138.8138545 +1     5     1     2
  O     1.22494783 +1  120.2375924 +1  -41.6020746 +1     5     1     2
  C     5.01291562 +1  111.2830490 +1   38.8055985 +1     2     1     3
  O     1.23938666 +1  133.0570158 +1 -158.2488246 +1     8     2     1
  O     1.24597805 +1   42.7979502 +1  104.9903049 +1     8     2     1
  C     1.52866339 +1   93.0032759 +1  -25.0217663 +1     8     2     1
 Cl     1.77457940 +1  107.1630034 +1   94.1724601 +1    11     8     2
  H     1.10386713 +1  111.9246063 +1  -24.1476182 +1    11     8     2
  H     1.10167570 +1  113.0085023 +1 -147.3358875 +1    11     8     2
  H     2.62014330 +1  107.3445824 +1  -80.9839375 +1     3     1     2
  O     0.94534768 +1   63.2879211 +1   37.1307509 +1    15     3     1
  H     0.98122160 +1  106.1501569 +1  131.0431131 +1    16    15     3

 *+*+*+*+*+*+*+*+*+*+*+*+*+*+*+*+*+*+*+*+*+*+*+*+*+*+*+*+*+*+*+*+*+*+*+*+*+*+*+*+
            BAR SHORTENED BY       1.000 PERCENT
 GRADIENT CRITERION IN FLEPO =    10.000


          FOR POINT   35 FIRST  STRUCTURE
 DISTANCE A - B      2.972456
 HEAT             -308.978921
 GRADIENT NORM      20.589136
 DIRECTION COSINE   -0.291258
* ===============================
* Input file for Mopac
* ===============================
 PM7 BONDS AUX DUMP=30M ITRY=15000 T=14D CHARGE=-1 SINGLET eps=78.4 RELSCF=1


  C     0.00000000 +0    0.0000000 +0    0.0000000 +0     0     0     0
  H     1.11285950 +1    0.0000000 +0    0.0000000 +0     1     0     0
  H     1.11462063 +1  107.6122470 +1    0.0000000 +0     1     2     0
  H     1.10946508 +1  108.4984104 +1 -116.0247694 +1     1     2     3
  N     1.45715348 +1  111.6637093 +1  121.3913976 +1     1     2     3
  O     1.21914800 +1  119.0663733 +1  138.4103680 +1     5     1     2
  O     1.22476883 +1  119.8151599 +1  -40.9121427 +1     5     1     2
  C     5.01585786 +1  110.7469045 +1   38.2557537 +1     2     1     3
  O     1.24041295 +1  134.0151806 +1 -157.4961323 +1     8     2     1
  O     1.24385327 +1   42.1638076 +1  106.4297136 +1     8     2     1
  C     1.52707471 +1   92.9335986 +1  -24.1732765 +1     8     2     1
 Cl     1.77780557 +1  108.0579835 +1   94.1831089 +1    11     8     2
  H     1.10087720 +1  111.9596280 +1  -24.3045209 +1    11     8     2
  H     1.10111845 +1  112.8600992 +1 -147.6127189 +1    11     8     2
  H     2.61961916 +1  107.6239565 +1  -81.2928129 +1     3     1     2
  O     0.96099616 +1   62.6269682 +1   38.3578239 +1    15     3     1
  H     0.96431215 +1  106.1886144 +1  131.4527317 +1    16    15     3

 TIME=     1.70
  REACTANTS AND PRODUCTS SWAPPED AROUND
 *+*+*+*+*+*+*+*+*+*+*+*+*+*+*+*+*+*+*+*+*+*+*+*+*+*+*+*+*+*+*+*+*+*+*+*+*+*+*+*+
            BAR SHORTENED BY       0.000 PERCENT
 GRADIENT CRITERION IN FLEPO =    10.000


          FOR POINT   36 SECOND STRUCTURE
 DISTANCE A - B      2.972456
 HEAT             -302.907992
 GRADIENT NORM       7.138314
 DIRECTION COSINE    0.175961
* ===============================
* Input file for Mopac
* ===============================
 PM7 BONDS AUX DUMP=30M ITRY=15000 T=14D CHARGE=-1 SINGLET eps=78.4 RELSCF=1


  C     0.00000000 +0    0.0000000 +0    0.0000000 +0     0     0     0
  H     1.07407866 +1    0.0000000 +0    0.0000000 +0     1     0     0
  H     2.15868893 +1   90.2742305 +1    0.0000000 +0     1     2     0
  H     1.07539159 +1  116.8263350 +1  -91.2465850 +1     1     2     3
  N     1.31812746 +1  121.4129570 +1   92.6764692 +1     1     2     3
  O     1.26433325 +1  121.3706773 +1  178.9371604 +1     5     1     2
  O     1.26360934 +1  121.9616703 +1   -1.9872949 +1     5     1     2
  C     3.90569326 +1  141.0893058 +1   -9.0813320 +1     3     1     2
  O     1.21092027 +1  162.7783096 +1   30.6372647 +1     8     3     1
  O     1.33667625 +1   45.5805483 +1    6.5570480 +1     8     3     1
  C     1.50115463 +1   71.8175113 +1 -165.8214469 +1     8     3     1
 Cl     1.77058344 +1  106.4882731 +1   86.4676979 +1    11     8     3
  H     1.11164070 +1  113.4464712 +1  -32.7873648 +1    11     8     3
  H     1.10521811 +1  112.2552366 +1 -155.1974314 +1    11     8     3
  H     1.54193168 +1   89.2894065 +1  -73.0501940 +1     3     1     2
  O     0.97477191 +1   37.8651534 +1  171.3145990 +1    15     3     1
  H     1.05238576 +1  113.9307498 +1  -12.6721442 +1    10     8     3

 TIME=     1.41
  REACTANTS AND PRODUCTS SWAPPED AROUND
 *+*+*+*+*+*+*+*+*+*+*+*+*+*+*+*+*+*+*+*+*+*+*+*+*+*+*+*+*+*+*+*+*+*+*+*+*+*+*+*+
            BAR SHORTENED BY       1.000 PERCENT
 GRADIENT CRITERION IN FLEPO =     4.138


          FOR POINT   37 FIRST  STRUCTURE
 DISTANCE A - B      2.942732
 HEAT             -309.070933
 GRADIENT NORM       7.391595
 DIRECTION COSINE    0.197985
* ===============================
* Input file for Mopac
* ===============================
 PM7 BONDS AUX DUMP=30M ITRY=15000 T=14D CHARGE=-1 SINGLET eps=78.4 RELSCF=1


  C     0.00000000 +0    0.0000000 +0    0.0000000 +0     0     0     0
  H     1.10808780 +1    0.0000000 +0    0.0000000 +0     1     0     0
  H     1.11629621 +1  107.5166225 +1    0.0000000 +0     1     2     0
  H     1.11002776 +1  108.4979728 +1 -116.2488933 +1     1     2     3
  N     1.45619115 +1  111.3565469 +1  121.0783358 +1     1     2     3
  O     1.22438065 +1  118.7954723 +1  138.8804543 +1     5     1     2
  O     1.22171263 +1  119.6438843 +1  -41.3289871 +1     5     1     2
  C     5.02163949 +1  110.4219155 +1   38.0937791 +1     2     1     3
  O     1.23942476 +1  134.2867294 +1 -157.7703409 +1     8     2     1
  O     1.24656144 +1   41.8490948 +1  107.1195308 +1     8     2     1
  C     1.52679521 +1   92.9525276 +1  -23.7085146 +1     8     2     1
 Cl     1.77620356 +1  107.7681004 +1   93.9519097 +1    11     8     2
  H     1.10605599 +1  111.8568691 +1  -24.6447747 +1    11     8     2
  H     1.10165098 +1  112.7267600 +1 -147.7000704 +1    11     8     2
  H     2.61534285 +1  107.4683996 +1  -81.7009739 +1     3     1     2
  O     0.95160558 +1   62.1712130 +1   38.6226526 +1    15     3     1
  H     0.98459644 +1  106.0021037 +1  130.7434345 +1    16    15     3

 *+*+*+*+*+*+*+*+*+*+*+*+*+*+*+*+*+*+*+*+*+*+*+*+*+*+*+*+*+*+*+*+*+*+*+*+*+*+*+*+
            BAR SHORTENED BY       1.000 PERCENT
 GRADIENT CRITERION IN FLEPO =     4.392


          FOR POINT   38 FIRST  STRUCTURE
 DISTANCE A - B      2.913305
 HEAT             -309.028092
 GRADIENT NORM       8.353759
 DIRECTION COSINE    0.609369
* ===============================
* Input file for Mopac
* ===============================
 PM7 BONDS AUX DUMP=30M ITRY=15000 T=14D CHARGE=-1 SINGLET eps=78.4 RELSCF=1


  C     0.00000000 +0    0.0000000 +0    0.0000000 +0     0     0     0
  H     1.10769457 +1    0.0000000 +0    0.0000000 +0     1     0     0
  H     1.11782475 +1  107.5939131 +1    0.0000000 +0     1     2     0
  H     1.11165568 +1  108.4221648 +1 -116.0291846 +1     1     2     3
  N     1.45333011 +1  111.3147715 +1  121.4029671 +1     1     2     3
  O     1.22489121 +1  118.7179755 +1  138.6753559 +1     5     1     2
  O     1.22313487 +1  119.6645101 +1  -41.0522544 +1     5     1     2
  C     5.02710849 +1  110.0966447 +1   37.2238193 +1     2     1     3
  O     1.23948015 +1  134.4635640 +1 -157.6038406 +1     8     2     1
  O     1.24580419 +1   41.2955372 +1  108.4660146 +1     8     2     1
  C     1.52668035 +1   92.9280704 +1  -23.2352196 +1     8     2     1
 Cl     1.77615397 +1  107.5483384 +1   93.7974749 +1    11     8     2
  H     1.10186713 +1  111.9482085 +1  -24.6148183 +1    11     8     2
  H     1.10245319 +1  112.8022397 +1 -147.8288527 +1    11     8     2
  H     2.60478847 +1  108.0004069 +1  -81.6411376 +1     3     1     2
  O     0.95076995 +1   61.7830082 +1   39.4626116 +1    15     3     1
  H     0.98192641 +1  106.0593138 +1  131.0536397 +1    16    15     3

 *+*+*+*+*+*+*+*+*+*+*+*+*+*+*+*+*+*+*+*+*+*+*+*+*+*+*+*+*+*+*+*+*+*+*+*+*+*+*+*+
            BAR SHORTENED BY       1.000 PERCENT
 GRADIENT CRITERION IN FLEPO =     5.354


          FOR POINT   39 FIRST  STRUCTURE
 DISTANCE A - B      2.884172
 HEAT             -308.973943
 GRADIENT NORM      10.914600
 DIRECTION COSINE    0.112561
* ===============================
* Input file for Mopac
* ===============================
 PM7 BONDS AUX DUMP=30M ITRY=15000 T=14D CHARGE=-1 SINGLET eps=78.4 RELSCF=1


  C     0.00000000 +0    0.0000000 +0    0.0000000 +0     0     0     0
  H     1.10897950 +1    0.0000000 +0    0.0000000 +0     1     0     0
  H     1.11713611 +1  107.8728701 +1    0.0000000 +0     1     2     0
  H     1.11075297 +1  108.2966495 +1 -115.6668148 +1     1     2     3
  N     1.45334680 +1  111.2834636 +1  121.7741177 +1     1     2     3
  O     1.22382231 +1  118.3935853 +1  139.0507161 +1     5     1     2
  O     1.22346890 +1  119.6634253 +1  -41.2872377 +1     5     1     2
  C     5.02849827 +1  110.0492130 +1   36.2889190 +1     2     1     3
  O     1.23789085 +1  134.8220787 +1 -157.1657341 +1     8     2     1
  O     1.25111948 +1   40.9542809 +1  109.0968432 +1     8     2     1
  C     1.52472818 +1   92.8642850 +1  -22.5772982 +1     8     2     1
 Cl     1.77407245 +1  107.0890179 +1   93.4160773 +1    11     8     2
  H     1.10431120 +1  112.1140899 +1  -25.0838512 +1    11     8     2
  H     1.10200676 +1  112.8336726 +1 -147.9913728 +1    11     8     2
  H     2.59965153 +1  108.5203976 +1  -80.9428873 +1     3     1     2
  O     0.94860767 +1   61.1842619 +1   39.7594353 +1    15     3     1
  H     0.98238613 +1  105.9096335 +1  131.4524312 +1    16    15     3

 TIME=     2.03
  REACTANTS AND PRODUCTS SWAPPED AROUND
 *+*+*+*+*+*+*+*+*+*+*+*+*+*+*+*+*+*+*+*+*+*+*+*+*+*+*+*+*+*+*+*+*+*+*+*+*+*+*+*+
            BAR SHORTENED BY       0.000 PERCENT
 GRADIENT CRITERION IN FLEPO =     7.915


          FOR POINT   40 SECOND STRUCTURE
 DISTANCE A - B      2.884172
 HEAT             -302.907992
 GRADIENT NORM       7.132126
 DIRECTION COSINE   -0.421574
* ===============================
* Input file for Mopac
* ===============================
 PM7 BONDS AUX DUMP=30M ITRY=15000 T=14D CHARGE=-1 SINGLET eps=78.4 RELSCF=1


  C     0.00000000 +0    0.0000000 +0    0.0000000 +0     0     0     0
  H     1.07407866 +1    0.0000000 +0    0.0000000 +0     1     0     0
  H     2.15868893 +1   90.2742305 +1    0.0000000 +0     1     2     0
  H     1.07539159 +1  116.8263350 +1  -91.2465850 +1     1     2     3
  N     1.31812746 +1  121.4129570 +1   92.6764692 +1     1     2     3
  O     1.26433325 +1  121.3706773 +1  178.9371604 +1     5     1     2
  O     1.26360934 +1  121.9616703 +1   -1.9872949 +1     5     1     2
  C     3.90569326 +1  141.0893058 +1   -9.0813320 +1     3     1     2
  O     1.21092027 +1  162.7783096 +1   30.6372647 +1     8     3     1
  O     1.33667625 +1   45.5805483 +1    6.5570480 +1     8     3     1
  C     1.50115463 +1   71.8175113 +1 -165.8214469 +1     8     3     1
 Cl     1.77058344 +1  106.4882731 +1   86.4676979 +1    11     8     3
[...]
  H     1.51315355 +1   92.2344777 +1    0.0000000 +0     1     2     0
  H     1.08482209 +1  114.8153307 +1  -96.6867539 +1     1     2     3
  N     1.36407723 +1  118.4711827 +1  116.0704733 +1     1     2     3
  O     1.24395915 +1  120.8507296 +1  161.6659062 +1     5     1     2
  O     1.24333547 +1  120.9568571 +1  -20.0269580 +1     5     1     2
  C     4.09971466 +1  154.8877857 +1    5.1142085 +1     3     1     2
  O     1.22736194 +1  158.7098662 +1    6.5385914 +1     8     3     1
  O     1.28049387 +1   36.7417338 +1  -10.1847313 +1     8     3     1
  C     1.51758427 +1   80.5857120 +1  176.5707039 +1     8     3     1
 Cl     1.77421429 +1  105.9409176 +1   86.4029904 +1    11     8     3
  H     1.10815812 +1  113.1097442 +1  -31.7909319 +1    11     8     3
  H     1.10461978 +1  112.8749629 +1 -155.4915990 +1    11     8     3
  H     1.67532809 +1  125.3225633 +1  -88.5229228 +1     3     1     2
  O     0.98171153 +1   41.9723204 +1 -177.4425626 +1    15     3     1
  H     1.15771234 +1  102.4995171 +1 -117.6031836 +1    16    15     3

 *+*+*+*+*+*+*+*+*+*+*+*+*+*+*+*+*+*+*+*+*+*+*+*+*+*+*+*+*+*+*+*+*+*+*+*+*+*+*+*+
            BAR SHORTENED BY       1.000 PERCENT
 GRADIENT CRITERION IN FLEPO =     2.745
           THERE HAVE BEEN 3 ATTEMPTS TO REDUCE THE GRADIENT.
           DURING THESE ATTEMPTS THE ENERGY DROPPED BY LESS THAN 0.3 KCAL/MOLE
           FURTHER CALCULATION IS NOT JUSTIFIED AT THIS TIME.
           TO CONTINUE, START AGAIN WITH THE WORD "PRECISE"


          FOR POINT  437 SECOND STRUCTURE
 DISTANCE A - B      0.101517
 HEAT             -294.961183
 GRADIENT NORM       7.407672
 DIRECTION COSINE    0.247242
* ===============================
* Input file for Mopac
* ===============================
 PM7 BONDS AUX DUMP=30M ITRY=15000 T=14D CHARGE=-1 SINGLET eps=78.4 RELSCF=1


  C     0.00000000 +0    0.0000000 +0    0.0000000 +0     0     0     0
  H     1.08143916 +1    0.0000000 +0    0.0000000 +0     1     0     0
  H     1.51399586 +1   92.7024483 +1    0.0000000 +0     1     2     0
  H     1.08287496 +1  115.1151026 +1  -96.7853368 +1     1     2     3
  N     1.36616697 +1  118.4169645 +1  115.8607647 +1     1     2     3
  O     1.24213633 +1  120.8195593 +1  161.9614914 +1     5     1     2
  O     1.24430533 +1  120.9326849 +1  -20.1591331 +1     5     1     2
  C     4.09911456 +1  154.5154018 +1    4.7126372 +1     3     1     2
  O     1.22715004 +1  158.5957862 +1    6.4199988 +1     8     3     1
  O     1.27944830 +1   37.0083958 +1   -9.8257524 +1     8     3     1
  C     1.51645475 +1   80.7052601 +1  176.7446281 +1     8     3     1
 Cl     1.77430795 +1  105.8414694 +1   86.3623547 +1    11     8     3
  H     1.10736210 +1  113.1586155 +1  -31.6753851 +1    11     8     3
  H     1.10381204 +1  112.8956724 +1 -155.7544462 +1    11     8     3
  H     1.67789864 +1  125.3976009 +1  -88.6724279 +1     3     1     2
  O     0.98130173 +1   41.8708993 +1 -177.8766987 +1    15     3     1
  H     1.15481789 +1  102.5943738 +1 -117.4358267 +1    16    15     3

 TIME=     0.30
  REACTANTS AND PRODUCTS SWAPPED AROUND
 *+*+*+*+*+*+*+*+*+*+*+*+*+*+*+*+*+*+*+*+*+*+*+*+*+*+*+*+*+*+*+*+*+*+*+*+*+*+*+*+
            BAR SHORTENED BY       0.000 PERCENT
 GRADIENT CRITERION IN FLEPO =     4.408


          FOR POINT  438 FIRST  STRUCTURE
 DISTANCE A - B      0.101517
 HEAT             -294.929475
 GRADIENT NORM      23.716030
 DIRECTION COSINE    0.096410
* ===============================
* Input file for Mopac
* ===============================
 PM7 BONDS AUX DUMP=30M ITRY=15000 T=14D CHARGE=-1 SINGLET eps=78.4 RELSCF=1


  C     0.00000000 +0    0.0000000 +0    0.0000000 +0     0     0     0
  H     1.09156251 +1    0.0000000 +0    0.0000000 +0     1     0     0
  H     1.39420464 +1   95.7259251 +1    0.0000000 +0     1     2     0
  H     1.08872882 +1  113.6519734 +1 -101.7822122 +1     1     2     3
  N     1.38910413 +1  116.7485150 +1  118.3313626 +1     1     2     3
  O     1.23721729 +1  120.4194868 +1  158.2050334 +1     5     1     2
  O     1.23621293 +1  120.5784366 +1  -23.9081652 +1     5     1     2
  C     4.16649780 +1  154.8630500 +1    3.3952069 +1     3     1     2
  O     1.22938103 +1  158.7687030 +1    8.3706394 +1     8     3     1
  O     1.27322243 +1   37.0141101 +1   -8.2635992 +1     8     3     1
  C     1.52039173 +1   80.9792306 +1  178.3780303 +1     8     3     1
 Cl     1.77585402 +1  105.8810623 +1   86.5776076 +1    11     8     3
  H     1.10757389 +1  113.2145559 +1  -31.5002995 +1    11     8     3
  H     1.10264909 +1  112.9122823 +1 -155.5170759 +1    11     8     3
  H     1.73525409 +1  126.8181979 +1  -88.2805073 +1     3     1     2
  O     0.97530004 +1   44.4888985 +1 -178.2456921 +1    15     3     1
  H     1.10736370 +1  103.2069194 +1 -116.7255240 +1    16    15     3

 TIME=     0.12
  REACTANTS AND PRODUCTS SWAPPED AROUND
 *+*+*+*+*+*+*+*+*+*+*+*+*+*+*+*+*+*+*+*+*+*+*+*+*+*+*+*+*+*+*+*+*+*+*+*+*+*+*+*+
            BAR SHORTENED BY       1.000 PERCENT
 GRADIENT CRITERION IN FLEPO =    10.000


          FOR POINT  439 SECOND STRUCTURE
 DISTANCE A - B      0.100502
 HEAT             -294.964819
 GRADIENT NORM       7.415494
 DIRECTION COSINE    0.096119
* ===============================
* Input file for Mopac
* ===============================
 PM7 BONDS AUX DUMP=30M ITRY=15000 T=14D CHARGE=-1 SINGLET eps=78.4 RELSCF=1


  C     0.00000000 +0    0.0000000 +0    0.0000000 +0     0     0     0
  H     1.08152538 +1    0.0000000 +0    0.0000000 +0     1     0     0
  H     1.51279741 +1   92.7329200 +1    0.0000000 +0     1     2     0
  H     1.08291884 +1  115.1026892 +1  -96.8362693 +1     1     2     3
  N     1.36639210 +1  118.4012758 +1  115.8871638 +1     1     2     3
  O     1.24208609 +1  120.8155091 +1  161.9228986 +1     5     1     2
  O     1.24422299 +1  120.9290670 +1  -20.1982033 +1     5     1     2
  C     4.09978749 +1  154.5190003 +1    4.7007330 +1     3     1     2
  O     1.22717185 +1  158.5974726 +1    6.4384757 +1     8     3     1
  O     1.27938582 +1   37.0083937 +1   -9.8112609 +1     8     3     1
  C     1.51649412 +1   80.7080491 +1  176.7599163 +1     8     3     1
 Cl     1.77432341 +1  105.8418658 +1   86.3645441 +1    11     8     3
  H     1.10736421 +1  113.1591759 +1  -31.6735974 +1    11     8     3
  H     1.10380041 +1  112.8958368 +1 -155.7520359 +1    11     8     3
  H     1.67846247 +1  125.4128487 +1  -88.6681836 +1     3     1     2
  O     0.98124099 +1   41.8976755 +1 -177.8806676 +1    15     3     1
  H     1.15434191 +1  102.6004824 +1 -117.4294591 +1    16    15     3

 *+*+*+*+*+*+*+*+*+*+*+*+*+*+*+*+*+*+*+*+*+*+*+*+*+*+*+*+*+*+*+*+*+*+*+*+*+*+*+*+
            BAR SHORTENED BY       1.000 PERCENT
 AT END OF STEPWISE ASCENT OF REACTION BARRIER

 -------------------------------------------------------------------------------
 PM7 BONDS AUX DUMP=30M ITRY=15000 T=14D CHARGE=-1 SINGLET eps=78.4 RELSCF=1




     TRANSITION STATE LOCATED USING THE "SADDLE" TECHNIQUE    
     SCF FIELD WAS ACHIEVED                                   


                              PM7 CALCULATION
                                                       MOPAC v22.0.6 Linux
                                                       Tue Mar 26 12:10:10 2024




          FINAL HEAT OF FORMATION =       -294.96482 KCAL/MOL =   -1234.13280 KJ/MOL
          VAN DER WAALS AREA      =        197.87 SQUARE ANGSTROMS



          DIELECTRIC ENERGY       =         -2.95634 EV
          COSMO AREA              =        197.87 SQUARE ANGSTROMS
          COSMO VOLUME            =        186.39 CUBIC ANGSTROMS

          GRADIENT NORM           =          7.56469          =       1.83471 PER ATOM
          IONIZATION POTENTIAL    =         10.280020 EV
          HOMO LUMO ENERGIES (EV) =        -10.280  0.074
          NO. OF FILLED LEVELS    =         31
          MOLECULAR WEIGHT        =        172.5450         POINT GROUP:  C1  

          MOLECULAR DIMENSIONS (Angstroms)

            Atom       Atom       Distance
            O     9    O     6     8.22708
            O     7   Cl    12     4.83437
            H     2    H    14     3.78921


          SCF CALCULATIONS        =       2497

          WALL-CLOCK TIME         =          2 MINUTES AND 21.617 SECONDS
          COMPUTATION TIME        =         21 MINUTES AND 14.401 SECONDS



       FINAL  POINT  AND  DERIVATIVES

   PARAMETER     ATOM    TYPE            VALUE        GRADIENT
      1          1  C    CARTESIAN X     0.769897     -1.526778  KCAL/ANGSTROM
      2          1  C    CARTESIAN Y    -0.679428      2.056620  KCAL/ANGSTROM
      3          1  C    CARTESIAN Z     0.586685      1.516350  KCAL/ANGSTROM
      4          2  H    CARTESIAN X     1.128968      0.830417  KCAL/ANGSTROM
      5          2  H    CARTESIAN Y    -1.647949     -0.859299  KCAL/ANGSTROM
      6          2  H    CARTESIAN Z     0.234134      0.100449  KCAL/ANGSTROM
      7          3  H    CARTESIAN X     1.995011      0.329948  KCAL/ANGSTROM
      8          3  H    CARTESIAN Y    -0.023380      0.337278  KCAL/ANGSTROM
      9          3  H    CARTESIAN Z     0.460948     -0.184647  KCAL/ANGSTROM
     10          4  H    CARTESIAN X     0.667996     -0.103554  KCAL/ANGSTROM
     11          4  H    CARTESIAN Y    -0.618623     -0.165237  KCAL/ANGSTROM
     12          4  H    CARTESIAN Z     1.668855     -0.291055  KCAL/ANGSTROM
     13          5  N    CARTESIAN X    -0.228392     -1.956741  KCAL/ANGSTROM
     14          5  N    CARTESIAN Y    -0.071571      0.366248  KCAL/ANGSTROM
     15          5  N    CARTESIAN Z    -0.163579     -1.693488  KCAL/ANGSTROM
     16          6  O    CARTESIAN X    -0.959556     -1.040489  KCAL/ANGSTROM
     17          6  O    CARTESIAN Y     0.787137      0.330089  KCAL/ANGSTROM
     18          6  O    CARTESIAN Z     0.345188      0.267207  KCAL/ANGSTROM
     19          7  O    CARTESIAN X    -0.375272     -0.702046  KCAL/ANGSTROM
     20          7  O    CARTESIAN Y    -0.350988     -0.294489  KCAL/ANGSTROM
     21          7  O    CARTESIAN Z    -1.358890      0.663906  KCAL/ANGSTROM
     22          8  C    CARTESIAN X     6.020307      4.294051  KCAL/ANGSTROM
     23          8  C    CARTESIAN Y     0.283913      1.330246  KCAL/ANGSTROM
     24          8  C    CARTESIAN Z    -0.567010     -0.508087  KCAL/ANGSTROM
     25          9  O    CARTESIAN X     7.107548     -0.303756  KCAL/ANGSTROM
     26          9  O    CARTESIAN Y    -0.030095      0.735352  KCAL/ANGSTROM
     27          9  O    CARTESIAN Z    -1.047247      0.793859  KCAL/ANGSTROM
     28         10  O    CARTESIAN X     5.060535     -2.427151  KCAL/ANGSTROM
     29         10  O    CARTESIAN Y    -0.544979     -2.009539  KCAL/ANGSTROM
     30         10  O    CARTESIAN Z    -0.452871      0.571430  KCAL/ANGSTROM
     31         11  C    CARTESIAN X     5.790294      0.525618  KCAL/ANGSTROM
     32         11  C    CARTESIAN Y     1.704534      0.488232  KCAL/ANGSTROM
     33         11  C    CARTESIAN Z    -0.076702      0.008079  KCAL/ANGSTROM
     34         12 Cl    CARTESIAN X     6.058532      0.133571  KCAL/ANGSTROM
     35         12 Cl    CARTESIAN Y     1.662310      0.201165  KCAL/ANGSTROM
     36         12 Cl    CARTESIAN Z     1.678254      0.664575  KCAL/ANGSTROM
     37         13  H    CARTESIAN X     4.758996     -0.410884  KCAL/ANGSTROM
     38         13  H    CARTESIAN Y     2.066575      0.509742  KCAL/ANGSTROM
     39         13  H    CARTESIAN Z    -0.255769     -0.052474  KCAL/ANGSTROM
     40         14  H    CARTESIAN X     6.499110     -0.716604  KCAL/ANGSTROM
     41         14  H    CARTESIAN Y     2.428749     -0.109229  KCAL/ANGSTROM
     42         14  H    CARTESIAN Z    -0.511389      0.500927  KCAL/ANGSTROM
     43         15  H    CARTESIAN X     3.248266      0.176194  KCAL/ANGSTROM
     44         15  H    CARTESIAN Y     0.075774     -0.627354  KCAL/ANGSTROM
     45         15  H    CARTESIAN Z     1.656198      0.102874  KCAL/ANGSTROM
     46         16  O    CARTESIAN X     3.116382      0.748772  KCAL/ANGSTROM
     47         16  O    CARTESIAN Y     0.425296      0.867576  KCAL/ANGSTROM
     48         16  O    CARTESIAN Z     0.755218     -0.728087  KCAL/ANGSTROM
     49         17  H    CARTESIAN X     3.927929     -0.890666  KCAL/ANGSTROM
     50         17  H    CARTESIAN Y    -0.056959     -0.352776  KCAL/ANGSTROM
     51         17  H    CARTESIAN Z     0.175466      0.167882  KCAL/ANGSTROM




   ATOM   CHEMICAL          X               Y               Z
  NUMBER   SYMBOL      (ANGSTROMS)     (ANGSTROMS)     (ANGSTROMS)

     1       C          0.76989680  *  -0.67942832  *   0.58668530  *
     2       H          1.12896801  *  -1.64794937  *   0.23413373  *
     3       H          1.99501069  *  -0.02338013  *   0.46094768  *
     4       H          0.66799590  *  -0.61862278  *   1.66885521  *
     5       N         -0.22839191  *  -0.07157052  *  -0.16357905  *
     6       O         -0.95955621  *   0.78713740  *   0.34518811  *
     7       O         -0.37527247  *  -0.35098765  *  -1.35889039  *
     8       C          6.02030728  *   0.28391273  *  -0.56700976  *
     9       O          7.10754833  *  -0.03009526  *  -1.04724727  *
    10       O          5.06053517  *  -0.54497907  *  -0.45287123  *
    11       C          5.79029395  *   1.70453386  *  -0.07670174  *
    12      Cl          6.05853153  *   1.66231027  *   1.67825379  *
    13       H          4.75899552  *   2.06657473  *  -0.25576944  *
    14       H          6.49910997  *   2.42874859  *  -0.51138929  *
    15       H          3.24826609  *   0.07577384  *   1.65619807  *
    16       O          3.11638169  *   0.42529566  *   0.75521768  *
    17       H          3.92792938  *  -0.05695908  *   0.17546558  *

                             CARTESIAN COORDINATES

   1    C        0.769896797    -0.679428318     0.586685298
   2    H        1.128968012    -1.647949369     0.234133726
   3    H        1.995010694    -0.023380128     0.460947677
   4    H        0.667995896    -0.618622782     1.668855214
   5    N       -0.228391912    -0.071570519    -0.163579053
   6    O       -0.959556213     0.787137398     0.345188113
   7    O       -0.375272472    -0.350987646    -1.358890387
   8    C        6.020307279     0.283912733    -0.567009759
   9    O        7.107548331    -0.030095262    -1.047247274
  10    O        5.060535172    -0.544979069    -0.452871230
  11    C        5.790293949     1.704533863    -0.076701740
  12   Cl        6.058531529     1.662310266     1.678253785
  13    H        4.758995524     2.066574725    -0.255769441
  14    H        6.499109967     2.428748586    -0.511389294
  15    H        3.248266088     0.075773836     1.656198067
  16    O        3.116381694     0.425295664     0.755217681
  17    H        3.927929385    -0.056959076     0.175465585


           Empirical Formula: C3 H7 N O5 Cl  =    17 atoms



      MOLECULAR POINT GROUP   :   C1  


                  EIGENVALUES  
 -36.74864 -30.73718 -29.67887 -29.61125 -28.62546 -27.35851 -26.93763 -23.82770
 -22.02040 -19.68568 -18.11795 -18.08478 -17.68493 -17.38325 -16.40485 -16.05447
 -15.77042 -15.35797 -14.20392 -14.00406 -13.90418 -13.76328 -11.93613 -11.66664
 -11.64797 -11.56211 -11.47822 -11.45529 -11.29696 -10.73886 -10.28002   0.07373
   0.12453   1.38003   1.68409   2.62992   3.04000   4.42288   4.43830   4.71869
   4.98658   5.37947   5.53507   5.54440   5.85576   6.29050   6.43336  69.79152
  69.83516  69.95302  70.25119  70.26013


              NET ATOMIC CHARGES AND DIPOLE CONTRIBUTIONS

  ATOM NO.   TYPE          CHARGE      No. of ELECS.   s-Pop       p-Pop       d-Pop       
    1          C          -0.651654        4.6517     1.09582     3.55584
    2          H           0.206476        0.7935     0.79352
    3          H           0.403567        0.5964     0.59643
    4          H           0.199938        0.8001     0.80006
    5          N           0.762050        4.2380     1.42542     2.81253
    6          O          -0.578602        6.5786     1.94203     4.63657
    7          O          -0.573736        6.5737     1.94170     4.63203
    8          C           0.741849        3.2582     1.07796     2.18019
    9          O          -0.741031        6.7410     1.87891     4.86212
   10          O          -0.782954        6.7830     1.87456     4.90839
   11          C          -0.301733        4.3017     1.12965     3.17208
   12         Cl          -0.162820        7.1628     1.98353     5.17192     0.00737
   13          H           0.203992        0.7960     0.79601
   14          H           0.191550        0.8085     0.80845
   15          H           0.381961        0.6180     0.61804
   16          O          -0.736057        6.7361     1.82659     4.90946
   17          H           0.437203        0.5628     0.56280
 DIPOLE           X         Y         Z       TOTAL
 POINT-CHG.     0.842     2.784     6.190     6.839
 HYBRID        -0.585    -0.318    -0.157     0.684
 SUM            0.257     2.466     6.033     6.523


          ATOMIC ORBITAL ELECTRON POPULATIONS

     Atom    s        px        py        pz      x^2-y^2     xz        z^2       yz        xy
    1  C   1.09582   1.17477   1.25436   1.12670
    2  H   0.79352
    3  H   0.59643
    4  H   0.80006
    5  N   1.42542   0.94123   0.92118   0.95012
    6  O   1.94203   1.51471   1.36856   1.75329
    7  O   1.94170   1.80667   1.73830   1.08707
    8  C   1.07796   0.73350   0.79302   0.65366
    9  O   1.87891   1.40385   1.85834   1.59993
   10  O   1.87456   1.52503   1.63309   1.75028
   11  C   1.12965   1.20809   1.11014   0.85385
   12 Cl   1.98353   1.97898   1.99321   1.19974   0.00042   0.00133   0.00324   0.00191   0.00047
   13  H   0.79601
   14  H   0.80845
   15  H   0.61804
   16  O   1.82659   1.64228   1.78981   1.47738
   17  H   0.56280

          BONDING CONTRIBUTION OF EACH M.O.

  1.3851  1.3786  0.9504  1.0603  1.0209  0.9623  1.1692  0.8457  1.0583  1.0195
  1.4349  1.0879  1.5055  1.4951  1.2305  1.2070  1.4250  1.2090  1.2722  1.3488
  1.1154  1.5392  0.2138  0.7051  0.6021  0.3973  0.4927  0.2628  0.3098  0.6312
  0.9079 -2.3251 -1.9898 -2.1323 -1.8434 -2.1968 -1.9110 -1.9081 -1.9269 -1.9033
 -1.9240 -1.9106 -1.8552 -1.8136 -1.9528 -1.7474 -1.8789 -0.0070 -0.0064 -0.0059
 -0.0024 -0.0026





            (VALENCIES)   BOND ORDERS

     1  C     (3.644)     5  N 1.049     4  H 0.939     2  H 0.933     3  H 0.455     7  O 0.094     6  O 0.093
                         16  O 0.068

     2  H     (0.957)     1  C 0.933

     3  H     (0.837)     1  C 0.455    16  O 0.337     5  N 0.012

     4  H     (0.960)     1  C 0.939

     5  N     (3.791)     7  O 1.357     6  O 1.355     1  C 1.049     3  H 0.012    16  O 0.011

     6  O     (1.704)     5  N 1.355     7  O 0.228     1  C 0.093

     7  O     (1.707)     5  N 1.357     6  O 0.228     1  C 0.094

     8  C     (3.739)     9  O 1.516    10  O 1.279    11  C 0.920    12 Cl 0.015

     9  O     (1.744)     8  C 1.516    10  O 0.151    11  C 0.052    12 Cl 0.012

    10  O     (1.762)     8  C 1.279    17  H 0.205     9  O 0.151    16  O 0.057    11  C 0.050

    11  C     (3.883)    12 Cl 0.961    14  H 0.953    13  H 0.945     8  C 0.920     9  O 0.052    10  O 0.050

    12 Cl     (1.005)    11  C 0.961     8  C 0.015     9  O 0.012

    13  H     (0.958)    11  C 0.945

    14  H     (0.963)    11  C 0.953

    15  H     (0.854)    16  O 0.841

    16  O     (1.925)    15  H 0.841    17  H 0.586     3  H 0.337     1  C 0.068    10  O 0.057     5  N 0.011

    17  H     (0.809)    16  O 0.586    10  O 0.205


 **********************
 *                    *
 * JOB ENDED NORMALLY *
 *                    *
 **********************



 TOTAL JOB TIME:           141.64 SECONDS

 == MOPAC DONE ==
