 *******************************************************************************
 **                                                                           **
 **                              MOPAC v22.1.0                                **
 **                                                                           **
 *******************************************************************************
 **          Digital Object Identifier (DOI): 10.5281/zenodo.6511958          **
 **    Visit the DOI location for information on how to cite this program.    **
 *******************************************************************************

                              PM7 CALCULATION RESULTS

 *******************************************************************************
 *  CALCULATION DONE:                                Sat Mar 23 14:18:00 2024  *
 *  PM7        - The PM7 Hamiltonian to be used
 *  SINGLET    - SPIN STATE DEFINED AS A SINGLET
 *
 *
 *
 *                 CHARGE ON SYSTEM = -1
 *
 *
 *
 *  EPS=78.4   - USE ANDREAS KLAMT'S COSMO IMPLICIT SOLVATION MODEL
 *  THREADS    - USE A MAXIMUM OF 40 THREADS
 *  T=         - A TIME OF 14.0 DAYS REQUESTED
 *  DUMP=N     - RESTART FILE WRITTEN EVERY 30.0 MINUTES REQUESTED
 *  ITRY=      - DO A MAXIMUM OF 15000 ITERATIONS FOR SCF
 *  AUX        - OUTPUT AUXILIARY INFORMATION
 *  PL         - MONITOR CONVERGENCE IN DENSITY MATRIX
 *******************************************************************************
PM7 CHARGE=-1 SINGLET AUX DUMP=30M ITRY=15000 eps=78.4 T=14D PL THREADS=40

 Mopac file generated by Gabedit
   ATOM   CHEMICAL          X               Y               Z
  NUMBER   SYMBOL      (ANGSTROMS)     (ANGSTROMS)     (ANGSTROMS)

     1       C          0.40301000  *  -0.82290000  *   0.41311000  *
     2       H          0.70160000  *  -1.49845000  *  -0.41467000  *
     3       H          0.91675000  *   0.15147000  *   0.25044000  *
     4       H          0.78473000  *  -1.24329000  *   1.36644000  *
     5       N         -1.04195000  *  -0.62966000  *   0.45178000  *
     6       O         -1.58304000  *  -0.39614000  *   1.52286000  *
     7       O         -1.67965000  *  -0.69716000  *  -0.58900000  *
     8       C          0.24191000  *   3.81530900  *  -3.05742000  *
     9       O          1.13711500  *   3.28590500  *  -3.74040200  *
    10       O          0.41776000  *   4.66144800  *  -2.17281800  *
    11       C         -1.17910600  *   3.34423500  *  -3.38244300  *
    12      Cl         -2.35596200  *   4.18826800  *  -2.35100400  *
    13       H         -1.29911200  *   2.26399200  *  -3.19939200  *
    14       H         -1.44680400  *   3.55970000  *  -4.43014900  *
    15       H         -0.67918300  *   0.98993800  *  -2.05442500  *
    16       O          0.04435500  *   1.09892900  *  -1.80205700  *
    17       H          0.52579300  *   1.01144000  *  -1.24348200  *



          CARTESIAN COORDINATES 

    NO.       ATOM           X           Y           Z

     1         C          0.4030     -0.8229      0.4131
     2         H          0.7016     -1.4985     -0.4147
     3         H          0.9168      0.1515      0.2504
     4         H          0.7847     -1.2433      1.3664
     5         N         -1.0419     -0.6297      0.4518
     6         O         -1.5830     -0.3961      1.5229
     7         O         -1.6797     -0.6972     -0.5890
     8         C          0.2419      3.8153     -3.0574
     9         O          1.1371      3.2859     -3.7404
    10         O          0.4178      4.6614     -2.1728
    11         C         -1.1791      3.3442     -3.3824
    12        Cl         -2.3560      4.1883     -2.3510
    13         H         -1.2991      2.2640     -3.1994
    14         H         -1.4468      3.5597     -4.4301
    15         H         -0.6792      0.9899     -2.0544
    16         O          0.0444      1.0989     -1.8021
    17         H          0.5258      1.0114     -1.2435

 General Reference for PM7:
 "Optimization of Parameters for Semiempirical Methods VI: More Modifications to the 
 NDDO Approximations and Re-optimization of Parameters", J. J. P. Stewart, J. Mol. Mod., 1:32, 19 (2013)
 https://link.springer.com/article/10.1007/s00894-012-1667-x

           Empirical Formula: C3 H7 N O5 Cl  =    17 atoms



      MOLECULAR POINT GROUP   :   C1  


 SINGLET STATE CALCULATION


      RHF CALCULATION, NO. OF DOUBLY OCCUPIED LEVELS = 31


          Geometry optimization using EF
 ITERATION   1 PLS= 0.100E+01 0.000E+00 ENERGY     7686.284261 DELTAE 7586.2842613
 ITERATION   2 PLS= 0.122E+01 0.000E+00 ENERGY       -5.649409 DELTAE-7691.9336706
 ITERATION   3 PLS= 0.104E+00 0.000E+00 ENERGY     -105.090884 DELTAE  -99.4414743
 ITERATION   4 PLS= 0.663E-01 0.000E+00 ENERGY     -291.940537 DELTAE -186.8496533
 ITERATION   5 PLS= 0.246E-01 0.000E+00 ENERGY     -181.916746 DELTAE  110.0237907
 ITERATION   6 PLS= 0.264E-01 0.000E+00 ENERGY     -185.818595 DELTAE   -3.9018486
 ITERATION   7 PLS= 0.156E-01 0.000E+00 ENERGY     -188.858548 DELTAE   -3.0399535
 ITERATION   8 PLS= 0.507E-02 0.000E+00 ENERGY     -187.190297 DELTAE    1.6682511
 ITERATION   9 PLS= 0.220E-02 0.000E+00 ENERGY     -187.198342 DELTAE   -0.0080445
 ITERATION  10 PLS= 0.932E-03 0.000E+00 ENERGY     -187.202985 DELTAE   -0.0046427
 ITERATION  11 PLS= 0.258E-03 0.000E+00 ENERGY     -187.200907 DELTAE    0.0020772
 ITERATION  12 PLS= 0.142E-03 0.000E+00 ENERGY     -187.200936 DELTAE   -0.0000285
 ITERATION   1 PLS= 0.816E-04 0.000E+00 ENERGY     -270.076697 DELTAE -370.0766973
 ITERATION   2 PLS= 0.327E-01 0.000E+00 ENERGY     -273.170820 DELTAE   -3.0941222
 ITERATION   3 PLS= 0.144E-01 0.000E+00 ENERGY     -273.939904 DELTAE   -0.7690848
 ITERATION   4 PLS= 0.680E-02 0.000E+00 ENERGY     -274.596678 DELTAE   -0.6567735
 ITERATION   5 PLS= 0.106E-02 0.000E+00 ENERGY     -274.273292 DELTAE    0.3233856
 ITERATION   6 PLS= 0.701E-03 0.000E+00 ENERGY     -274.275265 DELTAE   -0.0019731
 ITERATION   7 PLS= 0.425E-03 0.000E+00 ENERGY     -274.277980 DELTAE   -0.0027144
 ITERATION   8 PLS= 0.766E-04 0.000E+00 ENERGY     -274.276347 DELTAE    0.0016323

          DIAGONAL MATRIX USED AS START HESSIAN

 CYCLE:     1 TIME:   0.078 TIME LEFT:  2.00W  GRAD.:   169.483 HEAT: -274.2763
 ITERATION   1 PLS= 0.348E-04 0.000E+00 ENERGY     -270.684658 DELTAE -370.6846582
 ITERATION   2 PLS= 0.107E+00 0.000E+00 ENERGY     -283.604935 DELTAE  -12.9202771
 ITERATION   3 PLS= 0.378E-01 0.000E+00 ENERGY     -285.767971 DELTAE   -2.1630361
 ITERATION   4 PLS= 0.164E-01 0.000E+00 ENERGY     -287.160193 DELTAE   -1.3922212
 ITERATION   5 PLS= 0.438E-02 0.000E+00 ENERGY     -286.573039 DELTAE    0.5871538
 ITERATION   6 PLS= 0.210E-02 0.000E+00 ENERGY     -286.581095 DELTAE   -0.0080562
 CYCLE:     2 TIME:   0.027 TIME LEFT:  2.00W  GRAD.:   117.294 HEAT: -286.5902
 ITERATION   1 PLS= 0.121E-02 0.000E+00 ENERGY     -249.529427 DELTAE -349.5294272
 ITERATION   2 PLS= 0.741E-01 0.000E+00 ENERGY     -272.136946 DELTAE  -22.6075188
 ITERATION   3 PLS= 0.283E-01 0.000E+00 ENERGY     -275.457529 DELTAE   -3.3205833
 ITERATION   4 PLS= 0.136E-01 0.000E+00 ENERGY     -278.005108 DELTAE   -2.5475784
 ITERATION   5 PLS= 0.556E-02 0.000E+00 ENERGY     -276.695368 DELTAE    1.3097400
 ITERATION   6 PLS= 0.239E-02 0.000E+00 ENERGY     -276.705800 DELTAE   -0.0104320
 ITERATION   7 PLS= 0.143E-02 0.000E+00 ENERGY     -276.717457 DELTAE   -0.0116569
 ITERATION   1 PLS= 0.184E-03 0.000E+00 ENERGY     -281.271374 DELTAE -381.2713737
 ITERATION   2 PLS= 0.330E-01 0.000E+00 ENERGY     -289.064839 DELTAE   -7.7934652
 ITERATION   3 PLS= 0.129E-01 0.000E+00 ENERGY     -290.151080 DELTAE   -1.0862408
 ITERATION   4 PLS= 0.641E-02 0.000E+00 ENERGY     -290.874420 DELTAE   -0.7233403
 ITERATION   5 PLS= 0.190E-02 0.000E+00 ENERGY     -290.508379 DELTAE    0.3660406
 ITERATION   6 PLS= 0.109E-02 0.000E+00 ENERGY     -290.511075 DELTAE   -0.0026952
 CYCLE:     3 TIME:   0.031 TIME LEFT:  2.00W  GRAD.:   108.130 HEAT: -290.5139
 ITERATION   1 PLS= 0.653E-03 0.000E+00 ENERGY     -276.116351 DELTAE -376.1163505
 ITERATION   2 PLS= 0.328E-01 0.000E+00 ENERGY     -286.695501 DELTAE  -10.5791507
 ITERATION   3 PLS= 0.139E-01 0.000E+00 ENERGY     -288.007166 DELTAE   -1.3116652
 ITERATION   4 PLS= 0.899E-02 0.000E+00 ENERGY     -288.907027 DELTAE   -0.8998605
 ITERATION   5 PLS= 0.322E-02 0.000E+00 ENERGY     -288.449294 DELTAE    0.4577327
 ITERATION   6 PLS= 0.140E-02 0.000E+00 ENERGY     -288.452952 DELTAE   -0.0036576
 ITERATION   1 PLS= 0.826E-03 0.000E+00 ENERGY     -290.166617 DELTAE -390.1666167
 ITERATION   2 PLS= 0.160E-01 0.000E+00 ENERGY     -292.364056 DELTAE   -2.1974391
 ITERATION   3 PLS= 0.758E-02 0.000E+00 ENERGY     -292.659478 DELTAE   -0.2954223
 ITERATION   4 PLS= 0.449E-02 0.000E+00 ENERGY     -292.886493 DELTAE   -0.2270153
 ITERATION   5 PLS= 0.153E-02 0.000E+00 ENERGY     -292.767686 DELTAE    0.1188076
 ITERATION   6 PLS= 0.697E-03 0.000E+00 ENERGY     -292.768564 DELTAE   -0.0008780
 CYCLE:     4 TIME:   0.027 TIME LEFT:  2.00W  GRAD.:    81.098 HEAT: -292.7694
 ITERATION   1 PLS= 0.400E-03 0.000E+00 ENERGY     -294.010671 DELTAE -394.0106714
 ITERATION   2 PLS= 0.119E-01 0.000E+00 ENERGY     -295.113230 DELTAE   -1.1025583
 ITERATION   3 PLS= 0.880E-02 0.000E+00 ENERGY     -295.341710 DELTAE   -0.2284802
 ITERATION   4 PLS= 0.600E-02 0.000E+00 ENERGY     -295.686378 DELTAE   -0.3446685
 ITERATION   5 PLS= 0.882E-03 0.000E+00 ENERGY     -295.452483 DELTAE    0.2338952
 ITERATION   6 PLS= 0.318E-03 0.000E+00 ENERGY     -295.453343 DELTAE   -0.0008601
 CYCLE:     5 TIME:   0.016 TIME LEFT:  2.00W  GRAD.:    39.904 HEAT: -295.4538
 ITERATION   1 PLS= 0.166E-03 0.000E+00 ENERGY     -290.893762 DELTAE -390.8937622
 ITERATION   2 PLS= 0.280E-01 0.000E+00 ENERGY     -294.186019 DELTAE   -3.2922572
 ITERATION   3 PLS= 0.934E-02 0.000E+00 ENERGY     -294.570679 DELTAE   -0.3846594
 ITERATION   4 PLS= 0.541E-02 0.000E+00 ENERGY     -294.812859 DELTAE   -0.2421804
 ITERATION   5 PLS= 0.127E-02 0.000E+00 ENERGY     -294.691651 DELTAE    0.1212082
 ITERATION   6 PLS= 0.708E-03 0.000E+00 ENERGY     -294.692628 DELTAE   -0.0009772
 ITERATION   1 PLS= 0.421E-03 0.000E+00 ENERGY     -295.260125 DELTAE -395.2601248
 ITERATION   2 PLS= 0.150E-01 0.000E+00 ENERGY     -296.158558 DELTAE   -0.8984329
 ITERATION   3 PLS= 0.511E-02 0.000E+00 ENERGY     -296.266712 DELTAE   -0.1081541
 ITERATION   4 PLS= 0.291E-02 0.000E+00 ENERGY     -296.338896 DELTAE   -0.0721843
 ITERATION   5 PLS= 0.676E-03 0.000E+00 ENERGY     -296.302365 DELTAE    0.0365310
 CYCLE:     6 TIME:   0.023 TIME LEFT:  2.00W  GRAD.:    56.332 HEAT: -296.3027
 ITERATION   1 PLS= 0.398E-03 0.000E+00 ENERGY     -294.812142 DELTAE -394.8121416
 ITERATION   2 PLS= 0.247E-01 0.000E+00 ENERGY     -296.442579 DELTAE   -1.6304377
 ITERATION   3 PLS= 0.860E-02 0.000E+00 ENERGY     -296.597324 DELTAE   -0.1547444
 ITERATION   4 PLS= 0.393E-02 0.000E+00 ENERGY     -296.688184 DELTAE   -0.0908601
 ITERATION   5 PLS= 0.767E-03 0.000E+00 ENERGY     -296.644885 DELTAE    0.0432983
 CYCLE:     7 TIME:   0.012 TIME LEFT:  2.00W  GRAD.:    67.943 HEAT: -296.6454
 ITERATION   1 PLS= 0.453E-03 0.000E+00 ENERGY     -295.347207 DELTAE -395.3472066
 ITERATION   2 PLS= 0.149E-01 0.000E+00 ENERGY     -296.728147 DELTAE   -1.3809402
 ITERATION   3 PLS= 0.570E-02 0.000E+00 ENERGY     -296.904250 DELTAE   -0.1761036
 ITERATION   4 PLS= 0.279E-02 0.000E+00 ENERGY     -296.992935 DELTAE   -0.0886850
 ITERATION   5 PLS= 0.614E-03 0.000E+00 ENERGY     -296.949839 DELTAE    0.0430966
 CYCLE:     8 TIME:   0.012 TIME LEFT:  2.00W  GRAD.:    56.901 HEAT: -296.9501
 ITERATION   1 PLS= 0.360E-03 0.000E+00 ENERGY     -295.922883 DELTAE -395.9228833
 ITERATION   2 PLS= 0.105E-01 0.000E+00 ENERGY     -296.815614 DELTAE   -0.8927303
 ITERATION   3 PLS= 0.396E-02 0.000E+00 ENERGY     -296.927588 DELTAE   -0.1119742
 ITERATION   4 PLS= 0.206E-02 0.000E+00 ENERGY     -296.975983 DELTAE   -0.0483955
 ITERATION   5 PLS= 0.259E-03 0.000E+00 ENERGY     -296.954232 DELTAE    0.0217516
 CYCLE:     9 TIME:   0.012 TIME LEFT:  2.00W  GRAD.:    56.308 HEAT: -296.9543
 ITERATION   1 PLS= 0.158E-03 0.000E+00 ENERGY     -294.504799 DELTAE -394.5047993
 ITERATION   2 PLS= 0.151E-01 0.000E+00 ENERGY     -295.831119 DELTAE   -1.3263195
 ITERATION   3 PLS= 0.750E-02 0.000E+00 ENERGY     -295.995829 DELTAE   -0.1647098
 ITERATION   4 PLS= 0.388E-02 0.000E+00 ENERGY     -296.078675 DELTAE   -0.0828462
 ITERATION   5 PLS= 0.416E-03 0.000E+00 ENERGY     -296.037606 DELTAE    0.0410692
 ITERATION   1 PLS= 0.242E-03 0.000E+00 ENERGY     -297.059367 DELTAE -397.0593669
 ITERATION   2 PLS= 0.803E-02 0.000E+00 ENERGY     -297.415562 DELTAE   -0.3561950
 ITERATION   3 PLS= 0.422E-02 0.000E+00 ENERGY     -297.459800 DELTAE   -0.0442377
 ITERATION   4 PLS= 0.222E-02 0.000E+00 ENERGY     -297.482082 DELTAE   -0.0222827
 ITERATION   5 PLS= 0.230E-03 0.000E+00 ENERGY     -297.471075 DELTAE    0.0110072
 CYCLE:    10 TIME:   0.027 TIME LEFT:  2.00W  GRAD.:    30.473 HEAT: -297.4712
 ITERATION   1 PLS= 0.146E-03 0.000E+00 ENERGY     -296.688437 DELTAE -396.6884370
 ITERATION   2 PLS= 0.893E-02 0.000E+00 ENERGY     -297.227687 DELTAE   -0.5392500
 ITERATION   3 PLS= 0.320E-02 0.000E+00 ENERGY     -297.286099 DELTAE   -0.0584120
 ITERATION   4 PLS= 0.169E-02 0.000E+00 ENERGY     -297.311532 DELTAE   -0.0254327
 ITERATION   5 PLS= 0.220E-03 0.000E+00 ENERGY     -297.300020 DELTAE    0.0115121
 ITERATION   1 PLS= 0.138E-03 0.000E+00 ENERGY     -297.539817 DELTAE -397.5398170
 ITERATION   2 PLS= 0.361E-02 0.000E+00 ENERGY     -297.663849 DELTAE   -0.1240317
 ITERATION   3 PLS= 0.186E-02 0.000E+00 ENERGY     -297.679250 DELTAE   -0.0154014
 ITERATION   4 PLS= 0.965E-03 0.000E+00 ENERGY     -297.686839 DELTAE   -0.0075893
 CYCLE:    11 TIME:   0.023 TIME LEFT:  2.00W  GRAD.:    18.360 HEAT: -297.6833
 ITERATION   1 PLS= 0.120E-03 0.000E+00 ENERGY     -297.557478 DELTAE -397.5574780
 ITERATION   2 PLS= 0.338E-02 0.000E+00 ENERGY     -297.694511 DELTAE   -0.1370329
 ITERATION   3 PLS= 0.159E-02 0.000E+00 ENERGY     -297.713064 DELTAE   -0.0185526
 ITERATION   4 PLS= 0.818E-03 0.000E+00 ENERGY     -297.721566 DELTAE   -0.0085028
 CYCLE:    12 TIME:   0.012 TIME LEFT:  2.00W  GRAD.:    20.850 HEAT: -297.7175
 ITERATION   1 PLS= 0.108E-03 0.000E+00 ENERGY     -297.865495 DELTAE -397.8654952
 ITERATION   2 PLS= 0.416E-02 0.000E+00 ENERGY     -298.012378 DELTAE   -0.1468831
 ITERATION   3 PLS= 0.149E-02 0.000E+00 ENERGY     -298.032123 DELTAE   -0.0197442
 ITERATION   4 PLS= 0.778E-03 0.000E+00 ENERGY     -298.041525 DELTAE   -0.0094023
 CYCLE:    13 TIME:   0.012 TIME LEFT:  2.00W  GRAD.:    13.668 HEAT: -298.0372
 ITERATION   1 PLS= 0.152E-03 0.000E+00 ENERGY     -297.922453 DELTAE -397.9224530
 ITERATION   2 PLS= 0.261E-02 0.000E+00 ENERGY     -298.105146 DELTAE   -0.1826930
 ITERATION   3 PLS= 0.135E-02 0.000E+00 ENERGY     -298.137291 DELTAE   -0.0321447
 ITERATION   4 PLS= 0.709E-03 0.000E+00 ENERGY     -298.157590 DELTAE   -0.0202991
 ITERATION   5 PLS= 0.150E-03 0.000E+00 ENERGY     -298.146649 DELTAE    0.0109411
 CYCLE:    14 TIME:   0.012 TIME LEFT:  2.00W  GRAD.:    17.574 HEAT: -298.1467
 ITERATION   1 PLS= 0.604E-04 0.000E+00 ENERGY     -298.006902 DELTAE -398.0069016
 ITERATION   2 PLS= 0.435E-02 0.000E+00 ENERGY     -298.377634 DELTAE   -0.3707321
 ITERATION   3 PLS= 0.174E-02 0.000E+00 ENERGY     -298.443367 DELTAE   -0.0657330
 ITERATION   4 PLS= 0.871E-03 0.000E+00 ENERGY     -298.482444 DELTAE   -0.0390777
 ITERATION   5 PLS= 0.127E-03 0.000E+00 ENERGY     -298.462189 DELTAE    0.0202553
 CYCLE:    15 TIME:   0.012 TIME LEFT:  2.00W  GRAD.:    18.121 HEAT: -298.4623
 ITERATION   1 PLS= 0.681E-04 0.000E+00 ENERGY     -298.103131 DELTAE -398.1031307
 ITERATION   2 PLS= 0.437E-02 0.000E+00 ENERGY     -298.734735 DELTAE   -0.6316041
 ITERATION   3 PLS= 0.252E-02 0.000E+00 ENERGY     -298.855427 DELTAE   -0.1206923
 ITERATION   4 PLS= 0.156E-02 0.000E+00 ENERGY     -298.934100 DELTAE   -0.0786724
 ITERATION   5 PLS= 0.249E-03 0.000E+00 ENERGY     -298.890961 DELTAE    0.0431387
 CYCLE:    16 TIME:   0.012 TIME LEFT:  2.00W  GRAD.:    16.745 HEAT: -298.8911
 ITERATION   1 PLS= 0.105E-03 0.000E+00 ENERGY     -297.858218 DELTAE -397.8582180
 ITERATION   2 PLS= 0.383E-02 0.000E+00 ENERGY     -299.136758 DELTAE   -1.2785401
 ITERATION   3 PLS= 0.241E-02 0.000E+00 ENERGY     -299.382563 DELTAE   -0.2458051
 ITERATION   4 PLS= 0.139E-02 0.000E+00 ENERGY     -299.538432 DELTAE   -0.1558686
 ITERATION   5 PLS= 0.140E-03 0.000E+00 ENERGY     -299.454180 DELTAE    0.0842519
 CYCLE:    17 TIME:   0.016 TIME LEFT:  2.00W  GRAD.:    11.186 HEAT: -299.4545
 ITERATION   1 PLS= 0.741E-04 0.000E+00 ENERGY     -297.031325 DELTAE -397.0313254
 ITERATION   2 PLS= 0.788E-02 0.000E+00 ENERGY     -299.511755 DELTAE   -2.4804295
 ITERATION   3 PLS= 0.416E-02 0.000E+00 ENERGY     -299.993239 DELTAE   -0.4814836
 ITERATION   4 PLS= 0.215E-02 0.000E+00 ENERGY     -300.289196 DELTAE   -0.2959572
 ITERATION   5 PLS= 0.193E-03 0.000E+00 ENERGY     -300.132749 DELTAE    0.1564467
 ITERATION   6 PLS= 0.101E-03 0.000E+00 ENERGY     -300.133237 DELTAE   -0.0004883
 CYCLE:    18 TIME:   0.016 TIME LEFT:  2.00W  GRAD.:    13.476 HEAT: -300.1337
 ITERATION   1 PLS= 0.637E-04 0.000E+00 ENERGY     -294.888023 DELTAE -394.8880229
 ITERATION   2 PLS= 0.130E-01 0.000E+00 ENERGY     -299.803916 DELTAE   -4.9158931
 ITERATION   3 PLS= 0.709E-02 0.000E+00 ENERGY     -300.760486 DELTAE   -0.9565698
 ITERATION   4 PLS= 0.374E-02 0.000E+00 ENERGY     -301.357597 DELTAE   -0.5971109
 ITERATION   5 PLS= 0.286E-03 0.000E+00 ENERGY     -301.036340 DELTAE    0.3212563
 ITERATION   6 PLS= 0.146E-03 0.000E+00 ENERGY     -301.037384 DELTAE   -0.0010431
 CYCLE:    19 TIME:   0.012 TIME LEFT:  2.00W  GRAD.:    13.788 HEAT: -301.0382
 ITERATION   1 PLS= 0.795E-04 0.000E+00 ENERGY     -289.599221 DELTAE -389.5992207
 ITERATION   2 PLS= 0.240E-01 0.000E+00 ENERGY     -299.368525 DELTAE   -9.7693047
 ITERATION   3 PLS= 0.136E-01 0.000E+00 ENERGY     -301.277582 DELTAE   -1.9090562
 ITERATION   4 PLS= 0.702E-02 0.000E+00 ENERGY     -302.454658 DELTAE   -1.1770767
 ITERATION   5 PLS= 0.408E-03 0.000E+00 ENERGY     -301.827799 DELTAE    0.6268595
 ITERATION   6 PLS= 0.263E-03 0.000E+00 ENERGY     -301.829801 DELTAE   -0.0020022
 CYCLE:    20 TIME:   0.016 TIME LEFT:  2.00W  GRAD.:    21.427 HEAT: -301.8314
 ITERATION   1 PLS= 0.128E-03 0.000E+00 ENERGY     -277.537977 DELTAE -377.5379773
 ITERATION   2 PLS= 0.469E-01 0.000E+00 ENERGY     -297.305072 DELTAE  -19.7670944
 ITERATION   3 PLS= 0.259E-01 0.000E+00 ENERGY     -301.171639 DELTAE   -3.8665673
 ITERATION   4 PLS= 0.133E-01 0.000E+00 ENERGY     -303.482232 DELTAE   -2.3105927
 ITERATION   5 PLS= 0.533E-03 0.000E+00 ENERGY     -302.287563 DELTAE    1.1946684
 ITERATION   6 PLS= 0.293E-03 0.000E+00 ENERGY     -302.291237 DELTAE   -0.0036736
 CYCLE:    21 TIME:   0.016 TIME LEFT:  2.00W  GRAD.:    43.038 HEAT: -302.2945
 ITERATION   1 PLS= 0.185E-03 0.000E+00 ENERGY     -300.130045 DELTAE -400.1300446
 ITERATION   2 PLS= 0.219E-01 0.000E+00 ENERGY     -302.461312 DELTAE   -2.3312675
 ITERATION   3 PLS= 0.948E-02 0.000E+00 ENERGY     -302.866008 DELTAE   -0.4046955
 ITERATION   4 PLS= 0.597E-02 0.000E+00 ENERGY     -303.111408 DELTAE   -0.2454007
 ITERATION   5 PLS= 0.116E-02 0.000E+00 ENERGY     -302.985542 DELTAE    0.1258659
 ITERATION   6 PLS= 0.607E-03 0.000E+00 ENERGY     -302.986182 DELTAE   -0.0006394
 CYCLE:    22 TIME:   0.016 TIME LEFT:  2.00W  GRAD.:    45.851 HEAT: -302.9868
 ITERATION   1 PLS= 0.368E-03 0.000E+00 ENERGY     -278.536311 DELTAE -378.5363113
 ITERATION   2 PLS= 0.500E-01 0.000E+00 ENERGY     -298.449784 DELTAE  -19.9134725
 ITERATION   3 PLS= 0.244E-01 0.000E+00 ENERGY     -302.186204 DELTAE   -3.7364201
 ITERATION   4 PLS= 0.119E-01 0.000E+00 ENERGY     -304.233928 DELTAE   -2.0477245
 ITERATION   5 PLS= 0.804E-03 0.000E+00 ENERGY     -303.241042 DELTAE    0.9928862
 ITERATION   6 PLS= 0.474E-03 0.000E+00 ENERGY     -303.244501 DELTAE   -0.0034591
 CYCLE:    23 TIME:   0.016 TIME LEFT:  2.00W  GRAD.:    55.809 HEAT: -303.2483
 ITERATION   1 PLS= 0.282E-03 0.000E+00 ENERGY     -290.106258 DELTAE -390.1062584
 ITERATION   2 PLS= 0.445E-01 0.000E+00 ENERGY     -301.372583 DELTAE  -11.2663243
 ITERATION   3 PLS= 0.202E-01 0.000E+00 ENERGY     -303.514702 DELTAE   -2.1421189
 ITERATION   4 PLS= 0.990E-02 0.000E+00 ENERGY     -304.779311 DELTAE   -1.2646094
 ITERATION   5 PLS= 0.795E-03 0.000E+00 ENERGY     -304.132165 DELTAE    0.6471457
 ITERATION   6 PLS= 0.518E-03 0.000E+00 ENERGY     -304.134414 DELTAE   -0.0022490
 CYCLE:    24 TIME:   0.012 TIME LEFT:  2.00W  GRAD.:    28.224 HEAT: -304.1367
 ITERATION   1 PLS= 0.343E-03 0.000E+00 ENERGY     -302.514093 DELTAE -402.5140931
 ITERATION   2 PLS= 0.147E-01 0.000E+00 ENERGY     -304.395559 DELTAE   -1.8814663
 ITERATION   3 PLS= 0.731E-02 0.000E+00 ENERGY     -304.743414 DELTAE   -0.3478547
 ITERATION   4 PLS= 0.361E-02 0.000E+00 ENERGY     -304.939605 DELTAE   -0.1961905
 ITERATION   5 PLS= 0.268E-03 0.000E+00 ENERGY     -304.840345 DELTAE    0.0992599
 CYCLE:    25 TIME:   0.016 TIME LEFT:  2.00W  GRAD.:    22.946 HEAT: -304.8407
 ITERATION   1 PLS= 0.167E-03 0.000E+00 ENERGY     -302.827030 DELTAE -402.8270304
 ITERATION   2 PLS= 0.123E-01 0.000E+00 ENERGY     -304.532181 DELTAE   -1.7051503
 ITERATION   3 PLS= 0.602E-02 0.000E+00 ENERGY     -304.849495 DELTAE   -0.3173140
 ITERATION   4 PLS= 0.292E-02 0.000E+00 ENERGY     -305.032480 DELTAE   -0.1829851
 ITERATION   5 PLS= 0.213E-03 0.000E+00 ENERGY     -304.939285 DELTAE    0.0931947
 CYCLE:    26 TIME:   0.012 TIME LEFT:  2.00W  GRAD.:    24.401 HEAT: -304.9396
 ITERATION   1 PLS= 0.124E-03 0.000E+00 ENERGY     -304.802946 DELTAE -404.8029456
 ITERATION   2 PLS= 0.687E-02 0.000E+00 ENERGY     -305.103262 DELTAE   -0.3003162
 ITERATION   3 PLS= 0.313E-02 0.000E+00 ENERGY     -305.159778 DELTAE   -0.0565162
 ITERATION   4 PLS= 0.162E-02 0.000E+00 ENERGY     -305.192575 DELTAE   -0.0327972
 ITERATION   5 PLS= 0.151E-03 0.000E+00 ENERGY     -305.176183 DELTAE    0.0163919
 CYCLE:    27 TIME:   0.016 TIME LEFT:  2.00W  GRAD.:     8.594 HEAT: -305.1762
 ITERATION   1 PLS= 0.995E-04 0.000E+00 ENERGY     -305.190467 DELTAE -405.1904672
 ITERATION   2 PLS= 0.151E-02 0.000E+00 ENERGY     -305.241388 DELTAE   -0.0509205
 ITERATION   3 PLS= 0.824E-03 0.000E+00 ENERGY     -305.251215 DELTAE   -0.0098269
 ITERATION   4 PLS= 0.464E-03 0.000E+00 ENERGY     -305.257810 DELTAE   -0.0065959
 CYCLE:    28 TIME:   0.012 TIME LEFT:  2.00W  GRAD.:     8.194 HEAT: -305.2544
 ITERATION   1 PLS= 0.873E-04 0.000E+00 ENERGY     -304.718726 DELTAE -404.7187256
 ITERATION   2 PLS= 0.890E-02 0.000E+00 ENERGY     -305.412702 DELTAE   -0.6939767
 ITERATION   3 PLS= 0.472E-02 0.000E+00 ENERGY     -305.569616 DELTAE   -0.1569139
 ITERATION   4 PLS= 0.244E-02 0.000E+00 ENERGY     -305.680406 DELTAE   -0.1107900
 ITERATION   5 PLS= 0.264E-03 0.000E+00 ENERGY     -305.621349 DELTAE    0.0590572
 CYCLE:    29 TIME:   0.016 TIME LEFT:  2.00W  GRAD.:     9.936 HEAT: -305.6214
 ITERATION   1 PLS= 0.140E-03 0.000E+00 ENERGY     -304.052982 DELTAE -404.0529818
 ITERATION   2 PLS= 0.937E-02 0.000E+00 ENERGY     -305.460760 DELTAE   -1.4077781
 ITERATION   3 PLS= 0.535E-02 0.000E+00 ENERGY     -305.745805 DELTAE   -0.2850449
 ITERATION   4 PLS= 0.291E-02 0.000E+00 ENERGY     -305.930293 DELTAE   -0.1844883
 ITERATION   5 PLS= 0.231E-03 0.000E+00 ENERGY     -305.831313 DELTAE    0.0989802
 CYCLE:    30 TIME:   0.012 TIME LEFT:  2.00W  GRAD.:    15.318 HEAT: -305.8316
 ITERATION   1 PLS= 0.141E-03 0.000E+00 ENERGY     -304.926435 DELTAE -404.9264346
 ITERATION   2 PLS= 0.103E-01 0.000E+00 ENERGY     -305.515144 DELTAE   -0.5887098
 ITERATION   3 PLS= 0.536E-02 0.000E+00 ENERGY     -305.635826 DELTAE   -0.1206817
 ITERATION   4 PLS= 0.283E-02 0.000E+00 ENERGY     -305.712823 DELTAE   -0.0769968
 ITERATION   5 PLS= 0.200E-03 0.000E+00 ENERGY     -305.673128 DELTAE    0.0396948
 ITERATION   1 PLS= 0.124E-03 0.000E+00 ENERGY     -305.451806 DELTAE -405.4518056
 ITERATION   2 PLS= 0.525E-02 0.000E+00 ENERGY     -305.647577 DELTAE   -0.1957717
 ITERATION   3 PLS= 0.263E-02 0.000E+00 ENERGY     -305.686916 DELTAE   -0.0393386
 ITERATION   4 PLS= 0.133E-02 0.000E+00 ENERGY     -305.710894 DELTAE   -0.0239776
 ITERATION   5 PLS= 0.855E-04 0.000E+00 ENERGY     -305.698554 DELTAE    0.0123393
 ITERATION   1 PLS= 0.540E-04 0.000E+00 ENERGY     -305.698705 DELTAE -405.6987053
 ITERATION   2 PLS= 0.255E-02 0.000E+00 ENERGY     -305.749646 DELTAE   -0.0509410
 ITERATION   3 PLS= 0.127E-02 0.000E+00 ENERGY     -305.760159 DELTAE   -0.0105129
 ITERATION   4 PLS= 0.655E-03 0.000E+00 ENERGY     -305.766863 DELTAE   -0.0067036
 ITERATION   1 PLS= 0.539E-04 0.000E+00 ENERGY     -305.959289 DELTAE -405.9592891
 ITERATION   2 PLS= 0.236E-02 0.000E+00 ENERGY     -305.968985 DELTAE   -0.0096955
 ITERATION   3 PLS= 0.128E-02 0.000E+00 ENERGY     -305.970946 DELTAE   -0.0019612
 ITERATION   4 PLS= 0.698E-03 0.000E+00 ENERGY     -305.972393 DELTAE   -0.0014477
 CYCLE:    31 TIME:   0.047 TIME LEFT:  2.00W  GRAD.:     8.102 HEAT: -305.9716
 ITERATION   1 PLS= 0.751E-04 0.000E+00 ENERGY     -305.810032 DELTAE -405.8100316
 ITERATION   2 PLS= 0.278E-02 0.000E+00 ENERGY     -305.836205 DELTAE   -0.0261733
 ITERATION   3 PLS= 0.163E-02 0.000E+00 ENERGY     -305.841020 DELTAE   -0.0048155
 ITERATION   4 PLS= 0.928E-03 0.000E+00 ENERGY     -305.844456 DELTAE   -0.0034352
 ITERATION   1 PLS= 0.132E-03 0.000E+00 ENERGY     -305.819189 DELTAE -405.8191890
 ITERATION   2 PLS= 0.128E-02 0.000E+00 ENERGY     -305.824776 DELTAE   -0.0055869
 ITERATION   3 PLS= 0.718E-03 0.000E+00 ENERGY     -305.825836 DELTAE   -0.0010601
 ITERATION   4 PLS= 0.399E-03 0.000E+00 ENERGY     -305.826549 DELTAE   -0.0007130
 ITERATION   1 PLS= 0.518E-04 0.000E+00 ENERGY     -305.812913 DELTAE -405.8129129
 ITERATION   2 PLS= 0.742E-03 0.000E+00 ENERGY     -305.814734 DELTAE   -0.0018209
 ITERATION   3 PLS= 0.444E-03 0.000E+00 ENERGY     -305.815078 DELTAE   -0.0003440
 ITERATION   4 PLS= 0.255E-03 0.000E+00 ENERGY     -305.815343 DELTAE   -0.0002651
 ITERATION   1 PLS= 0.362E-04 0.000E+00 ENERGY     -305.807615 DELTAE -405.8076145
 ITERATION   2 PLS= 0.394E-03 0.000E+00 ENERGY     -305.808190 DELTAE   -0.0005757
 ITERATION   3 PLS= 0.244E-03 0.000E+00 ENERGY     -305.808292 DELTAE   -0.0001016
 ITERATION   4 PLS= 0.142E-03 0.000E+00 ENERGY     -305.808370 DELTAE   -0.0000784
 ITERATION   1 PLS= 0.211E-04 0.000E+00 ENERGY     -305.810301 DELTAE -405.8103008
 ITERATION   2 PLS= 0.200E-03 0.000E+00 ENERGY     -305.810488 DELTAE   -0.0001867
 ITERATION   3 PLS= 0.123E-03 0.000E+00 ENERGY     -305.810516 DELTAE   -0.0000289
 ITERATION   4 PLS= 0.716E-04 0.000E+00 ENERGY     -305.810536 DELTAE   -0.0000199
 ITERATION   1 PLS= 0.120E-04 0.000E+00 ENERGY     -305.808125 DELTAE -405.8081246
 ITERATION   2 PLS= 0.101E-03 0.000E+00 ENERGY     -305.808181 DELTAE   -0.0000563
 ITERATION   3 PLS= 0.634E-04 0.000E+00 ENERGY     -305.808189 DELTAE   -0.0000081
 ITERATION   4 PLS= 0.373E-04 0.000E+00 ENERGY     -305.808195 DELTAE   -0.0000055
 ITERATION   1 PLS= 0.600E-05 0.000E+00 ENERGY     -305.972965 DELTAE -405.9729652
 ITERATION   2 PLS= 0.501E-04 0.000E+00 ENERGY     -305.972981 DELTAE   -0.0000160
 ITERATION   3 PLS= 0.314E-04 0.000E+00 ENERGY     -305.972983 DELTAE   -0.0000022
 ITERATION   4 PLS= 0.185E-04 0.000E+00 ENERGY     -305.972985 DELTAE   -0.0000014
 CYCLE:    32 TIME:   0.078 TIME LEFT:  2.00W  GRAD.:     7.871 HEAT: -305.9730
 ITERATION   1 PLS= 0.304E-05 0.000E+00 ENERGY     -305.809384 DELTAE -405.8093842
 ITERATION   2 PLS= 0.104E-03 0.000E+00 ENERGY     -305.809459 DELTAE   -0.0000746
 ITERATION   3 PLS= 0.617E-04 0.000E+00 ENERGY     -305.809468 DELTAE   -0.0000097
 ITERATION   4 PLS= 0.361E-04 0.000E+00 ENERGY     -305.809474 DELTAE   -0.0000056
 ITERATION   1 PLS= 0.623E-05 0.000E+00 ENERGY     -305.808227 DELTAE -405.8082269
 ITERATION   2 PLS= 0.513E-04 0.000E+00 ENERGY     -305.808245 DELTAE   -0.0000181
 ITERATION   3 PLS= 0.295E-04 0.000E+00 ENERGY     -305.808247 DELTAE   -0.0000023
 ITERATION   4 PLS= 0.172E-04 0.000E+00 ENERGY     -305.808249 DELTAE   -0.0000013

     TRUST RADIUS NOW LESS THAN  0.00010 OPTIMIZATION TERMINATING
      THE GEOMETRY MAY NOT BE COMPLETELY OPTIMIZED
      (TO CONTINUE, ADD 'LET DDMIN=0.0' TO THE KEYWORD LINE)
 ITERATION   1 PLS= 0.303E-05 0.000E+00 ENERGY     -305.972962 DELTAE -405.9729615
 ITERATION   2 PLS= 0.522E-04 0.000E+00 ENERGY     -305.972981 DELTAE   -0.0000192
 ITERATION   3 PLS= 0.321E-04 0.000E+00 ENERGY     -305.972983 DELTAE   -0.0000025
 ITERATION   4 PLS= 0.189E-04 0.000E+00 ENERGY     -305.972985 DELTAE   -0.0000015

 -------------------------------------------------------------------------------
 PM7 CHARGE=-1 SINGLET AUX DUMP=30M ITRY=15000 eps=78.4 T=14D PL THREADS=40

 Mopac file generated by Gabedit


     GEOMETRY OPTIMISED USING EIGENVECTOR FOLLOWING (EF).     
     SCF FIELD WAS ACHIEVED                                   


                              PM7 CALCULATION
                                                       MOPAC v22.1.0 Linux
                                                       Sat Mar 23 14:18:00 2024




          FINAL HEAT OF FORMATION =       -305.97298 KCAL/MOL =   -1280.19097 KJ/MOL
          VAN DER WAALS AREA      =        201.75 SQUARE ANGSTROMS



          DIELECTRIC ENERGY       =         -3.99712 EV
          COSMO AREA              =        201.75 SQUARE ANGSTROMS
          COSMO VOLUME            =        193.92 CUBIC ANGSTROMS

          GRADIENT NORM           =          7.87063          =       1.90891 PER ATOM
          IONIZATION POTENTIAL    =         10.262831 EV
          HOMO LUMO ENERGIES (EV) =        -10.263 -0.508
          NO. OF FILLED LEVELS    =         31
          MOLECULAR WEIGHT        =        172.5450         POINT GROUP:  C1  

          MOLECULAR DIMENSIONS (Angstroms)

            Atom       Atom       Distance
            H    14    H     4     8.37593
            O     9    O     6     4.63808
            O    10    H     2     3.30672


          SCF CALCULATIONS        =         50

          WALL-CLOCK TIME         =      0.727 SECONDS
          COMPUTATION TIME        =     17.164 SECONDS



       FINAL  POINT  AND  DERIVATIVES

   PARAMETER     ATOM    TYPE            VALUE        GRADIENT
      1          1  C    CARTESIAN X     0.360757      1.053116  KCAL/ANGSTROM
      2          1  C    CARTESIAN Y    -0.937691     -0.618202  KCAL/ANGSTROM
      3          1  C    CARTESIAN Z     0.643151     -0.630769  KCAL/ANGSTROM
      4          2  H    CARTESIAN X     0.682680      0.224693  KCAL/ANGSTROM
      5          2  H    CARTESIAN Y    -1.480626     -0.520441  KCAL/ANGSTROM
      6          2  H    CARTESIAN Z    -0.272178     -0.246403  KCAL/ANGSTROM
      7          3  H    CARTESIAN X     0.905964     -0.993454  KCAL/ANGSTROM
      8          3  H    CARTESIAN Y     0.034418      0.366160  KCAL/ANGSTROM
      9          3  H    CARTESIAN Z     0.685030     -0.058194  KCAL/ANGSTROM
     10          4  H    CARTESIAN X     0.695598      1.162905  KCAL/ANGSTROM
     11          4  H    CARTESIAN Y    -1.534967     -0.306833  KCAL/ANGSTROM
     12          4  H    CARTESIAN Z     1.515885     -0.155921  KCAL/ANGSTROM
     13          5  N    CARTESIAN X    -1.076434      0.925124  KCAL/ANGSTROM
     14          5  N    CARTESIAN Y    -0.700509      0.470422  KCAL/ANGSTROM
     15          5  N    CARTESIAN Z     0.649124     -0.579077  KCAL/ANGSTROM
     16          6  O    CARTESIAN X    -1.713123     -1.980599  KCAL/ANGSTROM
     17          6  O    CARTESIAN Y    -0.777357      1.239657  KCAL/ANGSTROM
     18          6  O    CARTESIAN Z     1.682840     -0.993811  KCAL/ANGSTROM
     19          7  O    CARTESIAN X    -1.620147      1.098089  KCAL/ANGSTROM
     20          7  O    CARTESIAN Y    -0.383788      0.527177  KCAL/ANGSTROM
     21          7  O    CARTESIAN Z    -0.409847     -0.142254  KCAL/ANGSTROM
     22          8  C    CARTESIAN X     0.256660     -0.915588  KCAL/ANGSTROM
     23          8  C    CARTESIAN Y     3.960486      1.614610  KCAL/ANGSTROM
     24          8  C    CARTESIAN Z    -3.184378      2.722348  KCAL/ANGSTROM
     25          9  O    CARTESIAN X     1.101387      1.350203  KCAL/ANGSTROM
     26          9  O    CARTESIAN Y     3.858063     -1.324018  KCAL/ANGSTROM
     27          9  O    CARTESIAN Z    -4.096833     -0.882416  KCAL/ANGSTROM
     28         10  O    CARTESIAN X     0.499960      0.608784  KCAL/ANGSTROM
     29         10  O    CARTESIAN Y     4.403038     -0.329839  KCAL/ANGSTROM
     30         10  O    CARTESIAN Z    -2.053114     -0.806680  KCAL/ANGSTROM
     31         11  C    CARTESIAN X    -1.148785     -0.324029  KCAL/ANGSTROM
     32         11  C    CARTESIAN Y     3.490101      1.063058  KCAL/ANGSTROM
     33         11  C    CARTESIAN Z    -3.543032     -0.627059  KCAL/ANGSTROM
     34         12 Cl    CARTESIAN X    -2.335646     -0.317431  KCAL/ANGSTROM
     35         12 Cl    CARTESIAN Y     4.135564      0.058974  KCAL/ANGSTROM
     36         12 Cl    CARTESIAN Z    -2.391536     -0.931885  KCAL/ANGSTROM
     37         13  H    CARTESIAN X    -1.213870     -0.542220  KCAL/ANGSTROM
     38         13  H    CARTESIAN Y     2.386050     -0.245499  KCAL/ANGSTROM
     39         13  H    CARTESIAN Z    -3.496325      0.051740  KCAL/ANGSTROM
     40         14  H    CARTESIAN X    -1.459961     -0.970439  KCAL/ANGSTROM
     41         14  H    CARTESIAN Y     3.828944      0.304834  KCAL/ANGSTROM
     42         14  H    CARTESIAN Z    -4.545322      0.110213  KCAL/ANGSTROM
     43         15  H    CARTESIAN X    -0.540141     -1.218466  KCAL/ANGSTROM
     44         15  H    CARTESIAN Y     0.428166     -1.000758  KCAL/ANGSTROM
     45         15  H    CARTESIAN Z    -1.483398      3.105311  KCAL/ANGSTROM
     46         16  O    CARTESIAN X     0.061331     -0.429276  KCAL/ANGSTROM
     47         16  O    CARTESIAN Y     0.845165     -0.959743  KCAL/ANGSTROM
     48         16  O    CARTESIAN Z    -2.107802     -2.457323  KCAL/ANGSTROM
     49         17  H    CARTESIAN X     0.460253      1.270237  KCAL/ANGSTROM
     50         17  H    CARTESIAN Y     1.572396     -0.338368  KCAL/ANGSTROM
     51         17  H    CARTESIAN Z    -1.615554      2.523861  KCAL/ANGSTROM




   ATOM   CHEMICAL          X               Y               Z
  NUMBER   SYMBOL      (ANGSTROMS)     (ANGSTROMS)     (ANGSTROMS)

     1       C          0.36075715  *  -0.93769068  *   0.64315114  *
     2       H          0.68268036  *  -1.48062632  *  -0.27217774  *
     3       H          0.90596374  *   0.03441833  *   0.68502962  *
     4       H          0.69559797  *  -1.53496737  *   1.51588476  *
     5       N         -1.07643449  *  -0.70050899  *   0.64912430  *
     6       O         -1.71312328  *  -0.77735725  *   1.68284050  *
     7       O         -1.62014701  *  -0.38378767  *  -0.40984670  *
     8       C          0.25665987  *   3.96048577  *  -3.18437842  *
     9       O          1.10138748  *   3.85806265  *  -4.09683295  *
    10       O          0.49995964  *   4.40303792  *  -2.05311403  *
    11       C         -1.14878514  *   3.49010059  *  -3.54303227  *
    12      Cl         -2.33564587  *   4.13556445  *  -2.39153553  *
    13       H         -1.21387016  *   2.38604958  *  -3.49632539  *
    14       H         -1.45996117  *   3.82894361  *  -4.54532167  *
    15       H         -0.54014142  *   0.42816618  *  -1.48339817  *
    16       O          0.06133131  *   0.84516471  *  -2.10780174  *
    17       H          0.46025309  *   1.57239587  *  -1.61555381  *

                             CARTESIAN COORDINATES

   1    C        0.360757148    -0.937690684     0.643151136
   2    H        0.682680360    -1.480626316    -0.272177739
   3    H        0.905963740     0.034418327     0.685029619
   4    H        0.695597973    -1.534967369     1.515884759
   5    N       -1.076434488    -0.700508986     0.649124299
   6    O       -1.713123276    -0.777357245     1.682840498
   7    O       -1.620147014    -0.383787672    -0.409846703
   8    C        0.256659871     3.960485771    -3.184378421
   9    O        1.101387483     3.858062651    -4.096832947
  10    O        0.499959635     4.403037922    -2.053114031
  11    C       -1.148785139     3.490100587    -3.543032271
  12   Cl       -2.335645870     4.135564448    -2.391535533
  13    H       -1.213870162     2.386049583    -3.496325389
  14    H       -1.459961167     3.828943609    -4.545321670
  15    H       -0.540141422     0.428166181    -1.483398174
  16    O        0.061331311     0.845164711    -2.107801744
  17    H        0.460253090     1.572395869    -1.615553815


           Empirical Formula: C3 H7 N O5 Cl  =    17 atoms



      MOLECULAR POINT GROUP   :   C1  


                  EIGENVALUES  
 -37.52172 -30.91715 -30.05013 -29.15832 -28.28199 -27.89412 -27.00193 -23.46299
 -23.15085 -18.80563 -18.63192 -18.49941 -18.08132 -17.51978 -15.90053 -15.62071
 -15.02093 -14.58087 -14.13298 -14.06431 -13.73011 -13.45996 -12.26444 -12.10895
 -11.97348 -11.84915 -11.49457 -11.08959 -11.03686 -10.88267 -10.26283  -0.50758
   0.44725   0.78748   1.94329   3.31419   3.67475   3.96532   4.57186   4.71369
   5.00388   5.16597   5.21858   5.69020   5.71211   6.01360   6.73410  70.21450
  70.23718  70.68125  70.93188  71.04671


              NET ATOMIC CHARGES AND DIPOLE CONTRIBUTIONS

  ATOM NO.   TYPE          CHARGE      No. of ELECS.   s-Pop       p-Pop       d-Pop       
    1          C          -0.410164        4.4102     1.08750     3.32267
    2          H           0.222622        0.7774     0.77738
    3          H           0.236527        0.7635     0.76347
    4          H           0.211254        0.7887     0.78875
    5          N           0.702793        4.2972     1.44851     2.84870
    6          O          -0.433634        6.4336     1.93924     4.49439
    7          O          -0.505531        6.5055     1.93918     4.56635
    8          C           0.763703        3.2363     1.06673     2.16957
    9          O          -0.849158        6.8492     1.88434     4.96481
   10          O          -0.810416        6.8104     1.88031     4.93011
   11          C          -0.291849        4.2918     1.13083     3.16102
   12         Cl          -0.193214        7.1932     1.98212     5.20401     0.00708
   13          H           0.193684        0.8063     0.80632
   14          H           0.187158        0.8128     0.81284
   15          H           0.363663        0.6363     0.63634
   16          O          -0.757955        6.7580     1.81326     4.94469
   17          H           0.370515        0.6295     0.62948
 DIPOLE           X         Y         Z       TOTAL
 POINT-CHG.    -2.545   -12.343     8.004    14.930
 HYBRID        -0.346     0.078     0.317     0.476
 SUM           -2.891   -12.265     8.322    15.101


          ATOMIC ORBITAL ELECTRON POPULATIONS

     Atom    s        px        py        pz      x^2-y^2     xz        z^2       yz        xy
    1  C   1.08750   0.85045   1.22564   1.24657
    2  H   0.77738
    3  H   0.76347
    4  H   0.78875
    5  N   1.44851   1.01489   0.89214   0.94167
    6  O   1.93924   1.69105   1.56935   1.23399
    7  O   1.93918   1.75665   1.57370   1.23600
    8  C   1.06673   0.79148   0.64652   0.73157
    9  O   1.88434   1.64962   1.73475   1.58045
   10  O   1.88031   1.88268   1.64906   1.39836
   11  C   1.13083   0.98743   1.14716   1.02642
   12 Cl   1.98212   1.63146   1.89450   1.67805   0.00197   0.00208   0.00118   0.00078   0.00107
   13  H   0.80632
   14  H   0.81284
   15  H   0.63634
   16  O   1.81326   1.73133   1.63074   1.58262
   17  H   0.62948

 **********************
 *                    *
 * JOB ENDED NORMALLY *
 *                    *
 **********************



 TOTAL JOB TIME:             0.73 SECONDS

 == MOPAC DONE ==
