 *******************************************************************************
 **                                                                           **
 **                              MOPAC v22.0.6                                **
 **                                                                           **
 *******************************************************************************
 **          Digital Object Identifier (DOI): 10.5281/zenodo.6511958          **
 **    Visit the DOI location for information on how to cite this program.    **
 *******************************************************************************

                              PM7 CALCULATION RESULTS

 *******************************************************************************
 *  CALCULATION DONE:                                Tue Mar 26 12:03:43 2024  *
 *  PM7        - The PM7 Hamiltonian to be used
 *  SINGLET    - SPIN STATE DEFINED AS A SINGLET
 *
 *
 *
 *                 CHARGE ON SYSTEM = -1
 *
 *
 *
 *  EPS=78.4   - USE ANDREAS KLAMT'S COSMO IMPLICIT SOLVATION MODEL
 *  SADDLE     - TRANSITION STATE TO BE OPTIMIZED
 *  T=         - A TIME OF 14.0 DAYS REQUESTED
 *  DUMP=N     - RESTART FILE WRITTEN EVERY 30.0 MINUTES REQUESTED
 *  RELSCF     - DEFAULT SCF CRITERION MULTIPLIED BY 1.0000
 *              (DEFAULT SCF CRITERION = 0.00010)
 *  ITRY=      - DO A MAXIMUM OF 15000 ITERATIONS FOR SCF
 *  AUX        - OUTPUT AUXILIARY INFORMATION
 *  BONDS      - FINAL BOND-ORDER MATRIX TO BE PRINTED
 *******************************************************************************
SADDLE PM7 BONDS AUX DUMP=30M ITRY=15000 T=14D CHARGE=-1 SINGLET eps=78.4 RELSCF=1


   ATOM   CHEMICAL          X               Y               Z
  NUMBER   SYMBOL      (ANGSTROMS)     (ANGSTROMS)     (ANGSTROMS)

     1       C          0.46770767  *  -1.16442653  *   0.81931018  *
     2       H          0.95251561  *  -1.09062455  *  -0.18045472  *
     3       H          0.96404287  *  -0.43312479  *   1.49425321  *
     4       H          0.63976533  *  -2.17724574  *   1.23357969  *
     5       N         -0.95492685  *  -0.87660791  *   0.70247574  *
     6       O         -1.75932263  *  -1.66547625  *   1.17844061  *
     7       O         -1.30898785  *   0.13799844  *   0.12179536  *
     8       C          0.66868277  *   2.71152924  *  -3.76935093  *
     9       O          1.49603957  *   3.29175587  *  -3.03373886  *
    10       O          1.00305308  *   1.92141414  *  -4.67595450  *
    11       C         -0.80000740  *   3.00789427  *  -3.57727442  *
    12       H         -1.43323006  *   2.29064491  *  -4.11255742  *
    13       H         -1.04087474  *   4.01194409  *  -3.94798742  *
    14       H         -1.07306222  *   2.97417530  *  -2.51589806  *
    15       H          1.79814000  *   1.46521055  *  -1.85549354  *
    16       O          1.23245422  *   0.80007416  *  -1.44101307  *
    17       H          0.63875194  *   1.30266670  *  -0.87558125  *



          CARTESIAN COORDINATES 

    NO.       ATOM           X           Y           Z

     1         C          0.4677     -1.1644      0.8193
     2         H          0.9525     -1.0906     -0.1805
     3         H          0.9640     -0.4331      1.4943
     4         H          0.6398     -2.1772      1.2336
     5         N         -0.9549     -0.8766      0.7025
     6         O         -1.7593     -1.6655      1.1784
     7         O         -1.3090      0.1380      0.1218
     8         C          0.6687      2.7115     -3.7694
     9         O          1.4960      3.2918     -3.0337
    10         O          1.0031      1.9214     -4.6760
    11         C         -0.8000      3.0079     -3.5773
    12         H         -1.4332      2.2906     -4.1126
    13         H         -1.0409      4.0119     -3.9480
    14         H         -1.0731      2.9742     -2.5159
    15         H          1.7981      1.4652     -1.8555
    16         O          1.2325      0.8001     -1.4410
    17         H          0.6388      1.3027     -0.8756

 General Reference for PM7:
 "Optimization of Parameters for Semiempirical Methods VI: More Modifications to the 
 NDDO Approximations and Re-optimization of Parameters", J. J. P. Stewart, J. Mol. Mod., 1:32, 19 (2013)
 https://link.springer.com/article/10.1007/s00894-012-1667-x

           Empirical Formula: C3 H8 N O5  =    17 atoms



      MOLECULAR POINT GROUP   :   C1  


 SINGLET STATE CALCULATION


      RHF CALCULATION, NO. OF DOUBLY OCCUPIED LEVELS = 28



  CARTESIAN GEOMETRY OF FIRST SYSTEM


   1    C         -1.37313      -0.50962       0.38753
   2    H          0.62442      -1.16127      -0.10363
   3    H         -1.06953      -0.32093       1.39999
   4    H         -1.57826      -1.53305       0.13759
   5    N         -1.52210       0.46529      -0.48627
   6    O         -1.30534       1.67145      -0.17757
   7    O         -1.87876       0.24107      -1.67882
   8    C          3.78877       0.06740      -1.97775
   9    O          2.97406       0.64645      -1.08368
  10    O          3.65779      -1.10992      -2.25090
  11    C          4.78645       1.00981      -2.52746
  12    H          4.87347       0.92494      -3.62336
  13    H          5.79268       0.79772      -2.11969
  14    H          4.56636       2.06544      -2.29234
  15    H          2.32804      -0.01745      -0.63571
  16    O          1.58230      -1.32665      -0.02089
  17    H          1.80405      -1.93139      -0.74725


  CARTESIAN GEOMETRY OF SECOND SYSTEM


   1    C         -1.17193      -0.62164       0.15655
   2    H         -0.42051      -1.31172      -0.28975
   3    H         -0.83896      -0.37568       1.18870
   4    H         -2.14628      -1.14326       0.23121
   5    N         -1.27938       0.58415      -0.65271
   6    O         -2.38610       0.95468      -1.01848
   7    O         -0.26155       1.18752      -0.95594
   8    C          4.47411      -0.35654      -1.88580
   9    O          4.74770      -0.42379      -0.66804
  10    O          4.45669      -1.35549      -2.63399
  11    C          4.18796       0.99925      -2.48724
  12    H          3.74973       0.91583      -3.48871
  13    H          5.11192       1.58469      -2.57167
  14    H          3.49262       1.56955      -1.85996
  15    H          2.74747      -1.20463      -0.21509
  16    O          1.83842      -0.97414      -0.44901
  17    H          1.74934      -0.04949      -0.20027


   "DISTANCE":     4.982273


  REACTION COORDINATE VECTOR


   1    C         -0.20121       0.11202       0.23098
   2    H          1.04493       0.15045       0.18612
   3    H         -0.23058       0.05475       0.21129
   4    H          0.56802      -0.38979      -0.09362
   5    N         -0.24273      -0.11886       0.16644
   6    O          1.08076       0.71677       0.84091
   7    O         -1.61721      -0.94645      -0.72288
   8    C         -0.68534       0.42393      -0.09195
   9    O         -1.77364       1.07024      -0.41564
  10    O         -0.79889       0.24557       0.38309
  11    C          0.59849       0.01056      -0.04022
  12    H          1.12374       0.00911      -0.13465
  13    H          0.68076      -0.78697       0.45197
  14    H          1.07374       0.49589      -0.43237
  15    H         -0.41943       1.18718      -0.42062
  16    O         -0.25613      -0.35250       0.42812
  17    H          0.05471      -1.88190      -0.54698
 *+*+*+*+*+*+*+*+*+*+*+*+*+*+*+*+*+*+*+*+*+*+*+*+*+*+*+*+*+*+*+*+*+*+*+*+*+*+*+*+
            BAR SHORTENED BY       0.000 PERCENT
 GRADIENT CRITERION IN FLEPO =     1.000
  SCF CRITERION =    0.1000E-03
 

                    SINCE COS WAS JUST RESET,THE SEARCH IS BEING ENDED


          FOR POINT    1 SECOND STRUCTURE
 DISTANCE A - B      4.982273
 HEAT             -302.353967
 GRADIENT NORM       5.219409
 DIRECTION COSINE    0.000017
* ===============================
* Input file for Mopac
* ===============================
 PM7 BONDS AUX DUMP=30M ITRY=15000 T=14D CHARGE=-1 SINGLET eps=78.4 RELSCF=1


  C     0.00000000 +0    0.0000000 +0    0.0000000 +0     0     0     0
  H     2.15780065 +1    0.0000000 +0    0.0000000 +0     1     0     0
  H     1.07371079 +1   90.3409356 +1    0.0000000 +0     1     2     0
  H     1.07328922 +1   80.5580514 +1 -116.5049731 +1     1     2     3
  N     1.31763453 +1  100.2044786 +1  122.4679466 +1     1     2     3
  O     1.26376216 +1  121.6538049 +1  -96.3098399 +1     5     1     2
  O     1.26477719 +1  121.7354737 +1   83.1175995 +1     5     1     2
  C     3.87750956 +1  140.3355508 +1 -104.9577352 +1     2     1     3
  O     1.34105780 +1   47.0629395 +1   46.7512393 +1     8     2     1
  O     1.21566432 +1   73.3693587 +1 -139.3746982 +1     8     2     1
  C     1.47840497 +1  158.8155287 +1   29.4125502 +1     8     2     1
  H     1.10262387 +1  111.9471702 +1 -120.8550960 +1    11     8     2
  H     1.10623106 +1  110.7666228 +1  120.7563499 +1    11     8     2
  H     1.10366564 +1  113.3233314 +1    0.9637405 +1    11     8     2
  H     1.02897361 +1  113.1455937 +1   11.5812933 +1     9     8     2
  O     0.97556298 +1  160.1934955 +1  -10.2692252 +1     2     1     3
  H     0.97081615 +1  105.4512694 +1  167.7995815 +1    16     2     1

 TIME=     0.48
  REACTANTS AND PRODUCTS SWAPPED AROUND
 *+*+*+*+*+*+*+*+*+*+*+*+*+*+*+*+*+*+*+*+*+*+*+*+*+*+*+*+*+*+*+*+*+*+*+*+*+*+*+*+
            BAR SHORTENED BY       1.000 PERCENT
 GRADIENT CRITERION IN FLEPO =     2.219
           THERE HAVE BEEN 3 ATTEMPTS TO REDUCE THE GRADIENT.
           DURING THESE ATTEMPTS THE ENERGY DROPPED BY LESS THAN 0.3 KCAL/MOLE
           FURTHER CALCULATION IS NOT JUSTIFIED AT THIS TIME.
           TO CONTINUE, START AGAIN WITH THE WORD "PRECISE"


          FOR POINT    2 FIRST  STRUCTURE
 DISTANCE A - B      4.932450
 HEAT             -298.439637
 GRADIENT NORM       7.272455
 DIRECTION COSINE    0.125396
* ===============================
* Input file for Mopac
* ===============================
 PM7 BONDS AUX DUMP=30M ITRY=15000 T=14D CHARGE=-1 SINGLET eps=78.4 RELSCF=1


  C     0.00000000 +0    0.0000000 +0    0.0000000 +0     0     0     0
  H     1.11319431 +1    0.0000000 +0    0.0000000 +0     1     0     0
  H     1.11195843 +1  107.6467982 +1    0.0000000 +0     1     2     0
  H     1.10472230 +1  108.2981694 +1 -116.2546303 +1     1     2     3
  N     1.45580238 +1  111.1592722 +1  120.9531133 +1     1     2     3
  O     1.22295668 +1  118.8789254 +1  128.1133560 +1     5     1     2
  O     1.22397560 +1  119.4491306 +1  -52.2803930 +1     5     1     2
  C     5.07460872 +1  131.6614963 +1   33.3237826 +1     7     5     1
  O     1.25248768 +1   90.4892315 +1  -80.9595379 +1     8     7     5
  O     1.24696966 +1  111.2975931 +1   44.6924010 +1     8     7     5
  C     1.50852638 +1   67.5555064 +1  158.3031575 +1     8     7     5
  H     1.09709549 +1  111.6655758 +1  -87.2010190 +1    11     8     7
  H     1.09679293 +1  110.9669174 +1  152.7702045 +1    11     8     7
  H     1.09846727 +1  111.0154146 +1   33.6331829 +1    11     8     7
  H     2.05138929 +1   91.3031711 +1   37.3593696 +1     9     8     7
  O     0.96757429 +1  151.1090923 +1  -57.2153986 +1    15     9     8
  H     0.95891660 +1  106.5583773 +1  -26.5650787 +1    16    15     9

 TIME=     0.98
  REACTANTS AND PRODUCTS SWAPPED AROUND
 *+*+*+*+*+*+*+*+*+*+*+*+*+*+*+*+*+*+*+*+*+*+*+*+*+*+*+*+*+*+*+*+*+*+*+*+*+*+*+*+
            BAR SHORTENED BY       1.000 PERCENT
 GRADIENT CRITERION IN FLEPO =     4.272


          FOR POINT    3 SECOND STRUCTURE
 DISTANCE A - B      4.883125
 HEAT             -302.300486
 GRADIENT NORM       7.516599
 DIRECTION COSINE   -0.086769
* ===============================
* Input file for Mopac
* ===============================
 PM7 BONDS AUX DUMP=30M ITRY=15000 T=14D CHARGE=-1 SINGLET eps=78.4 RELSCF=1


  C     0.00000000 +0    0.0000000 +0    0.0000000 +0     0     0     0
  H     2.15208394 +1    0.0000000 +0    0.0000000 +0     1     0     0
  H     1.07137469 +1   90.5493119 +1    0.0000000 +0     1     2     0
  H     1.07297981 +1   81.1116894 +1 -116.5602352 +1     1     2     3
  N     1.31632011 +1  100.0669125 +1  122.5063345 +1     1     2     3
  O     1.26212196 +1  121.8533730 +1  -97.2037844 +1     5     1     2
  O     1.26191397 +1  121.7237677 +1   82.2884972 +1     5     1     2
  C     3.88529016 +1  140.4993902 +1 -104.4915810 +1     2     1     3
  O     1.34057573 +1   46.8166788 +1   47.2023978 +1     8     2     1
  O     1.21527493 +1   73.8163367 +1 -139.9168337 +1     8     2     1
  C     1.47637557 +1  158.0937238 +1   27.5303399 +1     8     2     1
  H     1.10343469 +1  111.6086600 +1 -119.3472908 +1    11     8     2
  H     1.10472997 +1  110.9058141 +1  122.1761573 +1    11     8     2
  H     1.10353925 +1  113.2218176 +1    2.5448184 +1    11     8     2
  H     1.03258796 +1  113.7436098 +1   12.5053626 +1     9     8     2
  O     0.97635535 +1  159.0304336 +1  -11.4627378 +1     2     1     3
  H     0.97470483 +1  105.6333775 +1  169.7903439 +1    16     2     1

 *+*+*+*+*+*+*+*+*+*+*+*+*+*+*+*+*+*+*+*+*+*+*+*+*+*+*+*+*+*+*+*+*+*+*+*+*+*+*+*+
            BAR SHORTENED BY       1.000 PERCENT
 GRADIENT CRITERION IN FLEPO =     4.517


          FOR POINT    4 SECOND STRUCTURE
 DISTANCE A - B      4.834294
 HEAT             -302.293661
 GRADIENT NORM       9.965419
 DIRECTION COSINE   -0.211279
* ===============================
* Input file for Mopac
* ===============================
 PM7 BONDS AUX DUMP=30M ITRY=15000 T=14D CHARGE=-1 SINGLET eps=78.4 RELSCF=1


  C     0.00000000 +0    0.0000000 +0    0.0000000 +0     0     0     0
  H     2.14686108 +1    0.0000000 +0    0.0000000 +0     1     0     0
  H     1.07178836 +1   90.6958693 +1    0.0000000 +0     1     2     0
  H     1.07495188 +1   81.7477162 +1 -116.5848751 +1     1     2     3
  N     1.31589790 +1   99.7272226 +1  122.3260428 +1     1     2     3
  O     1.26585312 +1  122.0693467 +1  -98.0791535 +1     5     1     2
  O     1.26620808 +1  121.2814718 +1   81.7402956 +1     5     1     2
  C     3.88955519 +1  140.8978380 +1 -104.0677668 +1     2     1     3
  O     1.34284056 +1   46.7496364 +1   47.9708303 +1     8     2     1
  O     1.21456715 +1   74.4157434 +1 -140.3689073 +1     8     2     1
  C     1.47944024 +1  157.2779431 +1   25.2381629 +1     8     2     1
  H     1.10610245 +1  111.5013682 +1 -117.2639872 +1    11     8     2
  H     1.10205701 +1  110.9976977 +1  123.5512619 +1    11     8     2
  H     1.10542433 +1  112.7128727 +1    4.7630518 +1    11     8     2
  H     1.02878065 +1  113.8149783 +1   13.0845787 +1     9     8     2
  O     0.97505239 +1  157.7068220 +1  -11.8670134 +1     2     1     3
  H     0.97606438 +1  104.5796395 +1  170.8192320 +1    16     2     1

 TIME=     2.09
  REACTANTS AND PRODUCTS SWAPPED AROUND
 *+*+*+*+*+*+*+*+*+*+*+*+*+*+*+*+*+*+*+*+*+*+*+*+*+*+*+*+*+*+*+*+*+*+*+*+*+*+*+*+
            BAR SHORTENED BY       1.000 PERCENT
 GRADIENT CRITERION IN FLEPO =     6.965


          FOR POINT    5 FIRST  STRUCTURE
 DISTANCE A - B      4.785951
 HEAT             -298.524138
 GRADIENT NORM      10.134560
 DIRECTION COSINE   -0.334127
* ===============================
* Input file for Mopac
* ===============================
 PM7 BONDS AUX DUMP=30M ITRY=15000 T=14D CHARGE=-1 SINGLET eps=78.4 RELSCF=1


  C     0.00000000 +0    0.0000000 +0    0.0000000 +0     0     0     0
  H     1.11193670 +1    0.0000000 +0    0.0000000 +0     1     0     0
  H     1.11377360 +1  106.5861402 +1    0.0000000 +0     1     2     0
  H     1.10754815 +1  108.9345059 +1 -115.8606215 +1     1     2     3
  N     1.45469099 +1  111.5651960 +1  120.7020226 +1     1     2     3
  O     1.22355681 +1  119.6101028 +1  129.8580903 +1     5     1     2
  O     1.22271219 +1  119.6110808 +1  -50.2459373 +1     5     1     2
  C     5.06835683 +1  131.6942494 +1   32.3897738 +1     7     5     1
  O     1.25132105 +1   89.9082546 +1  -80.2805104 +1     8     7     5
  O     1.24657084 +1  111.2272174 +1   45.3459415 +1     8     7     5
  C     1.50873829 +1   68.0847533 +1  159.2986077 +1     8     7     5
  H     1.09629702 +1  111.5410788 +1  -87.3904308 +1    11     8     7
  H     1.09700919 +1  110.4194298 +1  152.6199434 +1    11     8     7
  H     1.09702052 +1  111.2461881 +1   34.1588954 +1    11     8     7
  H     2.02916552 +1   91.5884479 +1   37.4522954 +1     9     8     7
  O     0.96714859 +1  152.8804651 +1  -59.0806533 +1    15     9     8
  H     0.96337533 +1  106.0460423 +1  -23.5865551 +1    16    15     9

 TIME=     0.25
  REACTANTS AND PRODUCTS SWAPPED AROUND
 *+*+*+*+*+*+*+*+*+*+*+*+*+*+*+*+*+*+*+*+*+*+*+*+*+*+*+*+*+*+*+*+*+*+*+*+*+*+*+*+
            BAR SHORTENED BY       1.000 PERCENT
 GRADIENT CRITERION IN FLEPO =     7.135


          FOR POINT    6 SECOND STRUCTURE
 DISTANCE A - B      4.738092
 HEAT             -302.166285
 GRADIENT NORM      15.360432
 DIRECTION COSINE   -0.057873
* ===============================
* Input file for Mopac
* ===============================
 PM7 BONDS AUX DUMP=30M ITRY=15000 T=14D CHARGE=-1 SINGLET eps=78.4 RELSCF=1


  C     0.00000000 +0    0.0000000 +0    0.0000000 +0     0     0     0
  H     2.13796433 +1    0.0000000 +0    0.0000000 +0     1     0     0
  H     1.07359863 +1   90.9525151 +1    0.0000000 +0     1     2     0
  H     1.07260306 +1   82.3559724 +1 -116.2101224 +1     1     2     3
  N     1.31630937 +1   99.3616587 +1  122.8198140 +1     1     2     3
  O     1.26313479 +1  122.2960450 +1  -98.6846727 +1     5     1     2
  O     1.26411185 +1  121.3378948 +1   81.3821329 +1     5     1     2
  C     3.89620929 +1  141.3401510 +1 -104.6069207 +1     2     1     3
  O     1.33295237 +1   46.4461484 +1   49.3143407 +1     8     2     1
  O     1.21669799 +1   74.8209255 +1 -140.3516388 +1     8     2     1
  C     1.47571413 +1  156.5278032 +1   24.1272113 +1     8     2     1
  H     1.10039931 +1  112.4982218 +1 -115.1491471 +1    11     8     2
  H     1.10178137 +1  111.2198336 +1  124.8201777 +1    11     8     2
  H     1.10291332 +1  112.6250213 +1    5.8132235 +1    11     8     2
  H     1.02146430 +1  114.4978174 +1   13.7047663 +1     9     8     2
  O     0.97865434 +1  157.5523477 +1  -11.8408105 +1     2     1     3
  H     0.97237117 +1  104.6724214 +1  170.7977134 +1    16     2     1

 TIME=     0.28
  REACTANTS AND PRODUCTS SWAPPED AROUND
 *+*+*+*+*+*+*+*+*+*+*+*+*+*+*+*+*+*+*+*+*+*+*+*+*+*+*+*+*+*+*+*+*+*+*+*+*+*+*+*+
            BAR SHORTENED BY       1.000 PERCENT
 GRADIENT CRITERION IN FLEPO =    10.000


          FOR POINT    7 FIRST  STRUCTURE
 DISTANCE A - B      4.690711
 HEAT             -298.386354
 GRADIENT NORM      23.012101
 DIRECTION COSINE    0.111118
* ===============================
* Input file for Mopac
* ===============================
 PM7 BONDS AUX DUMP=30M ITRY=15000 T=14D CHARGE=-1 SINGLET eps=78.4 RELSCF=1


  C     0.00000000 +0    0.0000000 +0    0.0000000 +0     0     0     0
  H     1.13013939 +1    0.0000000 +0    0.0000000 +0     1     0     0
  H     1.11294607 +1  106.0311210 +1    0.0000000 +0     1     2     0
  H     1.10559960 +1  109.6784548 +1 -116.0580680 +1     1     2     3
  N     1.45406521 +1  111.1698676 +1  120.3037213 +1     1     2     3
  O     1.21909220 +1  120.2974124 +1  131.3936024 +1     5     1     2
  O     1.22020207 +1  119.7418658 +1  -48.5579191 +1     5     1     2
  C     5.06592638 +1  131.7575575 +1   31.6071681 +1     7     5     1
  O     1.25137462 +1   89.4632558 +1  -79.5643109 +1     8     7     5
  O     1.24807950 +1  111.0594473 +1   45.8525951 +1     8     7     5
  C     1.50486465 +1   68.6526450 +1  160.1948021 +1     8     7     5
  H     1.09438817 +1  111.6578100 +1  -87.2755957 +1    11     8     7
  H     1.09598343 +1  110.1798689 +1  152.4316607 +1    11     8     7
  H     1.09614509 +1  111.1324345 +1   34.3375108 +1    11     8     7
  H     2.01339213 +1   91.8851745 +1   37.4966086 +1     9     8     7
  O     0.96825954 +1  154.0082813 +1  -59.9505107 +1    15     9     8
  H     0.95672397 +1  105.0960300 +1  -22.1996178 +1    16    15     9

 TIME=     0.34
  REACTANTS AND PRODUCTS SWAPPED AROUND
 *+*+*+*+*+*+*+*+*+*+*+*+*+*+*+*+*+*+*+*+*+*+*+*+*+*+*+*+*+*+*+*+*+*+*+*+*+*+*+*+
            BAR SHORTENED BY       1.000 PERCENT
 GRADIENT CRITERION IN FLEPO =    10.000
           THERE HAVE BEEN 3 ATTEMPTS TO REDUCE THE GRADIENT.
           DURING THESE ATTEMPTS THE ENERGY DROPPED BY LESS THAN 0.3 KCAL/MOLE
           FURTHER CALCULATION IS NOT JUSTIFIED AT THIS TIME.
           TO CONTINUE, START AGAIN WITH THE WORD "PRECISE"


          FOR POINT    8 SECOND STRUCTURE
 DISTANCE A - B      4.643804
 HEAT             -302.053819
 GRADIENT NORM      18.577635
 DIRECTION COSINE    0.300042
* ===============================
* Input file for Mopac
* ===============================
 PM7 BONDS AUX DUMP=30M ITRY=15000 T=14D CHARGE=-1 SINGLET eps=78.4 RELSCF=1


  C     0.00000000 +0    0.0000000 +0    0.0000000 +0     0     0     0
  H     2.13323462 +1    0.0000000 +0    0.0000000 +0     1     0     0
  H     1.06993032 +1   91.2016989 +1    0.0000000 +0     1     2     0
  H     1.07362291 +1   82.7537696 +1 -116.4709276 +1     1     2     3
  N     1.31596508 +1   99.1330286 +1  122.6195631 +1     1     2     3
  O     1.26191560 +1  122.4782524 +1  -99.4499472 +1     5     1     2
  O     1.25602041 +1  121.3756424 +1   79.4803302 +1     5     1     2
  C     3.90408974 +1  141.5509628 +1 -104.2623602 +1     2     1     3
  O     1.33691816 +1   46.6120564 +1   49.8438517 +1     8     2     1
  O     1.21510214 +1   75.0470331 +1 -140.5697820 +1     8     2     1
  C     1.47666723 +1  155.7167278 +1   22.7646616 +1     8     2     1
  H     1.10651877 +1  111.8983628 +1 -114.4600614 +1    11     8     2
  H     1.10215092 +1  110.9543174 +1  126.0154796 +1    11     8     2
  H     1.10390773 +1  112.6005398 +1    7.3032261 +1    11     8     2
  H     1.02942618 +1  114.2884379 +1   13.8566098 +1     9     8     2
  O     0.97946714 +1  156.8634895 +1  -12.2000064 +1     2     1     3
  H     0.97324041 +1  104.6198996 +1  171.9468888 +1    16     2     1

 *+*+*+*+*+*+*+*+*+*+*+*+*+*+*+*+*+*+*+*+*+*+*+*+*+*+*+*+*+*+*+*+*+*+*+*+*+*+*+*+
            BAR SHORTENED BY       1.000 PERCENT
 GRADIENT CRITERION IN FLEPO =    10.000


          FOR POINT    9 SECOND STRUCTURE
 DISTANCE A - B      4.597366
 HEAT             -302.131934
 GRADIENT NORM      14.246028
 DIRECTION COSINE    0.577837
* ===============================
* Input file for Mopac
* ===============================
 PM7 BONDS AUX DUMP=30M ITRY=15000 T=14D CHARGE=-1 SINGLET eps=78.4 RELSCF=1


  C     0.00000000 +0    0.0000000 +0    0.0000000 +0     0     0     0
  H     2.13474652 +1    0.0000000 +0    0.0000000 +0     1     0     0
  H     1.07164397 +1   91.9255888 +1    0.0000000 +0     1     2     0
  H     1.07503815 +1   83.0976548 +1 -116.5159783 +1     1     2     3
  N     1.31727630 +1   98.0843344 +1  122.6603485 +1     1     2     3
  O     1.26292403 +1  122.5938449 +1 -100.9739463 +1     5     1     2
  O     1.26322362 +1  121.1024016 +1   78.9115183 +1     5     1     2
  C     3.89892301 +1  142.4670986 +1 -103.0985434 +1     2     1     3
  O     1.33496025 +1   46.6694714 +1   50.1944060 +1     8     2     1
  O     1.21509673 +1   75.5414906 +1 -141.8567751 +1     8     2     1
  C     1.47658770 +1  154.8018782 +1   20.0614597 +1     8     2     1
  H     1.10052238 +1  111.6341201 +1 -112.9072868 +1    11     8     2
  H     1.09660004 +1  111.3529560 +1  127.8465996 +1    11     8     2
  H     1.10509810 +1  112.2888011 +1    8.9488510 +1    11     8     2
  H     1.03029389 +1  114.7380184 +1   14.4761618 +1     9     8     2
  O     0.98166422 +1  154.7540208 +1   -9.4746593 +1     2     1     3
  H     0.97192698 +1  103.5751772 +1  170.1975257 +1    16     2     1

 *+*+*+*+*+*+*+*+*+*+*+*+*+*+*+*+*+*+*+*+*+*+*+*+*+*+*+*+*+*+*+*+*+*+*+*+*+*+*+*+
            BAR SHORTENED BY       1.000 PERCENT
 GRADIENT CRITERION IN FLEPO =    10.000


          FOR POINT   10 SECOND STRUCTURE
 DISTANCE A - B      4.551392
 HEAT             -301.855992
 GRADIENT NORM      17.173519
 DIRECTION COSINE    0.683364
* ===============================
* Input file for Mopac
* ===============================
 PM7 BONDS AUX DUMP=30M ITRY=15000 T=14D CHARGE=-1 SINGLET eps=78.4 RELSCF=1


  C     0.00000000 +0    0.0000000 +0    0.0000000 +0     0     0     0
  H     2.12909232 +1    0.0000000 +0    0.0000000 +0     1     0     0
  H     1.06770036 +1   91.8281390 +1    0.0000000 +0     1     2     0
  H     1.07177693 +1   83.7039528 +1 -116.4393807 +1     1     2     3
  N     1.31743296 +1   97.9906720 +1  122.6528386 +1     1     2     3
  O     1.26225785 +1  122.5659134 +1 -101.2979662 +1     5     1     2
  O     1.26016785 +1  121.3303539 +1   78.2245004 +1     5     1     2
  C     3.90720361 +1  142.7446033 +1 -103.4008235 +1     2     1     3
  O     1.33241416 +1   45.8768840 +1   51.6693725 +1     8     2     1
  O     1.21489107 +1   76.1698118 +1 -141.4196432 +1     8     2     1
  C     1.47957632 +1  153.7664647 +1   19.4038651 +1     8     2     1
  H     1.09676066 +1  111.3934274 +1 -112.0867652 +1    11     8     2
  H     1.10314693 +1  111.0154445 +1  128.7277052 +1    11     8     2
  H     1.10349810 +1  112.2593331 +1   10.3433225 +1    11     8     2
  H     1.02630686 +1  116.2691367 +1   15.1851518 +1     9     8     2
  O     0.97773037 +1  154.9740065 +1   -9.5847617 +1     2     1     3
  H     0.97488833 +1  104.1378841 +1  171.0233207 +1    16     2     1

 TIME=     1.24
  REACTANTS AND PRODUCTS SWAPPED AROUND
 *+*+*+*+*+*+*+*+*+*+*+*+*+*+*+*+*+*+*+*+*+*+*+*+*+*+*+*+*+*+*+*+*+*+*+*+*+*+*+*+
            BAR SHORTENED BY       0.000 PERCENT
 GRADIENT CRITERION IN FLEPO =    10.000


          FOR POINT   11 FIRST  STRUCTURE
 DISTANCE A - B      4.551392
 HEAT             -298.800866
 GRADIENT NORM      13.030963
 DIRECTION COSINE   -0.231846
* ===============================
* Input file for Mopac
* ===============================
 PM7 BONDS AUX DUMP=30M ITRY=15000 T=14D CHARGE=-1 SINGLET eps=78.4 RELSCF=1


  C     0.00000000 +0    0.0000000 +0    0.0000000 +0     0     0     0
  H     1.11710877 +1    0.0000000 +0    0.0000000 +0     1     0     0
  H     1.11311162 +1  106.7300443 +1    0.0000000 +0     1     2     0
  H     1.10553868 +1  109.2738090 +1 -115.5932844 +1     1     2     3
  N     1.45640432 +1  111.3846698 +1  120.5025685 +1     1     2     3
  O     1.22289373 +1  119.7909533 +1  131.3366204 +1     5     1     2
  O     1.22651176 +1  118.1466458 +1  -50.0952908 +1     5     1     2
  C     5.04658618 +1  132.3826348 +1   34.5642522 +1     7     5     1
  O     1.25080863 +1   88.0931924 +1  -82.3036064 +1     8     7     5
  O     1.24516051 +1  111.5215577 +1   42.6617984 +1     8     7     5
  C     1.50784203 +1   69.2048947 +1  157.0790460 +1     8     7     5
  H     1.09730453 +1  112.2065042 +1  -87.4529629 +1    11     8     7
  H     1.09042999 +1  110.2723860 +1  152.1262863 +1    11     8     7
  H     1.09834412 +1  110.9769071 +1   33.5266288 +1    11     8     7
  H     1.97965072 +1   92.9786716 +1   37.7213229 +1     9     8     7
  O     0.96857809 +1  154.4468780 +1  -59.7811589 +1    15     9     8
  H     0.96224318 +1  105.6846420 +1  -21.9580650 +1    16    15     9

 TIME=     0.14
  REACTANTS AND PRODUCTS SWAPPED AROUND
 *+*+*+*+*+*+*+*+*+*+*+*+*+*+*+*+*+*+*+*+*+*+*+*+*+*+*+*+*+*+*+*+*+*+*+*+*+*+*+*+
            BAR SHORTENED BY       1.000 PERCENT
 GRADIENT CRITERION IN FLEPO =    10.000


          FOR POINT   12 SECOND STRUCTURE
 DISTANCE A - B      4.505878
 HEAT             -301.441169
 GRADIENT NORM      16.339218
 DIRECTION COSINE   -0.315666
* ===============================
* Input file for Mopac
* ===============================
 PM7 BONDS AUX DUMP=30M ITRY=15000 T=14D CHARGE=-1 SINGLET eps=78.4 RELSCF=1


  C     0.00000000 +0    0.0000000 +0    0.0000000 +0     0     0     0
  H     2.12393295 +1    0.0000000 +0    0.0000000 +0     1     0     0
  H     1.06833257 +1   91.9208139 +1    0.0000000 +0     1     2     0
  H     1.07276512 +1   83.7993490 +1 -116.8682463 +1     1     2     3
  N     1.31978879 +1   97.5376671 +1  122.6644454 +1     1     2     3
  O     1.26210477 +1  122.4760781 +1 -102.2498078 +1     5     1     2
  O     1.25982531 +1  121.3743818 +1   77.5036711 +1     5     1     2
  C     3.91760506 +1  143.1321437 +1 -103.2369573 +1     2     1     3
  O     1.33775516 +1   46.1173417 +1   52.3300900 +1     8     2     1
  O     1.21446352 +1   76.7587058 +1 -141.3791905 +1     8     2     1
  C     1.47826958 +1  152.8024850 +1   18.7098265 +1     8     2     1
  H     1.09935661 +1  112.7403161 +1 -109.6594318 +1    11     8     2
  H     1.09946899 +1  111.2444530 +1  129.4493586 +1    11     8     2
  H     1.10426317 +1  112.3741505 +1   10.7883758 +1    11     8     2
  H     1.02716551 +1  115.4940069 +1   15.3636281 +1     9     8     2
  O     0.97520189 +1  154.8379583 +1   -9.6546835 +1     2     1     3
  H     0.96921766 +1  104.6517360 +1  172.2233744 +1    16     2     1

 TIME=     0.07
  REACTANTS AND PRODUCTS SWAPPED AROUND
 *+*+*+*+*+*+*+*+*+*+*+*+*+*+*+*+*+*+*+*+*+*+*+*+*+*+*+*+*+*+*+*+*+*+*+*+*+*+*+*+
            BAR SHORTENED BY       1.000 PERCENT
 GRADIENT CRITERION IN FLEPO =    10.000


          FOR POINT   13 FIRST  STRUCTURE
 DISTANCE A - B      4.460819
 HEAT             -298.770973
 GRADIENT NORM      19.137964
 DIRECTION COSINE    0.141684
* ===============================
* Input file for Mopac
* ===============================
 PM7 BONDS AUX DUMP=30M ITRY=15000 T=14D CHARGE=-1 SINGLET eps=78.4 RELSCF=1


  C     0.00000000 +0    0.0000000 +0    0.0000000 +0     0     0     0
  H     1.11802581 +1    0.0000000 +0    0.0000000 +0     1     0     0
  H     1.11256763 +1  106.9274915 +1    0.0000000 +0     1     2     0
  H     1.10385825 +1  109.0696865 +1 -115.8778283 +1     1     2     3
  N     1.45501315 +1  111.1247413 +1  120.3880675 +1     1     2     3
  O     1.21956725 +1  120.3523302 +1  132.0456114 +1     5     1     2
  O     1.21976197 +1  118.5849463 +1  -49.2321622 +1     5     1     2
  C     5.04357321 +1  132.4025204 +1   33.5564267 +1     7     5     1
  O     1.25123483 +1   87.6936153 +1  -81.3516437 +1     8     7     5
  O     1.24685606 +1  111.3823125 +1   43.4009891 +1     8     7     5
  C     1.50390762 +1   69.7024953 +1  158.2536753 +1     8     7     5
  H     1.09413939 +1  112.1474167 +1  -87.5661201 +1    11     8     7
  H     1.09197283 +1  110.1105742 +1  151.9480690 +1    11     8     7
  H     1.10635347 +1  111.7296103 +1   34.3578291 +1    11     8     7
  H     1.96275634 +1   93.2881535 +1   37.7540406 +1     9     8     7
  O     0.96629930 +1  155.4429050 +1  -60.5974079 +1    15     9     8
  H     0.95509590 +1  104.9919376 +1  -20.6044785 +1    16    15     9

 TIME=     0.08
  REACTANTS AND PRODUCTS SWAPPED AROUND
 *+*+*+*+*+*+*+*+*+*+*+*+*+*+*+*+*+*+*+*+*+*+*+*+*+*+*+*+*+*+*+*+*+*+*+*+*+*+*+*+
            BAR SHORTENED BY       1.000 PERCENT
 GRADIENT CRITERION IN FLEPO =    10.000


          FOR POINT   14 SECOND STRUCTURE
 DISTANCE A - B      4.416211
 HEAT             -301.199585
 GRADIENT NORM      20.539625
 DIRECTION COSINE    0.101201
* ===============================
* Input file for Mopac
* ===============================
 PM7 BONDS AUX DUMP=30M ITRY=15000 T=14D CHARGE=-1 SINGLET eps=78.4 RELSCF=1


  C     0.00000000 +0    0.0000000 +0    0.0000000 +0     0     0     0
  H     2.11190345 +1    0.0000000 +0    0.0000000 +0     1     0     0
  H     1.06984400 +1   92.1207039 +1    0.0000000 +0     1     2     0
  H     1.07123492 +1   84.4003893 +1 -116.2480375 +1     1     2     3
  N     1.31631184 +1   97.2660536 +1  122.5793848 +1     1     2     3
  O     1.26403096 +1  122.4871706 +1 -102.7762973 +1     5     1     2
  O     1.26197816 +1  121.2286958 +1   76.9341537 +1     5     1     2
  C     3.92840700 +1  143.6678556 +1 -103.4158114 +1     2     1     3
  O     1.32933716 +1   45.8497929 +1   54.2399509 +1     8     2     1
  O     1.21767920 +1   77.2193093 +1 -141.2135207 +1     8     2     1
  C     1.47865235 +1  151.8725277 +1   17.9267047 +1     8     2     1
  H     1.10001542 +1  111.9079981 +1 -109.1549635 +1    11     8     2
  H     1.09994755 +1  111.0806478 +1  130.4528947 +1    11     8     2
  H     1.10319265 +1  111.9998191 +1   12.0723730 +1    11     8     2
  H     1.02168413 +1  116.1922194 +1   15.7866217 +1     9     8     2
  O     0.97853499 +1  154.9449433 +1   -8.2772788 +1     2     1     3
  H     0.97250027 +1  105.0628686 +1  171.3755183 +1    16     2     1

 *+*+*+*+*+*+*+*+*+*+*+*+*+*+*+*+*+*+*+*+*+*+*+*+*+*+*+*+*+*+*+*+*+*+*+*+*+*+*+*+
            BAR SHORTENED BY       1.000 PERCENT
 GRADIENT CRITERION IN FLEPO =    10.000


          FOR POINT   15 SECOND STRUCTURE
 DISTANCE A - B      4.372049
 HEAT             -300.678622
 GRADIENT NORM      26.256121
 DIRECTION COSINE    0.560123
* ===============================
* Input file for Mopac
* ===============================
 PM7 BONDS AUX DUMP=30M ITRY=15000 T=14D CHARGE=-1 SINGLET eps=78.4 RELSCF=1


  C     0.00000000 +0    0.0000000 +0    0.0000000 +0     0     0     0
  H     2.10720165 +1    0.0000000 +0    0.0000000 +0     1     0     0
  H     1.06538693 +1   92.4308305 +1    0.0000000 +0     1     2     0
  H     1.07322555 +1   84.5421568 +1 -116.8496020 +1     1     2     3
  N     1.31996493 +1   96.7606336 +1  122.6159394 +1     1     2     3
  O     1.25718298 +1  122.5570758 +1 -104.0191492 +1     5     1     2
  O     1.25785955 +1  120.6196563 +1   75.9634240 +1     5     1     2
  C     3.94005896 +1  144.0028912 +1 -102.7354006 +1     2     1     3
  O     1.33162934 +1   45.8672788 +1   54.4221757 +1     8     2     1
  O     1.21405492 +1   77.5606988 +1 -141.5924427 +1     8     2     1
  C     1.47572910 +1  150.9921652 +1   16.4313475 +1     8     2     1
  H     1.10338880 +1  111.6624244 +1 -108.4093790 +1    11     8     2
  H     1.09935598 +1  111.0256139 +1  131.4825700 +1    11     8     2
  H     1.10282466 +1  112.0547115 +1   13.2817344 +1    11     8     2
  H     1.02788735 +1  116.1247100 +1   16.1093339 +1     9     8     2
  O     0.98667107 +1  154.3709758 +1   -8.3372131 +1     2     1     3
  H     0.96421540 +1  104.5268499 +1  172.2366823 +1    16     2     1

 *+*+*+*+*+*+*+*+*+*+*+*+*+*+*+*+*+*+*+*+*+*+*+*+*+*+*+*+*+*+*+*+*+*+*+*+*+*+*+*+
            BAR SHORTENED BY       1.000 PERCENT
 GRADIENT CRITERION IN FLEPO =    10.000


          FOR POINT   16 SECOND STRUCTURE
 DISTANCE A - B      4.328328
 HEAT             -301.814434
 GRADIENT NORM      15.537055
 DIRECTION COSINE    0.018373
* ===============================
* Input file for Mopac
* ===============================
 PM7 BONDS AUX DUMP=30M ITRY=15000 T=14D CHARGE=-1 SINGLET eps=78.4 RELSCF=1


  C     0.00000000 +0    0.0000000 +0    0.0000000 +0     0     0     0
  H     2.17185503 +1    0.0000000 +0    0.0000000 +0     1     0     0
  H     1.07778958 +1   97.0733921 +1    0.0000000 +0     1     2     0
  H     1.07155390 +1   82.7588279 +1 -115.0349039 +1     1     2     3
  N     1.31704857 +1   92.0896697 +1  121.8761074 +1     1     2     3
  O     1.26582241 +1  120.8836913 +1 -101.2845181 +1     5     1     2
  O     1.26417955 +1  122.4196629 +1   76.6717770 +1     5     1     2
  C     3.91387257 +1  148.8421000 +1 -105.2341209 +1     2     1     3
  O     1.34426809 +1   45.9738126 +1   63.9615383 +1     8     2     1
  O     1.21650580 +1   78.7820871 +1 -138.2249784 +1     8     2     1
  C     1.47406422 +1  147.3623576 +1   14.7767635 +1     8     2     1
  H     1.10160672 +1  112.5211816 +1 -103.0689515 +1    11     8     2
  H     1.10293890 +1  112.0853571 +1  136.9293380 +1    11     8     2
  H     1.10824239 +1  111.7190071 +1   17.0587680 +1    11     8     2
  H     1.02887016 +1  115.7650753 +1   19.9499161 +1     9     8     2
  O     0.97633772 +1  154.6968760 +1   20.0533547 +1     2     1     3
  H     0.97565567 +1  105.2698872 +1  143.7092654 +1    16     2     1

 TIME=     0.92
  REACTANTS AND PRODUCTS SWAPPED AROUND
 *+*+*+*+*+*+*+*+*+*+*+*+*+*+*+*+*+*+*+*+*+*+*+*+*+*+*+*+*+*+*+*+*+*+*+*+*+*+*+*+
            BAR SHORTENED BY       0.000 PERCENT
 GRADIENT CRITERION IN FLEPO =    10.000


          FOR POINT   17 FIRST  STRUCTURE
 DISTANCE A - B      4.328328
 HEAT             -298.929410
 GRADIENT NORM      16.464979
 DIRECTION COSINE   -0.121688
* ===============================
* Input file for Mopac
* ===============================
 PM7 BONDS AUX DUMP=30M ITRY=15000 T=14D CHARGE=-1 SINGLET eps=78.4 RELSCF=1


  C     0.00000000 +0    0.0000000 +0    0.0000000 +0     0     0     0
  H     1.11319651 +1    0.0000000 +0    0.0000000 +0     1     0     0
  H     1.11324631 +1  107.1643060 +1    0.0000000 +0     1     2     0
  H     1.10679851 +1  109.0594838 +1 -116.0022963 +1     1     2     3
  N     1.45823846 +1  111.2685153 +1  120.4619618 +1     1     2     3
  O     1.22480941 +1  120.1169366 +1  131.6810031 +1     5     1     2
  O     1.22361507 +1  118.4903423 +1  -48.7865787 +1     5     1     2
  C     5.03990953 +1  132.5115624 +1   32.9235998 +1     7     5     1
  O     1.25393982 +1   87.4302710 +1  -80.8210350 +1     8     7     5
  O     1.24235647 +1  111.6911602 +1   43.7374068 +1     8     7     5
  C     1.50602598 +1   69.6515397 +1  158.7852064 +1     8     7     5
  H     1.09593517 +1  111.9802707 +1  -87.8170934 +1    11     8     7
  H     1.09592792 +1  110.1790242 +1  152.3052994 +1    11     8     7
  H     1.09907600 +1  111.7922284 +1   34.3021077 +1    11     8     7
  H     1.94737693 +1   93.7396771 +1   37.7946655 +1     9     8     7
  O     0.96163052 +1  155.6419438 +1  -59.9007982 +1    15     9     8
  H     0.96457648 +1  106.5876580 +1  -20.9800012 +1    16    15     9

 TIME=     0.16
  REACTANTS AND PRODUCTS SWAPPED AROUND
 *+*+*+*+*+*+*+*+*+*+*+*+*+*+*+*+*+*+*+*+*+*+*+*+*+*+*+*+*+*+*+*+*+*+*+*+*+*+*+*+
            BAR SHORTENED BY       1.000 PERCENT
 GRADIENT CRITERION IN FLEPO =    10.000


          FOR POINT   18 SECOND STRUCTURE
 DISTANCE A - B      4.285045
 HEAT             -301.622941
 GRADIENT NORM      14.406366
 DIRECTION COSINE    0.255102
* ===============================
* Input file for Mopac
* ===============================
 PM7 BONDS AUX DUMP=30M ITRY=15000 T=14D CHARGE=-1 SINGLET eps=78.4 RELSCF=1


  C     0.00000000 +0    0.0000000 +0    0.0000000 +0     0     0     0
  H     2.16155707 +1    0.0000000 +0    0.0000000 +0     1     0     0
  H     1.07067622 +1   97.2623149 +1    0.0000000 +0     1     2     0
  H     1.07184161 +1   83.2240072 +1 -115.7629728 +1     1     2     3
  N     1.31785914 +1   92.1044556 +1  121.9400214 +1     1     2     3
  O     1.26258679 +1  121.1517179 +1 -102.6291025 +1     5     1     2
  O     1.26114549 +1  122.5306928 +1   76.1440672 +1     5     1     2
  C     3.92299991 +1  148.7632646 +1 -104.9304030 +1     2     1     3
  O     1.33860839 +1   45.7023876 +1   64.0821176 +1     8     2     1
  O     1.21604333 +1   79.2277170 +1 -138.0684813 +1     8     2     1
  C     1.47928464 +1  146.9060797 +1   12.8521027 +1     8     2     1
  H     1.10676884 +1  112.3991995 +1 -101.7897545 +1    11     8     2
  H     1.10054771 +1  111.6669043 +1  137.8948731 +1    11     8     2
  H     1.10694517 +1  111.1325685 +1   19.0387038 +1    11     8     2
  H     1.01810550 +1  115.8357075 +1   19.7772300 +1     9     8     2
  O     0.97673473 +1  155.0367686 +1   17.9787775 +1     2     1     3
  H     0.96996410 +1  104.4007592 +1  145.9080956 +1    16     2     1

 *+*+*+*+*+*+*+*+*+*+*+*+*+*+*+*+*+*+*+*+*+*+*+*+*+*+*+*+*+*+*+*+*+*+*+*+*+*+*+*+
            BAR SHORTENED BY       1.000 PERCENT
 GRADIENT CRITERION IN FLEPO =    10.000


          FOR POINT   19 SECOND STRUCTURE
 DISTANCE A - B      4.242195
 HEAT             -301.371299
 GRADIENT NORM      13.324126
 DIRECTION COSINE    0.569813
* ===============================
* Input file for Mopac
* ===============================
 PM7 BONDS AUX DUMP=30M ITRY=15000 T=14D CHARGE=-1 SINGLET eps=78.4 RELSCF=1


  C     0.00000000 +0    0.0000000 +0    0.0000000 +0     0     0     0
  H     2.13870217 +1    0.0000000 +0    0.0000000 +0     1     0     0
  H     1.07006587 +1   97.7914019 +1    0.0000000 +0     1     2     0
  H     1.07519235 +1   84.1236647 +1 -116.8154234 +1     1     2     3
  N     1.31864024 +1   92.7336134 +1  121.9878481 +1     1     2     3
  O     1.26318909 +1  121.4158719 +1 -103.2220614 +1     5     1     2
  O     1.26124846 +1  122.2044072 +1   75.0370692 +1     5     1     2
  C     3.94144402 +1  148.7122019 +1 -105.0882817 +1     2     1     3
  O     1.34285488 +1   45.5271337 +1   65.3852412 +1     8     2     1
  O     1.21320516 +1   79.3049829 +1 -138.0121793 +1     8     2     1
  C     1.47735194 +1  146.1017058 +1   12.5740353 +1     8     2     1
  H     1.10204078 +1  111.7375223 +1 -101.7454981 +1    11     8     2
  H     1.09983928 +1  111.5844678 +1  138.3285296 +1    11     8     2
  H     1.10211866 +1  111.2547614 +1   19.5019433 +1    11     8     2
  H     1.01609334 +1  116.2550850 +1   19.6029104 +1     9     8     2
  O     0.97871325 +1  155.3257343 +1   16.0911820 +1     2     1     3
  H     0.97105749 +1  104.3294943 +1  148.1386253 +1    16     2     1

 *+*+*+*+*+*+*+*+*+*+*+*+*+*+*+*+*+*+*+*+*+*+*+*+*+*+*+*+*+*+*+*+*+*+*+*+*+*+*+*+
            BAR SHORTENED BY       1.000 PERCENT
 GRADIENT CRITERION IN FLEPO =    10.000


          FOR POINT   20 SECOND STRUCTURE
 DISTANCE A - B      4.199773
 HEAT             -301.064674
 GRADIENT NORM      19.130861
 DIRECTION COSINE    0.582195
* ===============================
* Input file for Mopac
* ===============================
 PM7 BONDS AUX DUMP=30M ITRY=15000 T=14D CHARGE=-1 SINGLET eps=78.4 RELSCF=1


  C     0.00000000 +0    0.0000000 +0    0.0000000 +0     0     0     0
  H     2.13202820 +1    0.0000000 +0    0.0000000 +0     1     0     0
  H     1.07156296 +1   97.1966042 +1    0.0000000 +0     1     2     0
  H     1.07059646 +1   84.4833022 +1 -116.4175552 +1     1     2     3
  N     1.31581102 +1   92.8160009 +1  121.9957233 +1     1     2     3
  O     1.26279603 +1  121.6003249 +1 -104.1109225 +1     5     1     2
  O     1.25992448 +1  122.1252912 +1   74.5332449 +1     5     1     2
  C     3.95177606 +1  148.5813254 +1 -105.8358297 +1     2     1     3
  O     1.34919920 +1   45.7165643 +1   67.0258623 +1     8     2     1
  O     1.20934818 +1   79.8640750 +1 -137.3458465 +1     8     2     1
  C     1.47848727 +1  145.4907157 +1   12.8917773 +1     8     2     1
  H     1.10156124 +1  111.6723443 +1 -101.3191215 +1    11     8     2
  H     1.10089302 +1  111.7762863 +1  138.4952897 +1    11     8     2
  H     1.10526516 +1  111.3955385 +1   19.8493866 +1    11     8     2
  H     1.01326816 +1  115.8179343 +1   19.4177237 +1     9     8     2
  O     0.97867696 +1  156.0977443 +1   14.2394228 +1     2     1     3
  H     0.96922173 +1  104.4942504 +1  150.1599101 +1    16     2     1

 TIME=     1.23
  REACTANTS AND PRODUCTS SWAPPED AROUND
 *+*+*+*+*+*+*+*+*+*+*+*+*+*+*+*+*+*+*+*+*+*+*+*+*+*+*+*+*+*+*+*+*+*+*+*+*+*+*+*+
            BAR SHORTENED BY       0.000 PERCENT
 GRADIENT CRITERION IN FLEPO =    10.000


          FOR POINT   21 FIRST  STRUCTURE
 DISTANCE A - B      4.199773
 HEAT             -299.090922
 GRADIENT NORM      13.783141
 DIRECTION COSINE    0.107351
* ===============================
* Input file for Mopac
* ===============================
 PM7 BONDS AUX DUMP=30M ITRY=15000 T=14D CHARGE=-1 SINGLET eps=78.4 RELSCF=1


  C     0.00000000 +0    0.0000000 +0    0.0000000 +0     0     0     0
  H     1.11454278 +1    0.0000000 +0    0.0000000 +0     1     0     0
  H     1.11637544 +1  107.0054901 +1    0.0000000 +0     1     2     0
  H     1.10974473 +1  108.0165339 +1 -115.0738954 +1     1     2     3
  N     1.45345466 +1  111.4856612 +1  121.3381907 +1     1     2     3
  O     1.22280568 +1  119.9127053 +1  131.0982619 +1     5     1     2
  O     1.22556265 +1  118.3088885 +1  -49.7363038 +1     5     1     2
  C     5.03449132 +1  132.4916851 +1   33.5593288 +1     7     5     1
  O     1.25293368 +1   87.2986738 +1  -80.6793321 +1     8     7     5
  O     1.24706027 +1  112.1117665 +1   43.4724737 +1     8     7     5
  C     1.50813133 +1   69.9185432 +1  158.2977925 +1     8     7     5
  H     1.09821700 +1  112.0412248 +1  -87.0556979 +1    11     8     7
  H     1.10717336 +1  110.2871261 +1  152.3151766 +1    11     8     7
  H     1.09702749 +1  111.2378241 +1   33.7739354 +1    11     8     7
  H     1.92350308 +1   94.2459856 +1   37.0845917 +1     9     8     7
  O     0.96733430 +1  157.3650970 +1  -57.0014635 +1    15     9     8
  H     0.96208421 +1  105.1911589 +1  -23.2544903 +1    16    15     9

 TIME=     0.38
  REACTANTS AND PRODUCTS SWAPPED AROUND
 *+*+*+*+*+*+*+*+*+*+*+*+*+*+*+*+*+*+*+*+*+*+*+*+*+*+*+*+*+*+*+*+*+*+*+*+*+*+*+*+
            BAR SHORTENED BY       1.000 PERCENT
 GRADIENT CRITERION IN FLEPO =    10.000


          FOR POINT   22 SECOND STRUCTURE
 DISTANCE A - B      4.157775
 HEAT             -300.952739
 GRADIENT NORM      19.720865
 DIRECTION COSINE   -0.122077
* ===============================
* Input file for Mopac
* ===============================
 PM7 BONDS AUX DUMP=30M ITRY=15000 T=14D CHARGE=-1 SINGLET eps=78.4 RELSCF=1


  C     0.00000000 +0    0.0000000 +0    0.0000000 +0     0     0     0
  H     2.12712569 +1    0.0000000 +0    0.0000000 +0     1     0     0
  H     1.07226952 +1   96.7698441 +1    0.0000000 +0     1     2     0
  H     1.06878929 +1   84.6907234 +1 -116.3297628 +1     1     2     3
  N     1.31705914 +1   92.7780779 +1  121.6378184 +1     1     2     3
  O     1.26382583 +1  121.4790159 +1 -105.0339126 +1     5     1     2
  O     1.25662805 +1  121.9828828 +1   73.8876976 +1     5     1     2
  C     3.96025320 +1  148.6439374 +1 -105.8515991 +1     2     1     3
  O     1.34151730 +1   45.8571805 +1   68.0809686 +1     8     2     1
  O     1.21066180 +1   80.3180289 +1 -137.0889241 +1     8     2     1
  C     1.47774796 +1  144.8938521 +1   12.1947344 +1     8     2     1
  H     1.10438401 +1  111.7599702 +1 -100.6236081 +1    11     8     2
  H     1.10143729 +1  111.7089580 +1  139.3880930 +1    11     8     2
  H     1.10368306 +1  111.5699155 +1   20.4858124 +1    11     8     2
  H     1.02025922 +1  116.0570485 +1   19.3568933 +1     9     8     2
  O     0.98143313 +1  156.3535178 +1   12.8773086 +1     2     1     3
  H     0.96525080 +1  104.3998433 +1  151.8967197 +1    16     2     1

 TIME=     1.61
  REACTANTS AND PRODUCTS SWAPPED AROUND
 *+*+*+*+*+*+*+*+*+*+*+*+*+*+*+*+*+*+*+*+*+*+*+*+*+*+*+*+*+*+*+*+*+*+*+*+*+*+*+*+
            BAR SHORTENED BY       1.000 PERCENT
 GRADIENT CRITERION IN FLEPO =    10.000


          FOR POINT   23 FIRST  STRUCTURE
 DISTANCE A - B      4.116197
 HEAT             -300.404500
 GRADIENT NORM      22.035519
 DIRECTION COSINE   -0.183039
* ===============================
* Input file for Mopac
* ===============================
 PM7 BONDS AUX DUMP=30M ITRY=15000 T=14D CHARGE=-1 SINGLET eps=78.4 RELSCF=1


  C     0.00000000 +0    0.0000000 +0    0.0000000 +0     0     0     0
  H     1.10835212 +1    0.0000000 +0    0.0000000 +0     1     0     0
  H     1.10930993 +1  107.4074717 +1    0.0000000 +0     1     2     0
  H     1.10577808 +1  108.6530266 +1 -115.0441726 +1     1     2     3
  N     1.46075488 +1  111.1923025 +1  121.0038219 +1     1     2     3
  O     1.22696297 +1  119.4530199 +1  131.6264663 +1     5     1     2
  O     1.22330652 +1  118.5175659 +1  -49.2735774 +1     5     1     2
  C     5.01030597 +1  132.6606368 +1   33.3080965 +1     7     5     1
  O     1.25894843 +1   85.2008342 +1  -78.6157004 +1     8     7     5
  O     1.24286334 +1  113.2000453 +1   44.6451758 +1     8     7     5
  C     1.50584145 +1   70.8429246 +1  159.2292395 +1     8     7     5
  H     1.09164666 +1  110.1673726 +1  -86.7703993 +1    11     8     7
  H     1.09673956 +1  110.9381873 +1  153.2264804 +1    11     8     7
  H     1.08994798 +1  111.0428530 +1   33.4207811 +1    11     8     7
  H     1.76928503 +1   97.6304412 +1   37.6523704 +1     9     8     7
  O     0.97983276 +1  158.4397912 +1  -56.0876704 +1    15     9     8
  H     0.95783980 +1  108.2552422 +1  -22.2392654 +1    16    15     9

 TIME=     0.43
  REACTANTS AND PRODUCTS SWAPPED AROUND
 *+*+*+*+*+*+*+*+*+*+*+*+*+*+*+*+*+*+*+*+*+*+*+*+*+*+*+*+*+*+*+*+*+*+*+*+*+*+*+*+
            BAR SHORTENED BY       1.000 PERCENT
 GRADIENT CRITERION IN FLEPO =    10.000


          FOR POINT   24 SECOND STRUCTURE
 DISTANCE A - B      4.075035
 HEAT             -300.412244
 GRADIENT NORM      18.457451
 DIRECTION COSINE   -0.199409
* ===============================
* Input file for Mopac
* ===============================
 PM7 BONDS AUX DUMP=30M ITRY=15000 T=14D CHARGE=-1 SINGLET eps=78.4 RELSCF=1


  C     0.00000000 +0    0.0000000 +0    0.0000000 +0     0     0     0
  H     2.12166194 +1    0.0000000 +0    0.0000000 +0     1     0     0
  H     1.06953131 +1   96.5705830 +1    0.0000000 +0     1     2     0
  H     1.07112952 +1   84.8983495 +1 -116.4965402 +1     1     2     3
  N     1.32047477 +1   92.8244808 +1  122.1030873 +1     1     2     3
  O     1.26254684 +1  121.6149377 +1 -105.7970376 +1     5     1     2
  O     1.26320537 +1  121.7400234 +1   73.1206886 +1     5     1     2
  C     3.97385047 +1  148.4955260 +1 -106.5584644 +1     2     1     3
  O     1.34862522 +1   45.8309515 +1   69.9505967 +1     8     2     1
  O     1.21170651 +1   81.2468490 +1 -137.0209870 +1     8     2     1
  C     1.47308559 +1  144.3788876 +1   12.1546349 +1     8     2     1
  H     1.10162057 +1  111.6702709 +1 -100.1957852 +1    11     8     2
  H     1.10130236 +1  112.3893799 +1  139.6636526 +1    11     8     2
  H     1.11055159 +1  111.6544633 +1   20.9805479 +1    11     8     2
  H     1.02018994 +1  117.0850494 +1   20.4989306 +1     9     8     2
  O     0.97663424 +1  157.0029070 +1   11.1264405 +1     2     1     3
  H     0.97342393 +1  104.7389203 +1  153.7566965 +1    16     2     1

 TIME=     0.29
  REACTANTS AND PRODUCTS SWAPPED AROUND
 *+*+*+*+*+*+*+*+*+*+*+*+*+*+*+*+*+*+*+*+*+*+*+*+*+*+*+*+*+*+*+*+*+*+*+*+*+*+*+*+
            BAR SHORTENED BY       1.000 PERCENT
 GRADIENT CRITERION IN FLEPO =    10.000


          FOR POINT   25 FIRST  STRUCTURE
 DISTANCE A - B      4.034285
 HEAT             -300.838067
 GRADIENT NORM      15.784456
 DIRECTION COSINE   -0.145879
* ===============================
* Input file for Mopac
* ===============================
 PM7 BONDS AUX DUMP=30M ITRY=15000 T=14D CHARGE=-1 SINGLET eps=78.4 RELSCF=1


  C     0.00000000 +0    0.0000000 +0    0.0000000 +0     0     0     0
  H     1.11546093 +1    0.0000000 +0    0.0000000 +0     1     0     0
  H     1.11228884 +1  107.5276352 +1    0.0000000 +0     1     2     0
  H     1.10700190 +1  108.5500626 +1 -115.2878526 +1     1     2     3
  N     1.45558968 +1  111.0020073 +1  120.9782796 +1     1     2     3
  O     1.22119937 +1  120.1462730 +1  132.3580402 +1     5     1     2
  O     1.22364668 +1  118.7449464 +1  -48.2014059 +1     5     1     2
  C     5.00807446 +1  132.6723208 +1   32.0485540 +1     7     5     1
  O     1.26027271 +1   84.6619011 +1  -77.8961025 +1     8     7     5
  O     1.24066435 +1  113.1260511 +1   45.9839692 +1     8     7     5
  C     1.50792952 +1   71.3641117 +1  160.4626670 +1     8     7     5
  H     1.10376438 +1  110.9351211 +1  -86.7777564 +1    11     8     7
  H     1.10002144 +1  111.6780706 +1  154.5802439 +1    11     8     7
  H     1.09670544 +1  110.9949710 +1   33.6119742 +1    11     8     7
  H     1.75231040 +1   97.5455301 +1   37.5324417 +1     9     8     7
  O     0.97312424 +1  160.8464103 +1  -58.2816916 +1    15     9     8
  H     0.95952921 +1  106.4465499 +1  -19.1620693 +1    16    15     9

 TIME=     0.25
  REACTANTS AND PRODUCTS SWAPPED AROUND
 *+*+*+*+*+*+*+*+*+*+*+*+*+*+*+*+*+*+*+*+*+*+*+*+*+*+*+*+*+*+*+*+*+*+*+*+*+*+*+*+
            BAR SHORTENED BY       1.000 PERCENT
 GRADIENT CRITERION IN FLEPO =    10.000


          FOR POINT   26 SECOND STRUCTURE
 DISTANCE A - B      3.993942
 HEAT             -300.264450
 GRADIENT NORM      16.487389
 DIRECTION COSINE   -0.070422
* ===============================
* Input file for Mopac
* ===============================
 PM7 BONDS AUX DUMP=30M ITRY=15000 T=14D CHARGE=-1 SINGLET eps=78.4 RELSCF=1


  C     0.00000000 +0    0.0000000 +0    0.0000000 +0     0     0     0
  H     2.11987259 +1    0.0000000 +0    0.0000000 +0     1     0     0
  H     1.06743622 +1   95.7153693 +1    0.0000000 +0     1     2     0
  H     1.07000894 +1   84.7349912 +1 -115.0146686 +1     1     2     3
  N     1.31736484 +1   92.9063541 +1  123.3019689 +1     1     2     3
  O     1.26385951 +1  121.7952304 +1 -106.1849147 +1     5     1     2
  O     1.26106521 +1  121.9498194 +1   72.8796130 +1     5     1     2
  C     3.98792947 +1  148.1883872 +1 -109.2435665 +1     2     1     3
  O     1.34039836 +1   45.8628390 +1   72.2162732 +1     8     2     1
  O     1.21307525 +1   81.3308989 +1 -135.8850647 +1     8     2     1
  C     1.47373893 +1  143.5501974 +1   12.7927061 +1     8     2     1
  H     1.10436697 +1  112.1487168 +1  -99.9683824 +1    11     8     2
  H     1.10952480 +1  111.9732659 +1  140.4243597 +1    11     8     2
  H     1.10338358 +1  111.8383986 +1   21.4869229 +1    11     8     2
  H     1.01622846 +1  116.9114411 +1   20.0195691 +1     9     8     2
  O     0.97723079 +1  158.6534502 +1    8.7139170 +1     2     1     3
  H     0.97063802 +1  104.4624776 +1  155.0924836 +1    16     2     1

 TIME=     0.53
  REACTANTS AND PRODUCTS SWAPPED AROUND
 *+*+*+*+*+*+*+*+*+*+*+*+*+*+*+*+*+*+*+*+*+*+*+*+*+*+*+*+*+*+*+*+*+*+*+*+*+*+*+*+
            BAR SHORTENED BY       1.000 PERCENT
 GRADIENT CRITERION IN FLEPO =    10.000


          FOR POINT   27 FIRST  STRUCTURE
 DISTANCE A - B      3.954003
 HEAT             -300.862408
 GRADIENT NORM      19.845726
 DIRECTION COSINE    0.059615
* ===============================
* Input file for Mopac
* ===============================
 PM7 BONDS AUX DUMP=30M ITRY=15000 T=14D CHARGE=-1 SINGLET eps=78.4 RELSCF=1


  C     0.00000000 +0    0.0000000 +0    0.0000000 +0     0     0     0
  H     1.11621888 +1    0.0000000 +0    0.0000000 +0     1     0     0
  H     1.11286661 +1  107.6481511 +1    0.0000000 +0     1     2     0
  H     1.10627338 +1  108.5818744 +1 -115.6221072 +1     1     2     3
  N     1.45519283 +1  110.7604575 +1  120.9598225 +1     1     2     3
  O     1.21793612 +1  120.7325874 +1  133.1149659 +1     5     1     2
  O     1.22146868 +1  118.9574896 +1  -47.2988401 +1     5     1     2
  C     5.00412747 +1  132.7732398 +1   31.0896585 +1     7     5     1
  O     1.25574378 +1   84.4572147 +1  -76.9912680 +1     8     7     5
  O     1.24494332 +1  112.9313075 +1   46.7875699 +1     8     7     5
  C     1.50610360 +1   71.9324592 +1  161.4087649 +1     8     7     5
  H     1.09793973 +1  111.1353911 +1  -86.4969406 +1    11     8     7
  H     1.10268505 +1  111.3185396 +1  154.3321835 +1    11     8     7
  H     1.09764771 +1  110.9265210 +1   33.8910959 +1    11     8     7
  H     1.74242577 +1   97.7855275 +1   37.4626844 +1     9     8     7
  O     0.97323647 +1  162.0543838 +1  -58.8391580 +1    15     9     8
  H     0.96290744 +1  106.8833553 +1  -17.6739955 +1    16    15     9

 *+*+*+*+*+*+*+*+*+*+*+*+*+*+*+*+*+*+*+*+*+*+*+*+*+*+*+*+*+*+*+*+*+*+*+*+*+*+*+*+
            BAR SHORTENED BY       1.000 PERCENT
 GRADIENT CRITERION IN FLEPO =    10.000


          FOR POINT   28 FIRST  STRUCTURE
 DISTANCE A - B      3.914463
 HEAT             -300.932571
 GRADIENT NORM      25.017822
 DIRECTION COSINE    0.350398
* ===============================
* Input file for Mopac
* ===============================
 PM7 BONDS AUX DUMP=30M ITRY=15000 T=14D CHARGE=-1 SINGLET eps=78.4 RELSCF=1


  C     0.00000000 +0    0.0000000 +0    0.0000000 +0     0     0     0
  H     1.10989920 +1    0.0000000 +0    0.0000000 +0     1     0     0
  H     1.11783263 +1  107.9334411 +1    0.0000000 +0     1     2     0
  H     1.11804493 +1  107.8675723 +1 -115.3117277 +1     1     2     3
  N     1.45412773 +1  111.0063844 +1  121.2467204 +1     1     2     3
  O     1.22074449 +1  121.1554555 +1  133.7006506 +1     5     1     2
  O     1.22761957 +1  118.9771053 +1  -46.4695782 +1     5     1     2
  C     4.99506600 +1  132.7765344 +1   30.3877897 +1     7     5     1
  O     1.25773722 +1   83.7319174 +1  -76.3068181 +1     8     7     5
  O     1.23858409 +1  112.8334154 +1   46.7097495 +1     8     7     5
  C     1.50946830 +1   72.4612148 +1  161.7932428 +1     8     7     5
  H     1.11014747 +1  112.2106129 +1  -86.7201938 +1    11     8     7
  H     1.10180809 +1  110.7123449 +1  153.3478398 +1    11     8     7
  H     1.10253987 +1  110.5949953 +1   34.2301299 +1    11     8     7
  H     1.72397177 +1   98.5759192 +1   37.5433748 +1     9     8     7
  O     0.98144639 +1  163.2416685 +1  -58.3152795 +1    15     9     8
  H     0.96020970 +1  105.1798387 +1  -17.4214254 +1    16    15     9

 *+*+*+*+*+*+*+*+*+*+*+*+*+*+*+*+*+*+*+*+*+*+*+*+*+*+*+*+*+*+*+*+*+*+*+*+*+*+*+*+
            BAR SHORTENED BY       1.000 PERCENT
 GRADIENT CRITERION IN FLEPO =    10.000


          FOR POINT   29 FIRST  STRUCTURE
 DISTANCE A - B      3.875318
 HEAT             -301.324562
 GRADIENT NORM      16.787996
 DIRECTION COSINE   -0.082348
* ===============================
* Input file for Mopac
* ===============================
 PM7 BONDS AUX DUMP=30M ITRY=15000 T=14D CHARGE=-1 SINGLET eps=78.4 RELSCF=1


  C     0.00000000 +0    0.0000000 +0    0.0000000 +0     0     0     0
  H     1.10702593 +1    0.0000000 +0    0.0000000 +0     1     0     0
  H     1.11577821 +1  107.1057561 +1    0.0000000 +0     1     2     0
  H     1.10803339 +1  108.2906210 +1 -115.2671551 +1     1     2     3
  N     1.45938033 +1  111.5235982 +1  120.6035552 +1     1     2     3
  O     1.22509849 +1  119.3229405 +1  136.1034189 +1     5     1     2
  O     1.22780901 +1  118.9191401 +1  -45.0931413 +1     5     1     2
  C     4.96984688 +1  133.3104725 +1   30.4144079 +1     7     5     1
  O     1.26081681 +1   83.8231584 +1  -76.8850086 +1     8     7     5
  O     1.24568197 +1  113.5318939 +1   46.2938128 +1     8     7     5
  C     1.50906562 +1   73.3757018 +1  161.8611275 +1     8     7     5
  H     1.09297863 +1  111.0385755 +1  -86.1357150 +1    11     8     7
  H     1.09703878 +1  110.7319126 +1  152.9492115 +1    11     8     7
  H     1.10190462 +1  111.1796467 +1   34.0850741 +1    11     8     7
  H     1.72829436 +1   98.9968942 +1   37.3485205 +1     9     8     7
  O     0.97866635 +1  164.4397686 +1  -53.8478496 +1    15     9     8
  H     0.95712136 +1  105.1773139 +1  -19.4468526 +1    16    15     9

 TIME=     3.67
  REACTANTS AND PRODUCTS SWAPPED AROUND
 *+*+*+*+*+*+*+*+*+*+*+*+*+*+*+*+*+*+*+*+*+*+*+*+*+*+*+*+*+*+*+*+*+*+*+*+*+*+*+*+
            BAR SHORTENED BY       0.000 PERCENT
 GRADIENT CRITERION IN FLEPO =    10.000


          FOR POINT   30 SECOND STRUCTURE
 DISTANCE A - B      3.875318
 HEAT             -300.481243
 GRADIENT NORM      20.190527
 DIRECTION COSINE   -0.055931
* ===============================
* Input file for Mopac
* ===============================
 PM7 BONDS AUX DUMP=30M ITRY=15000 T=14D CHARGE=-1 SINGLET eps=78.4 RELSCF=1


  C     0.00000000 +0    0.0000000 +0    0.0000000 +0     0     0     0
  H     2.13346016 +1    0.0000000 +0    0.0000000 +0     1     0     0
  H     1.07166941 +1   95.9834669 +1    0.0000000 +0     1     2     0
  H     1.08262853 +1   83.9693754 +1 -115.3564402 +1     1     2     3
  N     1.31713827 +1   92.1428834 +1  122.7915622 +1     1     2     3
  O     1.26313621 +1  121.9154672 +1 -105.7575947 +1     5     1     2
  O     1.26167738 +1  121.9737786 +1   73.0747800 +1     5     1     2
  C     3.98553031 +1  148.9359902 +1 -109.0180753 +1     2     1     3
  O     1.33884514 +1   46.0494146 +1   72.4683115 +1     8     2     1
  O     1.21266839 +1   80.8046156 +1 -135.5293612 +1     8     2     1
  C     1.47493127 +1  143.0121869 +1   11.9823652 +1     8     2     1
  H     1.10277893 +1  111.9207803 +1  -98.7945093 +1    11     8     2
  H     1.10180399 +1  111.7614824 +1  141.3037511 +1    11     8     2
  H     1.10857481 +1  111.7250894 +1   21.9470348 +1    11     8     2
  H     1.02601582 +1  116.9685422 +1   20.5622941 +1     9     8     2
  O     0.98452657 +1  158.0323543 +1   14.9083198 +1     2     1     3
  H     0.96251122 +1  104.3563533 +1  150.0775945 +1    16     2     1

 TIME=     0.52
  REACTANTS AND PRODUCTS SWAPPED AROUND
 *+*+*+*+*+*+*+*+*+*+*+*+*+*+*+*+*+*+*+*+*+*+*+*+*+*+*+*+*+*+*+*+*+*+*+*+*+*+*+*+
            BAR SHORTENED BY       1.000 PERCENT
 GRADIENT CRITERION IN FLEPO =    10.000


          FOR POINT   31 FIRST  STRUCTURE
 DISTANCE A - B      3.836565
 HEAT             -301.399539
 GRADIENT NORM       9.018542
 DIRECTION COSINE   -0.096976
* ===============================
* Input file for Mopac
* ===============================
 PM7 BONDS AUX DUMP=30M ITRY=15000 T=14D CHARGE=-1 SINGLET eps=78.4 RELSCF=1


  C     0.00000000 +0    0.0000000 +0    0.0000000 +0     0     0     0
  H     1.10958716 +1    0.0000000 +0    0.0000000 +0     1     0     0
  H     1.11251735 +1  107.0444911 +1    0.0000000 +0     1     2     0
  H     1.10756957 +1  108.4615065 +1 -115.4491926 +1     1     2     3
  N     1.45640873 +1  111.2309133 +1  120.5539623 +1     1     2     3
  O     1.22178052 +1  119.8700914 +1  137.0046280 +1     5     1     2
  O     1.22357255 +1  119.0948485 +1  -43.9074415 +1     5     1     2
  C     4.97092595 +1  133.5039829 +1   29.2918794 +1     7     5     1
  O     1.25819912 +1   83.4141843 +1  -75.7968031 +1     8     7     5
  O     1.24284696 +1  113.0940309 +1   47.1291201 +1     8     7     5
  C     1.50447327 +1   73.6359691 +1  162.9687623 +1     8     7     5
  H     1.09480086 +1  111.6106807 +1  -86.4056890 +1    11     8     7
  H     1.09574615 +1  110.4077799 +1  153.6024689 +1    11     8     7
  H     1.09919421 +1  111.6264853 +1   34.5012370 +1    11     8     7
  H     1.71787450 +1   99.3698334 +1   37.2539592 +1     9     8     7
  O     0.97917951 +1  165.7921221 +1  -55.4197507 +1    15     9     8
  H     0.95945826 +1  104.2311339 +1  -16.8896491 +1    16    15     9

 TIME=     0.50
  REACTANTS AND PRODUCTS SWAPPED AROUND
 *+*+*+*+*+*+*+*+*+*+*+*+*+*+*+*+*+*+*+*+*+*+*+*+*+*+*+*+*+*+*+*+*+*+*+*+*+*+*+*+
            BAR SHORTENED BY       1.000 PERCENT
 GRADIENT CRITERION IN FLEPO =     6.019


          FOR POINT   32 SECOND STRUCTURE
 DISTANCE A - B      3.798199
 HEAT             -300.313668
 GRADIENT NORM      17.012121
 DIRECTION COSINE    0.079717
* ===============================
* Input file for Mopac
* ===============================
 PM7 BONDS AUX DUMP=30M ITRY=15000 T=14D CHARGE=-1 SINGLET eps=78.4 RELSCF=1


  C     0.00000000 +0    0.0000000 +0    0.0000000 +0     0     0     0
  H     2.11769534 +1    0.0000000 +0    0.0000000 +0     1     0     0
  H     1.07060328 +1   96.7405437 +1    0.0000000 +0     1     2     0
  H     1.07212539 +1   84.8900698 +1 -116.0168846 +1     1     2     3
  N     1.31999405 +1   92.8684634 +1  122.1445131 +1     1     2     3
  O     1.26223599 +1  122.1356389 +1 -106.0086872 +1     5     1     2
  O     1.26009905 +1  121.9215133 +1   72.2196504 +1     5     1     2
  C     3.99591447 +1  148.8138359 +1 -109.0056849 +1     2     1     3
  O     1.34683468 +1   45.8582682 +1   73.9655048 +1     8     2     1
  O     1.21308259 +1   81.2760702 +1 -134.8360423 +1     8     2     1
  C     1.47487177 +1  142.3800971 +1   12.3151953 +1     8     2     1
  H     1.10146205 +1  111.5761871 +1  -98.5317244 +1    11     8     2
  H     1.09953842 +1  112.0773619 +1  141.5133283 +1    11     8     2
  H     1.10782986 +1  111.5234866 +1   22.2149551 +1    11     8     2
  H     1.01169170 +1  116.7761536 +1   20.2389156 +1     9     8     2
  O     0.97729295 +1  158.6008251 +1   14.1091169 +1     2     1     3
  H     0.96950823 +1  104.3811742 +1  151.7956787 +1    16     2     1

 TIME=     0.41
  REACTANTS AND PRODUCTS SWAPPED AROUND
 *+*+*+*+*+*+*+*+*+*+*+*+*+*+*+*+*+*+*+*+*+*+*+*+*+*+*+*+*+*+*+*+*+*+*+*+*+*+*+*+
            BAR SHORTENED BY       1.000 PERCENT
 GRADIENT CRITERION IN FLEPO =    10.000


          FOR POINT   33 FIRST  STRUCTURE
 DISTANCE A - B      3.760217
 HEAT             -301.381291
 GRADIENT NORM      19.760142
 DIRECTION COSINE    0.254285
* ===============================
* Input file for Mopac
* ===============================
 PM7 BONDS AUX DUMP=30M ITRY=15000 T=14D CHARGE=-1 SINGLET eps=78.4 RELSCF=1


  C     0.00000000 +0    0.0000000 +0    0.0000000 +0     0     0     0
  H     1.12490745 +1    0.0000000 +0    0.0000000 +0     1     0     0
  H     1.11330366 +1  106.6456416 +1    0.0000000 +0     1     2     0
  H     1.10557416 +1  109.1621965 +1 -115.7771612 +1     1     2     3
  N     1.45563748 +1  110.9766207 +1  120.0652932 +1     1     2     3
  O     1.21769965 +1  120.3751604 +1  138.6172846 +1     5     1     2
  O     1.22318057 +1  119.1980586 +1  -42.3399992 +1     5     1     2
  C     4.96814671 +1  133.5546295 +1   28.4515015 +1     7     5     1
  O     1.25747073 +1   83.2493786 +1  -75.0972331 +1     8     7     5
  O     1.24693402 +1  112.8867200 +1   47.8543985 +1     8     7     5
  C     1.50408048 +1   74.0707882 +1  163.7761572 +1     8     7     5
  H     1.09578952 +1  111.7080378 +1  -86.3089471 +1    11     8     7
  H     1.09767391 +1  110.1871926 +1  153.5458587 +1    11     8     7
  H     1.09830908 +1  111.4865388 +1   34.6406064 +1    11     8     7
  H     1.71213815 +1   99.5695901 +1   37.2730924 +1     9     8     7
  O     0.97881575 +1  166.3575956 +1  -54.9720635 +1    15     9     8
  H     0.95499690 +1  103.7984351 +1  -16.8204724 +1    16    15     9

 *+*+*+*+*+*+*+*+*+*+*+*+*+*+*+*+*+*+*+*+*+*+*+*+*+*+*+*+*+*+*+*+*+*+*+*+*+*+*+*+
            BAR SHORTENED BY       1.000 PERCENT
 GRADIENT CRITERION IN FLEPO =    10.000


          FOR POINT   34 FIRST  STRUCTURE
 DISTANCE A - B      3.722615
 HEAT             -301.385914
 GRADIENT NORM      21.055670
 DIRECTION COSINE   -0.195863
* ===============================
* Input file for Mopac
* ===============================
 PM7 BONDS AUX DUMP=30M ITRY=15000 T=14D CHARGE=-1 SINGLET eps=78.4 RELSCF=1


  C     0.00000000 +0    0.0000000 +0    0.0000000 +0     0     0     0
  H     1.10428479 +1    0.0000000 +0    0.0000000 +0     1     0     0
  H     1.10924930 +1  108.5409242 +1    0.0000000 +0     1     2     0
  H     1.11803867 +1  109.1859958 +1 -111.9022585 +1     1     2     3
  N     1.45653501 +1  111.4550007 +1  121.3596581 +1     1     2     3
  O     1.22320709 +1  120.2188304 +1  139.3718915 +1     5     1     2
  O     1.22866449 +1  118.9490096 +1  -41.7738705 +1     5     1     2
  C     4.95061341 +1  133.7820763 +1   27.4730046 +1     7     5     1
  O     1.25840601 +1   83.0549562 +1  -74.7375354 +1     8     7     5
  O     1.24545104 +1  112.8192378 +1   48.3839590 +1     8     7     5
  C     1.50800041 +1   74.8148715 +1  164.4559035 +1     8     7     5
  H     1.09353713 +1  113.3214986 +1  -86.1064317 +1    11     8     7
  H     1.10400315 +1  109.8799030 +1  153.1092883 +1    11     8     7
  H     1.10017352 +1  111.2173937 +1   34.7874536 +1    11     8     7
  H     1.70570099 +1  100.1379286 +1   37.4219001 +1     9     8     7
  O     0.98547740 +1  166.9163470 +1  -51.6271291 +1    15     9     8
  H     0.96862658 +1  104.4492896 +1  -18.6769428 +1    16    15     9

 TIME=     1.03
  REACTANTS AND PRODUCTS SWAPPED AROUND
 *+*+*+*+*+*+*+*+*+*+*+*+*+*+*+*+*+*+*+*+*+*+*+*+*+*+*+*+*+*+*+*+*+*+*+*+*+*+*+*+
            BAR SHORTENED BY       1.000 PERCENT
 GRADIENT CRITERION IN FLEPO =    10.000


          FOR POINT   35 SECOND STRUCTURE
 DISTANCE A - B      3.685389
 HEAT             -299.994516
 GRADIENT NORM      18.631375
 DIRECTION COSINE   -0.102579
* ===============================
* Input file for Mopac
* ===============================
 PM7 BONDS AUX DUMP=30M ITRY=15000 T=14D CHARGE=-1 SINGLET eps=78.4 RELSCF=1


  C     0.00000000 +0    0.0000000 +0    0.0000000 +0     0     0     0
  H     2.11542954 +1    0.0000000 +0    0.0000000 +0     1     0     0
  H     1.07038873 +1   96.5576274 +1    0.0000000 +0     1     2     0
  H     1.07149657 +1   84.7966901 +1 -115.8538562 +1     1     2     3
  N     1.31713375 +1   92.7214473 +1  122.2039584 +1     1     2     3
  O     1.26277511 +1  122.1163016 +1 -106.9687492 +1     5     1     2
  O     1.26014244 +1  121.7912621 +1   71.8135414 +1     5     1     2
  C     4.00240338 +1  148.7378437 +1 -109.3587231 +1     2     1     3
  O     1.34476541 +1   46.2394888 +1   75.1442906 +1     8     2     1
  O     1.21018886 +1   81.7878330 +1 -134.6239699 +1     8     2     1
  C     1.47776847 +1  141.8976004 +1   12.1476584 +1     8     2     1
  H     1.10414138 +1  111.5934154 +1  -98.1311596 +1    11     8     2
  H     1.09567035 +1  113.2522562 +1  143.5519468 +1    11     8     2
  H     1.10624420 +1  111.4173349 +1   22.6125013 +1    11     8     2
  H     1.01411779 +1  116.6670231 +1   20.3217364 +1     9     8     2
  O     0.98138628 +1  158.7921480 +1   12.4509196 +1     2     1     3
  H     0.96857916 +1  103.6930564 +1  153.6719425 +1    16     2     1

 TIME=     0.33
  REACTANTS AND PRODUCTS SWAPPED AROUND
 *+*+*+*+*+*+*+*+*+*+*+*+*+*+*+*+*+*+*+*+*+*+*+*+*+*+*+*+*+*+*+*+*+*+*+*+*+*+*+*+
            BAR SHORTENED BY       1.000 PERCENT
 GRADIENT CRITERION IN FLEPO =    10.000


          FOR POINT   36 FIRST  STRUCTURE
 DISTANCE A - B      3.648535
 HEAT             -301.505953
 GRADIENT NORM      17.793142
 DIRECTION COSINE    0.104357
* ===============================
* Input file for Mopac
* ===============================
 PM7 BONDS AUX DUMP=30M ITRY=15000 T=14D CHARGE=-1 SINGLET eps=78.4 RELSCF=1


  C     0.00000000 +0    0.0000000 +0    0.0000000 +0     0     0     0
  H     1.11173163 +1    0.0000000 +0    0.0000000 +0     1     0     0
  H     1.11068257 +1  108.1758391 +1    0.0000000 +0     1     2     0
  H     1.10885066 +1  109.4957230 +1 -112.5716313 +1     1     2     3
  N     1.45495275 +1  110.9236449 +1  120.6263186 +1     1     2     3
  O     1.22076910 +1  120.3823558 +1  140.5896898 +1     5     1     2
  O     1.22174194 +1  119.3927645 +1  -40.4921483 +1     5     1     2
  C     4.95204348 +1  133.9739451 +1   26.4173663 +1     7     5     1
  O     1.26075536 +1   82.6523493 +1  -73.7736958 +1     8     7     5
  O     1.24226711 +1  112.4157762 +1   49.0653664 +1     8     7     5
  C     1.50417454 +1   75.1370635 +1  165.6910176 +1     8     7     5
  H     1.09705782 +1  112.9499673 +1  -86.0744833 +1    11     8     7
  H     1.10118163 +1  109.7521377 +1  153.4208354 +1    11     8     7
  H     1.09740121 +1  111.4708935 +1   34.8464878 +1    11     8     7
  H     1.69930674 +1  100.5557620 +1   37.3885021 +1     9     8     7
  O     0.98543245 +1  167.4249612 +1  -50.8195968 +1    15     9     8
  H     0.96063669 +1  103.8942174 +1  -19.0782405 +1    16    15     9

 *+*+*+*+*+*+*+*+*+*+*+*+*+*+*+*+*+*+*+*+*+*+*+*+*+*+*+*+*+*+*+*+*+*+*+*+*+*+*+*+
            BAR SHORTENED BY       1.000 PERCENT
 GRADIENT CRITERION IN FLEPO =    10.000


          FOR POINT   37 FIRST  STRUCTURE
 DISTANCE A - B      3.612050
 HEAT             -301.530431
 GRADIENT NORM      23.448214
 DIRECTION COSINE    0.527408
* ===============================
* Input file for Mopac
* ===============================
 PM7 BONDS AUX DUMP=30M ITRY=15000 T=14D CHARGE=-1 SINGLET eps=78.4 RELSCF=1


  C     0.00000000 +0    0.0000000 +0    0.0000000 +0     0     0     0
  H     1.11212857 +1    0.0000000 +0    0.0000000 +0     1     0     0
  H     1.13447672 +1  108.3646437 +1    0.0000000 +0     1     2     0
  H     1.10677091 +1  109.0510535 +1 -113.4485520 +1     1     2     3
  N     1.45746527 +1  110.6973383 +1  121.0764465 +1     1     2     3
  O     1.22194914 +1  120.6371834 +1  141.3006850 +1     5     1     2
  O     1.22540595 +1  119.3183402 +1  -40.2236699 +1     5     1     2
  C     4.94396672 +1  134.0887700 +1   25.9174429 +1     7     5     1
  O     1.26040043 +1   82.5177333 +1  -73.2834827 +1     8     7     5
  O     1.23928939 +1  112.2176967 +1   49.2949116 +1     8     7     5
  C     1.50595432 +1   75.7232920 +1  166.4159553 +1     8     7     5
  H     1.09338664 +1  112.4506670 +1  -85.9966106 +1    11     8     7
  H     1.10694081 +1  109.5527636 +1  153.3196638 +1    11     8     7
  H     1.10226891 +1  111.3560255 +1   35.0582832 +1    11     8     7
  H     1.69586799 +1  100.6606958 +1   37.4912234 +1     9     8     7
  O     0.98388801 +1  168.1299715 +1  -50.9080035 +1    15     9     8
  H     0.96058612 +1  103.9104712 +1  -18.0392284 +1    16    15     9

 *+*+*+*+*+*+*+*+*+*+*+*+*+*+*+*+*+*+*+*+*+*+*+*+*+*+*+*+*+*+*+*+*+*+*+*+*+*+*+*+
            BAR SHORTENED BY       1.000 PERCENT
 GRADIENT CRITERION IN FLEPO =    10.000


          FOR POINT   38 FIRST  STRUCTURE
 DISTANCE A - B      3.575929
 HEAT             -301.797375
 GRADIENT NORM      16.533048
 DIRECTION COSINE   -0.122321
* ===============================
* Input file for Mopac
* ===============================
 PM7 BONDS AUX DUMP=30M ITRY=15000 T=14D CHARGE=-1 SINGLET eps=78.4 RELSCF=1


  C     0.00000000 +0    0.0000000 +0    0.0000000 +0     0     0     0
  H     1.10731506 +1    0.0000000 +0    0.0000000 +0     1     0     0
  H     1.10464965 +1  108.2125050 +1    0.0000000 +0     1     2     0
  H     1.10838607 +1  107.7756592 +1 -114.7203334 +1     1     2     3
  N     1.46018937 +1  111.0539936 +1  121.8427920 +1     1     2     3
  O     1.22520348 +1  119.9212459 +1  142.2700039 +1     5     1     2
  O     1.22368851 +1  117.9589755 +1  -39.3263111 +1     5     1     2
  C     4.91937344 +1  135.9779711 +1   24.9622554 +1     7     5     1
  O     1.25992937 +1   82.5313005 +1  -72.3099185 +1     8     7     5
  O     1.24351377 +1  111.5216634 +1   50.2923284 +1     8     7     5
  C     1.50910311 +1   76.3965138 +1  167.5802962 +1     8     7     5
  H     1.09129043 +1  112.4163482 +1  -86.3358610 +1    11     8     7
  H     1.09805080 +1  109.7856267 +1  153.7585796 +1    11     8     7
  H     1.09928813 +1  111.4472710 +1   35.2774720 +1    11     8     7
  H     1.69125323 +1  100.1799616 +1   37.2152901 +1     9     8     7
  O     0.98665765 +1  169.9697499 +1  -59.4003968 +1    15     9     8
  H     0.96032873 +1  103.9417142 +1   -7.1160756 +1    16    15     9

 TIME=     0.34
  REACTANTS AND PRODUCTS SWAPPED AROUND
 *+*+*+*+*+*+*+*+*+*+*+*+*+*+*+*+*+*+*+*+*+*+*+*+*+*+*+*+*+*+*+*+*+*+*+*+*+*+*+*+
            BAR SHORTENED BY       0.000 PERCENT
 GRADIENT CRITERION IN FLEPO =    10.000


          FOR POINT   39 SECOND STRUCTURE
 DISTANCE A - B      3.575929
 HEAT             -300.184020
 GRADIENT NORM      17.853873
 DIRECTION COSINE    0.023210
* ===============================
* Input file for Mopac
* ===============================
 PM7 BONDS AUX DUMP=30M ITRY=15000 T=14D CHARGE=-1 SINGLET eps=78.4 RELSCF=1


  C     0.00000000 +0    0.0000000 +0    0.0000000 +0     0     0     0
  H     2.12129667 +1    0.0000000 +0    0.0000000 +0     1     0     0
  H     1.07115927 +1   96.5347648 +1    0.0000000 +0     1     2     0
  H     1.07453916 +1   84.3735363 +1 -115.9091977 +1     1     2     3
  N     1.31917712 +1   92.5425859 +1  122.2832978 +1     1     2     3
  O     1.26194653 +1  121.7008239 +1 -106.6796101 +1     5     1     2
  O     1.26460429 +1  121.9597794 +1   71.5664969 +1     5     1     2
  C     4.00120112 +1  148.8248971 +1 -109.5843372 +1     2     1     3
  O     1.33872866 +1   46.6364656 +1   75.7535360 +1     8     2     1
  O     1.21502511 +1   81.7185366 +1 -134.2065661 +1     8     2     1
  C     1.47831079 +1  141.8029693 +1   12.0536094 +1     8     2     1
  H     1.10482365 +1  111.2834634 +1  -97.0238998 +1    11     8     2
  H     1.10088419 +1  112.9086696 +1  143.4984139 +1    11     8     2
  H     1.10635641 +1  111.5450126 +1   23.1442938 +1    11     8     2
  H     1.02479439 +1  116.3523493 +1   20.0628782 +1     9     8     2
  O     0.97988137 +1  159.0367771 +1   15.4656985 +1     2     1     3
  H     0.96791899 +1  104.2226927 +1  151.1994137 +1    16     2     1

 TIME=     0.07
  REACTANTS AND PRODUCTS SWAPPED AROUND
 *+*+*+*+*+*+*+*+*+*+*+*+*+*+*+*+*+*+*+*+*+*+*+*+*+*+*+*+*+*+*+*+*+*+*+*+*+*+*+*+
            BAR SHORTENED BY       1.000 PERCENT
 GRADIENT CRITERION IN FLEPO =    10.000


          FOR POINT   40 FIRST  STRUCTURE
 DISTANCE A - B      3.540170
 HEAT             -301.801452
 GRADIENT NORM      17.946301
 DIRECTION COSINE   -0.054680
* ===============================
* Input file for Mopac
* ===============================
 PM7 BONDS AUX DUMP=30M ITRY=15000 T=14D CHARGE=-1 SINGLET eps=78.4 RELSCF=1


  C     0.00000000 +0    0.0000000 +0    0.0000000 +0     0     0     0
  H     1.10582153 +1    0.0000000 +0    0.0000000 +0     1     0     0
  H     1.12274847 +1  107.8537111 +1    0.0000000 +0     1     2     0
  H     1.10068134 +1  108.2210726 +1 -115.5009602 +1     1     2     3
  N     1.45771548 +1  111.5716355 +1  120.1929974 +1     1     2     3
  O     1.22322913 +1  119.9247888 +1  143.5121272 +1     5     1     2
  O     1.22786876 +1  118.4030568 +1  -37.1886998 +1     5     1     2
  C     4.91554637 +1  136.0059402 +1   23.1179134 +1     7     5     1
  O     1.25662994 +1   82.3604283 +1  -71.0769315 +1     8     7     5
  O     1.24234822 +1  111.0165897 +1   51.3450213 +1     8     7     5
  C     1.50898667 +1   76.9965200 +1  168.8307956 +1     8     7     5
  H     1.09387183 +1  112.3586257 +1  -86.1921652 +1    11     8     7
  H     1.10344397 +1  109.9810102 +1  153.8379243 +1    11     8     7
  H     1.09729191 +1  111.3292487 +1   35.2079444 +1    11     8     7
  H     1.69616067 +1  101.2731876 +1   37.4571950 +1     9     8     7
  O     0.98223254 +1  169.4284842 +1  -53.6101089 +1    15     9     8
  H     0.96351302 +1  104.4357886 +1  -11.4925059 +1    16    15     9

 TIME=     0.08
  REACTANTS AND PRODUCTS SWAPPED AROUND
 *+*+*+*+*+*+*+*+*+*+*+*+*+*+*+*+*+*+*+*+*+*+*+*+*+*+*+*+*+*+*+*+*+*+*+*+*+*+*+*+
            BAR SHORTENED BY       1.000 PERCENT
 GRADIENT CRITERION IN FLEPO =    10.000


          FOR POINT   41 SECOND STRUCTURE
 DISTANCE A - B      3.504768
 HEAT             -299.857035
 GRADIENT NORM      17.124199
 DIRECTION COSINE   -0.153651
* ===============================
* Input file for Mopac
* ===============================
 PM7 BONDS AUX DUMP=30M ITRY=15000 T=14D CHARGE=-1 SINGLET eps=78.4 RELSCF=1


  C     0.00000000 +0    0.0000000 +0    0.0000000 +0     0     0     0
  H     2.11164324 +1    0.0000000 +0    0.0000000 +0     1     0     0
  H     1.07139531 +1   96.5994737 +1    0.0000000 +0     1     2     0
  H     1.06985463 +1   84.4796021 +1 -115.9595096 +1     1     2     3
  N     1.31797519 +1   92.7965109 +1  122.1834271 +1     1     2     3
  O     1.26302769 +1  121.6618086 +1 -107.4337538 +1     5     1     2
  O     1.26093014 +1  122.2296579 +1   71.3243924 +1     5     1     2
[...]

 TIME=     0.04
  REACTANTS AND PRODUCTS SWAPPED AROUND
 *+*+*+*+*+*+*+*+*+*+*+*+*+*+*+*+*+*+*+*+*+*+*+*+*+*+*+*+*+*+*+*+*+*+*+*+*+*+*+*+
            BAR SHORTENED BY       1.000 PERCENT
 GRADIENT CRITERION IN FLEPO =    10.000


          FOR POINT  447 SECOND STRUCTURE
 DISTANCE A - B      0.102947
 HEAT             -291.325469
 GRADIENT NORM      22.246874
 DIRECTION COSINE    0.870909
* ===============================
* Input file for Mopac
* ===============================
 PM7 BONDS AUX DUMP=30M ITRY=15000 T=14D CHARGE=-1 SINGLET eps=78.4 RELSCF=1


  C     0.00000000 +0    0.0000000 +0    0.0000000 +0     0     0     0
  H     1.45553753 +1    0.0000000 +0    0.0000000 +0     1     0     0
  H     1.08617655 +1  100.7753392 +1    0.0000000 +0     1     2     0
  H     1.08535786 +1   96.7233716 +1 -115.3082200 +1     1     2     3
  N     1.37325351 +1  106.3389137 +1  123.0392683 +1     1     2     3
  O     1.24148012 +1  120.4758680 +1  -95.0196500 +1     5     1     2
  O     1.24104269 +1  120.8788103 +1   81.8054931 +1     5     1     2
  C     4.07041320 +1  149.3098207 +1 -137.2464410 +1     2     1     3
  O     1.30027929 +1   40.5452375 +1  104.2325688 +1     8     2     1
  O     1.22805435 +1   87.6348390 +1 -106.8507193 +1     8     2     1
  C     1.49263925 +1  142.3685530 +1   40.0412739 +1     8     2     1
  H     1.10258353 +1  111.3306663 +1  -99.8028800 +1    11     8     2
  H     1.10136530 +1  111.7444094 +1  141.5356765 +1    11     8     2
  H     1.10115805 +1  112.4931099 +1   21.0736367 +1    11     8     2
  H     1.22020228 +1  116.1636788 +1   20.5933460 +1     9     8     2
  O     1.17817566 +1  166.3322867 +1   94.5109200 +1     2     1     3
  H     0.96491477 +1  105.0759034 +1   53.9999123 +1    16     2     1

 *+*+*+*+*+*+*+*+*+*+*+*+*+*+*+*+*+*+*+*+*+*+*+*+*+*+*+*+*+*+*+*+*+*+*+*+*+*+*+*+
            BAR SHORTENED BY       1.000 PERCENT
 GRADIENT CRITERION IN FLEPO =    10.000


          FOR POINT  448 SECOND STRUCTURE
 DISTANCE A - B      0.101917
 HEAT             -291.307166
 GRADIENT NORM      22.564075
 DIRECTION COSINE    0.999642
* ===============================
* Input file for Mopac
* ===============================
 PM7 BONDS AUX DUMP=30M ITRY=15000 T=14D CHARGE=-1 SINGLET eps=78.4 RELSCF=1


  C     0.00000000 +0    0.0000000 +0    0.0000000 +0     0     0     0
  H     1.45450588 +1    0.0000000 +0    0.0000000 +0     1     0     0
  H     1.08621303 +1  100.7989847 +1    0.0000000 +0     1     2     0
  H     1.08541196 +1   96.7495215 +1 -115.3113174 +1     1     2     3
  N     1.37347836 +1  106.3478723 +1  123.0387970 +1     1     2     3
  O     1.24141584 +1  120.4732459 +1  -95.0163895 +1     5     1     2
  O     1.24098477 +1  120.8735196 +1   81.8020622 +1     5     1     2
  C     4.07102222 +1  149.3171958 +1 -137.2538001 +1     2     1     3
  O     1.30015385 +1   40.5514264 +1  104.2487207 +1     8     2     1
  O     1.22809075 +1   87.6384366 +1 -106.8405504 +1     8     2     1
  C     1.49266206 +1  142.3647738 +1   40.0431421 +1     8     2     1
  H     1.10256686 +1  111.3316068 +1  -99.7941564 +1    11     8     2
  H     1.10133705 +1  111.7445358 +1  141.5406390 +1    11     8     2
  H     1.10117366 +1  112.4885424 +1   21.0806622 +1    11     8     2
  H     1.22075542 +1  116.1575462 +1   20.6001391 +1     9     8     2
  O     1.17931752 +1  166.3346960 +1   94.5278445 +1     2     1     3
  H     0.96485220 +1  105.0503849 +1   53.9828492 +1    16     2     1

 *+*+*+*+*+*+*+*+*+*+*+*+*+*+*+*+*+*+*+*+*+*+*+*+*+*+*+*+*+*+*+*+*+*+*+*+*+*+*+*+
            BAR SHORTENED BY       1.000 PERCENT
 GRADIENT CRITERION IN FLEPO =    10.000


          FOR POINT  449 SECOND STRUCTURE
 DISTANCE A - B      0.100898
 HEAT             -291.329520
 GRADIENT NORM      22.851950
 DIRECTION COSINE    0.999715
* ===============================
* Input file for Mopac
* ===============================
 PM7 BONDS AUX DUMP=30M ITRY=15000 T=14D CHARGE=-1 SINGLET eps=78.4 RELSCF=1


  C     0.00000000 +0    0.0000000 +0    0.0000000 +0     0     0     0
  H     1.45348456 +1    0.0000000 +0    0.0000000 +0     1     0     0
  H     1.08624934 +1  100.8223909 +1    0.0000000 +0     1     2     0
  H     1.08546568 +1   96.7754133 +1 -115.3143893 +1     1     2     3
  N     1.37370102 +1  106.3567334 +1  123.0383233 +1     1     2     3
  O     1.24135222 +1  120.4706507 +1  -95.0131611 +1     5     1     2
  O     1.24092744 +1  120.8682805 +1   81.7986751 +1     5     1     2
  C     4.07162518 +1  149.3244979 +1 -137.2610928 +1     2     1     3
  O     1.30002969 +1   40.5575553 +1  104.2647196 +1     8     2     1
  O     1.22812678 +1   87.6419971 +1 -106.8304698 +1     8     2     1
  C     1.49268464 +1  142.3610333 +1   40.0450069 +1     8     2     1
  H     1.10255036 +1  111.3325377 +1  -99.7855228 +1    11     8     2
  H     1.10130908 +1  111.7446608 +1  141.5455490 +1    11     8     2
  H     1.10118911 +1  112.4840207 +1   21.0876144 +1    11     8     2
  H     1.22130302 +1  116.1514745 +1   20.6068608 +1     9     8     2
  O     1.18044797 +1  166.3370621 +1   94.5445858 +1     2     1     3
  H     0.96479042 +1  105.0251206 +1   53.9659850 +1    16     2     1

 TIME=     0.09
  REACTANTS AND PRODUCTS SWAPPED AROUND
 *+*+*+*+*+*+*+*+*+*+*+*+*+*+*+*+*+*+*+*+*+*+*+*+*+*+*+*+*+*+*+*+*+*+*+*+*+*+*+*+
            BAR SHORTENED BY       0.000 PERCENT
 GRADIENT CRITERION IN FLEPO =    10.000


          FOR POINT  450 FIRST  STRUCTURE
 DISTANCE A - B      0.100898
 HEAT             -291.337544
 GRADIENT NORM      24.153196
 DIRECTION COSINE    0.859221
* ===============================
* Input file for Mopac
* ===============================
 PM7 BONDS AUX DUMP=30M ITRY=15000 T=14D CHARGE=-1 SINGLET eps=78.4 RELSCF=1


  C     0.00000000 +0    0.0000000 +0    0.0000000 +0     0     0     0
  H     1.35241300 +1    0.0000000 +0    0.0000000 +0     1     0     0
  H     1.09079964 +1  103.1238518 +1    0.0000000 +0     1     2     0
  H     1.09157386 +1   99.3561318 +1 -115.6482471 +1     1     2     3
  N     1.39603041 +1  107.1936616 +1  122.9538981 +1     1     2     3
  O     1.23512234 +1  120.2171306 +1  -94.6895630 +1     5     1     2
  O     1.23529403 +1  120.3435425 +1   81.5117966 +1     5     1     2
  C     4.13148800 +1  150.0521459 +1 -138.0223982 +1     2     1     3
  O     1.28780882 +1   41.1734382 +1  105.8959112 +1     8     2     1
  O     1.23170001 +1   87.9893510 +1 -105.7613890 +1     8     2     1
  C     1.49493422 +1  141.9946160 +1   40.3104924 +1     8     2     1
  H     1.10092361 +1  111.4239060 +1  -98.9440443 +1    11     8     2
  H     1.09854287 +1  111.7566586 +1  142.0177854 +1    11     8     2
  H     1.10273265 +1  112.0371242 +1   21.7612405 +1    11     8     2
  H     1.27551812 +1  115.5476459 +1   21.2551851 +1     9     8     2
  O     1.19384651 +1  179.3011678 +1   38.3727771 +1    15     9     8
  H     0.95952907 +1  102.0425783 +1  -46.9456354 +1    16    15     9

 *+*+*+*+*+*+*+*+*+*+*+*+*+*+*+*+*+*+*+*+*+*+*+*+*+*+*+*+*+*+*+*+*+*+*+*+*+*+*+*+
            BAR SHORTENED BY       1.000 PERCENT
 AT END OF STEPWISE ASCENT OF REACTION BARRIER

 -------------------------------------------------------------------------------
 PM7 BONDS AUX DUMP=30M ITRY=15000 T=14D CHARGE=-1 SINGLET eps=78.4 RELSCF=1




     TRANSITION STATE LOCATED USING THE "SADDLE" TECHNIQUE    
     SCF FIELD WAS ACHIEVED                                   


                              PM7 CALCULATION
                                                       MOPAC v22.0.6 Linux
                                                       Tue Mar 26 12:05:24 2024




          FINAL HEAT OF FORMATION =       -291.33754 KCAL/MOL =   -1218.95628 KJ/MOL
          VAN DER WAALS AREA      =        180.85 SQUARE ANGSTROMS



          DIELECTRIC ENERGY       =         -2.94415 EV
          COSMO AREA              =        180.85 SQUARE ANGSTROMS
          COSMO VOLUME            =        165.16 CUBIC ANGSTROMS

          GRADIENT NORM           =          4.93472          =       1.19684 PER ATOM
          IONIZATION POTENTIAL    =          9.927609 EV
          HOMO LUMO ENERGIES (EV) =         -9.928  0.272
          NO. OF FILLED LEVELS    =         28
          MOLECULAR WEIGHT        =        138.0999         POINT GROUP:  C1  

          MOLECULAR DIMENSIONS (Angstroms)

            Atom       Atom       Distance
            H    13    H     3     7.89403
            H    17    O     6     4.00476
            O     9    O     7     2.94546


          SCF CALCULATIONS        =       2401

          WALL-CLOCK TIME         =          1 MINUTE AND 40.965 SECONDS
          COMPUTATION TIME        =         13 MINUTES AND 37.519 SECONDS



       FINAL  POINT  AND  DERIVATIVES

   PARAMETER     ATOM    TYPE            VALUE        GRADIENT
      1          1  C    CARTESIAN X    -1.007397     -2.530876  KCAL/ANGSTROM
      2          1  C    CARTESIAN Y    -0.607046     -0.239766  KCAL/ANGSTROM
      3          1  C    CARTESIAN Z     0.313697      0.001343  KCAL/ANGSTROM
      4          2  H    CARTESIAN X     0.425082     -1.879401  KCAL/ANGSTROM
      5          2  H    CARTESIAN Y    -0.796441      0.371267  KCAL/ANGSTROM
      6          2  H    CARTESIAN Z     0.166003     -0.471406  KCAL/ANGSTROM
      7          3  H    CARTESIAN X    -1.087702      0.254166  KCAL/ANGSTROM
      8          3  H    CARTESIAN Y    -0.486431     -0.132016  KCAL/ANGSTROM
      9          3  H    CARTESIAN Z     1.390274     -0.216072  KCAL/ANGSTROM
     10          4  H    CARTESIAN X    -1.303578     -0.055360  KCAL/ANGSTROM
     11          4  H    CARTESIAN Y    -1.593095     -0.066119  KCAL/ANGSTROM
     12          4  H    CARTESIAN Z    -0.030304     -0.246016  KCAL/ANGSTROM
     13          5  N    CARTESIAN X    -1.338184     -0.690383  KCAL/ANGSTROM
     14          5  N    CARTESIAN Y     0.471475     -1.383467  KCAL/ANGSTROM
     15          5  N    CARTESIAN Z    -0.470543      0.187598  KCAL/ANGSTROM
     16          6  O    CARTESIAN X    -1.407809      0.451802  KCAL/ANGSTROM
     17          6  O    CARTESIAN Y     1.609229     -0.409847  KCAL/ANGSTROM
     18          6  O    CARTESIAN Z     0.020849     -0.071977  KCAL/ANGSTROM
     19          7  O    CARTESIAN X    -1.515429     -0.403335  KCAL/ANGSTROM
     20          7  O    CARTESIAN Y     0.340099     -0.051602  KCAL/ANGSTROM
     21          7  O    CARTESIAN Z    -1.691643     -0.972454  KCAL/ANGSTROM
     22          8  C    CARTESIAN X     3.875339     -0.822245  KCAL/ANGSTROM
     23          8  C    CARTESIAN Y     0.004354     -0.825484  KCAL/ANGSTROM
     24          8  C    CARTESIAN Z    -1.843337     -0.156503  KCAL/ANGSTROM
     25          9  O    CARTESIAN X     3.279350      0.643917  KCAL/ANGSTROM
     26          9  O    CARTESIAN Y     0.330905     -0.129284  KCAL/ANGSTROM
     27          9  O    CARTESIAN Z    -0.735222      0.210672  KCAL/ANGSTROM
     28         10  O    CARTESIAN X     3.817620      0.123201  KCAL/ANGSTROM
     29         10  O    CARTESIAN Y    -1.136359     -0.412787  KCAL/ANGSTROM
     30         10  O    CARTESIAN Z    -2.294808     -0.429964  KCAL/ANGSTROM
     31         11  C    CARTESIAN X     4.621497     -0.094316  KCAL/ANGSTROM
     32         11  C    CARTESIAN Y     1.107167     -0.422437  KCAL/ANGSTROM
     33         11  C    CARTESIAN Z    -2.518042     -0.226519  KCAL/ANGSTROM
     34         12  H    CARTESIAN X     4.494102     -0.193612  KCAL/ANGSTROM
     35         12  H    CARTESIAN Y     1.066705     -0.243476  KCAL/ANGSTROM
     36         12  H    CARTESIAN Z    -3.612444     -0.357081  KCAL/ANGSTROM
     37         13  H    CARTESIAN X     5.704709     -0.206949  KCAL/ANGSTROM
     38         13  H    CARTESIAN Y     1.041154     -0.376286  KCAL/ANGSTROM
     39         13  H    CARTESIAN Z    -2.330656     -0.270621  KCAL/ANGSTROM
     40         14  H    CARTESIAN X     4.295509     -0.410441  KCAL/ANGSTROM
     41         14  H    CARTESIAN Y     2.103656     -0.088514  KCAL/ANGSTROM
     42         14  H    CARTESIAN Z    -2.181304     -0.075858  KCAL/ANGSTROM
     43         15  H    CARTESIAN X     2.417946      1.411602  KCAL/ANGSTROM
     44         15  H    CARTESIAN Y    -0.440109      1.647850  KCAL/ANGSTROM
     45         15  H    CARTESIAN Z    -0.339715     -0.504691  KCAL/ANGSTROM
     46         16  O    CARTESIAN X     1.521493      1.177315  KCAL/ANGSTROM
     47         16  O    CARTESIAN Y    -1.222808      0.354370  KCAL/ANGSTROM
     48         16  O    CARTESIAN Z     0.055579     -0.457428  KCAL/ANGSTROM
     49         17  H    CARTESIAN X     1.478674     -0.086475  KCAL/ANGSTROM
     50         17  H    CARTESIAN Y    -1.831311      0.038296  KCAL/ANGSTROM
     51         17  H    CARTESIAN Z    -0.691812      0.249479  KCAL/ANGSTROM




   ATOM   CHEMICAL          X               Y               Z
  NUMBER   SYMBOL      (ANGSTROMS)     (ANGSTROMS)     (ANGSTROMS)

     1       C         -1.00739698  *  -0.60704646  *   0.31369657  *
     2       H          0.42508185  *  -0.79644055  *   0.16600290  *
     3       H         -1.08770202  *  -0.48643147  *   1.39027415  *
     4       H         -1.30357814  *  -1.59309515  *  -0.03030380  *
     5       N         -1.33818373  *   0.47147502  *  -0.47054311  *
     6       O         -1.40780878  *   1.60922945  *   0.02084898  *
     7       O         -1.51542891  *   0.34009858  *  -1.69164279  *
     8       C          3.87533875  *   0.00435443  *  -1.84333725  *
     9       O          3.27934986  *   0.33090466  *  -0.73522182  *
    10       O          3.81761992  *  -1.13635857  *  -2.29480752  *
    11       C          4.62149675  *   1.10716687  *  -2.51804249  *
    12       H          4.49410238  *   1.06670453  *  -3.61244404  *
    13       H          5.70470922  *   1.04115370  *  -2.33065598  *
    14       H          4.29550909  *   2.10365605  *  -2.18130445  *
    15       H          2.41794570  *  -0.44010926  *  -0.33971456  *
    16       O          1.52149338  *  -1.22280812  *   0.05557932  *
    17       H          1.47867417  *  -1.83131079  *  -0.69181207  *

                             CARTESIAN COORDINATES

   1    C       -1.007396979    -0.607046462     0.313696574
   2    H        0.425081851    -0.796440547     0.166002905
   3    H       -1.087702023    -0.486431474     1.390274145
   4    H       -1.303578139    -1.593095146    -0.030303802
   5    N       -1.338183732     0.471475018    -0.470543113
   6    O       -1.407808781     1.609229454     0.020848984
   7    O       -1.515428907     0.340098585    -1.691642793
   8    C        3.875338753     0.004354430    -1.843337247
   9    O        3.279349858     0.330904663    -0.735221815
  10    O        3.817619922    -1.136358572    -2.294807518
  11    C        4.621496754     1.107166867    -2.518042490
  12    H        4.494102378     1.066704534    -3.612444043
  13    H        5.704709224     1.041153696    -2.330655978
  14    H        4.295509092     2.103656047    -2.181304450
  15    H        2.417945702    -0.440109256    -0.339714556
  16    O        1.521493376    -1.222808119     0.055579322
  17    H        1.478674172    -1.831310794    -0.691812074


           Empirical Formula: C3 H8 N O5  =    17 atoms



      MOLECULAR POINT GROUP   :   C1  


                  EIGENVALUES  
 -36.57934 -30.64502 -29.35492 -28.99386 -28.29937 -26.74593 -25.94200 -21.73974
 -19.95215 -17.94815 -17.87056 -17.33981 -17.22603 -16.18070 -15.88686 -15.83186
 -14.97174 -13.87605 -13.71581 -13.42386 -13.25391 -11.78682 -11.69014 -11.54688
 -11.35767 -11.30770 -11.11469  -9.92761   0.27222   1.30395   1.56411   2.59154
   3.64182   4.42817   4.55511   4.94500   5.23009   5.36683   5.57119   5.96444
   6.04585   6.36986   6.63394   6.67592


              NET ATOMIC CHARGES AND DIPOLE CONTRIBUTIONS

  ATOM NO.   TYPE          CHARGE      No. of ELECS.   s-Pop       p-Pop       
    1          C          -0.673663        4.6737     1.09682     3.57684
    2          H           0.419240        0.5808     0.58076
    3          H           0.194759        0.8052     0.80524
    4          H           0.199857        0.8001     0.80014
    5          N           0.763413        4.2366     1.42208     2.81450
    6          O          -0.609135        6.6091     1.94241     4.66672
    7          O          -0.602876        6.6029     1.94240     4.66048
    8          C           0.777647        3.2224     1.08823     2.13412
    9          O          -0.753493        6.7535     1.86431     4.88919
   10          O          -0.747884        6.7479     1.87839     4.86950
   11          C          -0.551650        4.5517     1.06417     3.48748
   12          H           0.191210        0.8088     0.80879
   13          H           0.191791        0.8082     0.80821
   14          H           0.191775        0.8082     0.80823
   15          H           0.450706        0.5493     0.54929
   16          O          -0.816689        6.8167     1.83395     4.98274
   17          H           0.374992        0.6250     0.62501
 DIPOLE           X         Y         Z       TOTAL
 POINT-CHG.     3.585    -0.835    -0.052     3.681
 HYBRID        -0.758     0.091    -0.276     0.812
 SUM            2.827    -0.744    -0.329     2.942


          ATOMIC ORBITAL ELECTRON POPULATIONS

     Atom    s        px        py        pz   
    1  C   1.09682   1.46117   1.00517   1.11050
    2  H   0.58076
    3  H   0.80524
    4  H   0.80014
    5  N   1.42208   0.88432   0.97735   0.95282
    6  O   1.94241   1.68221   1.20759   1.77692
    7  O   1.94240   1.66640   1.92321   1.07086
    8  C   1.08823   0.66143   0.77603   0.69666
    9  O   1.86431   1.65087   1.75695   1.48137
   10  O   1.87839   1.72838   1.39119   1.74992
   11  C   1.06417   1.17558   1.13128   1.18062
   12  H   0.80879
   13  H   0.80821
   14  H   0.80823
   15  H   0.54929
   16  O   1.83395   1.66554   1.67810   1.63909
   17  H   0.62501

          BONDING CONTRIBUTION OF EACH M.O.

  1.3940  1.3658  0.9488  0.9962  1.0362  1.1672  1.7177  1.0492  1.2661  1.1119
  1.3508  1.4584  1.2648  1.2362  1.2137  1.4898  1.2379  1.4715  1.5165  1.4738
  1.2352  0.5687  0.5335  0.6541  0.4798  0.2593  0.6348  0.9063 -2.3550 -1.8031
 -2.1378 -2.0592 -2.0035 -1.8987 -1.9273 -1.8792 -1.9178 -1.9337 -1.9053 -1.7894
 -1.9341 -1.7366 -1.8812 -1.8763





            (VALENCIES)   BOND ORDERS

     1  C     (3.619)     5  N 1.113     3  H 0.942     4  H 0.935     2  H 0.341     7  O 0.108     6  O 0.107
                         16  O 0.060

     2  H     (0.824)    16  O 0.442     1  C 0.341     5  N 0.013

     3  H     (0.962)     1  C 0.942

     4  H     (0.960)     1  C 0.935

     5  N     (3.796)     7  O 1.325     6  O 1.322     1  C 1.113    16  O 0.015     2  H 0.013

     6  O     (1.667)     5  N 1.322     7  O 0.210     1  C 0.107

     7  O     (1.670)     5  N 1.325     6  O 0.210     1  C 0.108

     8  C     (3.699)    10  O 1.535     9  O 1.163    11  C 0.975

     9  O     (1.837)     8  C 1.163    15  H 0.414    10  O 0.144    16  O 0.070    11  C 0.028

    10  O     (1.745)     8  C 1.535     9  O 0.144    11  C 0.047

    11  C     (3.896)     8  C 0.975    14  H 0.950    12  H 0.945    13  H 0.938    10  O 0.047     9  O 0.028

    12  H     (0.963)    11  C 0.945

    13  H     (0.963)    11  C 0.938

    14  H     (0.963)    11  C 0.950

    15  H     (0.797)     9  O 0.414    16  O 0.360

    16  O     (1.817)    17  H 0.847     2  H 0.442    15  H 0.360     9  O 0.070     1  C 0.060     5  N 0.015

    17  H     (0.859)    16  O 0.847


 **********************
 *                    *
 * JOB ENDED NORMALLY *
 *                    *
 **********************



 TOTAL JOB TIME:           100.98 SECONDS

 == MOPAC DONE ==
