 *******************************************************************************
 **                                                                           **
 **                              MOPAC v22.1.0                                **
 **                                                                           **
 *******************************************************************************
 **          Digital Object Identifier (DOI): 10.5281/zenodo.6511958          **
 **    Visit the DOI location for information on how to cite this program.    **
 *******************************************************************************

                              PM7 CALCULATION RESULTS

 *******************************************************************************
 *  CALCULATION DONE:                                Sat Mar 23 15:02:00 2024  *
 *  PM7        - The PM7 Hamiltonian to be used
 *  SINGLET    - SPIN STATE DEFINED AS A SINGLET
 *
 *
 *
 *                 CHARGE ON SYSTEM = 0
 *
 *
 *
 *  EPS=78.4   - USE ANDREAS KLAMT'S COSMO IMPLICIT SOLVATION MODEL
 *  THREADS    - USE A MAXIMUM OF 40 THREADS
 *  T=         - A TIME OF 14.0 DAYS REQUESTED
 *  DUMP=N     - RESTART FILE WRITTEN EVERY 30.0 MINUTES REQUESTED
 *  ITRY=      - DO A MAXIMUM OF 15000 ITERATIONS FOR SCF
 *  AUX        - OUTPUT AUXILIARY INFORMATION
 *  PL         - MONITOR CONVERGENCE IN DENSITY MATRIX
 *******************************************************************************
PM7 CHARGE=0 SINGLET AUX DUMP=30M ITRY=15000 eps=78.4 T=14D PL THREADS=40

 Mopac file generated by Gabedit
   ATOM   CHEMICAL          X               Y               Z
  NUMBER   SYMBOL      (ANGSTROMS)     (ANGSTROMS)     (ANGSTROMS)

     1       C          0.14579000  *  -0.54109000  *   0.12361000  *
     2       H          0.19585000  *  -0.90387000  *  -0.90520000  *
     3       N         -0.03621000  *  -2.73435000  *   1.17829000  *
     4       O         -0.26375000  *  -3.31909000  *   0.13108000  *
     5       O         -0.41173000  *  -3.16927000  *   2.25721000  *
     6       H         -0.42628000  *   1.02717000  *   1.45790000  *
     7       C          0.71796000  *  -1.46511000  *   1.15211000  *
     8       H          1.80054000  *  -1.69515000  *   0.91446000  *
     9       H          0.73495000  *  -1.01789000  *   2.17927000  *
    10       C         -0.36600000  *   0.64446000  *   0.44725000  *
    11       H         -0.76869000  *   1.33719000  *  -0.28074000  *
    12       C          6.52119300  *  -3.26700200  *   0.71203400  *
    13       C          7.91991300  *  -3.24126200  *   0.66960400  *
    14       C          8.55822300  *  -2.02548200  *   0.43226400  *
    15       C          7.78939300  *  -0.87780200  *   0.24858400  *
    16       C          6.39534300  *  -0.98751200  *   0.30573400  *
    17       N          5.77134300  *  -2.16106200  *   0.53182400  *
    18       H          5.96822300  *  -4.19827200  *   0.89662400  *
    19       H          8.49587300  *  -4.15335200  *   0.81912400  *
    20       H          8.25983300  *   0.08662800  *   0.06535400  *
    21       H          5.74558300  *  -0.11325200  *   0.16721400  *
    22       H          9.64893300  *  -1.97277200  *   0.39061400  *
    23       H          3.58529500  *  -2.81194600  *   0.89322400  *
    24       H          4.33898000  *  -1.43358900  *   0.72871000  *
    25       O          3.27800300  *  -1.97914600  *   0.68618500  *



          CARTESIAN COORDINATES 

    NO.       ATOM           X           Y           Z

     1         C          0.1458     -0.5411      0.1236
     2         H          0.1958     -0.9039     -0.9052
     3         N         -0.0362     -2.7344      1.1783
     4         O         -0.2637     -3.3191      0.1311
     5         O         -0.4117     -3.1693      2.2572
     6         H         -0.4263      1.0272      1.4579
     7         C          0.7180     -1.4651      1.1521
     8         H          1.8005     -1.6951      0.9145
     9         H          0.7350     -1.0179      2.1793
    10         C         -0.3660      0.6445      0.4472
    11         H         -0.7687      1.3372     -0.2807
    12         C          6.5212     -3.2670      0.7120
    13         C          7.9199     -3.2413      0.6696
    14         C          8.5582     -2.0255      0.4323
    15         C          7.7894     -0.8778      0.2486
    16         C          6.3953     -0.9875      0.3057
    17         N          5.7713     -2.1611      0.5318
    18         H          5.9682     -4.1983      0.8966
    19         H          8.4959     -4.1534      0.8191
    20         H          8.2598      0.0866      0.0654
    21         H          5.7456     -0.1133      0.1672
    22         H          9.6489     -1.9728      0.3906
    23         H          3.5853     -2.8119      0.8932
    24         H          4.3390     -1.4336      0.7287
    25         O          3.2780     -1.9791      0.6862

 General Reference for PM7:
 "Optimization of Parameters for Semiempirical Methods VI: More Modifications to the 
 NDDO Approximations and Re-optimization of Parameters", J. J. P. Stewart, J. Mol. Mod., 1:32, 19 (2013)
 https://link.springer.com/article/10.1007/s00894-012-1667-x

           Empirical Formula: C8 H12 N2 O3  =    25 atoms



      MOLECULAR POINT GROUP   :   C1  


 SINGLET STATE CALCULATION


      RHF CALCULATION, NO. OF DOUBLY OCCUPIED LEVELS = 36


          Geometry optimization using EF
 ITERATION   1 PLS= 0.100E+01 0.000E+00 ENERGY    11721.972169 DELTAE    0.0000000
 ITERATION   2 PLS= 0.122E+01 0.000E+00 ENERGY      144.806822 DELTAE    0.0000000
 ITERATION   3 PLS= 0.972E-01 0.000E+00 ENERGY       64.785980 DELTAE  -80.0208422
 ITERATION   4 PLS= 0.518E-01 0.000E+00 ENERGY      -98.771713 DELTAE -163.5576932
 ITERATION   5 PLS= 0.233E-01 0.000E+00 ENERGY       -2.373100 DELTAE   96.3986128
 ITERATION   6 PLS= 0.262E-01 0.000E+00 ENERGY       -6.457906 DELTAE   -4.0848060
 ITERATION   7 PLS= 0.128E-01 0.000E+00 ENERGY      -10.184342 DELTAE   -3.7264360
 ITERATION   8 PLS= 0.405E-02 0.000E+00 ENERGY       -7.961879 DELTAE    2.2224638
 ITERATION   9 PLS= 0.193E-02 0.000E+00 ENERGY       -7.975034 DELTAE   -0.0131554
 ITERATION  10 PLS= 0.835E-03 0.000E+00 ENERGY       -7.981984 DELTAE   -0.0069503
 ITERATION  11 PLS= 0.185E-03 0.000E+00 ENERGY       -7.978657 DELTAE    0.0033273
 ITERATION  12 PLS= 0.105E-03 0.000E+00 ENERGY       -7.978683 DELTAE   -0.0000262
 ITERATION   1 PLS= 0.632E-04 0.000E+00 ENERGY      -22.278421 DELTAE -122.2784211
 ITERATION   2 PLS= 0.195E-01 0.000E+00 ENERGY      -23.544526 DELTAE   -1.2661051
 ITERATION   3 PLS= 0.992E-02 0.000E+00 ENERGY      -23.853385 DELTAE   -0.3088590
 ITERATION   4 PLS= 0.559E-02 0.000E+00 ENERGY      -24.119065 DELTAE   -0.2656803
 ITERATION   5 PLS= 0.113E-02 0.000E+00 ENERGY      -23.988849 DELTAE    0.1302166
 ITERATION   6 PLS= 0.776E-03 0.000E+00 ENERGY      -23.989872 DELTAE   -0.0010234
 ITERATION   7 PLS= 0.518E-03 0.000E+00 ENERGY      -23.991767 DELTAE   -0.0018949
 ITERATION   8 PLS= 0.710E-04 0.000E+00 ENERGY      -23.990538 DELTAE    0.0012290

          DIAGONAL MATRIX USED AS START HESSIAN

 CYCLE:     1 TIME:   0.074 TIME LEFT:  2.00W  GRAD.:   140.233 HEAT: -23.99054
 ITERATION   1 PLS= 0.348E-04 0.000E+00 ENERGY      -18.295703 DELTAE -118.2957029
 ITERATION   2 PLS= 0.437E-01 0.000E+00 ENERGY      -31.089726 DELTAE  -12.7940233
 ITERATION   3 PLS= 0.137E-01 0.000E+00 ENERGY      -32.338664 DELTAE   -1.2489381
 ITERATION   4 PLS= 0.473E-02 0.000E+00 ENERGY      -32.703663 DELTAE   -0.3649989
 ITERATION   5 PLS= 0.103E-02 0.000E+00 ENERGY      -32.575692 DELTAE    0.1279714
 ITERATION   6 PLS= 0.636E-03 0.000E+00 ENERGY      -32.579052 DELTAE   -0.0033601
 CYCLE:     2 TIME:   0.043 TIME LEFT:  2.00W  GRAD.:   105.163 HEAT: -32.58556
 ITERATION   1 PLS= 0.468E-03 0.000E+00 ENERGY        3.996643 DELTAE  -96.0033568
 ITERATION   2 PLS= 0.466E-01 0.000E+00 ENERGY      -13.304477 DELTAE  -17.3011200
 ITERATION   3 PLS= 0.208E-01 0.000E+00 ENERGY      -15.083883 DELTAE   -1.7794062
 ITERATION   4 PLS= 0.105E-01 0.000E+00 ENERGY      -15.760096 DELTAE   -0.6762135
 ITERATION   5 PLS= 0.141E-02 0.000E+00 ENERGY      -15.472230 DELTAE    0.2878664
 ITERATION   6 PLS= 0.866E-03 0.000E+00 ENERGY      -15.474536 DELTAE   -0.0023056
 ITERATION   1 PLS= 0.517E-03 0.000E+00 ENERGY      -28.190297 DELTAE -128.1902966
 ITERATION   2 PLS= 0.293E-01 0.000E+00 ENERGY      -33.686697 DELTAE   -5.4964007
 ITERATION   3 PLS= 0.157E-01 0.000E+00 ENERGY      -34.266414 DELTAE   -0.5797162
 ITERATION   4 PLS= 0.825E-02 0.000E+00 ENERGY      -34.515803 DELTAE   -0.2493892
 ITERATION   5 PLS= 0.928E-03 0.000E+00 ENERGY      -34.402567 DELTAE    0.1132360
 ITERATION   6 PLS= 0.559E-03 0.000E+00 ENERGY      -34.403270 DELTAE   -0.0007036
 CYCLE:     3 TIME:   0.074 TIME LEFT:  2.00W  GRAD.:   123.025 HEAT: -34.40410
 ITERATION   1 PLS= 0.344E-03 0.000E+00 ENERGY      -29.721505 DELTAE -129.7215053
 ITERATION   2 PLS= 0.318E-01 0.000E+00 ENERGY      -34.498730 DELTAE   -4.7772250
 ITERATION   3 PLS= 0.105E-01 0.000E+00 ENERGY      -34.935113 DELTAE   -0.4363824
 ITERATION   4 PLS= 0.532E-02 0.000E+00 ENERGY      -35.135680 DELTAE   -0.2005675
 ITERATION   5 PLS= 0.107E-02 0.000E+00 ENERGY      -35.046443 DELTAE    0.0892376
 CYCLE:     4 TIME:   0.039 TIME LEFT:  2.00W  GRAD.:   108.103 HEAT: -35.04786
 ITERATION   1 PLS= 0.541E-03 0.000E+00 ENERGY      -25.958043 DELTAE -125.9580432
 ITERATION   2 PLS= 0.445E-01 0.000E+00 ENERGY      -32.283384 DELTAE   -6.3253413
 ITERATION   3 PLS= 0.164E-01 0.000E+00 ENERGY      -32.805186 DELTAE   -0.5218020
 ITERATION   4 PLS= 0.789E-02 0.000E+00 ENERGY      -33.047518 DELTAE   -0.2423312
 ITERATION   5 PLS= 0.942E-03 0.000E+00 ENERGY      -32.935875 DELTAE    0.1116428
 ITERATION   6 PLS= 0.778E-03 0.000E+00 ENERGY      -32.937567 DELTAE   -0.0016922
 ITERATION   1 PLS= 0.520E-03 0.000E+00 ENERGY      -35.130900 DELTAE -135.1308999
 ITERATION   2 PLS= 0.218E-01 0.000E+00 ENERGY      -36.759420 DELTAE   -1.6285202
 ITERATION   3 PLS= 0.830E-02 0.000E+00 ENERGY      -36.903935 DELTAE   -0.1445151
 ITERATION   4 PLS= 0.396E-02 0.000E+00 ENERGY      -36.970998 DELTAE   -0.0670633
 ITERATION   5 PLS= 0.548E-03 0.000E+00 ENERGY      -36.940065 DELTAE    0.0309333
 CYCLE:     5 TIME:   0.113 TIME LEFT:  2.00W  GRAD.:    63.984 HEAT: -36.94047
 ITERATION   1 PLS= 0.357E-03 0.000E+00 ENERGY      -35.066031 DELTAE -135.0660310
 ITERATION   2 PLS= 0.139E-01 0.000E+00 ENERGY      -36.780296 DELTAE   -1.7142647
 ITERATION   3 PLS= 0.523E-02 0.000E+00 ENERGY      -36.952954 DELTAE   -0.1726580
 ITERATION   4 PLS= 0.261E-02 0.000E+00 ENERGY      -37.030490 DELTAE   -0.0775364
 ITERATION   5 PLS= 0.718E-03 0.000E+00 ENERGY      -36.996992 DELTAE    0.0334985
 CYCLE:     6 TIME:   0.035 TIME LEFT:  2.00W  GRAD.:    82.976 HEAT: -36.99756
 ITERATION   1 PLS= 0.303E-03 0.000E+00 ENERGY      -35.772241 DELTAE -135.7722413
 ITERATION   2 PLS= 0.910E-02 0.000E+00 ENERGY      -37.209616 DELTAE   -1.4373745
 ITERATION   3 PLS= 0.461E-02 0.000E+00 ENERGY      -37.373198 DELTAE   -0.1635825
 ITERATION   4 PLS= 0.248E-02 0.000E+00 ENERGY      -37.445826 DELTAE   -0.0726273
 ITERATION   5 PLS= 0.956E-03 0.000E+00 ENERGY      -37.408828 DELTAE    0.0369976
 CYCLE:     7 TIME:   0.039 TIME LEFT:  2.00W  GRAD.:    73.180 HEAT: -37.40929
 ITERATION   1 PLS= 0.642E-03 0.000E+00 ENERGY      -36.271246 DELTAE -136.2712462
 ITERATION   2 PLS= 0.101E-01 0.000E+00 ENERGY      -37.929754 DELTAE   -1.6585082
 ITERATION   3 PLS= 0.459E-02 0.000E+00 ENERGY      -38.141490 DELTAE   -0.2117354
 ITERATION   4 PLS= 0.264E-02 0.000E+00 ENERGY      -38.252091 DELTAE   -0.1106008
 ITERATION   5 PLS= 0.753E-03 0.000E+00 ENERGY      -38.201560 DELTAE    0.0505304
 CYCLE:     8 TIME:   0.035 TIME LEFT:  2.00W  GRAD.:    58.567 HEAT: -38.20286
 ITERATION   1 PLS= 0.522E-03 0.000E+00 ENERGY      -36.004925 DELTAE -136.0049255
 ITERATION   2 PLS= 0.941E-02 0.000E+00 ENERGY      -37.445991 DELTAE   -1.4410657
 ITERATION   3 PLS= 0.418E-02 0.000E+00 ENERGY      -37.619675 DELTAE   -0.1736840
 ITERATION   4 PLS= 0.206E-02 0.000E+00 ENERGY      -37.696390 DELTAE   -0.0767145
 ITERATION   5 PLS= 0.820E-03 0.000E+00 ENERGY      -37.654420 DELTAE    0.0419699
 ITERATION   1 PLS= 0.568E-03 0.000E+00 ENERGY      -38.479339 DELTAE -138.4793389
 ITERATION   2 PLS= 0.518E-02 0.000E+00 ENERGY      -38.917134 DELTAE   -0.4377952
 ITERATION   3 PLS= 0.219E-02 0.000E+00 ENERGY      -38.968700 DELTAE   -0.0515659
 ITERATION   4 PLS= 0.107E-02 0.000E+00 ENERGY      -38.987654 DELTAE   -0.0189540
 CYCLE:     9 TIME:   0.121 TIME LEFT:  2.00W  GRAD.:    34.288 HEAT: -38.97828
 ITERATION   1 PLS= 0.358E-03 0.000E+00 ENERGY      -38.138814 DELTAE -138.1388143
 ITERATION   2 PLS= 0.469E-02 0.000E+00 ENERGY      -38.733794 DELTAE   -0.5949798
 ITERATION   3 PLS= 0.169E-02 0.000E+00 ENERGY      -38.807827 DELTAE   -0.0740332
 ITERATION   4 PLS= 0.980E-03 0.000E+00 ENERGY      -38.850451 DELTAE   -0.0426236
 ITERATION   5 PLS= 0.598E-03 0.000E+00 ENERGY      -38.830210 DELTAE    0.0202408
 ITERATION   1 PLS= 0.417E-03 0.000E+00 ENERGY      -39.119967 DELTAE -139.1199667
 ITERATION   2 PLS= 0.229E-02 0.000E+00 ENERGY      -39.265688 DELTAE   -0.1457213
 ITERATION   3 PLS= 0.841E-03 0.000E+00 ENERGY      -39.283612 DELTAE   -0.0179240
 ITERATION   4 PLS= 0.470E-03 0.000E+00 ENERGY      -39.292491 DELTAE   -0.0088791
 CYCLE:    10 TIME:   0.070 TIME LEFT:  2.00W  GRAD.:    27.607 HEAT: -39.28862
 ITERATION   1 PLS= 0.173E-03 0.000E+00 ENERGY      -39.340568 DELTAE -139.3405684
 ITERATION   2 PLS= 0.187E-02 0.000E+00 ENERGY      -39.496325 DELTAE   -0.1557563
 ITERATION   3 PLS= 0.757E-03 0.000E+00 ENERGY      -39.518405 DELTAE   -0.0220801
 ITERATION   4 PLS= 0.531E-03 0.000E+00 ENERGY      -39.531540 DELTAE   -0.0131347
 CYCLE:    11 TIME:   0.035 TIME LEFT:  2.00W  GRAD.:    33.417 HEAT: -39.52373
 ITERATION   1 PLS= 0.247E-03 0.000E+00 ENERGY      -39.816823 DELTAE -139.8168232
 ITERATION   2 PLS= 0.402E-02 0.000E+00 ENERGY      -40.057568 DELTAE   -0.2407444
 ITERATION   3 PLS= 0.113E-02 0.000E+00 ENERGY      -40.095613 DELTAE   -0.0380457
 ITERATION   4 PLS= 0.560E-03 0.000E+00 ENERGY      -40.119940 DELTAE   -0.0243271
 ITERATION   5 PLS= 0.352E-03 0.000E+00 ENERGY      -40.108016 DELTAE    0.0119246
 CYCLE:    12 TIME:   0.039 TIME LEFT:  2.00W  GRAD.:    26.426 HEAT: -40.10822
 ITERATION   1 PLS= 0.245E-03 0.000E+00 ENERGY      -40.094061 DELTAE -140.0940613
 ITERATION   2 PLS= 0.613E-02 0.000E+00 ENERGY      -40.772382 DELTAE   -0.6783202
 ITERATION   3 PLS= 0.319E-02 0.000E+00 ENERGY      -40.884785 DELTAE   -0.1124038
 ITERATION   4 PLS= 0.167E-02 0.000E+00 ENERGY      -40.948034 DELTAE   -0.0632490
 ITERATION   5 PLS= 0.318E-03 0.000E+00 ENERGY      -40.914441 DELTAE    0.0335938
 CYCLE:    13 TIME:   0.035 TIME LEFT:  2.00W  GRAD.:    35.885 HEAT: -40.91460
 ITERATION   1 PLS= 0.207E-03 0.000E+00 ENERGY      -39.821774 DELTAE -139.8217745
 ITERATION   2 PLS= 0.125E-01 0.000E+00 ENERGY      -41.766574 DELTAE   -1.9447994
 ITERATION   3 PLS= 0.631E-02 0.000E+00 ENERGY      -42.133344 DELTAE   -0.3667702
 ITERATION   4 PLS= 0.339E-02 0.000E+00 ENERGY      -42.357306 DELTAE   -0.2239615
 ITERATION   5 PLS= 0.475E-03 0.000E+00 ENERGY      -42.239850 DELTAE    0.1174551
 ITERATION   6 PLS= 0.315E-03 0.000E+00 ENERGY      -42.240224 DELTAE   -0.0003734
 CYCLE:    14 TIME:   0.043 TIME LEFT:  2.00W  GRAD.:    39.612 HEAT: -42.24063
 ITERATION   1 PLS= 0.204E-03 0.000E+00 ENERGY      -32.190297 DELTAE -132.1902965
 ITERATION   2 PLS= 0.307E-01 0.000E+00 ENERGY      -40.143150 DELTAE   -7.9528538
 ITERATION   3 PLS= 0.183E-01 0.000E+00 ENERGY      -41.709410 DELTAE   -1.5662598
 ITERATION   4 PLS= 0.103E-01 0.000E+00 ENERGY      -42.753814 DELTAE   -1.0444038
 ITERATION   5 PLS= 0.119E-02 0.000E+00 ENERGY      -42.194638 DELTAE    0.5591756
 ITERATION   6 PLS= 0.491E-03 0.000E+00 ENERGY      -42.196366 DELTAE   -0.0017279
 ITERATION   1 PLS= 0.272E-03 0.000E+00 ENERGY      -40.556555 DELTAE -140.5565550
 ITERATION   2 PLS= 0.183E-01 0.000E+00 ENERGY      -42.347100 DELTAE   -1.7905451
 ITERATION   3 PLS= 0.931E-02 0.000E+00 ENERGY      -42.710280 DELTAE   -0.3631794
 ITERATION   4 PLS= 0.476E-02 0.000E+00 ENERGY      -42.922342 DELTAE   -0.2120627
 ITERATION   5 PLS= 0.439E-03 0.000E+00 ENERGY      -42.821235 DELTAE    0.1011069
 ITERATION   6 PLS= 0.222E-03 0.000E+00 ENERGY      -42.821557 DELTAE   -0.0003219
 CYCLE:    15 TIME:   0.074 TIME LEFT:  2.00W  GRAD.:    58.567 HEAT: -42.82196
 ITERATION   1 PLS= 0.141E-03 0.000E+00 ENERGY      -41.685968 DELTAE -141.6859676
 ITERATION   2 PLS= 0.142E-01 0.000E+00 ENERGY      -43.262751 DELTAE   -1.5767834
 ITERATION   3 PLS= 0.765E-02 0.000E+00 ENERGY      -43.541213 DELTAE   -0.2784621
 ITERATION   4 PLS= 0.406E-02 0.000E+00 ENERGY      -43.707487 DELTAE   -0.1662742
 ITERATION   5 PLS= 0.336E-03 0.000E+00 ENERGY      -43.621664 DELTAE    0.0858233
 CYCLE:    16 TIME:   0.039 TIME LEFT:  2.00W  GRAD.:    46.288 HEAT: -43.62204
 ITERATION   1 PLS= 0.167E-03 0.000E+00 ENERGY      -40.279137 DELTAE -140.2791371
 ITERATION   2 PLS= 0.118E-01 0.000E+00 ENERGY      -42.206307 DELTAE   -1.9271698
 ITERATION   3 PLS= 0.617E-02 0.000E+00 ENERGY      -42.490021 DELTAE   -0.2837137
 ITERATION   4 PLS= 0.325E-02 0.000E+00 ENERGY      -42.644874 DELTAE   -0.1548538
 ITERATION   5 PLS= 0.513E-03 0.000E+00 ENERGY      -42.563036 DELTAE    0.0818386
 ITERATION   1 PLS= 0.334E-03 0.000E+00 ENERGY      -42.882266 DELTAE -142.8822662
 ITERATION   2 PLS= 0.927E-02 0.000E+00 ENERGY      -43.291092 DELTAE   -0.4088259
 ITERATION   3 PLS= 0.473E-02 0.000E+00 ENERGY      -43.372373 DELTAE   -0.0812805
 ITERATION   4 PLS= 0.243E-02 0.000E+00 ENERGY      -43.421340 DELTAE   -0.0489677
 ITERATION   5 PLS= 0.226E-03 0.000E+00 ENERGY      -43.396666 DELTAE    0.0246738
 ITERATION   1 PLS= 0.139E-03 0.000E+00 ENERGY      -43.873765 DELTAE -143.8737649
 ITERATION   2 PLS= 0.421E-02 0.000E+00 ENERGY      -44.099203 DELTAE   -0.2254385
 ITERATION   3 PLS= 0.215E-02 0.000E+00 ENERGY      -44.128351 DELTAE   -0.0291474
 ITERATION   4 PLS= 0.112E-02 0.000E+00 ENERGY      -44.142917 DELTAE   -0.0145663
 CYCLE:    17 TIME:   0.109 TIME LEFT:  2.00W  GRAD.:    24.443 HEAT: -44.13528
 ITERATION   1 PLS= 0.172E-03 0.000E+00 ENERGY      -43.593971 DELTAE -143.5939712
 ITERATION   2 PLS= 0.587E-02 0.000E+00 ENERGY      -44.013069 DELTAE   -0.4190981
 ITERATION   3 PLS= 0.312E-02 0.000E+00 ENERGY      -44.079253 DELTAE   -0.0661833
 ITERATION   4 PLS= 0.164E-02 0.000E+00 ENERGY      -44.118917 DELTAE   -0.0396648
 ITERATION   5 PLS= 0.184E-03 0.000E+00 ENERGY      -44.098506 DELTAE    0.0204117
 ITERATION   1 PLS= 0.109E-03 0.000E+00 ENERGY      -44.238444 DELTAE -144.2384443
 ITERATION   2 PLS= 0.284E-02 0.000E+00 ENERGY      -44.328948 DELTAE   -0.0905040
 ITERATION   3 PLS= 0.148E-02 0.000E+00 ENERGY      -44.345060 DELTAE   -0.0161115
 ITERATION   4 PLS= 0.768E-03 0.000E+00 ENERGY      -44.355015 DELTAE   -0.0099549
 CYCLE:    18 TIME:   0.070 TIME LEFT:  2.00W  GRAD.:    15.468 HEAT: -44.34989
 ITERATION   1 PLS= 0.860E-04 0.000E+00 ENERGY      -44.220634 DELTAE -144.2206340
 ITERATION   2 PLS= 0.414E-02 0.000E+00 ENERGY      -44.319309 DELTAE   -0.0986745
 ITERATION   3 PLS= 0.222E-02 0.000E+00 ENERGY      -44.337537 DELTAE   -0.0182284
 ITERATION   4 PLS= 0.119E-02 0.000E+00 ENERGY      -44.350665 DELTAE   -0.0131282
 ITERATION   1 PLS= 0.175E-03 0.000E+00 ENERGY      -44.411733 DELTAE -144.4117331
 ITERATION   2 PLS= 0.260E-02 0.000E+00 ENERGY      -44.434226 DELTAE   -0.0224930
 ITERATION   3 PLS= 0.135E-02 0.000E+00 ENERGY      -44.438861 DELTAE   -0.0046347
 ITERATION   4 PLS= 0.703E-03 0.000E+00 ENERGY      -44.441925 DELTAE   -0.0030638
 CYCLE:    19 TIME:   0.074 TIME LEFT:  2.00W  GRAD.:    11.689 HEAT: -44.44035
 ITERATION   1 PLS= 0.830E-04 0.000E+00 ENERGY      -44.416385 DELTAE -144.4163852
 ITERATION   2 PLS= 0.190E-02 0.000E+00 ENERGY      -44.465043 DELTAE   -0.0486575
 ITERATION   3 PLS= 0.104E-02 0.000E+00 ENERGY      -44.474125 DELTAE   -0.0090820
 ITERATION   4 PLS= 0.572E-03 0.000E+00 ENERGY      -44.481713 DELTAE   -0.0075882
 CYCLE:    20 TIME:   0.035 TIME LEFT:  2.00W  GRAD.:    11.192 HEAT: -44.47784
 ITERATION   1 PLS= 0.151E-03 0.000E+00 ENERGY      -44.592026 DELTAE -144.5920256
 ITERATION   2 PLS= 0.125E-02 0.000E+00 ENERGY      -44.622024 DELTAE   -0.0299986
 ITERATION   3 PLS= 0.662E-03 0.000E+00 ENERGY      -44.627511 DELTAE   -0.0054872
 ITERATION   4 PLS= 0.395E-03 0.000E+00 ENERGY      -44.631463 DELTAE   -0.0039515
 CYCLE:    21 TIME:   0.035 TIME LEFT:  2.00W  GRAD.:     8.271 HEAT: -44.62921
 ITERATION   1 PLS= 0.609E-04 0.000E+00 ENERGY      -44.743477 DELTAE -144.7434772
 ITERATION   2 PLS= 0.131E-02 0.000E+00 ENERGY      -44.829031 DELTAE   -0.0855540
 ITERATION   3 PLS= 0.660E-03 0.000E+00 ENERGY      -44.844348 DELTAE   -0.0153171
 ITERATION   4 PLS= 0.337E-03 0.000E+00 ENERGY      -44.853290 DELTAE   -0.0089413
 CYCLE:    22 TIME:   0.055 TIME LEFT:  2.00W  GRAD.:     9.259 HEAT: -44.84859
 ITERATION   1 PLS= 0.961E-04 0.000E+00 ENERGY      -44.799500 DELTAE -144.7994996
 ITERATION   2 PLS= 0.189E-02 0.000E+00 ENERGY      -45.113264 DELTAE   -0.3137644
 ITERATION   3 PLS= 0.113E-02 0.000E+00 ENERGY      -45.170286 DELTAE   -0.0570223
 ITERATION   4 PLS= 0.681E-03 0.000E+00 ENERGY      -45.213278 DELTAE   -0.0429918
 ITERATION   5 PLS= 0.149E-03 0.000E+00 ENERGY      -45.186988 DELTAE    0.0262906
 CYCLE:    23 TIME:   0.035 TIME LEFT:  2.00W  GRAD.:    14.017 HEAT: -45.18724
 ITERATION   1 PLS= 0.104E-03 0.000E+00 ENERGY      -44.162070 DELTAE -144.1620696
 ITERATION   2 PLS= 0.393E-02 0.000E+00 ENERGY      -45.283324 DELTAE   -1.1212539
 ITERATION   3 PLS= 0.220E-02 0.000E+00 ENERGY      -45.488339 DELTAE   -0.2050153
 ITERATION   4 PLS= 0.133E-02 0.000E+00 ENERGY      -45.644997 DELTAE   -0.1566579
 ITERATION   5 PLS= 0.348E-03 0.000E+00 ENERGY      -45.550932 DELTAE    0.0940651
 CYCLE:    24 TIME:   0.039 TIME LEFT:  2.00W  GRAD.:    24.784 HEAT: -45.55188
 ITERATION   1 PLS= 0.226E-03 0.000E+00 ENERGY      -44.561950 DELTAE -144.5619505
 ITERATION   2 PLS= 0.423E-02 0.000E+00 ENERGY      -45.674605 DELTAE   -1.1126550
 ITERATION   3 PLS= 0.224E-02 0.000E+00 ENERGY      -45.870842 DELTAE   -0.1962368
 ITERATION   4 PLS= 0.139E-02 0.000E+00 ENERGY      -45.995179 DELTAE   -0.1243370
 ITERATION   5 PLS= 0.266E-03 0.000E+00 ENERGY      -45.926446 DELTAE    0.0687331
 CYCLE:    25 TIME:   0.051 TIME LEFT:  2.00W  GRAD.:    20.101 HEAT: -45.92704
 ITERATION   1 PLS= 0.186E-03 0.000E+00 ENERGY      -45.777288 DELTAE -145.7772881
 ITERATION   2 PLS= 0.387E-02 0.000E+00 ENERGY      -46.253690 DELTAE   -0.4764015
 ITERATION   3 PLS= 0.204E-02 0.000E+00 ENERGY      -46.334154 DELTAE   -0.0804641
 ITERATION   4 PLS= 0.116E-02 0.000E+00 ENERGY      -46.386280 DELTAE   -0.0521264
 ITERATION   5 PLS= 0.245E-03 0.000E+00 ENERGY      -46.356983 DELTAE    0.0292969
 CYCLE:    26 TIME:   0.039 TIME LEFT:  2.00W  GRAD.:    17.428 HEAT: -46.35716
 ITERATION   1 PLS= 0.145E-03 0.000E+00 ENERGY      -45.838426 DELTAE -145.8384265
 ITERATION   2 PLS= 0.617E-02 0.000E+00 ENERGY      -46.628181 DELTAE   -0.7897544
 ITERATION   3 PLS= 0.360E-02 0.000E+00 ENERGY      -46.765778 DELTAE   -0.1375968
 ITERATION   4 PLS= 0.219E-02 0.000E+00 ENERGY      -46.869222 DELTAE   -0.1034446
 ITERATION   5 PLS= 0.242E-03 0.000E+00 ENERGY      -46.805082 DELTAE    0.0641399
 CYCLE:    27 TIME:   0.043 TIME LEFT:  2.00W  GRAD.:    15.739 HEAT: -46.80560
 ITERATION   1 PLS= 0.145E-03 0.000E+00 ENERGY      -44.662385 DELTAE -144.6623848
 ITERATION   2 PLS= 0.139E-01 0.000E+00 ENERGY      -46.517615 DELTAE   -1.8552301
 ITERATION   3 PLS= 0.699E-02 0.000E+00 ENERGY      -46.874125 DELTAE   -0.3565103
 ITERATION   4 PLS= 0.360E-02 0.000E+00 ENERGY      -47.118690 DELTAE   -0.2445644
 ITERATION   5 PLS= 0.473E-03 0.000E+00 ENERGY      -46.983995 DELTAE    0.1346943
 ITERATION   6 PLS= 0.301E-03 0.000E+00 ENERGY      -46.984675 DELTAE   -0.0006798
 CYCLE:    28 TIME:   0.039 TIME LEFT:  2.00W  GRAD.:    19.708 HEAT: -46.98557
 ITERATION   1 PLS= 0.189E-03 0.000E+00 ENERGY      -45.429603 DELTAE -145.4296029
 ITERATION   2 PLS= 0.155E-01 0.000E+00 ENERGY      -46.681683 DELTAE   -1.2520798
 ITERATION   3 PLS= 0.797E-02 0.000E+00 ENERGY      -46.952623 DELTAE   -0.2709404
 ITERATION   4 PLS= 0.413E-02 0.000E+00 ENERGY      -47.144426 DELTAE   -0.1918027
 ITERATION   5 PLS= 0.320E-03 0.000E+00 ENERGY      -47.045747 DELTAE    0.0986787
 CYCLE:    29 TIME:   0.051 TIME LEFT:  2.00W  GRAD.:    24.979 HEAT: -47.04639
 ITERATION   1 PLS= 0.208E-03 0.000E+00 ENERGY      -46.867166 DELTAE -146.8671655
 ITERATION   2 PLS= 0.611E-02 0.000E+00 ENERGY      -47.213921 DELTAE   -0.3467553
 ITERATION   3 PLS= 0.325E-02 0.000E+00 ENERGY      -47.279579 DELTAE   -0.0656581
 ITERATION   4 PLS= 0.169E-02 0.000E+00 ENERGY      -47.323137 DELTAE   -0.0435580
 ITERATION   5 PLS= 0.249E-03 0.000E+00 ENERGY      -47.301818 DELTAE    0.0213188
 CYCLE:    30 TIME:   0.039 TIME LEFT:  2.00W  GRAD.:    12.651 HEAT: -47.30209
 ITERATION   1 PLS= 0.171E-03 0.000E+00 ENERGY      -46.373578 DELTAE -146.3735779
 ITERATION   2 PLS= 0.368E-02 0.000E+00 ENERGY      -47.100713 DELTAE   -0.7271355
 ITERATION   3 PLS= 0.167E-02 0.000E+00 ENERGY      -47.230261 DELTAE   -0.1295480
 ITERATION   4 PLS= 0.980E-03 0.000E+00 ENERGY      -47.316420 DELTAE   -0.0861582
 ITERATION   5 PLS= 0.195E-03 0.000E+00 ENERGY      -47.266451 DELTAE    0.0499689
 ITERATION   1 PLS= 0.122E-03 0.000E+00 ENERGY      -47.190814 DELTAE -147.1908142
 ITERATION   2 PLS= 0.130E-02 0.000E+00 ENERGY      -47.311969 DELTAE   -0.1211548
 ITERATION   3 PLS= 0.793E-03 0.000E+00 ENERGY      -47.333442 DELTAE   -0.0214726
 ITERATION   4 PLS= 0.510E-03 0.000E+00 ENERGY      -47.348612 DELTAE   -0.0151702
 CYCLE:    31 TIME:   0.078 TIME LEFT:  2.00W  GRAD.:    11.904 HEAT: -47.33914
 ITERATION   1 PLS= 0.761E-04 0.000E+00 ENERGY      -47.111280 DELTAE -147.1112798
 ITERATION   2 PLS= 0.555E-02 0.000E+00 ENERGY      -47.350404 DELTAE   -0.2391245
 ITERATION   3 PLS= 0.265E-02 0.000E+00 ENERGY      -47.400504 DELTAE   -0.0500995
 ITERATION   4 PLS= 0.131E-02 0.000E+00 ENERGY      -47.432292 DELTAE   -0.0317881
 ITERATION   5 PLS= 0.813E-04 0.000E+00 ENERGY      -47.416797 DELTAE    0.0154952
 CYCLE:    32 TIME:   0.039 TIME LEFT:  2.00W  GRAD.:     6.679 HEAT: -47.41685
 ITERATION   1 PLS= 0.547E-04 0.000E+00 ENERGY      -47.019744 DELTAE -147.0197439
 ITERATION   2 PLS= 0.715E-02 0.000E+00 ENERGY      -47.332632 DELTAE   -0.3128885
 ITERATION   3 PLS= 0.381E-02 0.000E+00 ENERGY      -47.405555 DELTAE   -0.0729224
 ITERATION   4 PLS= 0.200E-02 0.000E+00 ENERGY      -47.456522 DELTAE   -0.0509675
 ITERATION   5 PLS= 0.135E-03 0.000E+00 ENERGY      -47.430250 DELTAE    0.0262726
 CYCLE:    33 TIME:   0.043 TIME LEFT:  2.00W  GRAD.:     7.124 HEAT: -47.43028
 ITERATION   1 PLS= 0.854E-04 0.000E+00 ENERGY      -47.419906 DELTAE -147.4199056
 ITERATION   2 PLS= 0.153E-02 0.000E+00 ENERGY      -47.443306 DELTAE   -0.0234007
 ITERATION   3 PLS= 0.547E-03 0.000E+00 ENERGY      -47.447108 DELTAE   -0.0038018
 ITERATION   4 PLS= 0.357E-03 0.000E+00 ENERGY      -47.449494 DELTAE   -0.0023858
 CYCLE:    34 TIME:   0.035 TIME LEFT:  2.00W  GRAD.:     4.532 HEAT: -47.44836
 ITERATION   1 PLS= 0.112E-03 0.000E+00 ENERGY      -47.383794 DELTAE -147.3837945
 ITERATION   2 PLS= 0.182E-02 0.000E+00 ENERGY      -47.455762 DELTAE   -0.0719671
 ITERATION   3 PLS= 0.954E-03 0.000E+00 ENERGY      -47.471592 DELTAE   -0.0158303
 ITERATION   4 PLS= 0.496E-03 0.000E+00 ENERGY      -47.482825 DELTAE   -0.0112331
 CYCLE:    35 TIME:   0.059 TIME LEFT:  2.00W  GRAD.:     4.213 HEAT: -47.47698
 ITERATION   1 PLS= 0.846E-04 0.000E+00 ENERGY      -47.486697 DELTAE -147.4866973
 ITERATION   2 PLS= 0.125E-02 0.000E+00 ENERGY      -47.517631 DELTAE   -0.0309338
 ITERATION   3 PLS= 0.663E-03 0.000E+00 ENERGY      -47.524477 DELTAE   -0.0068462
 ITERATION   4 PLS= 0.350E-03 0.000E+00 ENERGY      -47.529312 DELTAE   -0.0048347
 CYCLE:    36 TIME:   0.043 TIME LEFT:  2.00W  GRAD.:     3.339 HEAT: -47.52676
 ITERATION   1 PLS= 0.690E-04 0.000E+00 ENERGY      -47.511268 DELTAE -147.5112685
 ITERATION   2 PLS= 0.731E-03 0.000E+00 ENERGY      -47.523689 DELTAE   -0.0124201
 ITERATION   3 PLS= 0.393E-03 0.000E+00 ENERGY      -47.526129 DELTAE   -0.0024404
 ITERATION   4 PLS= 0.208E-03 0.000E+00 ENERGY      -47.527983 DELTAE   -0.0018542
 CYCLE:    37 TIME:   0.039 TIME LEFT:  2.00W  GRAD.:     2.806 HEAT: -47.52699
 ITERATION   1 PLS= 0.472E-04 0.000E+00 ENERGY      -47.518194 DELTAE -147.5181938
 ITERATION   2 PLS= 0.112E-02 0.000E+00 ENERGY      -47.535352 DELTAE   -0.0171579
 ITERATION   3 PLS= 0.589E-03 0.000E+00 ENERGY      -47.538778 DELTAE   -0.0034259
 ITERATION   4 PLS= 0.307E-03 0.000E+00 ENERGY      -47.541231 DELTAE   -0.0024536
 CYCLE:    38 TIME:   0.043 TIME LEFT:  2.00W  GRAD.:     2.688 HEAT: -47.53985
 ITERATION   1 PLS= 0.421E-04 0.000E+00 ENERGY      -47.501239 DELTAE -147.5012391
 ITERATION   2 PLS= 0.181E-02 0.000E+00 ENERGY      -47.540046 DELTAE   -0.0388064
 ITERATION   3 PLS= 0.972E-03 0.000E+00 ENERGY      -47.548004 DELTAE   -0.0079580
 ITERATION   4 PLS= 0.514E-03 0.000E+00 ENERGY      -47.553631 DELTAE   -0.0056278
 ITERATION   5 PLS= 0.659E-04 0.000E+00 ENERGY      -47.550495 DELTAE    0.0031367
 CYCLE:    39 TIME:   0.074 TIME LEFT:  2.00W  GRAD.:     2.852 HEAT: -47.55051
 ITERATION   1 PLS= 0.390E-04 0.000E+00 ENERGY      -47.534747 DELTAE -147.5347468
 ITERATION   2 PLS= 0.163E-02 0.000E+00 ENERGY      -47.574327 DELTAE   -0.0395806
 ITERATION   3 PLS= 0.867E-03 0.000E+00 ENERGY      -47.582184 DELTAE   -0.0078566
 ITERATION   4 PLS= 0.454E-03 0.000E+00 ENERGY      -47.587558 DELTAE   -0.0053740
 ITERATION   5 PLS= 0.657E-04 0.000E+00 ENERGY      -47.584544 DELTAE    0.0030141
 CYCLE:    40 TIME:   0.062 TIME LEFT:  2.00W  GRAD.:     2.878 HEAT: -47.58456
 ITERATION   1 PLS= 0.416E-04 0.000E+00 ENERGY      -47.520413 DELTAE -147.5204130
 ITERATION   2 PLS= 0.229E-02 0.000E+00 ENERGY      -47.599482 DELTAE   -0.0790687
 ITERATION   3 PLS= 0.122E-02 0.000E+00 ENERGY      -47.615022 DELTAE   -0.0155406
 ITERATION   4 PLS= 0.643E-03 0.000E+00 ENERGY      -47.625310 DELTAE   -0.0102874
 ITERATION   5 PLS= 0.926E-04 0.000E+00 ENERGY      -47.619600 DELTAE    0.0057097
 CYCLE:    41 TIME:   0.086 TIME LEFT:  2.00W  GRAD.:     3.221 HEAT: -47.61963
 ITERATION   1 PLS= 0.578E-04 0.000E+00 ENERGY      -47.297607 DELTAE -147.2976068
 ITERATION   2 PLS= 0.401E-02 0.000E+00 ENERGY      -47.601176 DELTAE   -0.3035689
 ITERATION   3 PLS= 0.216E-02 0.000E+00 ENERGY      -47.659335 DELTAE   -0.0581590
 ITERATION   4 PLS= 0.113E-02 0.000E+00 ENERGY      -47.697083 DELTAE   -0.0377482
 ITERATION   5 PLS= 0.163E-03 0.000E+00 ENERGY      -47.675655 DELTAE    0.0214282
 CYCLE:    42 TIME:   0.055 TIME LEFT:  2.00W  GRAD.:     4.584 HEAT: -47.67577
 ITERATION   1 PLS= 0.988E-04 0.000E+00 ENERGY      -47.037043 DELTAE -147.0370435
 ITERATION   2 PLS= 0.505E-02 0.000E+00 ENERGY      -47.635562 DELTAE   -0.5985189
 ITERATION   3 PLS= 0.273E-02 0.000E+00 ENERGY      -47.748677 DELTAE   -0.1131142
 ITERATION   4 PLS= 0.144E-02 0.000E+00 ENERGY      -47.821588 DELTAE   -0.0729110
 ITERATION   5 PLS= 0.210E-03 0.000E+00 ENERGY      -47.779582 DELTAE    0.0420051
 CYCLE:    43 TIME:   0.051 TIME LEFT:  2.00W  GRAD.:     7.102 HEAT: -47.77982
 ITERATION   1 PLS= 0.125E-03 0.000E+00 ENERGY      -46.650671 DELTAE -146.6506713
 ITERATION   2 PLS= 0.450E-02 0.000E+00 ENERGY      -47.732715 DELTAE   -1.0820433
 ITERATION   3 PLS= 0.243E-02 0.000E+00 ENERGY      -47.935359 DELTAE   -0.2026448
 ITERATION   4 PLS= 0.127E-02 0.000E+00 ENERGY      -48.082117 DELTAE   -0.1467574
 ITERATION   5 PLS= 0.211E-03 0.000E+00 ENERGY      -47.989966 DELTAE    0.0921506
 CYCLE:    44 TIME:   0.090 TIME LEFT:  2.00W  GRAD.:    10.054 HEAT: -47.99074
 ITERATION   1 PLS= 0.123E-03 0.000E+00 ENERGY      -45.476262 DELTAE -145.4762621
 ITERATION   2 PLS= 0.132E-01 0.000E+00 ENERGY      -47.727254 DELTAE   -2.2509919
 ITERATION   3 PLS= 0.597E-02 0.000E+00 ENERGY      -48.146500 DELTAE   -0.4192464
 ITERATION   4 PLS= 0.320E-02 0.000E+00 ENERGY      -48.387832 DELTAE   -0.2413314
 ITERATION   5 PLS= 0.527E-03 0.000E+00 ENERGY      -48.261939 DELTAE    0.1258927
 ITERATION   6 PLS= 0.324E-03 0.000E+00 ENERGY      -48.262518 DELTAE   -0.0005788
 CYCLE:    45 TIME:   0.078 TIME LEFT:  2.00W  GRAD.:    16.731 HEAT: -48.26310
 ITERATION   1 PLS= 0.203E-03 0.000E+00 ENERGY      -47.988397 DELTAE -147.9883975
 ITERATION   2 PLS= 0.320E-02 0.000E+00 ENERGY      -48.395929 DELTAE   -0.4075320
 ITERATION   3 PLS= 0.176E-02 0.000E+00 ENERGY      -48.472748 DELTAE   -0.0768181
 ITERATION   4 PLS= 0.108E-02 0.000E+00 ENERGY      -48.531878 DELTAE   -0.0591309
 ITERATION   5 PLS= 0.202E-03 0.000E+00 ENERGY      -48.496314 DELTAE    0.0355645
 CYCLE:    46 TIME:   0.043 TIME LEFT:  2.00W  GRAD.:    10.505 HEAT: -48.49655
 ITERATION   1 PLS= 0.122E-03 0.000E+00 ENERGY      -38.193476 DELTAE -138.1934760
 ITERATION   2 PLS= 0.153E-01 0.000E+00 ENERGY      -46.625400 DELTAE   -8.4319236
 ITERATION   3 PLS= 0.667E-02 0.000E+00 ENERGY      -48.206731 DELTAE   -1.5813318
 ITERATION   4 PLS= 0.422E-02 0.000E+00 ENERGY      -49.299952 DELTAE   -1.0932210
 ITERATION   5 PLS= 0.705E-03 0.000E+00 ENERGY      -48.640019 DELTAE    0.6599332
 ITERATION   6 PLS= 0.324E-03 0.000E+00 ENERGY      -48.644748 DELTAE   -0.0047292
 CYCLE:    47 TIME:   0.094 TIME LEFT:  2.00W  GRAD.:    13.815 HEAT: -48.64755
 ITERATION   1 PLS= 0.190E-03 0.000E+00 ENERGY      -48.539536 DELTAE -148.5395365
 ITERATION   2 PLS= 0.610E-02 0.000E+00 ENERGY      -48.716002 DELTAE   -0.1764659
 ITERATION   3 PLS= 0.266E-02 0.000E+00 ENERGY      -48.747347 DELTAE   -0.0313442
 ITERATION   4 PLS= 0.143E-02 0.000E+00 ENERGY      -48.765514 DELTAE   -0.0181678
 CYCLE:    48 TIME:   0.039 TIME LEFT:  2.00W  GRAD.:     9.797 HEAT: -48.75662
 ITERATION   1 PLS= 0.223E-03 0.000E+00 ENERGY      -47.419667 DELTAE -147.4196670
 ITERATION   2 PLS= 0.400E-02 0.000E+00 ENERGY      -48.508732 DELTAE   -1.0890648
 ITERATION   3 PLS= 0.222E-02 0.000E+00 ENERGY      -48.709038 DELTAE   -0.2003060
 ITERATION   4 PLS= 0.134E-02 0.000E+00 ENERGY      -48.847463 DELTAE   -0.1384255
 ITERATION   5 PLS= 0.307E-03 0.000E+00 ENERGY      -48.764362 DELTAE    0.0831008
 CYCLE:    49 TIME:   0.039 TIME LEFT:  2.00W  GRAD.:    14.665 HEAT: -48.76494
 ITERATION   1 PLS= 0.179E-03 0.000E+00 ENERGY      -47.680608 DELTAE -147.6806082
 ITERATION   2 PLS= 0.837E-02 0.000E+00 ENERGY      -48.559530 DELTAE   -0.8789222
 ITERATION   3 PLS= 0.404E-02 0.000E+00 ENERGY      -48.723565 DELTAE   -0.1640349
 ITERATION   4 PLS= 0.200E-02 0.000E+00 ENERGY      -48.813344 DELTAE   -0.0897788
 ITERATION   5 PLS= 0.179E-03 0.000E+00 ENERGY      -48.765569 DELTAE    0.0477755
 CYCLE:    50 TIME:   0.039 TIME LEFT:  2.00W  GRAD.:     8.207 HEAT: -48.76574
 ITERATION   1 PLS= 0.116E-03 0.000E+00 ENERGY      -48.742239 DELTAE -148.7422390
 ITERATION   2 PLS= 0.264E-02 0.000E+00 ENERGY      -48.904068 DELTAE   -0.1618287
 ITERATION   3 PLS= 0.122E-02 0.000E+00 ENERGY      -48.931799 DELTAE   -0.0277318
 ITERATION   4 PLS= 0.613E-03 0.000E+00 ENERGY      -48.946866 DELTAE   -0.0150662
 CYCLE:    51 TIME:   0.043 TIME LEFT:  2.00W  GRAD.:     5.851 HEAT: -48.93906
 ITERATION   1 PLS= 0.133E-03 0.000E+00 ENERGY      -48.950636 DELTAE -148.9506362
 ITERATION   2 PLS= 0.145E-02 0.000E+00 ENERGY      -48.983938 DELTAE   -0.0333015
 ITERATION   3 PLS= 0.797E-03 0.000E+00 ENERGY      -48.989938 DELTAE   -0.0060001
 ITERATION   4 PLS= 0.455E-03 0.000E+00 ENERGY      -48.994270 DELTAE   -0.0043326
 CYCLE:    52 TIME:   0.047 TIME LEFT:  2.00W  GRAD.:     4.095 HEAT: -48.99176
 ITERATION   1 PLS= 0.645E-04 0.000E+00 ENERGY      -48.840212 DELTAE -148.8402122
 ITERATION   2 PLS= 0.505E-02 0.000E+00 ENERGY      -48.960778 DELTAE   -0.1205654
 ITERATION   3 PLS= 0.253E-02 0.000E+00 ENERGY      -48.986840 DELTAE   -0.0260625
 ITERATION   4 PLS= 0.128E-02 0.000E+00 ENERGY      -49.006041 DELTAE   -0.0192008
 ITERATION   5 PLS= 0.974E-04 0.000E+00 ENERGY      -48.995521 DELTAE    0.0105203
 CYCLE:    53 TIME:   0.039 TIME LEFT:  2.00W  GRAD.:     3.828 HEAT: -48.99555
 ITERATION   1 PLS= 0.607E-04 0.000E+00 ENERGY      -48.960355 DELTAE -148.9603546
 ITERATION   2 PLS= 0.465E-02 0.000E+00 ENERGY      -49.046594 DELTAE   -0.0862396
 ITERATION   3 PLS= 0.232E-02 0.000E+00 ENERGY      -49.065150 DELTAE   -0.0185554
 ITERATION   4 PLS= 0.116E-02 0.000E+00 ENERGY      -49.078355 DELTAE   -0.0132049
 ITERATION   5 PLS= 0.912E-04 0.000E+00 ENERGY      -49.071220 DELTAE    0.0071341
 CYCLE:    54 TIME:   0.039 TIME LEFT:  2.00W  GRAD.:     4.490 HEAT: -49.07124
 ITERATION   1 PLS= 0.390E-04 0.000E+00 ENERGY      -48.988966 DELTAE -148.9889663
 ITERATION   2 PLS= 0.421E-02 0.000E+00 ENERGY      -49.061812 DELTAE   -0.0728453
 ITERATION   3 PLS= 0.214E-02 0.000E+00 ENERGY      -49.076978 DELTAE   -0.0151667
 ITERATION   4 PLS= 0.109E-02 0.000E+00 ENERGY      -49.086800 DELTAE   -0.0098220
 CYCLE:    55 TIME:   0.031 TIME LEFT:  2.00W  GRAD.:     4.160 HEAT: -49.08172
 ITERATION   1 PLS= 0.589E-04 0.000E+00 ENERGY      -49.074312 DELTAE -149.0743124
 ITERATION   2 PLS= 0.125E-02 0.000E+00 ENERGY      -49.121475 DELTAE   -0.0471625
 ITERATION   3 PLS= 0.626E-03 0.000E+00 ENERGY      -49.130670 DELTAE   -0.0091956
 ITERATION   4 PLS= 0.366E-03 0.000E+00 ENERGY      -49.137062 DELTAE   -0.0063911
 CYCLE:    56 TIME:   0.039 TIME LEFT:  2.00W  GRAD.:     2.568 HEAT: -49.13344
 ITERATION   1 PLS= 0.723E-04 0.000E+00 ENERGY      -49.099490 DELTAE -149.0994900
 ITERATION   2 PLS= 0.143E-02 0.000E+00 ENERGY      -49.127613 DELTAE   -0.0281226
 ITERATION   3 PLS= 0.727E-03 0.000E+00 ENERGY      -49.133072 DELTAE   -0.0054595
 ITERATION   4 PLS= 0.373E-03 0.000E+00 ENERGY      -49.136521 DELTAE   -0.0034485
 ITERATION   5 PLS= 0.663E-04 0.000E+00 ENERGY      -49.134633 DELTAE    0.0018872
 CYCLE:    57 TIME:   0.035 TIME LEFT:  2.00W  GRAD.:     1.816 HEAT: -49.13464
 ITERATION   1 PLS= 0.336E-04 0.000E+00 ENERGY      -49.165169 DELTAE -149.1651692
 ITERATION   2 PLS= 0.111E-02 0.000E+00 ENERGY      -49.171451 DELTAE   -0.0062818
 ITERATION   3 PLS= 0.586E-03 0.000E+00 ENERGY      -49.172821 DELTAE   -0.0013696
 ITERATION   4 PLS= 0.309E-03 0.000E+00 ENERGY      -49.173827 DELTAE   -0.0010062
 CYCLE:    58 TIME:   0.039 TIME LEFT:  2.00W  GRAD.:     1.464 HEAT: -49.17329
 ITERATION   1 PLS= 0.411E-04 0.000E+00 ENERGY      -49.166349 DELTAE -149.1663492
 ITERATION   2 PLS= 0.493E-03 0.000E+00 ENERGY      -49.168339 DELTAE   -0.0019895
 ITERATION   3 PLS= 0.260E-03 0.000E+00 ENERGY      -49.168760 DELTAE   -0.0004210
 ITERATION   4 PLS= 0.136E-03 0.000E+00 ENERGY      -49.169034 DELTAE   -0.0002739
 CYCLE:    59 TIME:   0.035 TIME LEFT:  2.00W  GRAD.:     1.166 HEAT: -49.16890
 ITERATION   1 PLS= 0.111E-04 0.000E+00 ENERGY      -49.163345 DELTAE -149.1633446
 ITERATION   2 PLS= 0.613E-03 0.000E+00 ENERGY      -49.170396 DELTAE   -0.0070518
 ITERATION   3 PLS= 0.298E-03 0.000E+00 ENERGY      -49.171813 DELTAE   -0.0014170
 ITERATION   4 PLS= 0.151E-03 0.000E+00 ENERGY      -49.172785 DELTAE   -0.0009718
 ITERATION   5 PLS= 0.308E-04 0.000E+00 ENERGY      -49.172264 DELTAE    0.0005214
 CYCLE:    60 TIME:   0.039 TIME LEFT:  2.00W  GRAD.:     1.094 HEAT: -49.17227
 ITERATION   1 PLS= 0.183E-04 0.000E+00 ENERGY      -49.165892 DELTAE -149.1658918
 ITERATION   2 PLS= 0.635E-03 0.000E+00 ENERGY      -49.169496 DELTAE   -0.0036043
 ITERATION   3 PLS= 0.327E-03 0.000E+00 ENERGY      -49.170294 DELTAE   -0.0007981
 ITERATION   4 PLS= 0.171E-03 0.000E+00 ENERGY      -49.170885 DELTAE   -0.0005910
 ITERATION   5 PLS= 0.184E-04 0.000E+00 ENERGY      -49.170564 DELTAE    0.0003217
 CYCLE:    61 TIME:   0.039 TIME LEFT:  2.00W  GRAD.:     1.315 HEAT: -49.17056
 ITERATION   1 PLS= 0.894E-05 0.000E+00 ENERGY      -49.197645 DELTAE -149.1976448
 ITERATION   2 PLS= 0.766E-03 0.000E+00 ENERGY      -49.209858 DELTAE   -0.0122128
 ITERATION   3 PLS= 0.378E-03 0.000E+00 ENERGY      -49.212297 DELTAE   -0.0024393
 ITERATION   4 PLS= 0.189E-03 0.000E+00 ENERGY      -49.213955 DELTAE   -0.0016586
 ITERATION   5 PLS= 0.282E-04 0.000E+00 ENERGY      -49.213077 DELTAE    0.0008785
 CYCLE:    62 TIME:   0.035 TIME LEFT:  2.00W  GRAD.:     1.156 HEAT: -49.21308
 ITERATION   1 PLS= 0.170E-04 0.000E+00 ENERGY      -49.174115 DELTAE -149.1741149
 ITERATION   2 PLS= 0.394E-03 0.000E+00 ENERGY      -49.177498 DELTAE   -0.0033831
 ITERATION   3 PLS= 0.227E-03 0.000E+00 ENERGY      -49.178195 DELTAE   -0.0006972
 ITERATION   4 PLS= 0.131E-03 0.000E+00 ENERGY      -49.178680 DELTAE   -0.0004844
 ITERATION   5 PLS= 0.162E-04 0.000E+00 ENERGY      -49.178419 DELTAE    0.0002606
 ITERATION   1 PLS= 0.970E-05 0.000E+00 ENERGY      -49.213620 DELTAE -149.2136204
 ITERATION   2 PLS= 0.336E-03 0.000E+00 ENERGY      -49.214668 DELTAE   -0.0010474
 ITERATION   3 PLS= 0.173E-03 0.000E+00 ENERGY      -49.214892 DELTAE   -0.0002247
 ITERATION   4 PLS= 0.934E-04 0.000E+00 ENERGY      -49.215050 DELTAE   -0.0001578
 CYCLE:    63 TIME:   0.070 TIME LEFT:  2.00W  GRAD.:     0.861 HEAT: -49.21497

     GRADIENT =  0.86074 IS LESS THAN CUTOFF =  1.00000


 ITERATION   1 PLS= 0.108E-04 0.000E+00 ENERGY      -49.214966 DELTAE -149.2149659
 ITERATION   2 PLS= 0.604E-05 0.000E+00 ENERGY      -49.214966 DELTAE   -0.0000003
 ITERATION   3 PLS= 0.338E-05 0.000E+00 ENERGY      -49.214966 DELTAE   -0.0000001
 ITERATION   4 PLS= 0.190E-05 0.000E+00 ENERGY      -49.214966 DELTAE   -0.0000000

 -------------------------------------------------------------------------------
 PM7 CHARGE=0 SINGLET AUX DUMP=30M ITRY=15000 eps=78.4 T=14D PL THREADS=40

 Mopac file generated by Gabedit


     GEOMETRY OPTIMISED USING EIGENVECTOR FOLLOWING (EF).     
     SCF FIELD WAS ACHIEVED                                   


                              PM7 CALCULATION
                                                       MOPAC v22.1.0 Linux
                                                       Sat Mar 23 15:02:03 2024




          FINAL HEAT OF FORMATION =        -49.21497 KCAL/MOL =    -205.91542 KJ/MOL
          VAN DER WAALS AREA      =        251.24 SQUARE ANGSTROMS



          DIELECTRIC ENERGY       =         -0.71783 EV
          COSMO AREA              =        251.24 SQUARE ANGSTROMS
          COSMO VOLUME            =        241.38 CUBIC ANGSTROMS

          GRADIENT NORM           =          0.86074          =       0.17215 PER ATOM
          IONIZATION POTENTIAL    =         10.330842 EV
          HOMO LUMO ENERGIES (EV) =        -10.331 -0.474
          NO. OF FILLED LEVELS    =         36
          MOLECULAR WEIGHT        =        184.1944         POINT GROUP:  C1  

          MOLECULAR DIMENSIONS (Angstroms)

            Atom       Atom       Distance
            H    22    H    11    11.23272
            H    20    O     5     6.62045
            O     4    H     9     2.91127


          SCF CALCULATIONS        =         76

          WALL-CLOCK TIME         =      3.324 SECONDS
          COMPUTATION TIME        =          3 MINUTES AND 48.481 SECONDS




   ATOM   CHEMICAL          X               Y               Z
  NUMBER   SYMBOL      (ANGSTROMS)     (ANGSTROMS)     (ANGSTROMS)

     1       C         -0.08604748  *  -0.46341180  *   0.17798728  *
     2       H         -0.07162666  *  -0.91772813  *  -0.81573813  *
     3       N         -0.17268627  *  -2.70545092  *   1.20686469  *
     4       O         -0.60633933  *  -3.12793843  *   0.14741756  *
     5       O         -0.16501656  *  -3.39454934  *   2.21888451  *
     6       H         -0.48248929  *   1.27945730  *   1.35115354  *
     7       C          0.37670530  *  -1.34040206  *   1.29514767  *
     8       H          1.50921165  *  -1.41818354  *   1.28183000  *
     9       H          0.13517399  *  -0.91747101  *   2.30646544  *
    10       C         -0.45594581  *   0.79918060  *   0.38202172  *
    11       H         -0.76131800  *   1.46426655  *  -0.41554811  *
    12       C          6.69407712  *  -3.15063154  *   0.76358538  *
    13       C          8.08912546  *  -3.20744080  *   0.67949834  *
    14       C          8.79121101  *  -2.03260599  *   0.41527437  *
    15       C          8.08581424  *  -0.84333502  *   0.24072263  *
    16       C          6.68989101  *  -0.86978401  *   0.33821182  *
    17       N          6.00581602  *  -2.00271544  *   0.59561298  *
    18       H          6.09364880  *  -4.04735849  *   0.97125640  *
    19       H          8.61153999  *  -4.15346206  *   0.81692068  *
    20       H          8.60512615  *   0.09114198  *   0.03155643  *
    21       H          6.08857009  *   0.03973410  *   0.20630902  *
    22       H          9.88181693  *  -2.04542415  *   0.34580835  *
    23       H          3.06720842  *  -3.43066090  *   0.84365027  *
    24       H          3.99733591  *  -2.27534316  *   0.49713309  *
    25       O          3.07347446  *  -2.56449474  *   0.42371952  *

                             CARTESIAN COORDINATES

   1    C       -0.086047483    -0.463411804     0.177987283
   2    H       -0.071626656    -0.917728133    -0.815738130
   3    N       -0.172686265    -2.705450922     1.206864691
   4    O       -0.606339334    -3.127938434     0.147417565
   5    O       -0.165016557    -3.394549341     2.218884509
   6    H       -0.482489288     1.279457301     1.351153543
   7    C        0.376705300    -1.340402058     1.295147673
   8    H        1.509211647    -1.418183540     1.281829999
   9    H        0.135173990    -0.917471007     2.306465438
  10    C       -0.455945811     0.799180598     0.382021725
  11    H       -0.761317995     1.464266551    -0.415548107
  12    C        6.694077121    -3.150631545     0.763585381
  13    C        8.089125459    -3.207440801     0.679498344
  14    C        8.791211014    -2.032605991     0.415274372
  15    C        8.085814236    -0.843335019     0.240722632
  16    C        6.689891008    -0.869784010     0.338211817
  17    N        6.005816024    -2.002715444     0.595612979
  18    H        6.093648798    -4.047358491     0.971256401
  19    H        8.611539993    -4.153462065     0.816920681
  20    H        8.605126153     0.091141976     0.031556435
  21    H        6.088570094     0.039734104     0.206309020
  22    H        9.881816930    -2.045424147     0.345808347
  23    H        3.067208418    -3.430660904     0.843650275
  24    H        3.997335910    -2.275343164     0.497133092
  25    O        3.073474461    -2.564494736     0.423719517


           Empirical Formula: C8 H12 N2 O3  =    25 atoms



      MOLECULAR POINT GROUP   :   C1  


                  EIGENVALUES  
 -37.47226 -36.21817 -30.86016 -29.19758 -28.97473 -28.57539 -26.51993 -26.44532
 -22.94377 -22.34738 -22.11705 -20.06034 -18.60113 -18.32241 -18.15373 -18.11350
 -17.47821 -16.61392 -16.07662 -15.66678 -15.03168 -14.71645 -14.69358 -14.48991
 -13.90077 -13.67116 -12.69163 -12.57225 -12.26327 -12.06331 -11.96226 -11.78915
 -11.08801 -10.83717 -10.77673 -10.33084  -0.47448  -0.33460  -0.32633   0.13185
   0.83607   2.11180   3.16736   3.21969   3.82300   4.04843   4.08468   4.26893
   4.41704   4.44274   4.74191   5.00143   5.10711   5.26088   5.35041   5.49876
   5.55002   5.71810   5.73915   5.91011   6.05742   6.07175   6.21441   6.70600


              NET ATOMIC CHARGES AND DIPOLE CONTRIBUTIONS

  ATOM NO.   TYPE          CHARGE      No. of ELECS.   s-Pop       p-Pop       
    1          C          -0.154468        4.1545     1.08683     3.06764
    2          H           0.175612        0.8244     0.82439
    3          N           0.668674        4.3313     1.46118     2.87014
    4          O          -0.457418        6.4574     1.93930     4.51811
    5          O          -0.479362        6.4794     1.94042     4.53894
    6          H           0.159894        0.8401     0.84011
    7          C          -0.251665        4.2517     1.09249     3.15918
    8          H           0.245392        0.7546     0.75461
    9          H           0.216353        0.7836     0.78365
   10          C          -0.286775        4.2868     1.10262     3.18415
   11          H           0.160812        0.8392     0.83919
   12          C           0.051368        3.9486     1.10115     2.84748
   13          C          -0.238629        4.2386     1.09175     3.14688
   14          C          -0.066882        4.0669     1.09489     2.97200
   15          C          -0.239480        4.2395     1.09167     3.14781
   16          C           0.052322        3.9477     1.10041     2.84727
   17          N          -0.456845        5.4568     1.73603     3.72082
   18          H           0.187542        0.8125     0.81246
   19          H           0.183328        0.8167     0.81667
   20          H           0.182544        0.8175     0.81746
   21          H           0.184848        0.8152     0.81515
   22          H           0.174632        0.8254     0.82537
   23          H           0.368044        0.6320     0.63196
   24          H           0.375917        0.6241     0.62408
   25          O          -0.755757        6.7558     1.81628     4.93947
 DIPOLE           X         Y         Z       TOTAL
 POINT-CHG.     6.846     4.507     0.879     8.244
 HYBRID         0.744    -0.638     0.178     0.996
 SUM            7.590     3.869     1.057     8.585


          ATOMIC ORBITAL ELECTRON POPULATIONS

     Atom    s        px        py        pz   
    1  C   1.08683   1.01444   1.00134   1.05186
    2  H   0.82439
    3  N   1.46118   0.91411   1.01129   0.94475
    4  O   1.93930   1.51843   1.79294   1.20674
    5  O   1.94042   1.64107   1.62904   1.26883
    6  H   0.84011
    7  C   1.09249   1.15785   0.86183   1.13950
    8  H   0.75461
    9  H   0.78365
   10  C   1.10262   0.98538   1.03698   1.16180
   11  H   0.83919
   12  C   1.10115   0.97169   0.96857   0.90723
   13  C   1.09175   1.02162   1.08126   1.04400
   14  C   1.09489   1.09209   0.97381   0.90610
   15  C   1.09167   1.02082   1.07933   1.04765
   16  C   1.10041   0.97164   0.97287   0.90275
   17  N   1.73603   1.43945   1.08194   1.19943
   18  H   0.81246
   19  H   0.81667
   20  H   0.81746
   21  H   0.81515
   22  H   0.82537
   23  H   0.63196
   24  H   0.62408
   25  O   1.81628   1.51471   1.53932   1.88545

 **********************
 *                    *
 * JOB ENDED NORMALLY *
 *                    *
 **********************



 TOTAL JOB TIME:             3.33 SECONDS

 == MOPAC DONE ==
