 *******************************************************************************
 **                                                                           **
 **                              MOPAC v22.0.6                                **
 **                                                                           **
 *******************************************************************************
 **          Digital Object Identifier (DOI): 10.5281/zenodo.6511958          **
 **    Visit the DOI location for information on how to cite this program.    **
 *******************************************************************************

                              PM7 CALCULATION RESULTS

 *******************************************************************************
 *  CALCULATION DONE:                                Sat Mar 23 21:27:23 2024  *
 *  PM7        - The PM7 Hamiltonian to be used
 *  SINGLET    - SPIN STATE DEFINED AS A SINGLET
 *
 *
 *
 *                 CHARGE ON SYSTEM = -1
 *
 *
 *
 *  EPS=78.4   - USE ANDREAS KLAMT'S COSMO IMPLICIT SOLVATION MODEL
 *  THREADS    - USE A MAXIMUM OF 30 THREADS
 *  T=         - A TIME OF 14.0 DAYS REQUESTED
 *  DUMP=N     - RESTART FILE WRITTEN EVERY 30.0 MINUTES REQUESTED
 *  RELSCF     - DEFAULT SCF CRITERION MULTIPLIED BY 1.0000
 *              (DEFAULT SCF CRITERION = 0.00010)
 *  ITRY=      - DO A MAXIMUM OF 15000 ITERATIONS FOR SCF
 *  AUX        - OUTPUT AUXILIARY INFORMATION
 *  BONDS      - FINAL BOND-ORDER MATRIX TO BE PRINTED
 *******************************************************************************
PM7 BONDS AUX DUMP=30M ITRY=15000 T=14D THREADS=30 CHARGE=-1 SINGLET eps=78.4 RELSCF=1
 Title: ASE calculation

   ATOM   CHEMICAL          X               Y               Z
  NUMBER   SYMBOL      (ANGSTROMS)     (ANGSTROMS)     (ANGSTROMS)

     1       C          1.53241393  *   3.05163136  *   2.07760478  *
     2       C          1.80170462  *   1.68947638  *   1.94955004  *
     3       C          0.75747822  *   0.77293290  *   1.79787204  *
     4       C         -0.56870564  *   1.22339237  *   1.77825374  *
     5       C         -0.79734598  *   2.58316517  *   1.90795087  *
     6       C          0.21823079  *   3.51623830  *   2.05672905  *
     7       H          2.35394171  *   3.76030390  *   2.19400313  *
     8       H          2.83572924  *   1.34029810  *   1.96744472  *
     9       H         -1.38592662  *   0.50920971  *   1.66376590  *
    10      Cl         -2.42923621  *   3.13587359  *   1.87862724  *
    11       H          0.00768164  *   4.58127266  *   2.15529171  *
    12       C          1.01621933     -0.66195202      1.68700018   
    13       C          0.96423692  *  -1.46612168  *   2.93988309  *
    14       H          1.44046248  *  -2.45121191  *   2.82864233  *
    15       H         -0.07409371  *  -1.64700204  *   3.25977434  *
    16       H          1.46942303  *  -0.95154755  *   3.77088882  *
    17       N          1.10224464  *  -1.24210392  *   0.49415859  *
    18       O          1.21311453  *  -2.49445898  *   0.36403620  *
    19       O          1.12282571  *  -0.55877468  *  -0.56904150  *
    20       H          3.16744403     -0.79699269  *   1.83455605  *
    21       O          6.53292956  *  -0.82711921  *   3.06820820  *
    22       H          7.07079441  *  -0.40515910  *   2.38759488  *
    23       H          5.64246023  *  -0.82656588  *   2.69714569  *
    24       H          4.34313489  *  -1.40358001  *   1.07179331  *
    25       O          4.15747733     -0.80661208      1.81138406   



          CARTESIAN COORDINATES 

    NO.       ATOM           X           Y           Z

     1         C          1.5324      3.0516      2.0776
     2         C          1.8017      1.6895      1.9496
     3         C          0.7575      0.7729      1.7979
     4         C         -0.5687      1.2234      1.7783
     5         C         -0.7973      2.5832      1.9080
     6         C          0.2182      3.5162      2.0567
     7         H          2.3539      3.7603      2.1940
     8         H          2.8357      1.3403      1.9674
     9         H         -1.3859      0.5092      1.6638
    10        Cl         -2.4292      3.1359      1.8786
    11         H          0.0077      4.5813      2.1553
    12         C          1.0162     -0.6620      1.6870
    13         C          0.9642     -1.4661      2.9399
    14         H          1.4405     -2.4512      2.8286
    15         H         -0.0741     -1.6470      3.2598
    16         H          1.4694     -0.9515      3.7709
    17         N          1.1022     -1.2421      0.4942
    18         O          1.2131     -2.4945      0.3640
    19         O          1.1228     -0.5588     -0.5690
    20         H          3.1674     -0.7970      1.8346
    21         O          6.5329     -0.8271      3.0682
    22         H          7.0708     -0.4052      2.3876
    23         H          5.6425     -0.8266      2.6971
    24         H          4.3431     -1.4036      1.0718
    25         O          4.1575     -0.8066      1.8114

 General Reference for PM7:
 "Optimization of Parameters for Semiempirical Methods VI: More Modifications to the 
 NDDO Approximations and Re-optimization of Parameters", J. J. P. Stewart, J. Mol. Mod., 1:32, 19 (2013)
 https://link.springer.com/article/10.1007/s00894-012-1667-x

           Empirical Formula: C8 H11 N O4 Cl  =    25 atoms



      MOLECULAR POINT GROUP   :   C1  


 SINGLET STATE CALCULATION


      RHF CALCULATION, NO. OF DOUBLY OCCUPIED LEVELS = 40


          Geometry optimization using EF
  SCF CRITERION =    0.1000E-03

          DIAGONAL MATRIX USED AS START HESSIAN

 CYCLE:     1 TIME:   0.109 TIME LEFT:  2.00W  GRAD.:     5.249 HEAT: -245.9083
 CYCLE:     2 TIME:   0.312 TIME LEFT:  2.00W  GRAD.:     5.001 HEAT: -245.9082
 CYCLE:     3 TIME:   0.039 TIME LEFT:  2.00W  GRAD.:     4.826 HEAT: -245.9089

     TRUST RADIUS NOW LESS THAN  0.00010 OPTIMIZATION TERMINATING
      THE GEOMETRY MAY NOT BE COMPLETELY OPTIMIZED
      (TO CONTINUE, ADD 'LET DDMIN=0.0' TO THE KEYWORD LINE)

 -------------------------------------------------------------------------------
 PM7 BONDS AUX DUMP=30M ITRY=15000 T=14D THREADS=30 CHARGE=-1 SINGLET eps=78.4 RELSCF=1
 Title: ASE calculation



     GEOMETRY OPTIMISED USING EIGENVECTOR FOLLOWING (EF).     
     SCF FIELD WAS ACHIEVED                                   


                              PM7 CALCULATION
                                                       MOPAC v22.0.6 Linux
                                                       Sat Mar 23 21:27:24 2024




          FINAL HEAT OF FORMATION =       -245.90894 KCAL/MOL =   -1028.88301 KJ/MOL
          VAN DER WAALS AREA      =        249.66 SQUARE ANGSTROMS



          DIELECTRIC ENERGY       =         -3.11821 EV
          COSMO AREA              =        249.66 SQUARE ANGSTROMS
          COSMO VOLUME            =        256.39 CUBIC ANGSTROMS

          GRADIENT NORM           =          4.82624          =       0.96525 PER ATOM
          IONIZATION POTENTIAL    =          8.700472 EV
          HOMO LUMO ENERGIES (EV) =         -8.700 -0.227
          NO. OF FILLED LEVELS    =         40
          MOLECULAR WEIGHT        =        220.6322         POINT GROUP:  C1  

          MOLECULAR DIMENSIONS (Angstroms)

            Atom       Atom       Distance
            H    22   Cl    10    10.15128
            H     7    O    18     6.53656
            O    19    H    16     4.19955


          SCF CALCULATIONS        =         14

          WALL-CLOCK TIME         =      0.586 SECONDS
          COMPUTATION TIME        =     44.470 SECONDS



       FINAL  POINT  AND  DERIVATIVES

   PARAMETER     ATOM    TYPE            VALUE        GRADIENT
      1          1  C    CARTESIAN X     1.532447     -0.502137  KCAL/ANGSTROM
      2          1  C    CARTESIAN Y     3.051579      0.792388  KCAL/ANGSTROM
      3          1  C    CARTESIAN Z     2.077599      0.090540  KCAL/ANGSTROM
      4          2  C    CARTESIAN X     1.801715     -0.168664  KCAL/ANGSTROM
      5          2  C    CARTESIAN Y     1.689511     -0.527081  KCAL/ANGSTROM
      6          2  C    CARTESIAN Z     1.949556     -0.095742  KCAL/ANGSTROM
      7          3  C    CARTESIAN X     0.757480     -0.017248  KCAL/ANGSTROM
      8          3  C    CARTESIAN Y     0.772955     -0.338439  KCAL/ANGSTROM
      9          3  C    CARTESIAN Z     1.797885     -0.199564  KCAL/ANGSTROM
     10          4  C    CARTESIAN X    -0.568728      0.336071  KCAL/ANGSTROM
     11          4  C    CARTESIAN Y     1.223410     -0.272761  KCAL/ANGSTROM
     12          4  C    CARTESIAN Z     1.778253      0.009777  KCAL/ANGSTROM
     13          5  C    CARTESIAN X    -0.797296     -0.784071  KCAL/ANGSTROM
     14          5  C    CARTESIAN Y     2.583154      0.161398  KCAL/ANGSTROM
     15          5  C    CARTESIAN Z     1.907955     -0.061985  KCAL/ANGSTROM
     16          6  C    CARTESIAN X     0.218171      0.910975  KCAL/ANGSTROM
     17          6  C    CARTESIAN Y     3.516274     -0.563695  KCAL/ANGSTROM
     18          6  C    CARTESIAN Z     2.056730     -0.011433  KCAL/ANGSTROM
     19          7  H    CARTESIAN X     2.353954     -0.197632  KCAL/ANGSTROM
     20          7  H    CARTESIAN Y     3.760316     -0.195032  KCAL/ANGSTROM
     21          7  H    CARTESIAN Z     2.194004     -0.018603  KCAL/ANGSTROM
     22          8  H    CARTESIAN X     2.835724      0.080489  KCAL/ANGSTROM
     23          8  H    CARTESIAN Y     1.340306     -0.123682  KCAL/ANGSTROM
     24          8  H    CARTESIAN Z     1.967445      0.001012  KCAL/ANGSTROM
     25          9  H    CARTESIAN X    -1.385916     -0.164530  KCAL/ANGSTROM
     26          9  H    CARTESIAN Y     0.509222     -0.202810  KCAL/ANGSTROM
     27          9  H    CARTESIAN Z     1.663767     -0.020475  KCAL/ANGSTROM
     28         10 Cl    CARTESIAN X    -2.429236     -0.014700  KCAL/ANGSTROM
     29         10 Cl    CARTESIAN Y     3.135891     -0.286279  KCAL/ANGSTROM
     30         10 Cl    CARTESIAN Z     1.878626      0.024876  KCAL/ANGSTROM
     31         11  H    CARTESIAN X     0.007686     -0.071408  KCAL/ANGSTROM
     32         11  H    CARTESIAN Y     4.581258      0.234255  KCAL/ANGSTROM
     33         11  H    CARTESIAN Z     2.155294     -0.030639  KCAL/ANGSTROM
     34         13  C    CARTESIAN X     0.964240     -0.052925  KCAL/ANGSTROM
     35         13  C    CARTESIAN Y    -1.466081     -0.641696  KCAL/ANGSTROM
     36         13  C    CARTESIAN Z     2.939886     -0.045754  KCAL/ANGSTROM
     37         14  H    CARTESIAN X     1.440469     -0.104315  KCAL/ANGSTROM
     38         14  H    CARTESIAN Y    -2.451229      0.268865  KCAL/ANGSTROM
     39         14  H    CARTESIAN Z     2.828638      0.062672  KCAL/ANGSTROM
     40         15  H    CARTESIAN X    -0.074085     -0.140993  KCAL/ANGSTROM
     41         15  H    CARTESIAN Y    -1.646995     -0.108686  KCAL/ANGSTROM
     42         15  H    CARTESIAN Z     3.259765      0.147682  KCAL/ANGSTROM
     43         16  H    CARTESIAN X     1.469431     -0.130979  KCAL/ANGSTROM
     44         16  H    CARTESIAN Y    -0.951543     -0.084146  KCAL/ANGSTROM
     45         16  H    CARTESIAN Z     3.770885      0.054841  KCAL/ANGSTROM
     46         17  N    CARTESIAN X     1.102276     -0.497529  KCAL/ANGSTROM
     47         17  N    CARTESIAN Y    -1.242163      0.896756  KCAL/ANGSTROM
     48         17  N    CARTESIAN Z     0.494022      2.070414  KCAL/ANGSTROM
     49         18  O    CARTESIAN X     1.213127     -0.210819  KCAL/ANGSTROM
     50         18  O    CARTESIAN Y    -2.494426     -0.484534  KCAL/ANGSTROM
     51         18  O    CARTESIAN Z     0.364068     -0.495123  KCAL/ANGSTROM
     52         19  O    CARTESIAN X     1.122797      0.478426  KCAL/ANGSTROM
     53         19  O    CARTESIAN Y    -0.558756     -0.327802  KCAL/ANGSTROM
     54         19  O    CARTESIAN Z    -0.568993     -0.734158  KCAL/ANGSTROM
     55         20  H    CARTESIAN Y    -0.796972     -0.332735  KCAL/ANGSTROM
     56         20  H    CARTESIAN Z     1.834701     -2.365260  KCAL/ANGSTROM
     57         21  O    CARTESIAN X     6.532916      0.221842  KCAL/ANGSTROM
     58         21  O    CARTESIAN Y    -0.827115     -0.070513  KCAL/ANGSTROM
     59         21  O    CARTESIAN Z     3.068212     -0.065390  KCAL/ANGSTROM
     60         22  H    CARTESIAN X     7.070778      0.270897  KCAL/ANGSTROM
     61         22  H    CARTESIAN Y    -0.405174      0.239400  KCAL/ANGSTROM
     62         22  H    CARTESIAN Z     2.387648     -0.853621  KCAL/ANGSTROM
     63         23  H    CARTESIAN X     5.642446      0.238298  KCAL/ANGSTROM
     64         23  H    CARTESIAN Y    -0.826561     -0.081115  KCAL/ANGSTROM
     65         23  H    CARTESIAN Z     2.697152     -0.109463  KCAL/ANGSTROM
     66         24  H    CARTESIAN X     4.343274     -2.289287  KCAL/ANGSTROM
     67         24  H    CARTESIAN Y    -1.403583      0.045725  KCAL/ANGSTROM
     68         24  H    CARTESIAN Z     1.071831     -0.615666  KCAL/ANGSTROM




   ATOM   CHEMICAL          X               Y               Z
  NUMBER   SYMBOL      (ANGSTROMS)     (ANGSTROMS)     (ANGSTROMS)

     1       C          1.53244725  *   3.05157899  *   2.07759895  *
     2       C          1.80171479  *   1.68951072  *   1.94955610  *
     3       C          0.75747979  *   0.77295464  *   1.79788475  *
     4       C         -0.56872762  *   1.22341040  *   1.77825315  *
     5       C         -0.79729647  *   2.58315411  *   1.90795467  *
     6       C          0.21817130  *   3.51627425  *   2.05672967  *
     7       H          2.35395400  *   3.76031605  *   2.19400433  *
     8       H          2.83572414  *   1.34030577  *   1.96744467  *
     9       H         -1.38591641  *   0.50922219  *   1.66376719  *
    10      Cl         -2.42923559  *   3.13589115  *   1.87862572  *
    11       H          0.00768612  *   4.58125762  *   2.15529351  *
    12       C          1.01621933     -0.66195202      1.68700018   
    13       C          0.96423991  *  -1.46608147  *   2.93988639  *
    14       H          1.44046908  *  -2.45122904  *   2.82863843  *
    15       H         -0.07408519  *  -1.64699550  *   3.25976528  *
    16       H          1.46943083  *  -0.95154260  *   3.77088535  *
    17       N          1.10227592  *  -1.24216293  *   0.49402222  *
    18       O          1.21312678  *  -2.49442572  *   0.36406786  *
    19       O          1.12279662  *  -0.55875627  *  -0.56899266  *
    20       H          3.16744403     -0.79697206  *   1.83470095  *
    21       O          6.53291649  *  -0.82711457  *   3.06821154  *
    22       H          7.07077765  *  -0.40517398  *   2.38764751  *
    23       H          5.64244595  *  -0.82656097  *   2.69715242  *
    24       H          4.34327362  *  -1.40358295  *   1.07183067  *
    25       O          4.15747733     -0.80661208      1.81138406   

                             CARTESIAN COORDINATES

   1    C        1.532447246     3.051578994     2.077598950
   2    C        1.801714791     1.689510720     1.949556103
   3    C        0.757479794     0.772954642     1.797884752
   4    C       -0.568727619     1.223410400     1.778253146
   5    C       -0.797296474     2.583154111     1.907954670
   6    C        0.218171299     3.516274252     2.056729672
   7    H        2.353954003     3.760316049     2.194004327
   8    H        2.835724142     1.340305766     1.967444665
   9    H       -1.385916411     0.509222187     1.663767194
  10   Cl       -2.429235585     3.135891152     1.878625722
  11    H        0.007686116     4.581257624     2.155293509
  12    C        1.016219330    -0.661952020     1.687000180
  13    C        0.964239914    -1.466081469     2.939886388
  14    H        1.440469083    -2.451229036     2.828638435
  15    H       -0.074085185    -1.646995499     3.259765275
  16    H        1.469430832    -0.951542604     3.770885353
  17    N        1.102275923    -1.242162927     0.494022218
  18    O        1.213126776    -2.494425717     0.364067861
  19    O        1.122796624    -0.558756272    -0.568992664
  20    H        3.167444030    -0.796972059     1.834700954
  21    O        6.532916493    -0.827114574     3.068211539
  22    H        7.070777650    -0.405173984     2.387647509
  23    H        5.642445949    -0.826560975     2.697152416
  24    H        4.343273622    -1.403582952     1.071830674
  25    O        4.157477330    -0.806612080     1.811384060


           Empirical Formula: C8 H11 N O4 Cl  =    25 atoms



      MOLECULAR POINT GROUP   :   C1  


                  EIGENVALUES  
 -35.81485 -31.19409 -29.47880 -28.89352 -28.04325 -27.93156 -27.15948 -25.66162
 -24.62452 -24.30284 -21.68744 -20.92560 -19.23531 -18.10077 -17.89965 -17.34071
 -16.96591 -16.46191 -16.27409 -15.52846 -15.00931 -14.90530 -14.54560 -14.23161
 -14.01935 -13.77654 -13.64573 -13.25538 -12.50976 -12.36320 -12.30847 -12.27377
 -11.95089 -11.43508 -10.92879 -10.77786 -10.60026 -10.07726  -9.84124  -8.70047
  -0.22731  -0.17081   0.78271   1.18763   1.96522   2.36812   3.58672   3.62930
   4.09873   4.28272   4.62306   4.68639   4.81058   4.84679   4.98785   5.42471
   5.72181   5.79850   5.83650   5.94328   5.99097   6.05336   6.09259   6.23393
   6.33838   6.91604   7.04917  69.74077  69.75150  69.77532  70.01889  70.03217


              NET ATOMIC CHARGES AND DIPOLE CONTRIBUTIONS

  ATOM NO.   TYPE          CHARGE      No. of ELECS.   s-Pop       p-Pop       d-Pop       
    1          C          -0.117812        4.1178     1.08783     3.02998
    2          C          -0.180922        4.1809     1.08898     3.09194
    3          C           0.102769        3.8972     1.05981     2.83743
    4          C          -0.203946        4.2039     1.08749     3.11646
    5          C           0.038311        3.9617     1.09606     2.86563
    6          C          -0.202286        4.2023     1.08363     3.11865
    7          H           0.167802        0.8322     0.83220
    8          H           0.174342        0.8257     0.82566
    9          H           0.188801        0.8112     0.81120
   10         Cl          -0.143288        7.1433     1.98149     5.15546     0.00633
   11          H           0.177009        0.8230     0.82299
   12          C          -0.317821        4.3178     1.03070     3.28713
   13          C          -0.398961        4.3990     1.04253     3.35643
   14          H           0.161207        0.8388     0.83879
   15          H           0.153696        0.8463     0.84630
   16          H           0.156144        0.8439     0.84386
   17          N           0.694064        4.3059     1.41745     2.88849
   18          O          -0.715042        6.7150     1.94592     4.76912
   19          O          -0.718357        6.7184     1.94577     4.77259
   20          H           0.381699        0.6183     0.61830
   21          O          -0.769342        6.7693     1.81507     4.95428
   22          H           0.373748        0.6263     0.62625
   23          H           0.379393        0.6206     0.62061
   24          H           0.376396        0.6236     0.62360
   25          O          -0.757603        6.7576     1.81896     4.93864
 DIPOLE           X         Y         Z       TOTAL
 POINT-CHG.    -0.529     8.751     6.272    10.780
 HYBRID        -0.524    -0.118    -0.925     1.069
 SUM           -1.052     8.633     5.347    10.209


          ATOMIC ORBITAL ELECTRON POPULATIONS

     Atom    s        px        py        pz      x^2-y^2     xz        z^2       yz        xy
    1  C   1.08783   1.03186   1.03003   0.96809
    2  C   1.08898   1.08666   0.99022   1.01507
    3  C   1.05981   0.95365   0.95404   0.92974
    4  C   1.08749   1.06741   1.00930   1.03975
    5  C   1.09606   0.84129   0.98057   1.04377
    6  C   1.08363   0.99207   1.08789   1.03868
    7  H   0.83220
    8  H   0.82566
    9  H   0.81120
   10 Cl   1.98149   1.27161   1.91224   1.97160   0.00224   0.00061   0.00125   0.00010   0.00213
   11  H   0.82299
   12  C   1.03070   1.43381   0.96734   0.88598
   13  C   1.04253   1.18288   1.12921   1.04434
   14  H   0.83879
   15  H   0.84630
   16  H   0.84386
   17  N   1.41745   0.97860   0.93195   0.97794
   18  O   1.94592   1.77755   1.05068   1.94090
   19  O   1.94577   1.78270   1.66345   1.32644
   20  H   0.61830
   21  O   1.81507   1.44862   1.89469   1.61096
   22  H   0.62625
   23  H   0.62061
   24  H   0.62360
   25  O   1.81896   1.46574   1.79180   1.68110

          BONDING CONTRIBUTION OF EACH M.O.

  1.4228  1.8838  1.1406  1.1582  1.2573  1.3387  1.3143  1.6405  1.1883  1.4020
  1.7923  1.7706  1.3088  1.6472  1.6636  1.6053  1.2744  1.5981  1.8896  1.6064
  1.8034  0.8160  1.8986  1.8078  0.7856  1.8086  1.6839  1.8947  0.3759  1.6199
  0.0297  1.5992  0.8326  0.3581  0.4387  0.4918  0.2805  1.8584  1.6715  1.0673
 -2.0614 -1.9875 -1.9938 -2.5033 -2.0806 -2.0693 -1.8922 -1.8067 -1.9652 -1.9729
 -1.9945 -1.9682 -1.9799 -2.0056 -1.7371 -1.9890 -1.9508 -1.9568 -1.9720 -1.9651
 -1.9565 -1.9592 -1.9438 -1.9108 -1.7558 -1.7252 -1.9017 -0.0061 -0.0100 -0.0029
 -0.0001 -0.0012





            (VALENCIES)   BOND ORDERS

     1  C     (3.969)     2  C 1.442     6  C 1.437     7  H 0.959     4  C 0.109    10 Cl 0.011

     2  C     (3.969)     1  C 1.442     3  C 1.421     8  H 0.954     5  C 0.109

     3  C     (3.987)     2  C 1.421     4  C 1.407    12  C 1.005     6  C 0.110    18  O 0.012    10 Cl 0.011

     4  C     (3.963)     5  C 1.433     3  C 1.407     9  H 0.949     1  C 0.109    10 Cl 0.024

     5  C     (3.954)     4  C 1.433     6  C 1.423    10 Cl 0.970     2  C 0.109

     6  C     (3.968)     1  C 1.437     5  C 1.423    11  H 0.954     3  C 0.110    10 Cl 0.024

     7  H     (0.972)     1  C 0.959

     8  H     (0.970)     2  C 0.954

     9  H     (0.964)     4  C 0.949

    10 Cl     (1.052)     5  C 0.970     4  C 0.024     6  C 0.024     3  C 0.011     1  C 0.011

    11  H     (0.969)     6  C 0.954

    12  C     (3.759)    17  N 1.408     3  C 1.005    13  C 0.994    18  O 0.155    19  O 0.154    20  H 0.015

    13  C     (3.921)    12  C 0.994    16  H 0.964    15  H 0.963    14  H 0.962    19  O 0.013

    14  H     (0.974)    13  C 0.962

    15  H     (0.976)    13  C 0.963

    16  H     (0.976)    13  C 0.964

    17  N     (3.815)    12  C 1.408    18  O 1.180    19  O 1.180

    18  O     (1.504)    17  N 1.180    12  C 0.155    19  O 0.146     3  C 0.012

    19  O     (1.502)    17  N 1.180    12  C 0.154    18  O 0.146    13  C 0.013

    20  H     (0.854)    25  O 0.825    12  C 0.015

    21  O     (1.702)    22  H 0.859    23  H 0.826    25  O 0.010

    22  H     (0.860)    21  O 0.859

    23  H     (0.856)    21  O 0.826    25  O 0.028

    24  H     (0.858)    25  O 0.854

    25  O     (1.730)    24  H 0.854    20  H 0.825    23  H 0.028    21  O 0.010


 **********************
 *                    *
 * JOB ENDED NORMALLY *
 *                    *
 **********************



 TOTAL JOB TIME:             0.59 SECONDS

 == MOPAC DONE ==
