 *******************************************************************************
 **                                                                           **
 **                              MOPAC v22.0.6                                **
 **                                                                           **
 *******************************************************************************
 **          Digital Object Identifier (DOI): 10.5281/zenodo.6511958          **
 **    Visit the DOI location for information on how to cite this program.    **
 *******************************************************************************

                              PM7 CALCULATION RESULTS

 *******************************************************************************
 *  CALCULATION DONE:                                Sat Mar 23 21:27:30 2024  *
 *  PM7        - The PM7 Hamiltonian to be used
 *  SINGLET    - SPIN STATE DEFINED AS A SINGLET
 *
 *
 *
 *                 CHARGE ON SYSTEM = -1
 *
 *
 *
 *  EPS=78.4   - USE ANDREAS KLAMT'S COSMO IMPLICIT SOLVATION MODEL
 *  LET        - OVERRIDE SOME SAFETY CHECKS
 *  THREADS    - USE A MAXIMUM OF 30 THREADS
 *  T=         - A TIME OF 14.0 DAYS REQUESTED
 *  DUMP=N     - RESTART FILE WRITTEN EVERY 30.0 MINUTES REQUESTED
 *  RELSCF     - DEFAULT SCF CRITERION MULTIPLIED BY 1.0000
 *              (DEFAULT SCF CRITERION = 0.00010)
 *  ITRY=      - DO A MAXIMUM OF 15000 ITERATIONS FOR SCF
 *  AUX        - OUTPUT AUXILIARY INFORMATION
 *  ISOTOPE    - SAVE THE FORCE MATRIX FOR USE LATER
 *  BONDS      - FINAL BOND-ORDER MATRIX TO BE PRINTED
 *  LARGE      - EXPANDED OUTPUT TO BE PRINTED
 *  THERMO     - THERMODYNAMIC QUANTITIES TO BE CALCULATED
 *******************************************************************************
PM7 AUX LARGE THERMO(298,298) LET ISOTOPE BONDS DUMP=30M ITRY=15000 T=14D THREADS=30 CHARGE=-1 SINGLET eps=78.4 RELSCF=1
 Title: ASE calculation

   ATOM   CHEMICAL          X               Y               Z
  NUMBER   SYMBOL      (ANGSTROMS)     (ANGSTROMS)     (ANGSTROMS)

     1       C          1.53244725  *   3.05157899  *   2.07759895  *
     2       C          1.80171479  *   1.68951072  *   1.94955610  *
     3       C          0.75747979  *   0.77295464  *   1.79788475  *
     4       C         -0.56872762  *   1.22341040  *   1.77825315  *
     5       C         -0.79729647  *   2.58315411  *   1.90795467  *
     6       C          0.21817130  *   3.51627425  *   2.05672967  *
     7       H          2.35395400  *   3.76031605  *   2.19400433  *
     8       H          2.83572414  *   1.34030577  *   1.96744466  *
     9       H         -1.38591641  *   0.50922219  *   1.66376719  *
    10      Cl         -2.42923558  *   3.13589115  *   1.87862572  *
    11       H          0.00768612  *   4.58125762  *   2.15529351  *
    12       C          1.01621933  *  -0.66195202  *   1.68700018  *
    13       C          0.96423991  *  -1.46608147  *   2.93988639  *
    14       H          1.44046908  *  -2.45122904  *   2.82863843  *
    15       H         -0.07408518  *  -1.64699550  *   3.25976527  *
    16       H          1.46943083  *  -0.95154260  *   3.77088535  *
    17       N          1.10227592  *  -1.24216293  *   0.49402222  *
    18       O          1.21312678  *  -2.49442572  *   0.36406786  *
    19       O          1.12279662  *  -0.55875627  *  -0.56899266  *
    20       D          3.16744403  *  -0.79697206  *   1.83470095  *
    21       O          6.53291649  *  -0.82711457  *   3.06821154  *
    22       H          7.07077765  *  -0.40517398  *   2.38764751  *
    23       H          5.64244595  *  -0.82656098  *   2.69715242  *
    24       H          4.34327362  *  -1.40358295  *   1.07183067  *
    25       O          4.15747733  *  -0.80661208  *   1.81138406  *


                                Isotopes Used

              Atom:   20  H  Default mass  1.0079,  mass used:  2.0140 amu


          CARTESIAN COORDINATES 

    NO.       ATOM           X           Y           Z

     1         C          1.5324      3.0516      2.0776
     2         C          1.8017      1.6895      1.9496
     3         C          0.7575      0.7730      1.7979
     4         C         -0.5687      1.2234      1.7783
     5         C         -0.7973      2.5832      1.9080
     6         C          0.2182      3.5163      2.0567
     7         H          2.3540      3.7603      2.1940
     8         H          2.8357      1.3403      1.9674
     9         H         -1.3859      0.5092      1.6638
    10        Cl         -2.4292      3.1359      1.8786
    11         H          0.0077      4.5813      2.1553
    12         C          1.0162     -0.6620      1.6870
    13         C          0.9642     -1.4661      2.9399
    14         H          1.4405     -2.4512      2.8286
    15         H         -0.0741     -1.6470      3.2598
    16         H          1.4694     -0.9515      3.7709
    17         N          1.1023     -1.2422      0.4940
    18         O          1.2131     -2.4944      0.3641
    19         O          1.1228     -0.5588     -0.5690
    20         H          3.1674     -0.7970      1.8347
    21         O          6.5329     -0.8271      3.0682
    22         H          7.0708     -0.4052      2.3876
    23         H          5.6424     -0.8266      2.6972
    24         H          4.3433     -1.4036      1.0718
    25         O          4.1575     -0.8066      1.8114

 General Reference for PM7:
 "Optimization of Parameters for Semiempirical Methods VI: More Modifications to the 
 NDDO Approximations and Re-optimization of Parameters", J. J. P. Stewart, J. Mol. Mod., 1:32, 19 (2013)
 https://link.springer.com/article/10.1007/s00894-012-1667-x

           Empirical Formula: C8 H11 N O4 Cl  =    25 atoms



      MOLECULAR POINT GROUP   :   C1  


 SINGLET STATE CALCULATION


      RHF CALCULATION, NO. OF DOUBLY OCCUPIED LEVELS = 40

  SCF CRITERION =    0.1000E-03


          HEAT OF FORMATION =    -245.908793 KCALS/MOLE


          CARTESIAN COORDINATE DERIVATIVES

   NUMBER  ATOM         X            Y            Z

     1       C     -0.890236     0.283918    -0.030136
     2       C      0.511379     0.312355     0.032020
     3       C      0.255313    -0.030918     0.166178
     4       C      0.384843    -0.243628    -0.011253
     5       C     -0.246826     0.809589     0.040518
     6       C      0.719027    -0.798928    -0.004036
     7       H      0.127567     0.215722    -0.011315
     8       H      0.156469    -0.041368    -0.008981
     9       H      0.151642     0.179680    -0.014874
    10      Cl      0.292538     0.129071    -0.063561
    11       H     -0.255954     0.022896     0.047759
    12       C     -0.635490    -4.876059     1.527243
    13       C      0.668498     0.175490     0.045065
    14       H     -0.276616     0.057727    -0.040503
    15       H      0.060444     0.163475    -0.151971
    16       H      0.036170     0.113516    -0.101005
    17       N     -1.251241     0.149416    -2.060782
    18       O      0.526876     0.520669     0.373624
    19       O      0.420095    -0.433378     0.810986
    20       H     -2.024855    13.225966     1.607683
    21       O      0.180851    -0.162835     0.006065
    22       H     -0.156152    -0.274673     0.965517
    23       H      0.142775    -0.223901     0.099168
    24       H     -0.337117     2.338150     0.477294
    25       O      1.440501   -11.609005    -3.699696

 DIPOLE           X         Y         Z       TOTAL
 POINT-CHG.   -20.073    -6.277    -5.967    21.861
 HYBRID         0.099     0.602     0.879     1.069
 SUM          -19.973    -5.675    -5.088    21.378


          GRADIENT NORM =  19.43057



 ** GRADIENT IS VERY LARGE, BUT SINCE "LET" IS USED, CALCULATION WILL CONTINUE


                              **** WARNING ****

           GRADIENT IS VERY LARGE FOR A THERMO CALCULATION
           RESULTS ARE LIKELY TO BE INACCURATE IF THERE ARE
           ANY LOW-LYING VIBRATIONS (LESS THAN ABOUT 400CM-1)
           GRADIENT NORM SHOULD BE LESS THAN ABOUT 1.0 FOR THERMO
           TO GIVE ACCURATE RESULTS


          TIME FOR SCF CALCULATION =    0.13

          TIME FOR DERIVATIVES     =    0.02

          MOLECULAR WEIGHT =  221.64



          ROTATIONAL CONSTANTS IN CM(-1)

          A =    0.02670255   B =    0.00928934   C =    0.00766160



           PRINCIPAL MOMENTS OF INERTIA IN UNITS OF 10**(-40)*GRAM-CM**2

          A =     1048.3176   B =     3013.4283   C =     3653.6411


          ORIENTATION OF MOLECULE IN FORCE CALCULATION

    NO.       ATOM         X         Y         Z

     1          C      -2.2664   -0.9718   -0.1279
     2          C      -0.8721   -0.9718   -0.1279
     3          C      -0.1644    0.2336   -0.1279
     4          C      -0.8588    1.4501   -0.1320
     5          C      -2.2431    1.4105   -0.1317
     6          C      -2.9722    0.2305   -0.1286
     7          H      -2.8108   -1.9175   -0.1262
     8          H      -0.3329   -1.9208   -0.1270
     9          H      -0.3084    2.3925   -0.1358
    10         Cl      -3.0955    2.9082   -0.1318
    11          H      -4.0623    0.2306   -0.1271
    12          C       1.2974    0.2562   -0.1530
    13          C       1.9579    0.3674   -1.4836
    14          H       3.0224    0.0929   -1.4502
    15          H       1.9047    1.3955   -1.8752
    16          H       1.4765   -0.2835   -2.2287
    17          N       1.9904    0.3662    0.9761
    18          O       3.2470    0.5010    0.9810
    19          O       1.4244    0.2948    2.1039
    20          H       1.8312   -1.8368   -0.1995
    21          O       2.3973   -5.2171   -1.2491
    22          H       2.1515   -5.7740   -0.5008
    23          H       2.2589   -4.3181   -0.9278
    24          H       2.7209   -2.8205    0.5576
    25          O       2.0340   -2.8033   -0.1248


    FIRST DERIVATIVES WILL BE USED IN THE CALCULATION OF SECOND DERIVATIVES

          ESTIMATED TIME TO COMPLETE CALCULATION =       23.44 SECONDS

    FOR POINT-GROUP C1   THERE ARE   1 UNIQUE SYMMETRY FUNCTIONS.

 STEP:   1 TIME =     0.09 SECS, INTEGRAL =      0.09 TIME LEFT:1209599.76
 STEP:   2 TIME =     0.08 SECS, INTEGRAL =      0.16 TIME LEFT:1209599.68
 STEP:   3 TIME =     0.08 SECS, INTEGRAL =      0.24 TIME LEFT:1209599.60
 STEP:   4 TIME =     0.08 SECS, INTEGRAL =      0.32 TIME LEFT:1209599.52
 STEP:   5 TIME =     0.08 SECS, INTEGRAL =      0.40 TIME LEFT:1209599.45
 STEP:   6 TIME =     0.08 SECS, INTEGRAL =      0.48 TIME LEFT:1209599.37
 STEP:   7 TIME =     0.09 SECS, INTEGRAL =      0.56 TIME LEFT:1209599.28
 STEP:   8 TIME =     0.08 SECS, INTEGRAL =      0.64 TIME LEFT:1209599.20
 STEP:   9 TIME =     0.08 SECS, INTEGRAL =      0.72 TIME LEFT:1209599.12
 STEP:  10 TIME =     0.08 SECS, INTEGRAL =      0.80 TIME LEFT:1209599.05
 STEP:  11 TIME =     0.09 SECS, INTEGRAL =      0.88 TIME LEFT:1209598.96
 STEP:  12 TIME =     0.08 SECS, INTEGRAL =      0.96 TIME LEFT:1209598.88
 STEP:  13 TIME =     0.08 SECS, INTEGRAL =      1.04 TIME LEFT:1209598.80
 STEP:  14 TIME =     0.08 SECS, INTEGRAL =      1.12 TIME LEFT:1209598.73
 STEP:  15 TIME =     0.08 SECS, INTEGRAL =      1.20 TIME LEFT:1209598.65
 STEP:  16 TIME =     0.08 SECS, INTEGRAL =      1.27 TIME LEFT:1209598.57
 STEP:  17 TIME =     0.08 SECS, INTEGRAL =      1.35 TIME LEFT:1209598.49
 STEP:  18 TIME =     0.09 SECS, INTEGRAL =      1.44 TIME LEFT:1209598.41
 STEP:  19 TIME =     0.08 SECS, INTEGRAL =      1.52 TIME LEFT:1209598.33
 STEP:  20 TIME =     0.08 SECS, INTEGRAL =      1.59 TIME LEFT:1209598.25
 STEP:  21 TIME =     0.08 SECS, INTEGRAL =      1.67 TIME LEFT:1209598.17
 STEP:  22 TIME =     0.08 SECS, INTEGRAL =      1.75 TIME LEFT:1209598.09
 STEP:  23 TIME =     0.08 SECS, INTEGRAL =      1.83 TIME LEFT:1209598.02
 STEP:  24 TIME =     0.09 SECS, INTEGRAL =      1.91 TIME LEFT:1209597.93
 STEP:  25 TIME =     0.08 SECS, INTEGRAL =      1.99 TIME LEFT:1209597.85
 STEP:  26 TIME =     0.08 SECS, INTEGRAL =      2.07 TIME LEFT:1209597.77
 STEP:  27 TIME =     0.08 SECS, INTEGRAL =      2.15 TIME LEFT:1209597.70
 STEP:  28 TIME =     0.08 SECS, INTEGRAL =      2.23 TIME LEFT:1209597.62
 STEP:  29 TIME =     0.08 SECS, INTEGRAL =      2.30 TIME LEFT:1209597.54
 STEP:  30 TIME =     0.08 SECS, INTEGRAL =      2.38 TIME LEFT:1209597.46
 STEP:  31 TIME =     0.09 SECS, INTEGRAL =      2.47 TIME LEFT:1209597.38
 STEP:  32 TIME =     0.08 SECS, INTEGRAL =      2.55 TIME LEFT:1209597.30
 STEP:  33 TIME =     0.08 SECS, INTEGRAL =      2.62 TIME LEFT:1209597.22
 STEP:  34 TIME =     0.08 SECS, INTEGRAL =      2.70 TIME LEFT:1209597.14
 STEP:  35 TIME =     0.08 SECS, INTEGRAL =      2.78 TIME LEFT:1209597.06
 STEP:  36 TIME =     0.08 SECS, INTEGRAL =      2.86 TIME LEFT:1209596.98
 STEP:  37 TIME =     0.09 SECS, INTEGRAL =      2.95 TIME LEFT:1209596.90
 STEP:  38 TIME =     0.08 SECS, INTEGRAL =      3.02 TIME LEFT:1209596.82
 STEP:  39 TIME =     0.08 SECS, INTEGRAL =      3.10 TIME LEFT:1209596.74
 STEP:  40 TIME =     0.08 SECS, INTEGRAL =      3.18 TIME LEFT:1209596.66
 STEP:  41 TIME =     0.08 SECS, INTEGRAL =      3.26 TIME LEFT:1209596.59
 STEP:  42 TIME =     0.08 SECS, INTEGRAL =      3.34 TIME LEFT:1209596.51
 STEP:  43 TIME =     0.09 SECS, INTEGRAL =      3.42 TIME LEFT:1209596.42
 STEP:  44 TIME =     0.08 SECS, INTEGRAL =      3.50 TIME LEFT:1209596.34
 STEP:  45 TIME =     0.08 SECS, INTEGRAL =      3.58 TIME LEFT:1209596.27
 STEP:  46 TIME =     0.08 SECS, INTEGRAL =      3.66 TIME LEFT:1209596.19
 STEP:  47 TIME =     0.08 SECS, INTEGRAL =      3.73 TIME LEFT:1209596.11
 STEP:  48 TIME =     0.08 SECS, INTEGRAL =      3.81 TIME LEFT:1209596.03
 STEP:  49 TIME =     0.09 SECS, INTEGRAL =      3.90 TIME LEFT:1209595.95
 STEP:  50 TIME =     0.08 SECS, INTEGRAL =      3.98 TIME LEFT:1209595.87
 STEP:  51 TIME =     0.08 SECS, INTEGRAL =      4.05 TIME LEFT:1209595.79
 STEP:  52 TIME =     0.08 SECS, INTEGRAL =      4.13 TIME LEFT:1209595.71
 STEP:  53 TIME =     0.08 SECS, INTEGRAL =      4.21 TIME LEFT:1209595.63
 STEP:  54 TIME =     0.09 SECS, INTEGRAL =      4.30 TIME LEFT:1209595.55
 STEP:  55 TIME =     0.08 SECS, INTEGRAL =      4.38 TIME LEFT:1209595.47
 STEP:  56 TIME =     0.08 SECS, INTEGRAL =      4.45 TIME LEFT:1209595.39
 STEP:  57 TIME =     0.08 SECS, INTEGRAL =      4.53 TIME LEFT:1209595.31
 STEP:  58 TIME =     0.08 SECS, INTEGRAL =      4.61 TIME LEFT:1209595.23
 STEP:  59 TIME =     0.09 SECS, INTEGRAL =      4.70 TIME LEFT:1209595.15
 STEP:  60 TIME =     0.08 SECS, INTEGRAL =      4.77 TIME LEFT:1209595.07
 STEP:  61 TIME =     0.08 SECS, INTEGRAL =      4.85 TIME LEFT:1209594.99
 STEP:  62 TIME =     0.08 SECS, INTEGRAL =      4.93 TIME LEFT:1209594.91
 STEP:  63 TIME =     0.08 SECS, INTEGRAL =      5.01 TIME LEFT:1209594.84
 STEP:  64 TIME =     0.08 SECS, INTEGRAL =      5.09 TIME LEFT:1209594.76
 STEP:  65 TIME =     0.09 SECS, INTEGRAL =      5.17 TIME LEFT:1209594.67
 STEP:  66 TIME =     0.08 SECS, INTEGRAL =      5.25 TIME LEFT:1209594.59
 STEP:  67 TIME =     0.08 SECS, INTEGRAL =      5.33 TIME LEFT:1209594.52
 STEP:  68 TIME =     0.08 SECS, INTEGRAL =      5.41 TIME LEFT:1209594.44
 STEP:  69 TIME =     0.08 SECS, INTEGRAL =      5.48 TIME LEFT:1209594.36
 STEP:  70 TIME =     0.08 SECS, INTEGRAL =      5.56 TIME LEFT:1209594.28
 STEP:  71 TIME =     0.08 SECS, INTEGRAL =      5.64 TIME LEFT:1209594.20
 STEP:  72 TIME =     0.09 SECS, INTEGRAL =      5.73 TIME LEFT:1209594.12
 STEP:  73 TIME =     0.08 SECS, INTEGRAL =      5.80 TIME LEFT:1209594.04
 STEP:  74 TIME =     0.08 SECS, INTEGRAL =      5.88 TIME LEFT:1209593.96
 STEP:  75 TIME =     0.08 SECS, INTEGRAL =      5.96 TIME LEFT:1209593.88

(To convert to Hartree/Bohr^2, multiply by (10^(-21) x N x a0^2)/(4.184 x 627.51) =  0.0642)


           FORCE MATRIX IN MILLIDYNES/ANGSTROM


                  C  1       C  2       C  3       C  4       C  5       C  6
 ------------------------------------------------------------------------------
     C    1  15.362481
     C    2   6.179496  15.206570
     C    3   1.973006   5.957801  16.268592
     C    4   1.207039   1.854549   5.786101  15.211875
     C    5   2.020571   1.188111   2.054279   6.402482  14.700712
     C    6   6.220703   1.894114   1.221672   1.836717   6.338819  15.371211
     H    7   3.403088   0.742068   0.084402   0.015042   0.090492   0.757258
     H    8   0.757165   3.397258   0.748553   0.080829   0.013896   0.087150
     H    9   0.011746   0.082946   0.752049   3.393967   0.754149   0.082364
    Cl   10   0.096311   0.017672   0.086774   0.834944   2.346431   0.812726
     H   11   0.744286   0.082606   0.006475   0.074497   0.754395   3.392944
     C   12   0.089335   0.810795   4.399694   0.872544   0.089749   0.009963
     C   13   0.011195   0.031347   0.667911   0.033821   0.016300   0.008033
     H   14   0.001806   0.008570   0.037674   0.008349   0.003710   0.001618
     H   15   0.002980   0.003381   0.017361   0.017524   0.007333   0.003997
     H   16   0.001725   0.005287   0.031764   0.006421   0.005144   0.003063
     N   17   0.026090   0.100157   1.348098   0.141808   0.074633   0.038105
     O   18   0.011232   0.061641   0.257378   0.071262   0.041475   0.020489
     O   19   0.011492   0.049745   0.193742   0.078912   0.037819   0.019384
     H   20   0.002722   0.018676   0.054134   0.010167   0.013037   0.006530
     O   21   0.002502   0.002686   0.005996   0.001630   0.001945   0.001812
     H   22   0.000837   0.000685   0.001347   0.000358   0.000521   0.000647
     H   23   0.002083   0.003084   0.007348   0.002213   0.002826   0.001943
     H   24   0.000821   0.006316   0.007820   0.002826   0.003554   0.001431
     O   25   0.002417   0.025295   0.023791   0.007650   0.011706   0.005245


                  H  7       H  8       H  9      Cl 10       H 11       C 12
 ------------------------------------------------------------------------------
     H    7   4.294228
     H    8   0.031570   4.304499
     H    9   0.011023   0.010010   4.305220
    Cl   10   0.014959   0.012448   0.044997   3.762915
     H   11   0.032096   0.009716   0.009209   0.039779   4.297200
     C   12   0.012084   0.029132   0.032811   0.034393   0.009892  16.697463
     C   13   0.003123   0.005171   0.020235   0.005015   0.003863   3.759616
     H   14   0.000667   0.003411   0.003624   0.000916   0.000544   0.728980
     H   15   0.002151   0.001072   0.017168   0.003262   0.001596   0.752427
     H   16   0.001669   0.002345   0.005856   0.002502   0.001771   0.698452
     N   17   0.021528   0.043416   0.067001   0.047024   0.019786   7.339922
     O   18   0.010365   0.023909   0.035105   0.024311   0.010970   1.871150
     O   19   0.009971   0.018336   0.031973   0.021254   0.010048   1.822225
     H   20   0.004411   0.041201   0.003834   0.006084   0.003031   0.170387
     O   21   0.001361   0.024936   0.000532   0.002028   0.001307   0.021246
     H   22   0.000663   0.009966   0.000257   0.000513   0.000465   0.004736
     H   23   0.001308   0.025689   0.000506   0.002372   0.001399   0.035854
     H   24   0.000703   0.033906   0.001085   0.002445   0.000699   0.044608
     O   25   0.004314   0.047377   0.002590   0.006739   0.002445   0.242151


                  C 13       H 14       H 15       H 16       N 17       O 18
 ------------------------------------------------------------------------------
     C   13  11.420667
     H   14   3.325006   4.153237
     H   15   3.326062   0.466043   4.146691
     H   16   3.350267   0.461399   0.463467   4.179002
     N   17   0.850963   0.199519   0.046262   0.090599  19.683605
     O   18   0.114165   0.126550   0.022111   0.032192   7.296290   9.777383
     O   19   0.173890   0.083030   0.029236   0.033094   7.494667   2.064516
     H   20   0.035343   0.043936   0.007552   0.026113   0.361028   0.131164
     O   21   0.002906   0.003107   0.002075   0.002380   0.014775   0.006437
     H   22   0.001243   0.000451   0.000657   0.000478   0.004160   0.001650
     H   23   0.002665   0.005057   0.001490   0.003260   0.031831   0.013742
     H   24   0.007292   0.015976   0.001240   0.004373   0.056400   0.033255
     O   25   0.030311   0.033745   0.005197   0.016876   0.199239   0.099720


                  O 19       H 20       O 21       H 22       H 23       H 24
 ------------------------------------------------------------------------------
     O   19  10.077637
     H   20   0.137003   4.072134
     O   21   0.005462   0.032964   8.090503
     H   22   0.002331   0.010376   3.878465   4.302655
     H   23   0.014052   0.087808   3.685899   0.808236   4.154764
     H   24   0.028714   0.791656   0.023549   0.010340   0.082886   4.297659
     O   25   0.100418   3.561188   2.717447   0.032170   0.173768   3.887249


                  O 25
 ------------------
     O   25   7.972274


          HEAT OF FORMATION =    -245.908793 KCALS/MOLE


          TRIVIAL VIBRATIONS, SHOULD BE ZERO

 -30.4376=TX -11.4277=TY  18.2847=TZ -10.9285=RX  17.6384=RY  16.8673=RZ


      MOLECULAR POINT GROUP   :   C1  


           EIGENVECTORS  


   Root No.       1         2         3         4         5         6         7         8

                 1 A       2 A       3 A       4 A       5 A       6 A       7 A       8 A   

                  -0.0      -0.0      -0.0      -0.0       0.0       0.0       0.0       0.0
  
           1    0.0109    0.0064   -0.0650   -0.1365    0.0616   -0.0006   -0.0278    0.0145
           2   -0.0170   -0.0221    0.0163    0.1038   -0.0493    0.0226    0.0123   -0.0241
           3    0.0295    0.0112    0.0019    0.0226    0.0308    0.1195    0.0661    0.1237
           4    0.0109    0.0067   -0.0645   -0.1356    0.0600   -0.0008   -0.0269    0.0154
           5   -0.0282   -0.0170   -0.0084    0.0250    0.0161    0.0362    0.0031   -0.0221
           6    0.0980    0.0453   -0.0278   -0.0155   -0.0262    0.0853    0.0483    0.0571
           7    0.0246    0.0016   -0.0476   -0.0696    0.0083   -0.0109   -0.0200    0.0142
           8   -0.0362   -0.0141   -0.0187   -0.0144    0.0487    0.0424   -0.0021   -0.0226
           9    0.0374    0.0087   -0.0315   -0.0277   -0.0460   -0.0320   -0.0429   -0.0733
          10    0.0341   -0.0032   -0.0251   -0.0004   -0.0453   -0.0209   -0.0131    0.0118
          11   -0.0307   -0.0167   -0.0060    0.0255    0.0165    0.0363    0.0027   -0.0230
          12   -0.0302   -0.0466   -0.0182   -0.0123   -0.0310   -0.1606   -0.1302   -0.1774
          13    0.0336   -0.0032   -0.0253   -0.0018   -0.0449   -0.0206   -0.0130    0.0126
          14   -0.0186   -0.0222    0.0178    0.1042   -0.0487    0.0224    0.0119   -0.0251
          15   -0.0619   -0.0720    0.0147    0.0390    0.0403   -0.0881   -0.0941   -0.0701
          16    0.0218    0.0016   -0.0439   -0.0677    0.0080   -0.0105   -0.0202    0.0134
          17   -0.0115   -0.0250    0.0291    0.1439   -0.0806    0.0165    0.0163   -0.0257
          18   -0.0439   -0.0440    0.0293    0.0617    0.0784    0.0770    0.0192    0.1058
          19    0.0053    0.0099   -0.0828   -0.1896    0.1051    0.0077   -0.0341    0.0158
          20   -0.0141   -0.0243    0.0266    0.1346   -0.0741    0.0182    0.0160   -0.0248
          21    0.0376    0.0296    0.0074    0.0264    0.0459    0.1992    0.1273    0.2086
          22   -0.0094    0.0094   -0.0721   -0.1834    0.1021    0.0121   -0.0318    0.0154
          23   -0.0385   -0.0149   -0.0129   -0.0023    0.0399    0.0438    0.0009   -0.0226
          24    0.2204    0.1014   -0.0424   -0.0315   -0.0490    0.1500    0.1042    0.1042
          25    0.0408   -0.0076   -0.0071    0.0537   -0.0851   -0.0312   -0.0061    0.0106
          26   -0.0346   -0.0144   -0.0167   -0.0067    0.0377    0.0413   -0.0018   -0.0230
          27   -0.0496   -0.0687   -0.0263   -0.0357   -0.0674   -0.2977   -0.2176   -0.3255
          28    0.0460   -0.0085    0.0011    0.0827   -0.1153   -0.0357   -0.0041    0.0104
          29   -0.0116   -0.0252    0.0327    0.1515   -0.0882    0.0148    0.0177   -0.0254
          30   -0.0737   -0.0864    0.0304    0.0496    0.0613   -0.1207   -0.1162   -0.0934
          31    0.0219    0.0016   -0.0438   -0.0672    0.0079   -0.0104   -0.0201    0.0135
          32   -0.0023   -0.0290    0.0493    0.2078   -0.1324    0.0073    0.0244   -0.0264
          33   -0.0713   -0.0559    0.0549    0.0946    0.1298    0.1519    0.0623    0.2007
          34    0.0254    0.0017   -0.0481   -0.0689    0.0072   -0.0105   -0.0193    0.0148
          35   -0.0494   -0.0072   -0.0438   -0.0926    0.0724    0.0343    0.0002   -0.0173
          36    0.0401    0.0103   -0.0099   -0.0226   -0.0071    0.0360   -0.0329   -0.0508
          37    0.0255   -0.0082   -0.0027   -0.0287    0.1209    0.0801   -0.0059    0.0587
          38   -0.0105   -0.0861   -0.0207   -0.1750   -0.0979   -0.0171    0.1561    0.0752
          39    0.0419   -0.0011    0.0153   -0.0095    0.0357    0.0789   -0.0120   -0.0194
          40    0.0248   -0.0165   -0.0100   -0.0526    0.0262    0.1426   -0.0736    0.0700
          41   -0.0137   -0.1125   -0.0539   -0.2721   -0.4759    0.2316   -0.1107    0.1174
          42    0.0321   -0.0012    0.0496    0.0300    0.1074    0.2288   -0.0882    0.0123
          43    0.0300    0.0121    0.0433    0.0762    0.5189   -0.1286    0.2445    0.0293
          44    0.0016   -0.1027   -0.0072   -0.1762   -0.0624   -0.0913    0.2594    0.0907
          45    0.0726   -0.0478    0.0457   -0.0249    0.0782   -0.0856    0.2240    0.0247
          46    0.0260   -0.0320    0.0009   -0.0677   -0.0584    0.2998   -0.1721    0.1154
          47    0.0168   -0.1113    0.0202   -0.1428    0.1069   -0.2441    0.4436    0.0901
          48    0.0177    0.0366   -0.0223   -0.0115   -0.0255    0.1356   -0.1549   -0.0685
          49    0.0263    0.0067   -0.0823   -0.0880   -0.0538   -0.0849   -0.0270   -0.0211
          50   -0.0595    0.0756   -0.0761   -0.0457    0.1549    0.0120   -0.1225   -0.0982
          51    0.0418   -0.0014    0.0171   -0.0128    0.0225    0.0849   -0.0162   -0.0185
          52    0.0243    0.0054   -0.0817   -0.0818   -0.0471   -0.0859   -0.0313   -0.0238
          53   -0.0506    0.0980   -0.1232   -0.1405    0.0536   -0.0525   -0.0593   -0.0974
          54    0.0425   -0.0170    0.0649    0.0127    0.0877    0.1891   -0.0028    0.0342
          55    0.0272    0.0152   -0.1311   -0.1289   -0.1378   -0.1896   -0.0186   -0.0608
          56   -0.0700    0.1319   -0.0851    0.0804    0.3597    0.0558   -0.3318   -0.1952
          57    0.0404    0.0069   -0.0066   -0.0233   -0.0031    0.0416   -0.0264   -0.0438
          58   -0.4183   -0.0083    0.1513   -0.0162    0.0145    0.0908    0.0225    0.0134
          59   -0.1072   -0.0111    0.0349   -0.0489    0.0572    0.0249   -0.0235    0.0096
          60   -0.3245    0.5098   -0.0758    0.0119   -0.1810   -0.0521    0.2302   -0.0945
          61   -0.0129   -0.2067   -0.0248    0.3715   -0.0866   -0.1477   -0.0960    0.1973
          62    0.0857    0.2170   -0.1272    0.0849    0.0141   -0.0656   -0.0499    0.1259
          63   -0.0081   -0.2675    0.1192   -0.0996   -0.0409   -0.1281    0.0038   -0.0523
          64    0.0801   -0.1494   -0.4595    0.4500   -0.0821    0.1986    0.2892   -0.3392
          65   -0.0531    0.0257    0.0424   -0.0075    0.0348    0.0179   -0.0147    0.0096
          66   -0.0847   -0.3920    0.1043   -0.1428   -0.0242    0.0510    0.1588   -0.3177
          67   -0.0963   -0.1223    0.2132    0.2695   -0.0830   -0.1174   -0.0918    0.1820
          68    0.0298    0.1371   -0.0461    0.0421    0.0241   -0.0356   -0.0419    0.0844
          69    0.1396   -0.0093   -0.0237   -0.0183   -0.0626   -0.2088   -0.0287    0.0700
          70    0.2317    0.3671    0.4114    0.0206   -0.1277    0.0646    0.1622   -0.3180
          71    0.5533   -0.0300    0.2821    0.0544    0.0280   -0.1671   -0.1703    0.0642
          72   -0.2927    0.0504   -0.0908    0.0910   -0.0507   -0.2584   -0.1071    0.3601
          73   -0.2344    0.1204    0.4962    0.0603   -0.0736    0.0101    0.0343   -0.0659
          74   -0.0298    0.0002    0.0948   -0.0332    0.0449   -0.0049   -0.0364    0.0057
          75    0.1491    0.3007   -0.1792    0.0484   -0.1033   -0.1965    0.0260    0.1041


   Root No.       9        10        11        12        13        14        15        16

                 9 A      10 A      11 A      12 A      13 A      14 A      15 A      16 A   

                   0.0       0.0       0.0       0.1       0.1       0.1       0.1       0.2
  
           1   -0.0003   -0.0035   -0.0832    0.0094   -0.0311   -0.0019   -0.0536   -0.0131
           2    0.0194    0.0174   -0.0437   -0.0320   -0.0499    0.0134   -0.0139    0.0028
           3    0.0650   -0.0055    0.0175   -0.0034   -0.0089    0.0015    0.0641    0.1365
           4   -0.0012   -0.0029   -0.0757    0.0091   -0.0277   -0.0042   -0.0530   -0.0130
           5    0.0269    0.0170   -0.1672   -0.0386   -0.1097    0.0297   -0.0444    0.0078
           6    0.2283   -0.0536    0.0098    0.0038   -0.0137    0.1237    0.1113   -0.0478
           7   -0.0060   -0.0016    0.0112    0.0171    0.0130   -0.0086   -0.0279   -0.0096
           8    0.0310    0.0150   -0.2267   -0.0423   -0.1344    0.0351   -0.0569    0.0076
           9    0.1773   -0.0517    0.0026   -0.0001   -0.0118   -0.0505   -0.0324   -0.0208
          10   -0.0105   -0.0048    0.0991    0.0252    0.0610   -0.0251   -0.0094   -0.0188
          11    0.0267    0.0150   -0.1682   -0.0391   -0.1079    0.0250   -0.0479    0.0031
          12    0.0095   -0.0159   -0.0200    0.0053   -0.0228    0.0055    0.0773    0.1564
          13   -0.0116   -0.0044    0.1030    0.0250    0.0638   -0.0281   -0.0101   -0.0198
          14    0.0188    0.0163   -0.0458   -0.0324   -0.0495    0.0111   -0.0162   -0.0012
          15   -0.1635    0.0506   -0.0135   -0.0009   -0.0013    0.0861    0.0207   -0.0913
          16   -0.0064   -0.0045    0.0104    0.0172    0.0174   -0.0171   -0.0338   -0.0190
          17    0.0164    0.0162    0.0094   -0.0277   -0.0217    0.0061    0.0004   -0.0006
          18   -0.1430    0.0586    0.0175   -0.0103    0.0105   -0.0929   -0.1053    0.0202
          19    0.0039   -0.0019   -0.1658    0.0053   -0.0741    0.0091   -0.0783   -0.0095
          20    0.0170    0.0166    0.0023   -0.0302   -0.0270    0.0074   -0.0009    0.0001
          21    0.0976   -0.0158    0.0293   -0.0042   -0.0210   -0.0121    0.1894    0.4189
          22    0.0064   -0.0110   -0.1624   -0.0012   -0.0736    0.0033   -0.0688   -0.0196
          23    0.0312    0.0133   -0.2168   -0.0452   -0.1374    0.0362   -0.0545    0.0046
          24    0.3719   -0.0830    0.0075    0.0138   -0.0234    0.4020    0.2957   -0.1909
          25   -0.0189   -0.0049    0.1874    0.0330    0.1118   -0.0441    0.0160   -0.0247
          26    0.0314    0.0152   -0.2185   -0.0438   -0.1386    0.0358   -0.0630    0.0080
          27   -0.0027   -0.0336   -0.0399    0.0150   -0.0470    0.0189    0.2550    0.5437
          28   -0.0207   -0.0042    0.2488    0.0349    0.1486   -0.0502    0.0370   -0.0281
          29    0.0141    0.0162    0.0350   -0.0269   -0.0037   -0.0006    0.0109   -0.0053
          30   -0.2842    0.0897   -0.0289    0.0030    0.0136    0.3927    0.1281   -0.5032
          31   -0.0065   -0.0045    0.0109    0.0173    0.0181   -0.0178   -0.0340   -0.0194
          32    0.0112    0.0151    0.1052   -0.0217    0.0269   -0.0081    0.0241   -0.0044
          33   -0.2584    0.1028    0.0346   -0.0196    0.0300   -0.2775   -0.3034    0.0334
          34   -0.0070   -0.0001    0.0119    0.0170    0.0134   -0.0065   -0.0283   -0.0081
          35    0.0180    0.0381   -0.1503   -0.0546   -0.1307    0.0180   -0.0262    0.0041
          36    0.1506   -0.0362    0.0237   -0.0106   -0.0054   -0.1254   -0.1229   -0.0777
          37   -0.1187    0.0440    0.0185    0.0155   -0.0217    0.0703    0.0644    0.0627
          38   -0.0268    0.0366   -0.0202   -0.0902    0.0841    0.0447   -0.0106    0.0355
          39    0.0866   -0.0122    0.0354   -0.0156   -0.0064   -0.0827   -0.0778   -0.0407
          40   -0.1440    0.0445    0.0229    0.0111    0.0035    0.0801    0.0706    0.0714
          41   -0.1228    0.0437    0.0032   -0.1131    0.1894    0.0731   -0.0156    0.0554
          42   -0.0382    0.0333    0.0125   -0.0100   -0.0858    0.0109    0.0363    0.0481
          43   -0.0674    0.0532    0.0047    0.0293   -0.1389    0.0981    0.1306    0.0972
          44   -0.0134    0.0321    0.0189   -0.1053    0.1657    0.0511   -0.0120    0.0434
          45    0.1125   -0.0250    0.1359   -0.0489    0.1983   -0.0756   -0.0854   -0.0260
          46   -0.2643    0.0835    0.0335    0.0074    0.0174    0.1694    0.1571    0.1552
          47    0.0357    0.0212    0.0450   -0.1131    0.1939    0.0491   -0.0061    0.0416
          48    0.1240   -0.0227   -0.0297    0.0066   -0.1186   -0.1433   -0.1388   -0.0991
          49    0.0829   -0.0389   -0.0322    0.0326   -0.0021   -0.0430   -0.0590   -0.0212
          50    0.0481    0.0902    0.1578   -0.1328    0.0252    0.0415   -0.0397    0.0068
          51    0.0854   -0.0165    0.0258   -0.0095   -0.0080   -0.1030   -0.0954   -0.0660
          52    0.0960   -0.0553   -0.0832    0.0399    0.0406   -0.0495   -0.0664   -0.0230
          53    0.0070    0.2303    0.6578   -0.2095   -0.4321    0.0452   -0.0355   -0.0227
          54   -0.0401    0.0273    0.0171   -0.0157    0.0201   -0.0343   -0.0406   -0.0328
          55    0.1931   -0.0692    0.0009    0.0402   -0.0990   -0.1161   -0.1152   -0.0613
          56    0.1398    0.0205    0.0043   -0.1866    0.6462    0.0890   -0.0884    0.0478
          57    0.1427   -0.0338    0.0264   -0.0107   -0.0120   -0.1311   -0.1255   -0.0812
          58    0.0932   -0.2083   -0.0026   -0.1250    0.0435   -0.1734    0.3507   -0.1589
          59   -0.0172   -0.0719    0.0241    0.1684    0.0071   -0.2707    0.2828   -0.1226
          60   -0.1132    0.2419   -0.0781    0.1654    0.0311    0.0323   -0.0780    0.0432
          61    0.2124    0.4508   -0.0881    0.0732    0.0120   -0.0680    0.0428   -0.0054
          62   -0.0820   -0.0763   -0.0045    0.1834    0.0171   -0.1641    0.1652   -0.0640
          63   -0.0462    0.1912   -0.0535    0.0723    0.0331   -0.0915    0.0868   -0.0643
          64   -0.1602   -0.2870   -0.0047   -0.1125   -0.0334   -0.0123   -0.0004   -0.0032
          65    0.0183   -0.0817    0.1041    0.5631    0.0428    0.0988   -0.0875    0.0302
          66   -0.0913   -0.0579    0.0571    0.3017    0.0373    0.1318   -0.1226    0.0092
          67    0.2152    0.1571   -0.0157    0.0302   -0.0356    0.1802   -0.1348    0.0549
          68   -0.0395   -0.0803    0.0402    0.3309    0.0273   -0.0591    0.0662   -0.0275
          69   -0.1786    0.0644   -0.1390   -0.3262   -0.0009   -0.2822    0.2893   -0.1402
          70   -0.0721    0.1649   -0.0933   -0.0663    0.0428   -0.0092   -0.0006    0.0011
          71   -0.1684   -0.2689    0.0255   -0.0081   -0.0660    0.0172   -0.1280    0.0393
          72   -0.1037   -0.4296    0.0419   -0.1165   -0.0522    0.1938   -0.1685    0.0546
          73    0.0126   -0.2908    0.0436   -0.1850   -0.0696    0.0648   -0.0954    0.0332
          74   -0.0409   -0.1068    0.0292    0.1474   -0.0170   -0.2248    0.1978   -0.0899
          75   -0.1881    0.0333   -0.0920    0.0154    0.0651    0.1031   -0.0574    0.0177


   Root No.      17        18        19        20        21        22        23        24

                17 A      18 A      19 A      20 A      21 A      22 A      23 A      24 A   

                   0.2       0.2       0.3       0.4       0.5       0.5       0.6       0.7
  
           1   -0.1332   -0.0175   -0.0038   -0.0011   -0.0016   -0.0096    0.0406    0.0640
           2    0.0074    0.0188    0.0068   -0.0038   -0.0011   -0.0326   -0.0101   -0.0648
           3   -0.0273   -0.0372    0.0801   -0.0026    0.2120   -0.0103    0.0130   -0.0064
           4   -0.1269   -0.0181   -0.0048   -0.0010   -0.0010   -0.0041    0.0185    0.0502
           5    0.0025    0.0206    0.0091   -0.0038   -0.0083   -0.0392    0.0622   -0.0892
           6    0.0004   -0.0223   -0.1275   -0.0367    0.1962   -0.0071    0.0054   -0.0081
           7   -0.0761   -0.0209   -0.0047    0.0012    0.0008   -0.0225   -0.0466   -0.1147
           8   -0.0181    0.0204    0.0095   -0.0052   -0.0085   -0.0258    0.0871   -0.0179
           9    0.0369    0.0009   -0.0508   -0.0130    0.2207    0.0004   -0.0068   -0.0070
          10   -0.1103   -0.0206   -0.0054    0.0021   -0.0001   -0.0970   -0.0433    0.0657
          11   -0.0283    0.0226    0.0095   -0.0049   -0.0089   -0.1017    0.0619    0.0696
          12   -0.0115    0.0257   -0.0900   -0.0114    0.2861   -0.0168    0.0193   -0.0076
          13   -0.1148   -0.0206   -0.0065    0.0023    0.0003   -0.0961   -0.0537    0.0881
          14   -0.0149    0.0198    0.0066   -0.0039   -0.0007   -0.0687    0.0028    0.0725
          15    0.0111    0.0090   -0.0716   -0.0145    0.4999   -0.0277    0.0414   -0.0095
          16   -0.1390   -0.0186   -0.0051    0.0005   -0.0011   -0.1030   -0.0189    0.1750
          17    0.0013    0.0185    0.0061   -0.0030   -0.0006   -0.0604   -0.0206    0.0048
          18    0.0235    0.0466   -0.1350   -0.0120    0.2735   -0.0146    0.0220   -0.0069
          19   -0.1512   -0.0168    0.0005   -0.0009   -0.0120    0.0570    0.1856    0.0117
          20    0.0137    0.0198    0.0045   -0.0042    0.0048   -0.0812   -0.0896   -0.0323
          21   -0.1101   -0.1453    0.5735    0.0577   -0.1172    0.0022   -0.0107   -0.0020
          22   -0.1715    0.0062   -0.0015   -0.0026   -0.0133   -0.0332    0.2442    0.2589
          23   -0.0218    0.0352    0.0104   -0.0034   -0.0170   -0.0580    0.1946    0.0182
          24   -0.0276    0.0131   -0.4378   -0.0748   -0.2233   -0.0043    0.0015    0.0043
          25   -0.1372   -0.0255   -0.0126    0.0047    0.0090   -0.1570   -0.2093    0.3787
          26   -0.0159    0.0256    0.0135   -0.0065   -0.0176   -0.0749    0.1626   -0.1006
          27   -0.1006    0.0731   -0.1810   -0.0048   -0.3372    0.0055   -0.0114    0.0030
          28   -0.1319   -0.0327   -0.0131    0.0070    0.0031    0.6162    0.3720   -0.0729
          29   -0.0203    0.0148    0.0036   -0.0014   -0.0003    0.3332    0.2515   -0.0332
          30   -0.0132   -0.1236    0.3379    0.0267   -0.2851    0.0149   -0.0274    0.0015
          31   -0.1435   -0.0185   -0.0053    0.0005   -0.0001   -0.1091   -0.0181    0.1953
          32    0.0122    0.0189    0.0052   -0.0013   -0.0038   -0.2171   -0.1617    0.0579
          33    0.0598    0.1537   -0.3920   -0.0130   -0.4059    0.0181   -0.0227    0.0008
          34   -0.0719   -0.0210   -0.0055    0.0012    0.0024   -0.0350   -0.0769   -0.1978
          35   -0.0245    0.0030   -0.0070   -0.0022    0.0250    0.2682   -0.2534    0.0707
          36    0.0298   -0.0048    0.0719    0.0112   -0.0350    0.0093   -0.0256   -0.0303
          37    0.0940   -0.0214   -0.0193   -0.0022   -0.0040   -0.0264   -0.0501   -0.1723
          38    0.0079   -0.0020   -0.0089   -0.0031    0.0211    0.1456   -0.1624    0.0537
          39    0.0959   -0.0038    0.0663    0.0093   -0.0370    0.0062    0.0060    0.0132
          40    0.1144   -0.0210   -0.0228   -0.0031    0.0004   -0.0473   -0.0497   -0.2158
          41    0.0510   -0.0014   -0.0057   -0.0048    0.0159    0.0741   -0.1515   -0.0483
          42    0.3336   -0.0097    0.0353    0.0020    0.0091    0.1743    0.0499    0.5988
          43    0.1856   -0.0137   -0.0517   -0.0072    0.0543    0.1706   -0.2760   -0.1033
          44    0.0262   -0.0010   -0.0021   -0.0025    0.0031    0.0270   -0.0228    0.0045
          45    0.1448   -0.0050    0.0900    0.0123   -0.0951   -0.3354    0.4159   -0.1183
          46    0.3034   -0.0308   -0.0606   -0.0099    0.0386   -0.1536    0.1937   -0.0922
          47   -0.0016    0.0070   -0.0109   -0.0058    0.0288    0.0412   -0.0341    0.0997
          48   -0.0054   -0.0069    0.0943    0.0162   -0.0699    0.1814   -0.2623   -0.0729
          49    0.1439   -0.0353    0.0184    0.0045    0.0004   -0.0039   -0.0690   -0.1322
          50   -0.0037   -0.0072   -0.0025   -0.0027    0.0006    0.0603   -0.0618    0.0149
          51   -0.0967   -0.0018    0.0533    0.0097   -0.0269    0.0025   -0.0482   -0.0789
          52    0.1609   -0.0420    0.0233    0.0053   -0.0053    0.0138   -0.0898   -0.1363
          53   -0.0407    0.0841    0.0194   -0.0081   -0.0075   -0.0946    0.0871   -0.0436
          54   -0.4332    0.0111   -0.0150    0.0010    0.0423   -0.0186   -0.1297   -0.2520
          55    0.4700   -0.0379    0.0953    0.0135   -0.0718    0.0226   -0.0280   -0.0302
          56    0.0573   -0.0539    0.0015    0.0010   -0.0161   -0.0155   -0.0057   -0.0114
          57    0.0592   -0.0034    0.0895    0.0138   -0.0594    0.0152   -0.0294   -0.0311
          58    0.0218    0.4885    0.0820   -0.0421   -0.0007    0.0011   -0.0094   -0.0099
          59    0.0044   -0.2101   -0.0780    0.0385   -0.0138   -0.0267    0.0196   -0.0054
          60    0.0033   -0.4056   -0.1038   -0.0036   -0.0131   -0.0046    0.0071    0.0094
          61   -0.0057   -0.0220    0.0537   -0.5119   -0.0163    0.0011    0.0009    0.0001
          62    0.0029    0.0471    0.0083    0.0377    0.0048   -0.0195    0.0158   -0.0082
          63    0.0061   -0.0189    0.0095   -0.1460   -0.0182   -0.0059    0.0047   -0.0017
          64   -0.0013   -0.0666   -0.0169    0.0386   -0.0015    0.0006   -0.0004   -0.0006
          65    0.0019    0.1858    0.0490    0.0381    0.0085   -0.0088    0.0084   -0.0054
          66    0.0066    0.0727    0.0161    0.0360   -0.0110    0.0031   -0.0023    0.0007
          67   -0.0040   -0.0001   -0.0705    0.7204    0.0111    0.0113   -0.0099    0.0054
          68    0.0027    0.1022    0.0215    0.0644    0.0065   -0.0162    0.0133   -0.0073
          69    0.0090   -0.0674   -0.0464    0.3120   -0.0032   -0.0265    0.0211   -0.0105
          70    0.0180    0.2475    0.0755   -0.0428    0.0152    0.0113   -0.0107   -0.0021
          71   -0.0039   -0.1385    0.0017   -0.1173   -0.0046    0.0130   -0.0083    0.0092
          72   -0.0033    0.0015    0.0128   -0.1630   -0.0126    0.0138   -0.0118    0.0013
          73    0.0066   -0.2207   -0.0384   -0.1767   -0.0069   -0.0080    0.0044   -0.0127
          74    0.0023   -0.2502   -0.0712    0.0082   -0.0104   -0.0216    0.0152   -0.0083
          75    0.0089    0.4483    0.1207   -0.0125    0.0101    0.0246   -0.0192    0.0102


   Root No.      25        26        27        28        29        30        31        32

                25 A      26 A      27 A      28 A      29 A      30 A      31 A      32 A   

                   0.9       1.0       1.0       1.1       1.1       1.2       1.3       1.4
  
           1   -0.0558   -0.0515   -0.0583    0.0837   -0.0893   -0.0489    0.0282   -0.0798
           2   -0.0367   -0.0920   -0.1610   -0.0214    0.0249    0.0423   -0.0269   -0.1614
           3   -0.0047    0.0037    0.0000   -0.0065    0.0385    0.0238    0.2804   -0.1600
           4   -0.0351   -0.0444   -0.0240    0.0690   -0.0789   -0.0656    0.0231   -0.0959
           5    0.0502   -0.0266   -0.0781   -0.0609    0.0800    0.0958   -0.0399    0.0278
           6    0.0061   -0.0575    0.0294   -0.0329    0.1034    0.0575    0.4764   -0.0763
           7    0.0247   -0.0952    0.0259    0.0200   -0.0226    0.0163   -0.0372   -0.1170
           8   -0.0041   -0.0083   -0.0588   -0.0060    0.0177    0.0309    0.0002    0.0629
           9    0.0193   -0.1121    0.0561   -0.0632    0.1076    0.0593    0.3427    0.1024
          10    0.0191   -0.0217    0.0229    0.0898   -0.0828    0.0274    0.0155    0.0879
          11   -0.0047    0.0090   -0.0862    0.0563   -0.0406    0.0377    0.0357    0.1795
          12    0.0037   -0.0002    0.0091   -0.0054   -0.0034    0.0058   -0.0481    0.1460
          13    0.0412   -0.0063    0.0477    0.0998   -0.0979    0.0023    0.0251    0.0978
          14   -0.0855   -0.0278   -0.1653    0.0185   -0.0138    0.0053    0.0237   -0.0088
          15   -0.0129    0.1130   -0.0491    0.0454   -0.1072   -0.0603   -0.4472    0.0598
          16   -0.0576   -0.0034    0.0021    0.1644   -0.1680   -0.0637    0.0779    0.1308
          17   -0.0465   -0.0435   -0.1017    0.0060   -0.0009    0.0291   -0.0025   -0.0504
          18   -0.0112    0.0618   -0.0280    0.0224   -0.0391   -0.0226   -0.0753   -0.1225
          19    0.5516    0.0494   -0.4518   -0.0735    0.0856    0.0911   -0.0053   -0.1027
          20   -0.4019   -0.1706    0.0309    0.0773   -0.0837   -0.0327   -0.0103   -0.2197
          21   -0.0013    0.0024    0.0002    0.0019   -0.0321   -0.0168   -0.1992    0.1019
          22   -0.2652    0.2607    0.4673   -0.1641    0.1863   -0.0134   -0.0419   -0.1399
          23   -0.0758    0.1461    0.1858   -0.2188    0.2638    0.1606   -0.0954    0.0304
          24   -0.0073    0.0584   -0.0315    0.0470   -0.0573   -0.0450   -0.3082    0.0445
          25   -0.1278    0.0924   -0.3476   -0.2927    0.3038    0.0848   -0.0586    0.1059
          26    0.0796   -0.0607    0.1084    0.3026   -0.2855    0.0169    0.0899    0.2470
          27   -0.0050    0.0076   -0.0069    0.0091    0.0012   -0.0008    0.0459   -0.0884
          28    0.0357    0.0526    0.1231    0.0239   -0.0231   -0.0227    0.0099    0.0864
          29   -0.0832    0.0034   -0.1436   -0.0347    0.0404    0.0014    0.0153   -0.0249
          30    0.0057   -0.0506    0.0216   -0.0188    0.0441    0.0221    0.1637   -0.0156
          31   -0.0599   -0.0034    0.0030    0.2080   -0.2141   -0.0832    0.1011    0.1753
          32    0.5931    0.2650    0.4227   -0.0421    0.0108   -0.1544    0.0085   -0.1005
          33    0.0085   -0.0497    0.0201   -0.0167    0.0299    0.0168    0.0575    0.0767
          34    0.0119   -0.1145    0.0503   -0.0074    0.0059    0.0324   -0.0563   -0.1342
          35   -0.0026   -0.0184   -0.0358   -0.0983    0.0037   -0.3355    0.0207   -0.0072
          36    0.0045   -0.0573    0.0280   -0.0432    0.0349    0.0027   -0.0286    0.1127
          37   -0.0165   -0.0010    0.0178   -0.0059   -0.0050    0.0176   -0.1056   -0.1081
          38    0.0038    0.0072   -0.0046   -0.0485    0.0008   -0.2589    0.0151    0.0087
          39   -0.0075    0.0228   -0.0035   -0.0114    0.0040   -0.0108   -0.0469    0.0527
          40   -0.0313    0.0645    0.0235    0.0441   -0.0030    0.2139   -0.1067   -0.1221
          41   -0.0396    0.2490    0.0077    0.1565    0.0102    0.4498    0.0653    0.0979
          42    0.1307   -0.2261    0.0512    0.1583   -0.1000    0.1558   -0.0616   -0.2806
          43   -0.0660    0.3149   -0.0107    0.0725    0.0442    0.1954    0.1790    0.2146
          44   -0.0277    0.1198   -0.0752   -0.0248   -0.0360   -0.3234    0.0802   -0.0827
          45   -0.0850    0.2804   -0.1796    0.0595   -0.0943   -0.0602    0.0647   -0.1954
          46   -0.0094   -0.1559   -0.0143   -0.2213    0.0975   -0.4007    0.0994    0.2390
          47    0.0811   -0.3134    0.1345   -0.0198    0.0437    0.1815   -0.1708    0.0322
          48   -0.0804    0.4024   -0.1038    0.0902   -0.0949   -0.1701   -0.0281   -0.1826
          49    0.0159   -0.1273    0.0544   -0.0155    0.0207    0.0264   -0.0175   -0.1848
          50    0.0020   -0.0198   -0.0024   -0.0470   -0.0153   -0.1123   -0.0013   -0.0275
          51    0.0052   -0.0790    0.0382   -0.0606    0.0424    0.0022   -0.0631    0.1669
          52    0.0147   -0.1312    0.0554   -0.0270    0.0200    0.0004   -0.0266   -0.1813
          53    0.0023   -0.0247    0.0049    0.0154    0.0084    0.0711    0.0017   -0.0217
          54    0.0301   -0.2583    0.1094   -0.0833    0.0763    0.0286   -0.0422   -0.0774
          55    0.0003   -0.0606    0.0350   -0.0562    0.0347   -0.0024   -0.1081    0.1203
          56    0.0004    0.0018    0.0129    0.0197    0.0195    0.0414   -0.0108    0.0268
          57   -0.0012   -0.0514    0.0326   -0.0775    0.0544   -0.0035   -0.1045    0.3370
          58    0.0045    0.0023   -0.0085   -0.2254   -0.2424    0.0678    0.0277   -0.0029
          59   -0.0024    0.0108    0.0052   -0.2001   -0.2161    0.0811    0.0161    0.0009
          60   -0.0057    0.0168    0.0109   -0.1805   -0.1886    0.0685    0.0145   -0.0027
          61   -0.0004   -0.0009   -0.0000    0.0346    0.0372   -0.0099   -0.0055    0.0003
          62    0.0024   -0.0094   -0.0040    0.1536    0.1548   -0.0389   -0.0173   -0.0002
          63    0.0005   -0.0020    0.0013   -0.0156   -0.0154    0.0084    0.0063    0.0001
          64   -0.0007   -0.0003   -0.0004   -0.0063   -0.0065    0.0024    0.0009    0.0005
          65    0.0027   -0.0116   -0.0045    0.2064    0.2115   -0.0580   -0.0206   -0.0017
          66    0.0005   -0.0026    0.0009   -0.0009    0.0008    0.0006    0.0063   -0.0009
          67   -0.0021    0.0040    0.0021   -0.1077   -0.1098    0.0283    0.0167    0.0000
          68    0.0023   -0.0089   -0.0034    0.1256    0.1249   -0.0275   -0.0121    0.0001
          69    0.0050   -0.0178   -0.0052    0.2748    0.2799   -0.0718   -0.0232   -0.0028
          70    0.0024   -0.0075   -0.0050    0.0530    0.0592   -0.0250   -0.0040    0.0045
          71   -0.0088    0.0230    0.0119   -0.2973   -0.3028    0.0876    0.0362   -0.0087
          72    0.0022   -0.0048   -0.0027    0.0268    0.0331   -0.0178   -0.0027    0.0030
          73    0.0058   -0.0158   -0.0097    0.2404    0.2480   -0.0709   -0.0311    0.0053
          74   -0.0003    0.0008   -0.0004   -0.0181   -0.0204    0.0093   -0.0007    0.0012
          75    0.0001    0.0002    0.0013   -0.1187   -0.1185    0.0278    0.0207    0.0014


   Root No.      33        34        35        36        37        38        39        40

                33 A      34 A      35 A      36 A      37 A      38 A      39 A      40 A   

                   1.4       1.5       1.8       2.1       2.1       2.3       2.8       2.9
  
           1   -0.1830    0.0109   -0.0103    0.0086    0.0789    0.1134   -0.0165    0.0206
           2   -0.1503    0.0330   -0.0312    0.0299    0.2346    0.0429    0.0036    0.0316
           3    0.0527   -0.3724   -0.0697   -0.0017   -0.0032    0.0031   -0.0213   -0.0153
           4   -0.1808    0.0134   -0.0137    0.0060    0.0589    0.1304    0.0464   -0.0246
           5    0.2249    0.0055   -0.0295    0.0061    0.0434    0.0330   -0.1918    0.1068
           6    0.0302   -0.0865    0.1448    0.0036    0.0391    0.0301   -0.1615   -0.3075
           7    0.0563    0.0345   -0.0518    0.0155    0.1158    0.0298   -0.1344    0.0314
           8    0.1149   -0.0084   -0.0023   -0.0071   -0.0486    0.0884   -0.0071   -0.0019
           9   -0.0333    0.3171    0.1887    0.0004    0.0156    0.0076    0.0967    0.1891
          10    0.1783   -0.0075   -0.0212    0.0216    0.1593   -0.0019    0.0485   -0.0305
          11    0.1578   -0.0352    0.0207   -0.0077   -0.0634    0.0291    0.1950   -0.1045
          12   -0.0426    0.3922    0.2289    0.0038    0.0527    0.0363   -0.0219    0.0638
          13    0.1736   -0.0111   -0.0228    0.0214    0.1595    0.0319    0.0020    0.0204
          14   -0.2099   -0.0113    0.0487   -0.0236   -0.1879   -0.1945   -0.0216   -0.0153
          15   -0.0221    0.0630   -0.0497    0.0013   -0.0029   -0.0027   -0.0917   -0.2329
          16   -0.0460   -0.0353    0.0375   -0.0215   -0.1692   -0.0859   -0.1553    0.0878
          17   -0.1017    0.0075    0.0055    0.0068    0.0483   -0.0968   -0.0059    0.0009
          18    0.0394   -0.3804   -0.2257   -0.0051   -0.0496   -0.0332    0.1751    0.3237
          19   -0.2230    0.0104   -0.0010    0.0258    0.1949   -0.0243    0.0060    0.0460
          20   -0.2160    0.0472   -0.0572    0.0449    0.3701    0.2100   -0.0368    0.1003
          21   -0.0353    0.2210    0.0344    0.0003    0.0021   -0.0014    0.0069    0.0020
          22   -0.2357    0.0155    0.0150    0.0021    0.0394   -0.0599    0.2352   -0.1435
          23    0.3087    0.0074   -0.0252    0.0058    0.0395   -0.1004   -0.3863    0.2370
          24   -0.0169    0.0460   -0.0613    0.0009   -0.0147   -0.0091    0.0532    0.0997
          25    0.2340   -0.0169    0.0131   -0.0067   -0.0486    0.0996    0.2361   -0.1452
          26    0.2188   -0.0486    0.0043    0.0113    0.0723   -0.0034    0.3952   -0.2347
          27    0.0257   -0.2278   -0.0964   -0.0015   -0.0196   -0.0117    0.0037   -0.0206
          28    0.1814   -0.0089   -0.0256    0.0148    0.1264    0.1735   -0.0197    0.0610
          29   -0.2617   -0.0095    0.0698   -0.0462   -0.3611   -0.2570    0.0620   -0.1207
          30    0.0055   -0.0177    0.0142   -0.0004    0.0007    0.0015    0.0177    0.0421
          31   -0.0641   -0.0474    0.0542   -0.0352   -0.2791   -0.1478   -0.3794    0.2341
          32   -0.1714    0.0088   -0.0007   -0.0089   -0.0479    0.0851   -0.0011   -0.0009
          33   -0.0258    0.2225    0.1176    0.0019    0.0227    0.0142   -0.0600   -0.1073
          34    0.0717    0.0410   -0.0463    0.0025    0.0082   -0.0492   -0.0754   -0.0325
          35    0.0415    0.0089   -0.0081   -0.0332   -0.2648    0.5017   -0.0308    0.0180
          36   -0.0637   -0.0444   -0.0465    0.0018   -0.0045    0.0098    0.0708    0.1213
          37    0.0535   -0.1242    0.3357   -0.0094   -0.0320    0.0151   -0.0525   -0.0993
          38    0.0711   -0.0059    0.0330    0.0200    0.1480   -0.2245   -0.0046   -0.0199
          39   -0.0298   -0.0909    0.1476    0.0002    0.0035   -0.0121    0.1705    0.2278
          40    0.0169   -0.1272    0.4167   -0.0242   -0.1284    0.1384   -0.0914   -0.1845
          41   -0.1314    0.0644   -0.1918   -0.0050   -0.0623    0.1151    0.0305    0.0651
          42    0.1345    0.1212   -0.1270    0.0008    0.0207   -0.0396   -0.0870   -0.0971
          43   -0.1301    0.1096   -0.2716    0.0101    0.0485   -0.0526    0.0321    0.0498
          44    0.1262    0.1028   -0.1081    0.0201    0.1445   -0.2250   -0.1621   -0.2436
          45    0.0680    0.1283   -0.0913   -0.0249   -0.1781    0.2765   -0.0181    0.0037
          46   -0.0600   -0.0162   -0.0400    0.0118    0.0610   -0.0770    0.1227    0.1689
          47   -0.0447   -0.1871    0.3139   -0.0021   -0.0173   -0.0050    0.1449    0.1812
          48    0.1558   -0.0450    0.2957    0.0107    0.1309   -0.2448    0.1046    0.1034
          49    0.1091    0.1431   -0.1072   -0.0210   -0.1505   -0.1205    0.1303    0.0863
          50    0.0323    0.0190   -0.0156   -0.0020   -0.1702    0.2918   -0.0082    0.0266
          51   -0.0970   -0.1141   -0.0563    0.0101    0.0695    0.0389   -0.0794   -0.0154
          52    0.1097    0.1374   -0.1263   -0.0220   -0.1932   -0.0857    0.1468    0.0900
          53    0.0126    0.0195   -0.0139    0.0029    0.0319   -0.1243    0.0260    0.0054
          54    0.0534    0.1187   -0.2839   -0.0243   -0.2241   -0.1405    0.0419   -0.1900
          55   -0.0704   -0.1218   -0.1306   -0.0031   -0.0456   -0.0310   -0.0805   -0.2363
          56   -0.0166   -0.0225   -0.0082    0.0054    0.0699   -0.1309   -0.0040   -0.0328
          57   -0.1979   -0.2518   -0.0696    0.0211    0.1362    0.0807   -0.2013   -0.1948
          58    0.0072    0.0062   -0.0032    0.2465   -0.0245   -0.0182    0.0028    0.0144
          59   -0.0038    0.0015   -0.0040   -0.1270    0.0255   -0.0173   -0.0013   -0.0239
          60   -0.0056    0.0000    0.0036    0.2367   -0.0192   -0.0155    0.0013    0.0103
          61    0.0003    0.0005    0.0016    0.1232   -0.0167    0.0025   -0.0009   -0.0029
          62    0.0002    0.0002   -0.0005   -0.0785    0.0100   -0.0003    0.0007    0.0078
          63    0.0008    0.0015   -0.0040   -0.3405    0.0457   -0.0061    0.0025    0.0140
          64   -0.0008   -0.0005    0.0000   -0.0250    0.0034    0.0004    0.0003    0.0003
          65   -0.0002   -0.0021    0.0079    0.4868   -0.0653    0.0084   -0.0019   -0.0106
          66    0.0003   -0.0003    0.0014    0.0330   -0.0042    0.0001    0.0005    0.0005
          67   -0.0016   -0.0004   -0.0010   -0.1115    0.0148   -0.0000    0.0002   -0.0017
          68   -0.0005   -0.0001   -0.0025   -0.3662    0.0507   -0.0075    0.0043    0.0260
          69    0.0001   -0.0017    0.0078    0.3598   -0.0469    0.0043    0.0006    0.0008
          70    0.0019   -0.0020   -0.0018   -0.1503    0.0128    0.0109   -0.0022   -0.0111
          71   -0.0008    0.0032    0.0016    0.2832   -0.0271   -0.0165    0.0028    0.0106
          72    0.0027    0.0010   -0.0020   -0.1100    0.0082    0.0084   -0.0015   -0.0066
          73    0.0017   -0.0029    0.0007   -0.0800    0.0062    0.0080   -0.0014    0.0009
          74    0.0000    0.0017   -0.0065   -0.2155    0.0274   -0.0022   -0.0014   -0.0084
          75    0.0011    0.0003   -0.0011   -0.1780    0.0193    0.0054   -0.0022   -0.0147


   Root No.      41        42        43        44        45        46        47        48

                41 A      42 A      43 A      44 A      45 A      46 A      47 A      48 A   

                   3.1       3.1       3.3       3.6       3.9       4.2       4.9       5.5
  
           1    0.0106   -0.0122   -0.2544   -0.0253    0.1574   -0.0776   -0.0408    0.1336
           2   -0.0009   -0.0100    0.1395    0.0077   -0.0777    0.0756    0.0133   -0.0418
           3   -0.0733    0.1629    0.0143   -0.4852   -0.0588   -0.0926    0.4788    0.1333
           4    0.0053    0.0057   -0.2534   -0.0048    0.1277   -0.1476   -0.0608    0.1562
           5    0.0063   -0.0178   -0.1426   -0.0062    0.0801   -0.0925   -0.0389    0.0621
           6    0.1705   -0.3209    0.0135    0.0363    0.0128    0.0327   -0.4447   -0.1931
           7   -0.0032    0.0082    0.0022    0.0244   -0.0268   -0.3322   -0.1160    0.1965
           8    0.0092   -0.0065   -0.2999   -0.0267    0.1510   -0.0241    0.0022   -0.0245
           9   -0.0417    0.0516   -0.0167    0.4999    0.0546    0.0560    0.3647    0.3053
          10   -0.0064    0.0054    0.2599    0.0221   -0.1535   -0.1004   -0.0630    0.1741
          11    0.0005    0.0155   -0.1517   -0.0120    0.0955    0.0627    0.0351   -0.0820
          12   -0.2014    0.4262    0.0068   -0.3960   -0.0258   -0.0255   -0.2779   -0.1537
          13   -0.0044   -0.0028    0.2511    0.0245   -0.1618   -0.0304   -0.0503    0.1599
          14   -0.0079    0.0116    0.1471    0.0191   -0.0913    0.0049    0.0093   -0.0512
          15    0.2038   -0.4011    0.0020    0.0210   -0.0121   -0.0207    0.2153    0.0691
          16    0.0040   -0.0148   -0.0061   -0.0057    0.0036    0.0232   -0.0057    0.0454
          17   -0.0076    0.0018    0.2934    0.0182   -0.1865    0.0436    0.0024   -0.0372
          18   -0.1361    0.2420   -0.0166    0.3705    0.0472    0.0665   -0.3343   -0.0857
          19    0.0019   -0.0187    0.1516   -0.0078   -0.0359    0.1909    0.0548   -0.0983
          20    0.0141   -0.0408   -0.1065   -0.0347    0.1095    0.2175    0.0657   -0.0917
          21    0.0287   -0.0613   -0.0054    0.1407    0.0146    0.0235   -0.0913   -0.0200
          22   -0.0111    0.0265    0.1572    0.0185   -0.0887    0.0260    0.0181   -0.0817
          23    0.0079   -0.0403    0.0951   -0.0076   -0.0206    0.0284   -0.0136    0.0918
          24   -0.0535    0.1097   -0.0058   -0.0032   -0.0038   -0.0047    0.0773    0.0346
          25   -0.0005    0.0247   -0.1641   -0.0091    0.0935   -0.0073    0.0212   -0.0644
          26   -0.0086    0.0379    0.0857    0.0198   -0.0206   -0.0183    0.0209   -0.0534
          27    0.0587   -0.1248   -0.0004    0.1117    0.0089    0.0083    0.0442    0.0281
          28    0.0110   -0.0265   -0.0918   -0.0223    0.0401    0.1911    0.0624   -0.1406
          29   -0.0150    0.0473   -0.0252    0.0228    0.0289   -0.3088   -0.0926    0.2134
          30   -0.0337    0.0646    0.0001    0.0019    0.0025    0.0026   -0.0165   -0.0033
          31    0.0124   -0.0468   -0.0300   -0.0233    0.0373    0.2086    0.0814   -0.2073
          32    0.0050   -0.0026   -0.1786   -0.0137    0.0898   -0.0162   -0.0007    0.0048
          33    0.0432   -0.0756    0.0044   -0.0953   -0.0116   -0.0131    0.0545    0.0114
          34   -0.0100    0.0292   -0.0078    0.0288   -0.0118   -0.3049   -0.0534    0.0042
          35    0.0149    0.0107    0.0140    0.0390   -0.5179    0.0540   -0.0363    0.0662
          36    0.0323   -0.0814    0.0057    0.0093   -0.0340   -0.1471    0.1166   -0.2692
          37   -0.0343    0.0845   -0.0057    0.0575   -0.0007    0.0106   -0.0144    0.0356
          38   -0.0082    0.0128   -0.0086    0.0035    0.0405   -0.0029   -0.0015    0.0104
          39    0.0739   -0.1801    0.0075   -0.1250   -0.0025    0.0139    0.0087   -0.0953
          40   -0.0759    0.1797    0.0015    0.2117   -0.0134    0.1079    0.1880   -0.1837
          41    0.0277   -0.0565    0.0096   -0.0577   -0.0151   -0.0214   -0.0454    0.0454
          42   -0.0271    0.0655   -0.0123    0.0286    0.0035   -0.0500   -0.0090    0.0098
          43    0.0155   -0.0398    0.0062   -0.0266    0.0242   -0.0189    0.0007   -0.0071
          44   -0.0817    0.1953   -0.0256    0.1786    0.0760   -0.0407    0.1516   -0.2154
          45    0.0081   -0.0133    0.0172   -0.0350   -0.0933    0.0227   -0.0702    0.1162
          46    0.0534   -0.1282    0.0043   -0.0999    0.0129    0.0127   -0.0523    0.0810
          47    0.0613   -0.1413    0.0028   -0.1206    0.0192    0.0531   -0.0797    0.1322
          48    0.0346   -0.0978   -0.0068   -0.1160    0.0879    0.0820   -0.1027    0.1847
          49    0.0315   -0.0885   -0.0490   -0.0392   -0.0747   -0.0447    0.0582   -0.1840
          50    0.0011   -0.0107    0.5198   -0.0347    0.6162   -0.1064    0.0230   -0.0395
          51   -0.0134    0.0195   -0.0042    0.0503   -0.0459   -0.2689    0.0524   -0.2099
          52    0.0423   -0.0995    0.0134   -0.0631   -0.0279   -0.0679    0.0741   -0.2904
          53    0.0094   -0.0092   -0.1787    0.0029   -0.1821    0.0220    0.0048   -0.0301
          54   -0.0186    0.0619    0.0066   -0.0954    0.0812    0.4119   -0.0548    0.1658
          55   -0.0410    0.1153    0.0220   -0.0584    0.1006    0.3599   -0.1016    0.2709
          56   -0.0009    0.0198   -0.1626    0.0054   -0.1772    0.0670   -0.0174    0.0362
          57   -0.0506    0.1449   -0.0016    0.0739   -0.0180   -0.1001   -0.0048   -0.0274
          58    0.2281    0.1055   -0.0099    0.0001   -0.0045    0.0025   -0.0004    0.0010
          59   -0.4309   -0.2046   -0.0105   -0.0054    0.0231   -0.0063    0.0010   -0.0057
          60    0.2010    0.0973   -0.0115    0.0037   -0.0138    0.0034    0.0002    0.0014
          61   -0.0570   -0.0254   -0.0021   -0.0012   -0.0005   -0.0005    0.0008   -0.0008
          62    0.1175    0.0547    0.0004    0.0005   -0.0083    0.0016   -0.0003    0.0042
          63    0.2032    0.0971    0.0045    0.0025   -0.0002    0.0007   -0.0022    0.0021
          64    0.0111    0.0051   -0.0009   -0.0002   -0.0014    0.0003   -0.0003    0.0006
          65   -0.1842   -0.0857   -0.0069   -0.0013   -0.0073    0.0011   -0.0008    0.0016
          66   -0.0134   -0.0035   -0.0009    0.0019    0.0007    0.0003   -0.0017   -0.0016
          67   -0.0133   -0.0070   -0.0021   -0.0008   -0.0043    0.0005   -0.0008    0.0012
          68    0.4852    0.2289    0.0180    0.0037    0.0253   -0.0043    0.0045   -0.0081
          69    0.0054    0.0063    0.0012    0.0014    0.0048   -0.0004   -0.0002   -0.0027
          70   -0.1869   -0.0899    0.0010   -0.0005   -0.0025   -0.0000   -0.0010   -0.0008
          71    0.2019    0.0945   -0.0085    0.0019   -0.0087    0.0026   -0.0005   -0.0001
          72   -0.1515   -0.0702   -0.0000   -0.0009   -0.0047    0.0000   -0.0004   -0.0006
          73    0.0170    0.0104    0.0071    0.0004    0.0110   -0.0016    0.0010   -0.0010
          74   -0.2159   -0.1050   -0.0195   -0.0024   -0.0418    0.0078   -0.0062    0.0124
          75   -0.2491   -0.1192   -0.0014   -0.0015    0.0055   -0.0012   -0.0019    0.0008


   Root No.      49        50        51        52        53        54        55        56

                49 A      50 A      51 A      52 A      53 A      54 A      55 A      56 A   

                   6.0       7.0       7.0       7.7       8.0       8.5       8.7       8.7
  
           1    0.0121   -0.2304    0.0060    0.2185    0.0036    0.1068   -0.0043    0.0138
           2   -0.1839    0.0995    0.0043    0.0017   -0.0042    0.3310   -0.0049    0.0274
           3   -0.0115    0.0124    0.0001   -0.0004    0.0001   -0.0000   -0.0007    0.0001
           4   -0.1024   -0.1752    0.0076    0.1786    0.0009    0.1722   -0.0040    0.0172
           5   -0.1909    0.0611    0.0012   -0.2883   -0.0061    0.0833    0.0014    0.0170
           6    0.0201   -0.0348    0.0008   -0.0008   -0.0001    0.0043   -0.0002    0.0019
           7   -0.0497    0.1544   -0.0003   -0.0193   -0.0036    0.2374   -0.0012    0.0135
           8   -0.2873   -0.0265    0.0053   -0.2335   -0.0043   -0.0742   -0.0006    0.0017
           9   -0.0349    0.0959   -0.0012    0.0127    0.0005   -0.0285   -0.0034   -0.0093
          10    0.0567   -0.1853   -0.0055   -0.1858   -0.0010   -0.0504    0.0014   -0.0031
          11   -0.1591   -0.1054    0.0059   -0.2328   -0.0027   -0.2720    0.0009   -0.0007
          12    0.0139   -0.0270    0.0005    0.0003   -0.0002    0.0078   -0.0004    0.0005
          13    0.0098   -0.2484   -0.0059   -0.2849   -0.0020   -0.0872    0.0016   -0.0033
          14   -0.3197   -0.0704    0.0119    0.4036    0.0064   -0.1197    0.0001   -0.0107
          15   -0.0043    0.0053    0.0001   -0.0019   -0.0001   -0.0005   -0.0000    0.0004
          16   -0.0380   -0.2560    0.0030    0.1800    0.0073   -0.3123    0.0024   -0.0226
          17   -0.3048   -0.0007    0.0059    0.0511   -0.0012    0.0904   -0.0025    0.0049
          18    0.0066   -0.0074    0.0002    0.0003    0.0001   -0.0005   -0.0005    0.0001
          19    0.1961    0.0477   -0.0056   -0.0605    0.0012   -0.1542    0.0024   -0.0145
          20    0.3814    0.0369   -0.0094   -0.1039    0.0020   -0.2505    0.0048   -0.0220
          21    0.0015   -0.0010    0.0003    0.0005    0.0002   -0.0003   -0.0009    0.0001
          22   -0.1342    0.1379    0.0009   -0.1826   -0.0048    0.0050   -0.0001    0.0027
          23    0.3022   -0.1625   -0.0035    0.3307    0.0069    0.0117    0.0009   -0.0073
          24   -0.0043    0.0067    0.0014   -0.0004   -0.0010   -0.0007    0.0005   -0.0007
          25    0.1385    0.1639   -0.0006    0.1415    0.0007    0.1167   -0.0015    0.0021
          26    0.2813    0.2187   -0.0030    0.2938    0.0029    0.1957   -0.0007    0.0028
          27   -0.0031    0.0041   -0.0002   -0.0015   -0.0001   -0.0026    0.0001   -0.0006
          28   -0.1973    0.0375    0.0069    0.1423    0.0014   -0.0252   -0.0012   -0.0009
          29    0.3783   -0.0530   -0.0113   -0.2525   -0.0026    0.0129    0.0019    0.0006
          30   -0.0000    0.0007    0.0001    0.0002   -0.0002   -0.0000   -0.0002   -0.0000
          31    0.0936    0.3950   -0.0049   -0.1980   -0.0070    0.2645   -0.0021    0.0171
          32    0.0455   -0.0011    0.0003    0.0295    0.0004    0.0026   -0.0001    0.0002
          33   -0.0009    0.0006    0.0003    0.0003   -0.0000    0.0002   -0.0008    0.0001
          34   -0.0494    0.2905    0.0024    0.0597   -0.0005   -0.0915   -0.0002   -0.0083
          35    0.0778    0.0173   -0.0286    0.0020    0.0057    0.0214   -0.0050   -0.0788
          36    0.0423   -0.1673    0.0060   -0.0267   -0.0022    0.0487    0.0010    0.0145
          37   -0.0215    0.2002    0.0003    0.0637    0.0024   -0.2623   -0.0595   -0.1254
          38    0.0015    0.0379   -0.0087    0.0201    0.0117   -0.0805    0.3804    0.6866
          39    0.0339   -0.2873    0.0036   -0.0848   -0.0052    0.3677   -0.0042    0.0206
          40    0.0582   -0.2659    0.0039   -0.0586   -0.0005    0.1788    0.0866    0.1829
          41   -0.0122    0.0564    0.0013    0.0118   -0.0010   -0.0352   -0.0430   -0.0787
          42   -0.0097    0.0481    0.0007    0.0107    0.0006   -0.0296    0.0002    0.0016
          43   -0.0006   -0.0111    0.0009   -0.0019   -0.0001    0.0108    0.0126    0.0257
          44    0.0244   -0.1801    0.0120   -0.0444   -0.0098    0.1370   -0.2243   -0.3922
          45   -0.0100    0.1079   -0.0076    0.0257    0.0045   -0.0783    0.0811    0.1328
          46   -0.0153    0.0443   -0.0006    0.0055   -0.0013   -0.0161   -0.0488   -0.0930
          47   -0.0247    0.0793    0.0013    0.0115   -0.0024   -0.0390   -0.0914   -0.1677
          48   -0.0390    0.1272   -0.0009    0.0223   -0.0012   -0.0782   -0.0805   -0.1558
          49    0.0248   -0.0332   -0.0063    0.0011    0.0027   -0.0470    0.0145    0.0025
          50   -0.0199    0.0023    0.0271    0.0015   -0.0074   -0.0140   -0.0197    0.0146
          51    0.0080    0.0663   -0.0081    0.0237    0.0045   -0.1148    0.0210   -0.0042
          52    0.0369   -0.0452    0.0079    0.0250   -0.0007   -0.1551   -0.0081    0.0004
          53    0.0041   -0.0084   -0.0074   -0.0010    0.0023   -0.0163    0.0061   -0.0039
          54    0.0010   -0.0586   -0.0020   -0.0175    0.0001    0.0509   -0.0010    0.0001
          55   -0.0171   -0.0202   -0.0056   -0.0238    0.0003    0.1093    0.0026   -0.0029
          56    0.0056   -0.0015   -0.0071   -0.0022    0.0023    0.0132    0.0090    0.0051
          57   -0.0099    0.1085    0.0072    0.0376   -0.0008   -0.1461   -0.0113   -0.0032
          58    0.0007    0.0005    0.0679    0.0001   -0.0270   -0.0037   -0.0532    0.0310
          59   -0.0153   -0.0055   -0.3659    0.0007    0.1726    0.0173    0.2845   -0.1653
          60    0.0011    0.0001    0.0203   -0.0007   -0.0011   -0.0005   -0.0281    0.0160
          61   -0.0021   -0.0019   -0.1608    0.0047   -0.1488   -0.0023   -0.0328    0.0178
          62    0.0076    0.0029    0.2107    0.0020   -0.2501   -0.0136   -0.2415    0.1406
          63    0.0062    0.0044    0.4413   -0.0131    0.4496    0.0085    0.1186   -0.0659
          64    0.0011    0.0008    0.0954   -0.0036    0.1370    0.0036    0.0522   -0.0301
          65    0.0029    0.0019    0.2190   -0.0078    0.3059    0.0079    0.1184   -0.0677
          66   -0.0031   -0.0026   -0.2876    0.0105   -0.4120   -0.0104   -0.1588    0.0902
          67    0.0019    0.0009    0.0679   -0.0009   -0.0029   -0.0011   -0.0232    0.0132
          68   -0.0130   -0.0047   -0.4274    0.0031    0.0416    0.0071    0.1322   -0.0784
          69   -0.0043   -0.0018   -0.1608    0.0013    0.0071    0.0023    0.0429   -0.0255
          70   -0.0007    0.0010   -0.1860   -0.0012    0.2837   -0.0090   -0.3095    0.1624
          71   -0.0001    0.0000    0.0031   -0.0003   -0.0005    0.0002    0.0096   -0.0055
          72   -0.0001    0.0010   -0.1821   -0.0010    0.2838   -0.0092   -0.3119    0.1640
          73   -0.0019   -0.0019    0.1112    0.0003   -0.2407    0.0124    0.3733   -0.1984
          74    0.0181    0.0056    0.3631    0.0035   -0.2685   -0.0167   -0.3167    0.1773
          75    0.0007   -0.0016    0.1675    0.0025   -0.3269    0.0099    0.3375   -0.1777


   Root No.      57        58        59        60        61        62        63        64

                57 A      58 A      59 A      60 A      61 A      62 A      63 A      64 A   

                   9.1      10.0      11.2      12.6      13.9      14.1      15.1      16.2
  
           1   -0.0087    0.2210    0.0007   -0.1028    0.3316    0.0155   -0.0231   -0.4255
           2   -0.0139    0.3711    0.0017    0.0164   -0.1997   -0.1525    0.2846   -0.3342
           3    0.0016   -0.0009   -0.0000   -0.0006   -0.0056    0.0004   -0.0001    0.0004
           4   -0.0080    0.2214    0.0012    0.0758   -0.3049   -0.0342   -0.1494    0.4647
           5    0.0011   -0.2687   -0.0059   -0.4120   -0.2155   -0.2613   -0.0556   -0.1966
           6   -0.0070    0.0042    0.0003   -0.0044   -0.0082    0.0076    0.0016    0.0004
           7   -0.0009   -0.3090   -0.0040   -0.0376   -0.0982    0.1503   -0.1038    0.1356
           8    0.0016   -0.0304   -0.0004   -0.0381    0.4597    0.1334    0.0678    0.2593
           9    0.0386   -0.0009   -0.0002    0.0248    0.0227   -0.0367   -0.0056    0.0007
          10   -0.0002    0.0392    0.0006   -0.0079    0.2765    0.1450   -0.4485   -0.2924
          11    0.0042    0.1812    0.0003    0.4464   -0.2799    0.1231   -0.0752   -0.1556
          12   -0.0063   -0.0001    0.0001   -0.0071   -0.0072    0.0070    0.0011    0.0005
          13   -0.0012    0.1580    0.0022   -0.0210   -0.2310   -0.1348    0.1585    0.2635
          14    0.0073   -0.2710   -0.0023    0.0169   -0.2027    0.0381   -0.4184   -0.0577
          15    0.0009    0.0017   -0.0001   -0.0005   -0.0052    0.0004    0.0023    0.0010
          16    0.0109   -0.2644   -0.0020   -0.1382   -0.0245   -0.1538    0.5174   -0.1010
          17   -0.0046    0.0879    0.0011   -0.0278    0.4040    0.1035    0.1741    0.3349
          18   -0.0007   -0.0008    0.0000   -0.0011    0.0112    0.0029   -0.0013   -0.0019
          19    0.0065   -0.1233    0.0000    0.0238    0.0127    0.0272   -0.0164    0.0646
          20    0.0105   -0.2190   -0.0007    0.0161   -0.0068    0.0332   -0.0726    0.0897
          21    0.0006    0.0001    0.0001    0.0003    0.0005   -0.0008   -0.0002    0.0001
          22    0.0018   -0.0972   -0.0022   -0.0649   -0.0208   -0.0346    0.0174   -0.0573
          23   -0.0029    0.1739    0.0032    0.1356    0.0007    0.0554   -0.0106    0.0707
          24    0.0015   -0.0011   -0.0034    0.0007    0.0007   -0.0020   -0.0004   -0.0002
          25   -0.0011   -0.0488   -0.0004   -0.0661    0.0240   -0.0242    0.0599    0.0372
          26   -0.0036   -0.0887   -0.0002   -0.1300    0.0166   -0.0528    0.0652    0.0437
          27    0.0018    0.0006    0.0001    0.0021    0.0003   -0.0017   -0.0006   -0.0002
          28    0.0017   -0.0445   -0.0006    0.0241   -0.0222    0.0124   -0.0261   -0.0138
          29   -0.0017    0.0718    0.0006   -0.0204    0.0058   -0.0262    0.0606    0.0051
          30    0.0003    0.0000   -0.0000    0.0003    0.0001   -0.0004   -0.0003    0.0000
          31   -0.0073    0.1514    0.0009    0.0595    0.0055    0.0495   -0.1432    0.0289
          32   -0.0000   -0.0030   -0.0003   -0.0028    0.0096    0.0023   -0.0099   -0.0291
          33    0.0005    0.0002   -0.0001    0.0001   -0.0007   -0.0009   -0.0003    0.0001
          34   -0.0081   -0.1709   -0.0019    0.5380    0.0664    0.0408    0.2371   -0.1442
          35    0.0002   -0.0400    0.0138    0.0355   -0.0018    0.0122    0.0013   -0.0412
          36   -0.0072    0.0510    0.0011   -0.2990   -0.1846    0.5446    0.0854   -0.0337
          37    0.6409    0.2436    0.0022   -0.2227   -0.0449    0.0817   -0.0219    0.0110
          38    0.1019    0.0282   -0.0016   -0.0290    0.0003    0.0108   -0.0027    0.0053
          39    0.4832   -0.2732   -0.0049    0.3029    0.0947   -0.2341   -0.0090    0.0002
          40   -0.3600   -0.1061   -0.0031    0.0424    0.0060   -0.0108   -0.0003    0.0011
          41    0.0814    0.0236   -0.0000   -0.0121   -0.0018    0.0039   -0.0005   -0.0001
          42   -0.0314    0.0038   -0.0005    0.0148    0.0020    0.0019    0.0070   -0.0039
          43   -0.0323   -0.0091   -0.0004    0.0034   -0.0015    0.0054    0.0024   -0.0007
          44    0.0562   -0.0491   -0.0004    0.0239    0.0023   -0.0074    0.0001   -0.0006
          45   -0.0492    0.0285    0.0014   -0.0086    0.0006    0.0002    0.0005   -0.0011
          46   -0.1997    0.0004    0.0010   -0.0003   -0.0038    0.0137    0.0047   -0.0024
          47   -0.2344    0.0164    0.0004   -0.0107   -0.0038    0.0105    0.0017   -0.0008
          48   -0.2883    0.0372    0.0017   -0.0197   -0.0024    0.0001   -0.0029    0.0020
          49   -0.0337    0.0435    0.0080   -0.0322   -0.0284    0.1181    0.0512   -0.0175
          50   -0.0007    0.0080   -0.0096   -0.0005    0.0030    0.0015    0.0024    0.0000
          51   -0.0553    0.0578    0.0146    0.0083   -0.0191    0.0987    0.0775   -0.0324
          52   -0.0612    0.1832   -0.0093   -0.1064    0.0990   -0.4400   -0.1885    0.0804
          53   -0.0102    0.0208    0.0031   -0.0144    0.0135   -0.0457   -0.0200    0.0113
          54    0.0131   -0.0064    0.0002   -0.0331   -0.0053    0.0004   -0.0147    0.0079
          55    0.0600   -0.0883    0.0054    0.0340   -0.0421    0.1727    0.0718   -0.0317
          56    0.0071   -0.0110    0.0034    0.0041   -0.0054    0.0204    0.0086   -0.0046
          57   -0.0963    0.0986   -0.0113    0.0203    0.1059   -0.3894   -0.1403    0.0602
          58    0.0001   -0.0006   -0.0394   -0.0009    0.0001    0.0034    0.0014    0.0001
          59   -0.0002    0.0020    0.2500    0.0016    0.0016   -0.0130   -0.0059    0.0015
          60   -0.0000   -0.0009   -0.0150   -0.0002   -0.0005    0.0021    0.0007   -0.0001
          61    0.0000    0.0003   -0.0505    0.0003   -0.0001    0.0008    0.0003   -0.0001
          62    0.0008   -0.0085    0.6843   -0.0010    0.0014   -0.0044   -0.0012    0.0001
          63   -0.0005   -0.0000    0.1258   -0.0004    0.0003   -0.0016   -0.0007    0.0001
          64   -0.0001    0.0008   -0.0396    0.0000    0.0001    0.0000    0.0001   -0.0001
          65   -0.0004    0.0018   -0.1059    0.0000    0.0002    0.0005    0.0000    0.0000
          66    0.0006   -0.0024    0.1228   -0.0001    0.0001   -0.0004   -0.0001   -0.0000
          67    0.0002   -0.0008    0.0479   -0.0001    0.0002   -0.0002    0.0001   -0.0001
          68   -0.0006    0.0046   -0.3115    0.0002   -0.0002    0.0010   -0.0001   -0.0000
          69   -0.0002    0.0018   -0.1253    0.0001   -0.0002    0.0004   -0.0001    0.0000
          70    0.0007   -0.0039    0.0059    0.0010   -0.0003    0.0025    0.0011    0.0001
          71   -0.0001    0.0001    0.0120   -0.0003    0.0003   -0.0002   -0.0002    0.0000
          72    0.0003   -0.0036    0.0051    0.0011   -0.0002    0.0029    0.0011    0.0002
          73   -0.0003    0.0040    0.0776   -0.0012    0.0007   -0.0061   -0.0023   -0.0005
          74    0.0013   -0.0020   -0.5351    0.0020   -0.0013    0.0138    0.0063   -0.0009
          75   -0.0005    0.0050   -0.1126   -0.0011    0.0001   -0.0017   -0.0009   -0.0002


   Root No.      65        66        67        68        69

                65 A      66 A      67 A      68 A      69 A   

                  17.5      19.3      19.6      20.7      22.3
  
           1   -0.0862    0.0263    0.3406    0.3200   -0.0555
           2    0.1664   -0.0171   -0.3788   -0.0188    0.0107
           3   -0.0002   -0.0010    0.0006    0.0006   -0.0015
           4   -0.1747   -0.0040   -0.0818   -0.3928    0.0756
           5   -0.2905    0.0251    0.2482   -0.1961    0.0331
           6   -0.0022    0.0023   -0.0016   -0.0007   -0.0036
           7    0.6326   -0.0561    0.0880    0.2013   -0.0130
           8   -0.0020   -0.0081   -0.4805    0.1998   -0.0255
[...]
 FREQUENCY           951.43         C  6 -- H 11         +36.1% ( 66.7%)      0.0%
 TRANSITION DIPOLE   0.1619         C  2 -- H  8         +31.1% ( 61.9%)      0.0%
 TRAVEL (Ang.)       0.3199         C  2 -- C  3          +8.4% ( 32.2%)      0.0%
 REDUCED MASS        0.6924         C  5 -- C  6          +4.8% ( 24.3%)      0.1%
 EFFECTIVE MASS      3.8479
 FORCE CONSTANT      0.3693

 VIBRATION         36   36A           ATOM PAIR      ENERGY CONTRIBUTION    RADIAL
 FREQUENCY           984.73         C  2 -- C  3         +11.5% ( 61.0%)      5.1%
 TRANSITION DIPOLE   0.7915         C  3 -- C  4         +11.4% ( 60.8%)      7.0%
 TRAVEL (Ang.)       0.2187         C  4 -- C  5         +10.6% ( 58.5%)      0.3%
 REDUCED MASS        1.4319         C  1 -- C  2          +9.7% ( 56.0%)      1.2%
 EFFECTIVE MASS     13.0757
 FORCE CONSTANT      0.8181

 VIBRATION         37   37A           ATOM PAIR      ENERGY CONTRIBUTION    RADIAL
 FREQUENCY          1013.87         C 13 -- H 14         +29.0% ( 78.0%)     13.1%
 TRANSITION DIPOLE   1.2019         C 13 -- H 16         +19.3% ( 63.8%)     13.5%
 TRAVEL (Ang.)       0.3150         C 13 -- H 15         +13.2% ( 52.7%)      3.9%
 REDUCED MASS        0.6701         C 12 -- C 13          +8.3% ( 41.7%)      7.0%
 EFFECTIVE MASS      5.7143
 FORCE CONSTANT      0.4059

 VIBRATION         38   38A           ATOM PAIR      ENERGY CONTRIBUTION    RADIAL
 FREQUENCY          1027.10         C  1 -- H  7         +35.0% ( 65.3%)      0.0%
 TRANSITION DIPOLE   0.2622         C  2 -- H  8         +17.3% ( 45.9%)      0.0%
 TRAVEL (Ang.)       0.2558         C  1 -- C  2         +14.0% ( 41.3%)      0.0%
 REDUCED MASS        1.0030         C  1 -- C  6         +11.6% ( 37.5%)      0.0%
 EFFECTIVE MASS      4.9687         C  6 -- H 11         +11.3% ( 37.1%)      0.0%
 FORCE CONSTANT      0.6234

 VIBRATION         39   39A           ATOM PAIR      ENERGY CONTRIBUTION    RADIAL
 FREQUENCY          1059.35         C 13 -- H 15         +36.6% ( 76.0%)     15.9%
 TRANSITION DIPOLE   0.3922         C 13 -- H 16         +27.7% ( 66.1%)     10.3%
 TRAVEL (Ang.)       0.2873         C 13 -- H 14         +16.4% ( 51.0%)      1.4%
 REDUCED MASS        0.7709         C 12 -- C 13         +12.5% ( 44.4%)      0.1%
 EFFECTIVE MASS      3.8362
 FORCE CONSTANT      0.5097

 VIBRATION         40   40A           ATOM PAIR      ENERGY CONTRIBUTION    RADIAL
 FREQUENCY          1178.90         C  4 -- H  9         +20.1% ( 58.3%)      0.9%
 TRANSITION DIPOLE   0.5594         C  1 -- H  7         +13.8% ( 48.4%)      3.6%
 TRAVEL (Ang.)       0.4157         C  2 -- C  3         +11.3% ( 43.8%)     93.6%
 REDUCED MASS        0.3309         C  6 -- H 11          +9.8% ( 40.8%)      8.3%
 EFFECTIVE MASS      5.0558
 FORCE CONSTANT      0.2710

 VIBRATION         41   41A           ATOM PAIR      ENERGY CONTRIBUTION    RADIAL
 FREQUENCY          1197.18         C  6 -- H 11         +33.2% ( 68.2%)      4.1%
 TRANSITION DIPOLE   0.4270         C  2 -- H  8         +20.0% ( 53.0%)      2.1%
 TRAVEL (Ang.)       0.4138         C  1 -- H  7          +6.1% ( 29.2%)     20.2%
 REDUCED MASS        0.3290         C  1 -- C  2          +5.4% ( 27.4%)     66.7%
 EFFECTIVE MASS      3.5298
 FORCE CONSTANT      0.2778

 VIBRATION         42   42A           ATOM PAIR      ENERGY CONTRIBUTION    RADIAL
 FREQUENCY          1231.22         C  5 -- C  6         +10.5% ( 48.0%)     88.4%
 TRANSITION DIPOLE   1.1399         C  4 -- C  5          +9.1% ( 44.6%)     95.5%
 TRAVEL (Ang.)       0.2522         C  3 -- C  4          +9.0% ( 44.4%)     99.6%
 REDUCED MASS        0.8613         C 12 -- C 13          +8.3% ( 42.7%)     44.2%
 EFFECTIVE MASS      9.8599
 FORCE CONSTANT      0.7693

 VIBRATION         43   43A           ATOM PAIR      ENERGY CONTRIBUTION    RADIAL
 FREQUENCY          1232.46         C  2 -- H  8         +23.8% ( 58.6%)      1.5%
 TRANSITION DIPOLE   0.7257         C  6 -- H 11         +13.3% ( 43.8%)     10.2%
 TRAVEL (Ang.)       0.4662         C  1 -- H  7         +13.0% ( 43.3%)      6.3%
 REDUCED MASS        0.2517         C  1 -- C  6          +8.2% ( 34.5%)     99.3%
 EFFECTIVE MASS      4.0221
 FORCE CONSTANT      0.2253

 VIBRATION         44   44A           ATOM PAIR      ENERGY CONTRIBUTION    RADIAL
 FREQUENCY          1242.98         H 24 -- O 25         +56.5% ( 66.1%)      5.4%
 TRANSITION DIPOLE   0.9621         H 20 -- O 25         +28.1% ( 46.6%)     15.0%
 TRAVEL (Ang.)       0.2810         C  2 -- H  8          +4.5% ( 18.6%)      1.1%
 REDUCED MASS        0.6870         C  1 -- H  7          +2.4% ( 13.5%)      5.2%
 EFFECTIVE MASS      2.9280
 FORCE CONSTANT      0.6254

 VIBRATION         45   45A           ATOM PAIR      ENERGY CONTRIBUTION    RADIAL
 FREQUENCY          1267.54         C 13 -- H 15         +40.9% ( 55.8%)      0.5%
 TRANSITION DIPOLE   0.3531         C 13 -- H 16         +32.5% ( 49.7%)      2.5%
 TRAVEL (Ang.)       0.3854         C 13 -- H 14         +14.6% ( 33.4%)     19.7%
 REDUCED MASS        0.3582         C 12 -- C 13          +3.2% ( 15.7%)      1.5%
 EFFECTIVE MASS      1.6647
 FORCE CONSTANT      0.3391

 VIBRATION         46   46A           ATOM PAIR      ENERGY CONTRIBUTION    RADIAL
 FREQUENCY          1273.98         C 13 -- H 14         +49.1% ( 59.4%)      0.2%
 TRANSITION DIPOLE   0.7745         C 13 -- H 16         +29.5% ( 46.0%)      3.3%
 TRAVEL (Ang.)       0.3743         C 13 -- H 15         +16.0% ( 33.9%)     14.5%
 REDUCED MASS        0.3778         C 12 -- C 13          +2.8% ( 14.2%)      3.7%
 EFFECTIVE MASS      1.4074
 FORCE CONSTANT      0.3612

 VIBRATION         47   47A           ATOM PAIR      ENERGY CONTRIBUTION    RADIAL
 FREQUENCY          1320.66         C 12 -- C 13         +16.1% ( 55.9%)     95.6%
 TRANSITION DIPOLE   2.2919         C  4 -- H  9         +11.3% ( 46.8%)      0.1%
 TRAVEL (Ang.)       0.2286         N 17 -- O 18          +9.2% ( 42.2%)     81.4%
 REDUCED MASS        0.9766         N 17 -- O 19          +8.9% ( 41.6%)     70.3%
 EFFECTIVE MASS      9.0463
 FORCE CONSTANT      1.0036

 VIBRATION         48   48A           ATOM PAIR      ENERGY CONTRIBUTION    RADIAL
 FREQUENCY          1324.83         C 12 -- C 13         +15.7% ( 53.0%)     97.8%
 TRANSITION DIPOLE   1.2563         C  4 -- H  9         +13.7% ( 49.5%)      0.0%
 TRAVEL (Ang.)       0.2769         C  3 -- C 12          +7.8% ( 37.3%)      9.1%
 REDUCED MASS        0.6638         C  1 -- H  7          +7.3% ( 36.2%)      0.8%
 EFFECTIVE MASS      7.0610
 FORCE CONSTANT      0.6864

 VIBRATION         49   49A           ATOM PAIR      ENERGY CONTRIBUTION    RADIAL
 FREQUENCY          1372.00         C 13 -- H 16         +24.7% ( 52.1%)      0.5%
 TRANSITION DIPOLE   0.5452         C 13 -- H 15         +21.4% ( 48.4%)      1.1%
 TRAVEL (Ang.)       0.3876         C 13 -- H 14         +18.4% ( 44.9%)      1.5%
 REDUCED MASS        0.3271         N 17 -- O 19          +7.5% ( 28.6%)     83.6%
 EFFECTIVE MASS      3.5887
 FORCE CONSTANT      0.3628

 VIBRATION         50   50A           ATOM PAIR      ENERGY CONTRIBUTION    RADIAL
 FREQUENCY          1419.52         C  1 -- C  6         +13.4% ( 53.1%)     98.6%
 TRANSITION DIPOLE   1.3406         C  3 -- C 12         +13.3% ( 52.8%)     67.3%
 TRAVEL (Ang.)       0.1933         C  3 -- C  4         +12.5% ( 51.2%)     91.3%
 REDUCED MASS        1.2712         C  4 -- C  5          +9.1% ( 43.7%)     70.7%
 EFFECTIVE MASS      9.4405
 FORCE CONSTANT      1.5092

 VIBRATION         51   51A           ATOM PAIR      ENERGY CONTRIBUTION    RADIAL
 FREQUENCY          1432.65         C  1 -- C  2         +14.4% ( 57.2%)     93.3%
 TRANSITION DIPOLE   1.2949         C  2 -- C  3         +13.5% ( 55.3%)     93.6%
 TRAVEL (Ang.)       0.1832         C  3 -- C 12         +12.0% ( 52.1%)     71.7%
 REDUCED MASS        1.4021         C  5 -- C  6         +10.0% ( 47.7%)     99.6%
 EFFECTIVE MASS     10.1938
 FORCE CONSTANT      1.6955

 VIBRATION         52   52A           ATOM PAIR      ENERGY CONTRIBUTION    RADIAL
 FREQUENCY          1447.25         O 21 -- H 23         +61.1% ( 63.4%)      7.4%
 TRANSITION DIPOLE   1.0964         O 21 -- H 22         +38.5% ( 50.3%)      9.2%
 TRAVEL (Ang.)       0.2899         H 24 -- O 25          +0.1% (  2.8%)      0.0%
 REDUCED MASS        0.5543
 EFFECTIVE MASS      1.7748
 FORCE CONSTANT      0.6840

 VIBRATION         53   53A           ATOM PAIR      ENERGY CONTRIBUTION    RADIAL
 FREQUENCY          1494.27         N 17 -- O 19         +37.2% ( 87.0%)     89.7%
 TRANSITION DIPOLE   9.0711         N 17 -- O 18         +32.9% ( 81.9%)     82.7%
 TRAVEL (Ang.)       0.0821         C 12 -- N 17         +22.2% ( 67.3%)      0.2%
 REDUCED MASS        6.6981         O 18 -- O 19          +6.4% ( 36.1%)      1.8%
 EFFECTIVE MASS     14.4447
 FORCE CONSTANT      8.8118

 VIBRATION         54   54A           ATOM PAIR      ENERGY CONTRIBUTION    RADIAL
 FREQUENCY          1507.53         C  4 -- C  5         +14.4% ( 53.5%)     99.5%
 TRANSITION DIPOLE   1.5796         C  1 -- C  2         +13.5% ( 51.7%)     99.9%
 TRAVEL (Ang.)       0.1795         C  1 -- C  6         +10.8% ( 46.4%)     15.4%
 REDUCED MASS        1.3887         C  5 -- C  6         +10.4% ( 45.4%)     19.7%
 EFFECTIVE MASS      9.9202         C  6 -- H 11         +10.1% ( 44.8%)      0.1%
 FORCE CONSTANT      1.8594

 VIBRATION         55   55A           ATOM PAIR      ENERGY CONTRIBUTION    RADIAL
 FREQUENCY          1582.40         C  2 -- C  3         +18.9% ( 61.8%)     63.7%
 TRANSITION DIPOLE   1.0473         C  3 -- C 12         +17.0% ( 58.6%)     99.1%
 TRAVEL (Ang.)       0.1468         C  3 -- C  4         +15.3% ( 55.7%)     51.6%
 REDUCED MASS        1.9783         C  5 -- C  6          +8.0% ( 40.2%)     80.9%
 EFFECTIVE MASS     10.6328
 FORCE CONSTANT      2.9186

 VIBRATION         56   56A           ATOM PAIR      ENERGY CONTRIBUTION    RADIAL
 FREQUENCY          1663.70         C  1 -- C  6         +20.7% ( 64.9%)     99.9%
 TRANSITION DIPOLE   2.5804         C  3 -- C  4         +16.0% ( 57.0%)     99.5%
 TRAVEL (Ang.)       0.1250         C  2 -- C  3         +10.2% ( 45.5%)     52.9%
 REDUCED MASS        2.5927         C  1 -- C  2         +10.0% ( 45.1%)     33.7%
 EFFECTIVE MASS     11.9787
 FORCE CONSTANT      4.2282

 VIBRATION         57   57A           ATOM PAIR      ENERGY CONTRIBUTION    RADIAL
 FREQUENCY          1688.40         C 12 -- N 17         +37.5% ( 92.1%)     99.5%
 TRANSITION DIPOLE   8.5755         C  3 -- C 12         +15.2% ( 58.5%)     47.0%
 TRAVEL (Ang.)       0.0903         C 12 -- C 13         +13.7% ( 55.7%)     25.4%
 REDUCED MASS        4.9009         N 17 -- O 18         +12.7% ( 53.6%)     40.6%
 EFFECTIVE MASS     12.6383         N 17 -- O 19         +12.4% ( 53.0%)     32.9%
 FORCE CONSTANT      8.2315

 VIBRATION         58   58A           ATOM PAIR      ENERGY CONTRIBUTION    RADIAL
 FREQUENCY          1712.64         C  4 -- C  5         +18.5% ( 61.3%)     92.3%
 TRANSITION DIPOLE   1.6778         C  5 -- C  6         +16.3% ( 57.5%)     83.3%
 TRAVEL (Ang.)       0.1309         C  1 -- C  2         +11.3% ( 48.0%)     94.8%
 REDUCED MASS        2.2967         C  2 -- C  3          +9.8% ( 44.5%)     80.4%
 EFFECTIVE MASS     12.0553
 FORCE CONSTANT      3.9690

 VIBRATION         59   59A           ATOM PAIR      ENERGY CONTRIBUTION    RADIAL
 FREQUENCY          1941.86         H 20 -- O 25         +94.4% ( 97.4%)     98.8%
 TRANSITION DIPOLE   2.3258         H 24 -- O 25          +2.9% ( 17.2%)     48.4%
 TRAVEL (Ang.)       0.1444         C 12 -- N 17          +1.0% ( 10.0%)     98.7%
 REDUCED MASS        1.6655         N 17 -- O 19          +0.5% (  7.4%)     50.7%
 EFFECTIVE MASS      3.0204
 FORCE CONSTANT      3.7002

 VIBRATION         60   60A           ATOM PAIR      ENERGY CONTRIBUTION    RADIAL
 FREQUENCY          2635.97         O 21 -- H 23         +68.7% ( 85.5%)     97.9%
 TRANSITION DIPOLE   2.2629         O 21 -- H 22         +28.6% ( 55.1%)     94.0%
 TRAVEL (Ang.)       0.2104         H 24 -- O 25          +2.4% ( 15.9%)     98.6%
 REDUCED MASS        0.5779         C 13 -- H 15          +0.2% (  4.1%)     99.5%
 EFFECTIVE MASS      1.5294
 FORCE CONSTANT      2.3656

 VIBRATION         61   61A           ATOM PAIR      ENERGY CONTRIBUTION    RADIAL
 FREQUENCY          2648.58         C 13 -- H 15         +55.7% ( 77.0%)     98.8%
 TRANSITION DIPOLE   1.1318         C 13 -- H 14         +41.2% ( 66.2%)     96.9%
 TRAVEL (Ang.)       0.2272         C 13 -- H 16          +1.9% ( 14.2%)     26.1%
 REDUCED MASS        0.4933         C 12 -- C 13          +0.8% (  9.4%)      0.1%
 EFFECTIVE MASS      1.4363
 FORCE CONSTANT      2.0388

 VIBRATION         62   62A           ATOM PAIR      ENERGY CONTRIBUTION    RADIAL
 FREQUENCY          2656.72         C 13 -- H 16         +61.2% ( 80.7%)     99.5%
 TRANSITION DIPOLE   1.0537         C 13 -- H 14         +26.5% ( 53.1%)     92.8%
 TRAVEL (Ang.)       0.2319         C 13 -- H 15         +11.3% ( 34.7%)     79.0%
 REDUCED MASS        0.4719         C 12 -- C 13          +0.9% (  9.7%)      0.1%
 EFFECTIVE MASS      1.4425
 FORCE CONSTANT      1.9624

 VIBRATION         63   63A           ATOM PAIR      ENERGY CONTRIBUTION    RADIAL
 FREQUENCY          2726.71         C  2 -- H  8         +63.6% ( 80.6%)    100.0%
 TRANSITION DIPOLE   0.6523         C  1 -- H  7         +20.3% ( 45.5%)    100.0%
 TRAVEL (Ang.)       0.2360         C  6 -- H 11          +9.8% ( 31.6%)     99.8%
 REDUCED MASS        0.4441         C  4 -- H  9          +4.3% ( 20.8%)    100.0%
 EFFECTIVE MASS      1.3692
 FORCE CONSTANT      1.9454

 VIBRATION         64   64A           ATOM PAIR      ENERGY CONTRIBUTION    RADIAL
 FREQUENCY          2728.29         C  6 -- H 11         +66.8% ( 82.6%)    100.0%
 TRANSITION DIPOLE   1.5146         C  2 -- H  8         +23.7% ( 49.2%)    100.0%
 TRAVEL (Ang.)       0.2244         C  1 -- H  7          +5.7% ( 24.1%)     99.1%
 REDUCED MASS        0.4910         C  4 -- H  9          +1.7% ( 13.3%)     99.8%
 EFFECTIVE MASS      1.3674
 FORCE CONSTANT      2.1534

 VIBRATION         65   65A           ATOM PAIR      ENERGY CONTRIBUTION    RADIAL
 FREQUENCY          2731.48         C  4 -- H  9         +81.5% ( 91.3%)    100.0%
 TRANSITION DIPOLE   1.7729         C  1 -- H  7         +16.2% ( 40.7%)    100.0%
 TRAVEL (Ang.)       0.1915         C  4 -- C  5          +0.9% (  9.6%)     26.3%
 REDUCED MASS        0.6730         C  3 -- C  4          +0.9% (  9.6%)     20.7%
 EFFECTIVE MASS      1.3857
 FORCE CONSTANT      2.9583

 VIBRATION         66   66A           ATOM PAIR      ENERGY CONTRIBUTION    RADIAL
 FREQUENCY          2746.57         C  1 -- H  7         +55.8% ( 75.4%)    100.0%
 TRANSITION DIPOLE   1.3098         C  6 -- H 11         +21.1% ( 46.4%)     99.9%
 TRAVEL (Ang.)       0.2579         C  2 -- H  8         +10.3% ( 32.4%)     99.9%
 REDUCED MASS        0.3690         C  4 -- H  9         +10.1% ( 32.0%)    100.0%
 EFFECTIVE MASS      1.4360
 FORCE CONSTANT      1.6400

 VIBRATION         67   67A           ATOM PAIR      ENERGY CONTRIBUTION    RADIAL
 FREQUENCY          2765.85         H 24 -- O 25         +80.8% ( 89.0%)     99.4%
 TRANSITION DIPOLE   1.5337         O 21 -- H 22          +5.9% ( 24.0%)     98.8%
 TRAVEL (Ang.)       0.1995         C 13 -- H 16          +5.0% ( 22.2%)     96.5%
 REDUCED MASS        0.6127         C 13 -- H 15          +4.4% ( 20.8%)     95.8%
 EFFECTIVE MASS      1.2960
 FORCE CONSTANT      2.7615

 VIBRATION         68   68A           ATOM PAIR      ENERGY CONTRIBUTION    RADIAL
 FREQUENCY          2772.10         C 13 -- H 16         +30.9% ( 53.5%)     96.0%
 TRANSITION DIPOLE   0.8662         C 13 -- H 14         +27.2% ( 50.2%)     94.9%
 TRAVEL (Ang.)       0.3073         C 13 -- H 15         +26.9% ( 50.0%)     95.3%
 REDUCED MASS        0.2575         H 24 -- O 25         +13.0% ( 34.7%)     99.4%
 EFFECTIVE MASS      1.1651
 FORCE CONSTANT      1.1659

 VIBRATION         69   69A           ATOM PAIR      ENERGY CONTRIBUTION    RADIAL
 FREQUENCY          2804.07         O 21 -- H 22         +66.7% ( 78.5%)     99.9%
 TRANSITION DIPOLE   1.0486         O 21 -- H 23         +28.0% ( 50.8%)     99.7%
 TRAVEL (Ang.)       0.2193         H 24 -- O 25          +5.2% ( 21.9%)     99.3%
 REDUCED MASS        0.5000
 EFFECTIVE MASS      1.1944
 FORCE CONSTANT      2.3165

      SYMMETRY NUMBER FOR POINT-GROUP C1  =  1


          SYSTEM IS A GROUND STATE



 Title: ASE calculation


          MOLECULE IS NOT LINEAR

          THERE ARE 69 GENUINE VIBRATIONS IN THIS SYSTEM
          THIS THERMODYNAMICS CALCULATION IS LIMITED TO
          MOLECULES WHICH HAVE NO INTERNAL ROTATIONS




                    CALCULATED THERMODYNAMIC PROPERTIES
                                          *
   TEMP. (K)   PARTITION FUNCTION   H.O.F.    ENTHALPY  HEAT CAPACITY ENTROPY
                                   KCAL/MOL   CAL/MOLE    CAL/K/MOL  CAL/K/MOL


 298.00  VIB.     0.9436D+08                  9496.5686    54.2976    68.3579
         ROT.     0.3832D+07                   888.2803     2.9808    33.1049
         INT.     0.3616D+15                 10384.8489    57.2784   101.4628
         TRA.     0.3190D+28                  1480.4672     4.9680    42.0881
         TOT.                     -245.909   11865.3161    62.2464   143.5510

   *: NOTE: HEATS OF FORMATION ARE RELATIVE TO THE
            ELEMENTS IN THEIR STANDARD STATE AT 298K
              (=  Standard Enthalpy of Formation).

            Hvib:  Zero-point energy is not included.
                   frequencies of less than zero cm-1 are not included.
            Hrot = (3/2)RT
            Htra = (3/2)RT + pV = (5/2)RT

            Heat capacity is Cp, not Cv

          For more information, see: HTTP://OpenMOPAC.net/Manual/thermochemistry.html


           FORCE CONSTANT IN CARTESIAN COORDINATES (Millidynes/A)

    ATOM   CHEMICAL       X               Y               Z
   NUMBER   SYMBOL  FORCE CONSTANT  FORCE CONSTANT  FORCE CONSTANT

      1       C       11.138416       10.154350        2.501277
      2       C       11.113601       10.014431        2.425257
      3       C       11.535880       11.225598        2.835248
      4       C       11.301184        9.852073        2.176158
      5       C       11.255552        9.033876        1.669317
      6       C        9.918677       11.512880        2.192752
      7       H        1.729578        3.388685        0.383820
      8       H        1.732658        3.361053        0.373220
      9       H        1.742408        3.368831        0.347406
     10      Cl        1.284871        2.912093        0.157928
     11       H        4.177615        0.877702        0.378599
     12       C       11.081785        2.358622       12.090325
     13       C        6.530821        5.786293        7.308407
     14       H        3.839704        0.771720        0.717889
     15       H        0.577085        3.548638        1.178603
     16       H        1.228713        1.759854        2.379568
     17       N       13.139118        2.766753       14.101163
     18       O        9.618268        0.438451        1.636976
     19       O        3.235017        0.408944        8.236006
     20       H        0.560047        3.696748        0.504677
     21       O        0.543337        6.947429        3.746352
     22       H        0.263442        2.119838        2.415796
     23       H        0.349378        3.777839        0.884399
     24       H        2.172835        0.588501        2.147804
     25       O        2.388917        6.188716        2.738656

 **********************
 *                    *
 * JOB ENDED NORMALLY *
 *                    *
 **********************



 TOTAL JOB TIME:             6.20 SECONDS

 == MOPAC DONE ==
