 *******************************************************************************
 **                                                                           **
 **                              MOPAC v22.0.6                                **
 **                                                                           **
 *******************************************************************************
 **          Digital Object Identifier (DOI): 10.5281/zenodo.6511958          **
 **    Visit the DOI location for information on how to cite this program.    **
 *******************************************************************************

                              PM7 CALCULATION RESULTS

 *******************************************************************************
 *  CALCULATION DONE:                                Sat Mar 23 21:15:30 2024  *
 *  PM7        - The PM7 Hamiltonian to be used
 *  SINGLET    - SPIN STATE DEFINED AS A SINGLET
 *
 *
 *
 *                 CHARGE ON SYSTEM = 0
 *
 *
 *
 *  EPS=78.4   - USE ANDREAS KLAMT'S COSMO IMPLICIT SOLVATION MODEL
 *  T=         - A TIME OF 14.0 DAYS REQUESTED
 *  DUMP=N     - RESTART FILE WRITTEN EVERY 30.0 MINUTES REQUESTED
 *  RELSCF     - DEFAULT SCF CRITERION MULTIPLIED BY 1.0000
 *              (DEFAULT SCF CRITERION = 0.00010)
 *  ITRY=      - DO A MAXIMUM OF 15000 ITERATIONS FOR SCF
 *  AUX        - OUTPUT AUXILIARY INFORMATION
 *  BONDS      - FINAL BOND-ORDER MATRIX TO BE PRINTED
 *******************************************************************************
PM7 BONDS AUX DUMP=30M ITRY=15000 T=14D CHARGE=0 SINGLET eps=78.4 RELSCF=1
 Title: ASE calculation

   ATOM   CHEMICAL          X               Y               Z
  NUMBER   SYMBOL      (ANGSTROMS)     (ANGSTROMS)     (ANGSTROMS)

     1       C          1.93302943  *   2.69558971  *   2.30419449  *
     2       C          1.92498049  *   1.30711882  *   2.19404445  *
     3       C          0.75963580  *   0.64046276  *   1.80689833  *
     4       C         -0.40357970  *   1.37469617  *   1.55438092  *
     5       C         -0.39383547  *   2.76182752  *   1.67011574  *
     6       C          0.77575207  *   3.42418850  *   2.03826533  *
     7       H          2.84887248  *   3.21038060  *   2.59549964  *
     8       H          2.83296939  *   0.75233239  *   2.41855969  *
     9       H         -1.31757877  *   0.85628865  *   1.26647499  *
    10       H          0.78650398  *   4.51022482  *   2.11822162  *
    11       C          0.74965595     -0.82001523      1.68843368   
    12       C          0.36988281  *  -1.60911040  *   2.89619408  *
    13       H          0.69156467  *  -2.66002930  *   2.82974017  *
    14       H         -0.72208608  *  -1.62309852  *   3.04357525  *
    15       H          0.80883047  *  -1.18702870  *   3.81091604  *
    16       N          0.62088504  *  -1.39360736  *   0.45730318  *
    17       O          0.83420203  *  -0.72991363  *  -0.57872019  *
    18       O          0.39363096  *  -2.61439304  *   0.33521702  *
    19       N          4.12165941  *  -1.19183441  *   5.01599173  *
    20       C          4.43239493  *  -2.55182914  *   5.52971729  *
    21       C          5.10509981  *  -2.49255748  *   6.91027917  *
    22       C          6.36764220  *  -1.62709426  *   6.84421931  *
    23       C          5.98055100  *  -0.22173166  *   6.37354036  *
    24       C          5.31030054  *  -0.29860599  *   4.99387757  *
    25       H          4.95268490  *   0.71161424  *   4.68981647  *
    26       H          6.05773017  *  -0.61652925  *   4.23450767  *
    27       H          6.87001760  *   0.43249884  *   6.32100102  *
    28       H          5.29508460  *   0.24758313  *   7.10442463  *
    29       H          5.35101952  *  -3.51597184  *   7.24942266  *
    30       H          4.40236978  *  -2.07872263  *   7.65798790  *
    31       H          5.07537866  *  -3.12589080  *   4.82753938  *
    32       H          2.67512898     -1.14524735  *   1.74033452  *
    33       H          3.77425993  *  -1.27935101  *   4.05516091  *
    34       H          3.46405606  *  -3.09836276  *   5.60242962  *
    35       H          6.86538923  *  -1.58578922  *   7.83008205  *
    36       H          7.10393167  *  -2.07473287  *   6.14968188  *
    37       H         -1.30306810  *   3.33173570  *   1.47305842  *
    38       H          4.15246098  *  -2.12580727  *   1.36750487  *
    39       H          4.28219616  *  -0.58988891  *   1.09977193  *
    40       O          3.95895602     -1.23651410      1.81214672   



          CARTESIAN COORDINATES 

    NO.       ATOM           X           Y           Z

     1         C          1.9330      2.6956      2.3042
     2         C          1.9250      1.3071      2.1940
     3         C          0.7596      0.6405      1.8069
     4         C         -0.4036      1.3747      1.5544
     5         C         -0.3938      2.7618      1.6701
     6         C          0.7758      3.4242      2.0383
     7         H          2.8489      3.2104      2.5955
     8         H          2.8330      0.7523      2.4186
     9         H         -1.3176      0.8563      1.2665
    10         H          0.7865      4.5102      2.1182
    11         C          0.7497     -0.8200      1.6884
    12         C          0.3699     -1.6091      2.8962
    13         H          0.6916     -2.6600      2.8297
    14         H         -0.7221     -1.6231      3.0436
    15         H          0.8088     -1.1870      3.8109
    16         N          0.6209     -1.3936      0.4573
    17         O          0.8342     -0.7299     -0.5787
    18         O          0.3936     -2.6144      0.3352
    19         N          4.1217     -1.1918      5.0160
    20         C          4.4324     -2.5518      5.5297
    21         C          5.1051     -2.4926      6.9103
    22         C          6.3676     -1.6271      6.8442
    23         C          5.9806     -0.2217      6.3735
    24         C          5.3103     -0.2986      4.9939
    25         H          4.9527      0.7116      4.6898
    26         H          6.0577     -0.6165      4.2345
    27         H          6.8700      0.4325      6.3210
    28         H          5.2951      0.2476      7.1044
    29         H          5.3510     -3.5160      7.2494
    30         H          4.4024     -2.0787      7.6580
    31         H          5.0754     -3.1259      4.8275
    32         H          2.6751     -1.1452      1.7403
    33         H          3.7743     -1.2794      4.0552
    34         H          3.4641     -3.0984      5.6024
    35         H          6.8654     -1.5858      7.8301
    36         H          7.1039     -2.0747      6.1497
    37         H         -1.3031      3.3317      1.4731
    38         H          4.1525     -2.1258      1.3675
    39         H          4.2822     -0.5899      1.0998
    40         O          3.9590     -1.2365      1.8121

 General Reference for PM7:
 "Optimization of Parameters for Semiempirical Methods VI: More Modifications to the 
 NDDO Approximations and Re-optimization of Parameters", J. J. P. Stewart, J. Mol. Mod., 1:32, 19 (2013)
 https://link.springer.com/article/10.1007/s00894-012-1667-x

           Empirical Formula: C13 H22 N2 O3  =    40 atoms



      MOLECULAR POINT GROUP   :   C1  


 SINGLET STATE CALCULATION


      RHF CALCULATION, NO. OF DOUBLY OCCUPIED LEVELS = 51


          Geometry optimization using L-BFGS
  SCF CRITERION =    0.1000E-03
 CYCLE:     1 TIME:   0.219 TIME LEFT:  2.00W  GRAD.:     6.912 HEAT: -54.43277
 CYCLE:     2 TIME:   0.062 TIME LEFT:  2.00W  GRAD.:     6.763 HEAT: -54.43330
 CYCLE:     3 TIME:   0.062 TIME LEFT:  2.00W  GRAD.:     2.426 HEAT: -54.46461
 CYCLE:     4 TIME:   0.055 TIME LEFT:  2.00W  GRAD.:     6.785 HEAT: -54.43329
 CYCLE:     5 TIME:   0.055 TIME LEFT:  2.00W  GRAD.:     2.438 HEAT: -54.46463
 CYCLE:     6 TIME:   0.055 TIME LEFT:  2.00W  GRAD.:     2.466 HEAT: -54.29649
 CYCLE:     7 TIME:   0.062 TIME LEFT:  2.00W  GRAD.:     2.886 HEAT: -54.30609
 CYCLE:     8 TIME:   0.055 TIME LEFT:  2.00W  GRAD.:     3.267 HEAT: -54.32157
 CYCLE:     9 TIME:   0.062 TIME LEFT:  2.00W  GRAD.:     9.205 HEAT: -54.32096
 CYCLE:    10 TIME:   0.078 TIME LEFT:  2.00W  GRAD.:     3.506 HEAT: -54.33058
 CYCLE:    11 TIME:   0.055 TIME LEFT:  2.00W  GRAD.:     3.157 HEAT: -54.33666
 CYCLE:    12 TIME:   0.055 TIME LEFT:  2.00W  GRAD.:     3.768 HEAT: -54.31551
 CYCLE:    13 TIME:   0.062 TIME LEFT:  2.00W  GRAD.:     6.558 HEAT: -54.34823
 CYCLE:    14 TIME:   0.078 TIME LEFT:  2.00W  GRAD.:     5.034 HEAT: -53.70983
 CYCLE:    15 TIME:   0.062 TIME LEFT:  2.00W  GRAD.:     5.480 HEAT: -53.73753
 CYCLE:    16 TIME:   0.055 TIME LEFT:  2.00W  GRAD.:     4.731 HEAT: -53.03620
 CYCLE:    17 TIME:   0.055 TIME LEFT:  2.00W  GRAD.:     4.238 HEAT: -53.02433
 CYCLE:    18 TIME:   0.055 TIME LEFT:  2.00W  GRAD.:     3.622 HEAT: -53.02921
 CYCLE:    19 TIME:   0.055 TIME LEFT:  2.00W  GRAD.:     3.622 HEAT: -53.03151
 CYCLE:    20 TIME:   0.055 TIME LEFT:  2.00W  GRAD.:     5.976 HEAT: -52.97848
 CYCLE:    21 TIME:   0.062 TIME LEFT:  2.00W  GRAD.:     5.237 HEAT: -53.01908
 CYCLE:    22 TIME:   0.086 TIME LEFT:  2.00W  GRAD.:     5.965 HEAT: -52.98758
 CYCLE:    23 TIME:   0.055 TIME LEFT:  2.00W  GRAD.:     7.207 HEAT: -53.09112
 CYCLE:    24 TIME:   0.062 TIME LEFT:  2.00W  GRAD.:     7.228 HEAT: -53.17889
 CYCLE:    25 TIME:   0.062 TIME LEFT:  2.00W  GRAD.:     8.657 HEAT: -53.24336
 CYCLE:    26 TIME:   0.086 TIME LEFT:  2.00W  GRAD.:    10.834 HEAT: -53.30176
 CYCLE:    27 TIME:   0.055 TIME LEFT:  2.00W  GRAD.:    11.955 HEAT: -53.43691
 CYCLE:    28 TIME:   0.070 TIME LEFT:  2.00W  GRAD.:    19.935 HEAT: -53.31177
 CYCLE:    29 TIME:   0.055 TIME LEFT:  2.00W  GRAD.:    45.983 HEAT: -53.14181
 CYCLE:    30 TIME:   0.070 TIME LEFT:  2.00W  GRAD.:    52.975 HEAT: -52.85244
 CYCLE:    31 TIME:   0.062 TIME LEFT:  2.00W  GRAD.:    43.205 HEAT: -53.09933
 CYCLE:    32 TIME:   0.102 TIME LEFT:  2.00W  GRAD.:    24.200 HEAT: -53.42248
 CYCLE:    33 TIME:   0.062 TIME LEFT:  2.00W  GRAD.:    27.644 HEAT: -53.44796
 CYCLE:    34 TIME:   0.062 TIME LEFT:  2.00W  GRAD.:    29.318 HEAT: -53.28137
 CYCLE:    35 TIME:   0.070 TIME LEFT:  2.00W  GRAD.:   116.185 HEAT: -50.29031


           HEAT OF FORMATION IS ESSENTIALLY STATIONARY


          CURRENT BEST VALUE OF HEAT OF FORMATION =    -54.464591

 PM7 BONDS AUX DUMP=30M ITRY=15000 T=14D CHARGE=0 SINGLET eps=78.4 RELSCF=1
 Title: ASE calculation

  C     1.93298033 +1   2.69557287 +1   2.30428027 +1
  C     1.92529203 +1   1.30710113 +1   2.19421330 +1
  C     0.75985991 +1   0.64019465 +1   1.80691728 +1
  C    -0.40351540 +1   1.37453102 +1   1.55426925 +1
  C    -0.39383167 +1   2.76185281 +1   1.67002104 +1
  C     0.77586292 +1   3.42439930 +1   2.03843371 +1
  H     2.84884456 +1   3.21048151 +1   2.59566687 +1
  H     2.83312405 +1   0.75229517 +1   2.41882591 +1
  H    -1.31768095 +1   0.85608990 +1   1.26622662 +1
  H     0.78641171 +1   4.51045182 +1   2.11835023 +1
  C     0.74965595 +0  -0.82001523 +0   1.68843368 +0
  C     0.37050742 +1  -1.60890308 +1   2.89623468 +1
  H     0.69166810 +1  -2.65984370 +1   2.82996242 +1
  H    -0.72186362 +1  -1.62291119 +1   3.04367862 +1
  H     0.80897434 +1  -1.18682821 +1   3.81087685 +1
  N     0.62127831 +1  -1.39211757 +1   0.46004212 +1
  O     0.83400580 +1  -0.72934157 +1  -0.57920463 +1
  O     0.39391653 +1  -2.61485779 +1   0.33466343 +1
  N     4.12196528 +1  -1.19179062 +1   5.01571388 +1
  C     4.43252371 +1  -2.55167464 +1   5.52954747 +1
  C     5.10500756 +1  -2.49255409 +1   6.91020212 +1
  C     6.36749594 +1  -1.62711718 +1   6.84441769 +1
  C     5.98061515 +1  -0.22174953 +1   6.37369532 +1
  C     5.31053129 +1  -0.29857948 +1   4.99395432 +1
  H     4.95283418 +1   0.71146647 +1   4.68961374 +1
  H     6.05771324 +1  -0.61672123 +1   4.23464342 +1
  H     6.87002739 +1   0.43252207 +1   6.32103077 +1
  H     5.29496400 +1   0.24758835 +1   7.10435951 +1
  H     5.35090602 +1  -3.51589887 +1   7.24945427 +1
  H     4.40230411 +1  -2.07875581 +1   7.65786623 +1
  H     5.07555342 +1  -3.12577456 +1   4.82761995 +1
  H     2.67512898 +0  -1.14599907 +1   1.74009837 +1
  H     3.77446145 +1  -1.27908006 +1   4.05504965 +1
  H     3.46437985 +1  -3.09843573 +1   5.60222496 +1
  H     6.86516148 +1  -1.58570987 +1   7.83023400 +1
  H     7.10389368 +1  -2.07464556 +1   6.15004755 +1
  H    -1.30307620 +1   3.33170356 +1   1.47288897 +1
  H     4.15229574 +1  -2.12626546 +1   1.36743903 +1
  H     4.28233804 +1  -0.58996433 +1   1.09953993 +1
  O     3.95895602 +0  -1.23651410 +0   1.81214672 +0



 -------------------------------------------------------------------------------
 PM7 BONDS AUX DUMP=30M ITRY=15000 T=14D CHARGE=0 SINGLET eps=78.4 RELSCF=1
 Title: ASE calculation



     HERBERTS TEST WAS SATISFIED IN BFGS                      
     SCF FIELD WAS ACHIEVED                                   


                              PM7 CALCULATION
                                                       MOPAC v22.0.6 Linux
                                                       Sat Mar 23 21:15:33 2024




          FINAL HEAT OF FORMATION =        -54.46459 KCAL/MOL =    -227.87985 KJ/MOL
          VAN DER WAALS AREA      =        307.49 SQUARE ANGSTROMS



          DIELECTRIC ENERGY       =         -2.36480 EV
          COSMO AREA              =        307.49 SQUARE ANGSTROMS
          COSMO VOLUME            =        349.05 CUBIC ANGSTROMS

          GRADIENT NORM           =          2.43753          =       0.38541 PER ATOM
          IONIZATION POTENTIAL    =          9.098157 EV
          HOMO LUMO ENERGIES (EV) =         -9.098 -0.070
          NO. OF FILLED LEVELS    =         51
          MOLECULAR WEIGHT        =        254.3284         POINT GROUP:  C1  

          MOLECULAR DIMENSIONS (Angstroms)

            Atom       Atom       Distance
            H    37    H    35    11.45936
            O    18    H    10     7.13496
            H    39    H    30     4.96380


          SCF CALCULATIONS        =         38

          WALL-CLOCK TIME         =      2.539 SECONDS
          COMPUTATION TIME        =          3 MINUTES AND 52.250 SECONDS



       FINAL  POINT  AND  DERIVATIVES

   PARAMETER     ATOM    TYPE            VALUE        GRADIENT
      1          1  C    CARTESIAN X     1.932980      0.047876  KCAL/ANGSTROM
      2          1  C    CARTESIAN Y     2.695573     -0.091222  KCAL/ANGSTROM
      3          1  C    CARTESIAN Z     2.304280     -0.110445  KCAL/ANGSTROM
      4          2  C    CARTESIAN X     1.925292     -0.129569  KCAL/ANGSTROM
      5          2  C    CARTESIAN Y     1.307101      0.066658  KCAL/ANGSTROM
      6          2  C    CARTESIAN Z     2.194213     -0.123632  KCAL/ANGSTROM
      7          3  C    CARTESIAN X     0.759860     -0.257288  KCAL/ANGSTROM
      8          3  C    CARTESIAN Y     0.640195     -0.134457  KCAL/ANGSTROM
      9          3  C    CARTESIAN Z     1.806917     -0.130774  KCAL/ANGSTROM
     10          4  C    CARTESIAN X    -0.403515     -0.117666  KCAL/ANGSTROM
     11          4  C    CARTESIAN Y     1.374531     -0.050529  KCAL/ANGSTROM
     12          4  C    CARTESIAN Z     1.554269      0.089321  KCAL/ANGSTROM
     13          5  C    CARTESIAN X    -0.393832     -0.052493  KCAL/ANGSTROM
     14          5  C    CARTESIAN Y     2.761853      0.184248  KCAL/ANGSTROM
     15          5  C    CARTESIAN Z     1.670021      0.095872  KCAL/ANGSTROM
     16          6  C    CARTESIAN X     0.775863     -0.069451  KCAL/ANGSTROM
     17          6  C    CARTESIAN Y     3.424399     -0.048837  KCAL/ANGSTROM
     18          6  C    CARTESIAN Z     2.038434     -0.133370  KCAL/ANGSTROM
     19          7  H    CARTESIAN X     2.848845      0.049530  KCAL/ANGSTROM
     20          7  H    CARTESIAN Y     3.210482     -0.090043  KCAL/ANGSTROM
     21          7  H    CARTESIAN Z     2.595667     -0.172310  KCAL/ANGSTROM
     22          8  H    CARTESIAN X     2.833124     -0.206941  KCAL/ANGSTROM
     23          8  H    CARTESIAN Y     0.752295      0.038568  KCAL/ANGSTROM
     24          8  H    CARTESIAN Z     2.418826     -0.295664  KCAL/ANGSTROM
     25          9  H    CARTESIAN X    -1.317681      0.018446  KCAL/ANGSTROM
     26          9  H    CARTESIAN Y     0.856090      0.170473  KCAL/ANGSTROM
     27          9  H    CARTESIAN Z     1.266227      0.237959  KCAL/ANGSTROM
     28         10  H    CARTESIAN X     0.786412      0.086597  KCAL/ANGSTROM
     29         10  H    CARTESIAN Y     4.510452     -0.222960  KCAL/ANGSTROM
     30         10  H    CARTESIAN Z     2.118350     -0.144723  KCAL/ANGSTROM
     31         12  C    CARTESIAN X     0.370507     -0.381305  KCAL/ANGSTROM
     32         12  C    CARTESIAN Y    -1.608903     -0.143785  KCAL/ANGSTROM
     33         12  C    CARTESIAN Z     2.896235     -0.211955  KCAL/ANGSTROM
     34         13  H    CARTESIAN X     0.691668     -0.149426  KCAL/ANGSTROM
     35         13  H    CARTESIAN Y    -2.659844     -0.124515  KCAL/ANGSTROM
     36         13  H    CARTESIAN Z     2.829962     -0.240942  KCAL/ANGSTROM
     37         14  H    CARTESIAN X    -0.721864     -0.355405  KCAL/ANGSTROM
     38         14  H    CARTESIAN Y    -1.622911     -0.192237  KCAL/ANGSTROM
     39         14  H    CARTESIAN Z     3.043679     -0.113170  KCAL/ANGSTROM
     40         15  H    CARTESIAN X     0.808974     -0.223750  KCAL/ANGSTROM
     41         15  H    CARTESIAN Y    -1.186828     -0.254775  KCAL/ANGSTROM
     42         15  H    CARTESIAN Z     3.810877     -0.058263  KCAL/ANGSTROM
     43         16  N    CARTESIAN X     0.621278     -0.140834  KCAL/ANGSTROM
     44         16  N    CARTESIAN Y    -1.392118      0.155070  KCAL/ANGSTROM
     45         16  N    CARTESIAN Z     0.460042      0.650958  KCAL/ANGSTROM
     46         17  O    CARTESIAN X     0.834006      0.407561  KCAL/ANGSTROM
     47         17  O    CARTESIAN Y    -0.729342     -0.111397  KCAL/ANGSTROM
     48         17  O    CARTESIAN Z    -0.579205     -0.862198  KCAL/ANGSTROM
     49         18  O    CARTESIAN X     0.393917     -0.582366  KCAL/ANGSTROM
     50         18  O    CARTESIAN Y    -2.614858     -0.954989  KCAL/ANGSTROM
     51         18  O    CARTESIAN Z     0.334663      0.103103  KCAL/ANGSTROM
     52         19  N    CARTESIAN X     4.121965     -0.241350  KCAL/ANGSTROM
     53         19  N    CARTESIAN Y    -1.191791     -0.057147  KCAL/ANGSTROM
     54         19  N    CARTESIAN Z     5.015714      0.198537  KCAL/ANGSTROM
     55         20  C    CARTESIAN X     4.432524     -0.144337  KCAL/ANGSTROM
     56         20  C    CARTESIAN Y    -2.551675     -0.099672  KCAL/ANGSTROM
     57         20  C    CARTESIAN Z     5.529547      0.136976  KCAL/ANGSTROM
     58         21  C    CARTESIAN X     5.105008      0.093405  KCAL/ANGSTROM
     59         21  C    CARTESIAN Y    -2.492554     -0.034715  KCAL/ANGSTROM
     60         21  C    CARTESIAN Z     6.910202      0.055565  KCAL/ANGSTROM
     61         22  C    CARTESIAN X     6.367496      0.123434  KCAL/ANGSTROM
     62         22  C    CARTESIAN Y    -1.627117     -0.017099  KCAL/ANGSTROM
     63         22  C    CARTESIAN Z     6.844418     -0.199253  KCAL/ANGSTROM
     64         23  C    CARTESIAN X     5.980615     -0.018644  KCAL/ANGSTROM
     65         23  C    CARTESIAN Y    -0.221750     -0.009439  KCAL/ANGSTROM
     66         23  C    CARTESIAN Z     6.373695     -0.124401  KCAL/ANGSTROM
     67         24  C    CARTESIAN X     5.310531     -0.234365  KCAL/ANGSTROM
     68         24  C    CARTESIAN Y    -0.298579     -0.028044  KCAL/ANGSTROM
     69         24  C    CARTESIAN Z     4.993954     -0.061132  KCAL/ANGSTROM
     70         25  H    CARTESIAN X     4.952834     -0.176649  KCAL/ANGSTROM
     71         25  H    CARTESIAN Y     0.711466      0.120271  KCAL/ANGSTROM
     72         25  H    CARTESIAN Z     4.689614      0.207058  KCAL/ANGSTROM
     73         26  H    CARTESIAN X     6.057713     -0.064642  KCAL/ANGSTROM
     74         26  H    CARTESIAN Y    -0.616721      0.199583  KCAL/ANGSTROM
     75         26  H    CARTESIAN Z     4.234643     -0.111434  KCAL/ANGSTROM
     76         27  H    CARTESIAN X     6.870027     -0.025075  KCAL/ANGSTROM
     77         27  H    CARTESIAN Y     0.432522     -0.020432  KCAL/ANGSTROM
     78         27  H    CARTESIAN Z     6.321031     -0.053758  KCAL/ANGSTROM
     79         28  H    CARTESIAN X     5.294964      0.122111  KCAL/ANGSTROM
     80         28  H    CARTESIAN Y     0.247588     -0.013517  KCAL/ANGSTROM
     81         28  H    CARTESIAN Z     7.104360      0.054807  KCAL/ANGSTROM
     82         29  H    CARTESIAN X     5.350906      0.125067  KCAL/ANGSTROM
     83         29  H    CARTESIAN Y    -3.515899     -0.052003  KCAL/ANGSTROM
     84         29  H    CARTESIAN Z     7.249454     -0.023496  KCAL/ANGSTROM
     85         30  H    CARTESIAN X     4.402304      0.102160  KCAL/ANGSTROM
     86         30  H    CARTESIAN Y    -2.078756      0.029301  KCAL/ANGSTROM
     87         30  H    CARTESIAN Z     7.657866      0.118234  KCAL/ANGSTROM
     88         31  H    CARTESIAN X     5.075553     -0.222967  KCAL/ANGSTROM
     89         31  H    CARTESIAN Y    -3.125775     -0.099486  KCAL/ANGSTROM
     90         31  H    CARTESIAN Z     4.827620     -0.040551  KCAL/ANGSTROM
     91         32  H    CARTESIAN Y    -1.145999      0.796600  KCAL/ANGSTROM
     92         32  H    CARTESIAN Z     1.740098      0.242710  KCAL/ANGSTROM
     93         33  H    CARTESIAN X     3.774461     -0.209061  KCAL/ANGSTROM
     94         33  H    CARTESIAN Y    -1.279080     -0.271273  KCAL/ANGSTROM
     95         33  H    CARTESIAN Z     4.055050      0.176440  KCAL/ANGSTROM
     96         34  H    CARTESIAN X     3.464380     -0.307533  KCAL/ANGSTROM
     97         34  H    CARTESIAN Y    -3.098436      0.069872  KCAL/ANGSTROM
     98         34  H    CARTESIAN Z     5.602225      0.237465  KCAL/ANGSTROM
     99         35  H    CARTESIAN X     6.865161      0.236605  KCAL/ANGSTROM
    100         35  H    CARTESIAN Y    -1.585710     -0.074190  KCAL/ANGSTROM
    101         35  H    CARTESIAN Z     7.830234     -0.204359  KCAL/ANGSTROM
    102         36  H    CARTESIAN X     7.103894      0.012883  KCAL/ANGSTROM
    103         36  H    CARTESIAN Y    -2.074646     -0.068119  KCAL/ANGSTROM
    104         36  H    CARTESIAN Z     6.150048     -0.365773  KCAL/ANGSTROM
    105         37  H    CARTESIAN X    -1.303076     -0.021268  KCAL/ANGSTROM
    106         37  H    CARTESIAN Y     3.331704      0.057114  KCAL/ANGSTROM
    107         37  H    CARTESIAN Z     1.472889      0.176245  KCAL/ANGSTROM
    108         38  H    CARTESIAN X     4.152296      0.157074  KCAL/ANGSTROM
    109         38  H    CARTESIAN Y    -2.126265      0.371468  KCAL/ANGSTROM
    110         38  H    CARTESIAN Z     1.367439      0.025558  KCAL/ANGSTROM
    111         39  H    CARTESIAN X     4.282338     -0.144336  KCAL/ANGSTROM
    112         39  H    CARTESIAN Y    -0.589964      0.122390  KCAL/ANGSTROM
    113         39  H    CARTESIAN Z     1.099540      0.238266  KCAL/ANGSTROM




   ATOM   CHEMICAL          X               Y               Z
  NUMBER   SYMBOL      (ANGSTROMS)     (ANGSTROMS)     (ANGSTROMS)

     1       C          1.93298033  *   2.69557287  *   2.30428027  *
     2       C          1.92529203  *   1.30710113  *   2.19421330  *
     3       C          0.75985991  *   0.64019465  *   1.80691728  *
     4       C         -0.40351540  *   1.37453102  *   1.55426925  *
     5       C         -0.39383167  *   2.76185281  *   1.67002104  *
     6       C          0.77586292  *   3.42439930  *   2.03843371  *
     7       H          2.84884456  *   3.21048151  *   2.59566687  *
     8       H          2.83312405  *   0.75229517  *   2.41882591  *
     9       H         -1.31768095  *   0.85608990  *   1.26622662  *
    10       H          0.78641171  *   4.51045182  *   2.11835023  *
    11       C          0.74965595     -0.82001523      1.68843368   
    12       C          0.37050742  *  -1.60890308  *   2.89623468  *
    13       H          0.69166810  *  -2.65984370  *   2.82996242  *
    14       H         -0.72186362  *  -1.62291119  *   3.04367862  *
    15       H          0.80897434  *  -1.18682821  *   3.81087685  *
    16       N          0.62127831  *  -1.39211757  *   0.46004212  *
    17       O          0.83400580  *  -0.72934157  *  -0.57920463  *
    18       O          0.39391653  *  -2.61485779  *   0.33466343  *
    19       N          4.12196528  *  -1.19179062  *   5.01571388  *
    20       C          4.43252371  *  -2.55167464  *   5.52954747  *
    21       C          5.10500756  *  -2.49255409  *   6.91020212  *
    22       C          6.36749594  *  -1.62711718  *   6.84441769  *
    23       C          5.98061515  *  -0.22174953  *   6.37369532  *
    24       C          5.31053129  *  -0.29857948  *   4.99395432  *
    25       H          4.95283418  *   0.71146647  *   4.68961374  *
    26       H          6.05771324  *  -0.61672123  *   4.23464342  *
    27       H          6.87002739  *   0.43252207  *   6.32103077  *
    28       H          5.29496400  *   0.24758835  *   7.10435951  *
    29       H          5.35090602  *  -3.51589887  *   7.24945427  *
    30       H          4.40230411  *  -2.07875581  *   7.65786623  *
    31       H          5.07555342  *  -3.12577456  *   4.82761995  *
    32       H          2.67512898     -1.14599907  *   1.74009837  *
    33       H          3.77446145  *  -1.27908006  *   4.05504965  *
    34       H          3.46437985  *  -3.09843573  *   5.60222496  *
    35       H          6.86516148  *  -1.58570987  *   7.83023400  *
    36       H          7.10389368  *  -2.07464556  *   6.15004755  *
    37       H         -1.30307620  *   3.33170356  *   1.47288897  *
    38       H          4.15229574  *  -2.12626546  *   1.36743903  *
    39       H          4.28233804  *  -0.58996433  *   1.09953993  *
    40       O          3.95895602     -1.23651410      1.81214672   

                             CARTESIAN COORDINATES

   1    C        1.932980326     2.695572874     2.304280269
   2    C        1.925292030     1.307101134     2.194213296
   3    C        0.759859910     0.640194650     1.806917284
   4    C       -0.403515400     1.374531020     1.554269251
   5    C       -0.393831667     2.761852809     1.670021042
   6    C        0.775862924     3.424399298     2.038433710
   7    H        2.848844564     3.210481511     2.595666874
   8    H        2.833124048     0.752295174     2.418825911
   9    H       -1.317680954     0.856089899     1.266226619
  10    H        0.786411709     4.510451820     2.118350234
  11    C        0.749655950    -0.820015230     1.688433680
  12    C        0.370507418    -1.608903078     2.896234681
  13    H        0.691668100    -2.659843698     2.829962416
  14    H       -0.721863624    -1.622911188     3.043678624
  15    H        0.808974338    -1.186828215     3.810876850
  16    N        0.621278311    -1.392117565     0.460042124
  17    O        0.834005800    -0.729341570    -0.579204630
  18    O        0.393916529    -2.614857787     0.334663430
  19    N        4.121965284    -1.191790620     5.015713884
  20    C        4.432523707    -2.551674643     5.529547470
  21    C        5.105007562    -2.492554092     6.910202121
  22    C        6.367495942    -1.627117178     6.844417686
  23    C        5.980615146    -0.221749530     6.373695317
  24    C        5.310531293    -0.298579478     4.993954325
  25    H        4.952834184     0.711466468     4.689613736
  26    H        6.057713235    -0.616721228     4.234643425
  27    H        6.870027392     0.432522073     6.321030771
  28    H        5.294963999     0.247588345     7.104359507
  29    H        5.350906019    -3.515898868     7.249454270
  30    H        4.402304106    -2.078755812     7.657866231
  31    H        5.075553417    -3.125774563     4.827619954
  32    H        2.675128980    -1.145999074     1.740098370
  33    H        3.774461452    -1.279080064     4.055049648
  34    H        3.464379853    -3.098435731     5.602224955
  35    H        6.865161484    -1.585709868     7.830233997
  36    H        7.103893676    -2.074645564     6.150047553
  37    H       -1.303076199     3.331703562     1.472888966
  38    H        4.152295742    -2.126265462     1.367439025
  39    H        4.282338042    -0.589964330     1.099539931
  40    O        3.958956020    -1.236514100     1.812146720


           Empirical Formula: C13 H22 N2 O3  =    40 atoms



      MOLECULAR POINT GROUP   :   C1  


                  EIGENVALUES  
 -36.29798 -35.29621 -31.49705 -30.74914 -28.84042 -28.45443 -28.03100 -26.16193
 -26.04979 -25.46233 -24.54834 -22.26893 -21.52485 -21.28092 -21.25110 -19.70585
 -19.17273 -18.83927 -18.31341 -17.87453 -17.51391 -17.32016 -16.69860 -16.28064
 -15.65754 -15.52788 -15.37505 -15.27026 -15.01225 -14.71293 -14.40648 -14.10639
 -14.08837 -13.94581 -13.84699 -13.54615 -13.19086 -13.08409 -12.14397 -12.13397
 -12.06659 -11.64616 -11.33937 -11.27997 -11.26451 -11.08478 -10.98584 -10.08104
  -9.90005  -9.41248  -9.09816  -0.06971  -0.04790   0.03643   0.90195   1.72430
   2.38411   3.06920   3.35309   3.58029   3.91420   3.93809   4.26895   4.27534
   4.30833   4.71146   4.71473   4.72027   4.79023   4.86567   5.02398   5.11906
   5.42986   5.51922   5.53614   5.54778   5.57360   5.70052   5.73061   5.80877
   5.81932   5.84513   5.99840   6.00844   6.08605   6.12888   6.14375   6.19778
   6.22808   6.36411   6.54886   6.56755   6.65008   6.89684


              NET ATOMIC CHARGES AND DIPOLE CONTRIBUTIONS

  ATOM NO.   TYPE          CHARGE      No. of ELECS.   s-Pop       p-Pop       
    1          C          -0.137921        4.1379     1.08693     3.05099
    2          C          -0.191824        4.1918     1.08350     3.10832
    3          C           0.057190        3.9428     1.05923     2.88358
    4          C          -0.177613        4.1776     1.08792     3.08970
    5          C          -0.144071        4.1441     1.08737     3.05670
    6          C          -0.179350        4.1794     1.08530     3.09405
    7          H           0.160063        0.8399     0.83994
    8          H           0.141792        0.8582     0.85821
    9          H           0.168424        0.8316     0.83158
   10          H           0.160918        0.8391     0.83908
   11          C          -0.373258        4.3733     1.05924     3.31402
   12          C          -0.404096        4.4041     1.04329     3.36080
   13          H           0.162482        0.8375     0.83752
   14          H           0.157180        0.8428     0.84282
   15          H           0.155390        0.8446     0.84461
   16          N           0.705329        4.2947     1.42998     2.86469
   17          O          -0.644328        6.6443     1.94403     4.70030
   18          O          -0.634711        6.6347     1.94398     4.69073
   19          N          -0.567532        5.5675     1.68000     3.88754
   20          C          -0.117216        4.1172     1.06812     3.04909
   21          C          -0.285434        4.2854     1.06142     3.22401
   22          C          -0.270602        4.2706     1.05767     3.21293
   23          C          -0.287734        4.2877     1.06127     3.22646
   24          C          -0.117850        4.1178     1.06784     3.05001
   25          H           0.142816        0.8572     0.85718
   26          H           0.123607        0.8764     0.87639
   27          H           0.140369        0.8596     0.85963
   28          H           0.148129        0.8519     0.85187
   29          H           0.142213        0.8578     0.85779
   30          H           0.146972        0.8530     0.85303
   31          H           0.123744        0.8763     0.87626
   32          H           0.477246        0.5228     0.52275
   33          H           0.253852        0.7461     0.74615
   34          H           0.144264        0.8557     0.85574
   35          H           0.141697        0.8583     0.85830
   36          H           0.139064        0.8609     0.86094
   37          H           0.165630        0.8344     0.83437
   38          H           0.440198        0.5598     0.55980
   39          H           0.439076        0.5609     0.56092
   40          O          -0.504103        6.5041     1.82413     4.67997
 DIPOLE           X         Y         Z       TOTAL
 POINT-CHG.    12.258     0.892     5.778    13.580
 HYBRID         0.080    -0.549    -1.488     1.588
 SUM           12.337     0.343     4.290    13.067


          ATOMIC ORBITAL ELECTRON POPULATIONS

     Atom    s        px        py        pz   
    1  C   1.08693   1.05738   1.00458   0.98904
    2  C   1.08350   1.04452   1.01861   1.04519
    3  C   1.05923   0.97219   0.94526   0.96613
    4  C   1.08792   1.06079   1.00784   1.02107
    5  C   1.08737   1.05486   1.01202   0.98982
    6  C   1.08530   0.99059   1.08833   1.01512
    7  H   0.83994
    8  H   0.85821
    9  H   0.83158
   10  H   0.83908
   11  C   1.05924   1.44720   0.98865   0.87818
   12  C   1.04329   1.17724   1.13114   1.05242
   13  H   0.83752
   14  H   0.84282
   15  H   0.84461
   16  N   1.42998   0.93085   0.94533   0.98851
   17  O   1.94403   1.70001   1.66106   1.33924
   18  O   1.94398   1.68922   1.06395   1.93756
   19  N   1.68000   1.35356   1.18474   1.34924
   20  C   1.06812   1.11707   0.90413   1.02789
   21  C   1.06142   1.05765   1.11637   1.04999
   22  C   1.05767   1.04983   1.01517   1.14793
   23  C   1.06127   1.12832   1.04659   1.05155
   24  C   1.06784   0.96794   1.04030   1.04177
   25  H   0.85718
   26  H   0.87639
   27  H   0.85963
   28  H   0.85187
   29  H   0.85779
   30  H   0.85303
   31  H   0.87626
   32  H   0.52275
   33  H   0.74615
   34  H   0.85574
   35  H   0.85830
   36  H   0.86094
   37  H   0.83437
   38  H   0.55980
   39  H   0.56092
   40  O   1.82413   1.61191   1.48210   1.58596

          BONDING CONTRIBUTION OF EACH M.O.

  1.3925  1.3439  1.0318  1.8963  1.0004  1.9337  1.7203  1.9702  1.9245  1.6523
  1.4401  1.9090  1.7649  1.9492  1.9507  1.4166  1.8772  1.5299  1.6782  1.4859
  1.8806  1.2580  1.3133  1.9121  0.8548  1.9601  1.8872  1.8821  1.9007  1.7367
  1.9845  2.0091  1.9468  1.9170  1.8284  1.8970  1.9617  2.0025  1.9927  1.9555
  1.9822  1.8888  2.0057  2.0068  0.5755  0.5518  0.2771  1.9784  1.9215  0.9572
  1.1923 -1.9968 -1.8758 -1.9514 -2.3097 -2.1184 -2.0102 -1.9472 -1.6261 -1.9593
 -1.9842 -1.9733 -1.9481 -1.9621 -1.9848 -1.9732 -1.9601 -1.6185 -1.9175 -1.9715
 -2.0028 -2.0072 -1.9477 -1.9623 -1.9672 -1.9761 -1.9770 -1.9660 -1.9795 -1.9752
 -1.9865 -1.9593 -1.9750 -1.9838 -1.9740 -1.9915 -1.9723 -1.9800 -1.9704 -1.9093
 -1.9478 -1.9450 -1.9341 -1.9076





            (VALENCIES)   BOND ORDERS

     1  C     (3.973)     6  C 1.443     2  C 1.442     7  H 0.962     4  C 0.112

     2  C     (3.978)     1  C 1.442     3  C 1.421     8  H 0.959     5  C 0.112

     3  C     (3.991)     2  C 1.421     4  C 1.418    11  C 1.003     6  C 0.112    18  O 0.011

     4  C     (3.971)     5  C 1.447     3  C 1.418     9  H 0.959     1  C 0.112

     5  C     (3.971)     4  C 1.447     6  C 1.438    37  H 0.960     2  C 0.112

     6  C     (3.973)     1  C 1.443     5  C 1.438    10  H 0.962     3  C 0.112

     7  H     (0.974)     1  C 0.962

     8  H     (0.980)     2  C 0.959

     9  H     (0.972)     4  C 0.959

    10  H     (0.974)     6  C 0.962

    11  C     (3.705)    16  N 1.212     3  C 1.003    12  C 0.992    32  H 0.164    18  O 0.132    17  O 0.131
                         40  O 0.039

    12  C     (3.919)    11  C 0.992    15  H 0.964    13  H 0.963    14  H 0.963    17  O 0.012

    13  H     (0.974)    12  C 0.963

    14  H     (0.975)    12  C 0.963

    15  H     (0.976)    12  C 0.964

    16  N     (3.799)    18  O 1.266    17  O 1.260    11  C 1.212    32  H 0.016

    17  O     (1.606)    16  N 1.260    18  O 0.183    11  C 0.131    12  C 0.012

    18  O     (1.615)    16  N 1.266    17  O 0.183    11  C 0.132     3  C 0.011

    19  N     (2.884)    24  C 0.969    20  C 0.968    33  H 0.907

    20  C     (3.936)    21  C 1.001    31  H 0.971    19  N 0.968    34  H 0.964

    21  C     (3.959)    22  C 1.003    20  C 1.001    30  H 0.968    29  H 0.968

    22  C     (3.960)    21  C 1.003    23  C 1.003    36  H 0.971    35  H 0.969

    23  C     (3.959)    22  C 1.003    24  C 1.002    27  H 0.968    28  H 0.968

    24  C     (3.937)    23  C 1.002    26  H 0.971    19  N 0.969    25  H 0.964

    25  H     (0.980)    24  C 0.964

    26  H     (0.985)    24  C 0.971

    27  H     (0.980)    23  C 0.968

    28  H     (0.978)    23  C 0.968

    29  H     (0.980)    21  C 0.968

    30  H     (0.978)    21  C 0.968

    31  H     (0.985)    20  C 0.971

    32  H     (0.772)    40  O 0.561    11  C 0.164    16  N 0.016

    33  H     (0.936)    19  N 0.907

    34  H     (0.979)    20  C 0.964

    35  H     (0.980)    22  C 0.969

    36  H     (0.981)    22  C 0.971

    37  H     (0.973)     5  C 0.960

    38  H     (0.806)    40  O 0.799

    39  H     (0.807)    40  O 0.799

    40  O     (2.224)    38  H 0.799    39  H 0.799    32  H 0.561    11  C 0.039


 **********************
 *                    *
 * JOB ENDED NORMALLY *
 *                    *
 **********************



 TOTAL JOB TIME:             2.55 SECONDS

 == MOPAC DONE ==
