 *******************************************************************************
 **                                                                           **
 **                              MOPAC v22.0.6                                **
 **                                                                           **
 *******************************************************************************
 **          Digital Object Identifier (DOI): 10.5281/zenodo.6511958          **
 **    Visit the DOI location for information on how to cite this program.    **
 *******************************************************************************

                              PM7 CALCULATION RESULTS

 *******************************************************************************
 *  CALCULATION DONE:                                Sat Mar 23 21:15:48 2024  *
 *  PM7        - The PM7 Hamiltonian to be used
 *  SINGLET    - SPIN STATE DEFINED AS A SINGLET
 *
 *
 *
 *                 CHARGE ON SYSTEM = 0
 *
 *
 *
 *  EPS=78.4   - USE ANDREAS KLAMT'S COSMO IMPLICIT SOLVATION MODEL
 *  LET        - OVERRIDE SOME SAFETY CHECKS
 *  T=         - A TIME OF 14.0 DAYS REQUESTED
 *  DUMP=N     - RESTART FILE WRITTEN EVERY 30.0 MINUTES REQUESTED
 *  RELSCF     - DEFAULT SCF CRITERION MULTIPLIED BY 1.0000
 *              (DEFAULT SCF CRITERION = 0.00010)
 *  ITRY=      - DO A MAXIMUM OF 15000 ITERATIONS FOR SCF
 *  AUX        - OUTPUT AUXILIARY INFORMATION
 *  ISOTOPE    - SAVE THE FORCE MATRIX FOR USE LATER
 *  BONDS      - FINAL BOND-ORDER MATRIX TO BE PRINTED
 *  LARGE      - EXPANDED OUTPUT TO BE PRINTED
 *  THERMO     - THERMODYNAMIC QUANTITIES TO BE CALCULATED
 *******************************************************************************
PM7 AUX LARGE THERMO(298,298) LET ISOTOPE BONDS DUMP=30M ITRY=15000 T=14D CHARGE=0 SINGLET eps=78.4 RELSCF=1
 Title: ASE calculation

   ATOM   CHEMICAL          X               Y               Z
  NUMBER   SYMBOL      (ANGSTROMS)     (ANGSTROMS)     (ANGSTROMS)

     1       C          1.93298033  *   2.69557287  *   2.30428027  *
     2       C          1.92529203  *   1.30710113  *   2.19421330  *
     3       C          0.75985991  *   0.64019465  *   1.80691728  *
     4       C         -0.40351540  *   1.37453102  *   1.55426925  *
     5       C         -0.39383167  *   2.76185281  *   1.67002104  *
     6       C          0.77586292  *   3.42439930  *   2.03843371  *
     7       H          2.84884456  *   3.21048151  *   2.59566687  *
     8       H          2.83312405  *   0.75229517  *   2.41882591  *
     9       H         -1.31768095  *   0.85608990  *   1.26622662  *
    10       H          0.78641171  *   4.51045182  *   2.11835023  *
    11       C          0.74965595  *  -0.82001523  *   1.68843368  *
    12       C          0.37050742  *  -1.60890308  *   2.89623468  *
    13       H          0.69166810  *  -2.65984370  *   2.82996242  *
    14       H         -0.72186362  *  -1.62291119  *   3.04367862  *
    15       H          0.80897434  *  -1.18682822  *   3.81087685  *
    16       N          0.62127831  *  -1.39211756  *   0.46004212  *
    17       O          0.83400580  *  -0.72934157  *  -0.57920463  *
    18       O          0.39391653  *  -2.61485779  *   0.33466343  *
    19       N          4.12196528  *  -1.19179062  *   5.01571388  *
    20       C          4.43252371  *  -2.55167464  *   5.52954747  *
    21       C          5.10500756  *  -2.49255409  *   6.91020212  *
    22       C          6.36749594  *  -1.62711718  *   6.84441769  *
    23       C          5.98061515  *  -0.22174953  *   6.37369532  *
    24       C          5.31053129  *  -0.29857948  *   4.99395432  *
    25       H          4.95283418  *   0.71146647  *   4.68961374  *
    26       H          6.05771323  *  -0.61672123  *   4.23464342  *
    27       H          6.87002739  *   0.43252207  *   6.32103077  *
    28       H          5.29496400  *   0.24758834  *   7.10435951  *
    29       H          5.35090602  *  -3.51589887  *   7.24945427  *
    30       H          4.40230411  *  -2.07875581  *   7.65786623  *
    31       H          5.07555342  *  -3.12577456  *   4.82761995  *
    32       D          2.67512898  *  -1.14599907  *   1.74009837  *
    33       H          3.77446145  *  -1.27908006  *   4.05504965  *
    34       H          3.46437985  *  -3.09843573  *   5.60222495  *
    35       H          6.86516148  *  -1.58570987  *   7.83023400  *
    36       H          7.10389368  *  -2.07464556  *   6.15004755  *
    37       H         -1.30307620  *   3.33170356  *   1.47288897  *
    38       H          4.15229574  *  -2.12626546  *   1.36743902  *
    39       H          4.28233804  *  -0.58996433  *   1.09953993  *
    40       O          3.95895602  *  -1.23651410  *   1.81214672  *


                                Isotopes Used

              Atom:   32  H  Default mass  1.0079,  mass used:  2.0140 amu


          CARTESIAN COORDINATES 

    NO.       ATOM           X           Y           Z

     1         C          1.9330      2.6956      2.3043
     2         C          1.9253      1.3071      2.1942
     3         C          0.7599      0.6402      1.8069
     4         C         -0.4035      1.3745      1.5543
     5         C         -0.3938      2.7619      1.6700
     6         C          0.7759      3.4244      2.0384
     7         H          2.8488      3.2105      2.5957
     8         H          2.8331      0.7523      2.4188
     9         H         -1.3177      0.8561      1.2662
    10         H          0.7864      4.5105      2.1184
    11         C          0.7497     -0.8200      1.6884
    12         C          0.3705     -1.6089      2.8962
    13         H          0.6917     -2.6598      2.8300
    14         H         -0.7219     -1.6229      3.0437
    15         H          0.8090     -1.1868      3.8109
    16         N          0.6213     -1.3921      0.4600
    17         O          0.8340     -0.7293     -0.5792
    18         O          0.3939     -2.6149      0.3347
    19         N          4.1220     -1.1918      5.0157
    20         C          4.4325     -2.5517      5.5295
    21         C          5.1050     -2.4926      6.9102
    22         C          6.3675     -1.6271      6.8444
    23         C          5.9806     -0.2217      6.3737
    24         C          5.3105     -0.2986      4.9940
    25         H          4.9528      0.7115      4.6896
    26         H          6.0577     -0.6167      4.2346
    27         H          6.8700      0.4325      6.3210
    28         H          5.2950      0.2476      7.1044
    29         H          5.3509     -3.5159      7.2495
    30         H          4.4023     -2.0788      7.6579
    31         H          5.0756     -3.1258      4.8276
    32         H          2.6751     -1.1460      1.7401
    33         H          3.7745     -1.2791      4.0550
    34         H          3.4644     -3.0984      5.6022
    35         H          6.8652     -1.5857      7.8302
    36         H          7.1039     -2.0746      6.1500
    37         H         -1.3031      3.3317      1.4729
    38         H          4.1523     -2.1263      1.3674
    39         H          4.2823     -0.5900      1.0995
    40         O          3.9590     -1.2365      1.8121

 General Reference for PM7:
 "Optimization of Parameters for Semiempirical Methods VI: More Modifications to the 
 NDDO Approximations and Re-optimization of Parameters", J. J. P. Stewart, J. Mol. Mod., 1:32, 19 (2013)
 https://link.springer.com/article/10.1007/s00894-012-1667-x

           Empirical Formula: C13 H22 N2 O3  =    40 atoms



      MOLECULAR POINT GROUP   :   C1  


 SINGLET STATE CALCULATION


      RHF CALCULATION, NO. OF DOUBLY OCCUPIED LEVELS = 51

  SCF CRITERION =    0.1000E-03


          HEAT OF FORMATION =     -54.465601 KCALS/MOLE


          CARTESIAN COORDINATE DERIVATIVES

   NUMBER  ATOM         X            Y            Z

     1       C      0.074427    -0.037089     0.107267
     2       C     -0.033461     0.194957     0.093388
     3       C      0.038684     0.186165     0.048440
     4       C      0.111740     0.146479    -0.102274
     5       C     -0.165968     0.085725    -0.069899
     6       C      0.053077     0.086940     0.089051
     7       H      0.078790    -0.027358     0.175323
     8       H      0.009602     0.297964     0.225699
     9       H     -0.213000    -0.110941    -0.231862
    10       H      0.233703    -0.054043     0.146176
    11       C     -6.296258    24.982459    -6.892611
    12       C      0.200443     0.403132     0.144242
    13       H      0.149970     0.225807     0.181627
    14       H      0.205345     0.389907    -0.007563
    15       H      0.235837     0.213382    -0.051591
    16       N     -0.278246    -0.025361    -0.732220
    17       O      0.157449    -0.110102     0.949479
    18       O      1.004494     0.557075    -0.266651
    19       N      0.032329     0.149785    -0.250923
    20       C      0.141889     0.137549    -0.166251
    21       C      0.035763    -0.133481    -0.074233
    22       C     -0.007412    -0.090542     0.243513
    23       C      0.053968     0.092715     0.129790
    24       C      0.000579     0.151311     0.012474
    25       H     -0.107786     0.127081    -0.234768
    26       H     -0.192299     0.126264     0.101265
    27       H      0.008990     0.009338     0.053530
    28       H      0.005400    -0.099957    -0.018409
    29       H      0.075352    -0.112996     0.066787
    30       H     -0.043729    -0.099136    -0.078036
    31       H      0.097684     0.241286    -0.041877
    32       H     -0.609597    36.150162   -10.565844
    33       H      0.248176     0.117768    -0.267654
    34       H     -0.103893     0.237457    -0.289103
    35       H      0.082720    -0.209797     0.236033
    36       H      0.095065     0.115565     0.347542
    37       H     -0.027992    -0.015745    -0.186887
    38       H     -0.360465    -0.156554     0.140738
    39       H     -0.139356     0.059738    -0.189826
    40       O      5.148089   -64.203123    17.226144

 DIPOLE           X         Y         Z       TOTAL
 POINT-CHG.    -1.415   -13.343    -2.089    13.580
 HYBRID         0.664     0.317     1.407     1.588
 SUM           -0.750   -13.027    -0.682    13.066


          GRADIENT NORM =  81.12293



 ** GRADIENT IS VERY LARGE, BUT SINCE "LET" IS USED, CALCULATION WILL CONTINUE


                              **** WARNING ****

           GRADIENT IS VERY LARGE FOR A THERMO CALCULATION
           RESULTS ARE LIKELY TO BE INACCURATE IF THERE ARE
           ANY LOW-LYING VIBRATIONS (LESS THAN ABOUT 400CM-1)
           GRADIENT NORM SHOULD BE LESS THAN ABOUT 1.3 FOR THERMO
           TO GIVE ACCURATE RESULTS


          TIME FOR SCF CALCULATION =    0.20

          TIME FOR DERIVATIVES     =    0.04

          MOLECULAR WEIGHT =  255.33



          ROTATIONAL CONSTANTS IN CM(-1)

          A =    0.01815179   B =    0.00602870   C =    0.00506009



           PRINCIPAL MOMENTS OF INERTIA IN UNITS OF 10**(-40)*GRAM-CM**2

          A =     1542.1479   B =     4643.2458   C =     5532.0635


          ORIENTATION OF MOLECULE IN FORCE CALCULATION

    NO.       ATOM         X         Y         Z

     1          C      -2.9931    0.7502    0.7165
     2          C      -1.6002    0.7502    0.7165
     3          C      -0.8984    1.9586    0.7165
     4          C      -1.6040    3.1661    0.6924
     5          C      -2.9962    3.1626    0.6874
     6          C      -3.6922    1.9551    0.7063
     7          H      -3.5344   -0.1962    0.7283
     8          H      -1.0699   -0.1991    0.7104
     9          H      -1.0594    4.1098    0.6776
    10          H      -4.7812    1.9524    0.7135
    11          C       0.5667    1.9614    0.7186
    12          C       1.2597    1.9728   -0.6022
    13          H       2.3108    1.6539   -0.5283
    14          H       1.2681    2.9819   -1.0459
    15          H       0.7643    1.3117   -1.3263
    16          N       1.2348    2.4066    1.8177
    17          O       0.6550    2.5055    2.9217
    18          O       2.4648    2.6265    1.7841
    19          N       0.6557   -2.2037   -1.5674
    20          C       1.9690   -2.6801   -2.0753
    21          C       1.7973   -3.7040   -3.2085
    22          C       0.9328   -4.8760   -2.7328
    23          C      -0.4288   -4.3368   -2.2838
    24          C      -0.2395   -3.3159   -1.1521
    25          H      -1.2203   -2.8612   -0.8840
    26          H       0.1335   -3.8342   -0.2420
    27          H      -1.0818   -5.1595   -1.9393
    28          H      -0.9506   -3.8657   -3.1382
    29          H       2.7893   -4.0612   -3.5420
    30          H       1.3296   -3.2227   -4.0881
    31          H       2.5933   -3.1210   -1.2680
    32          H       0.8769    0.0877    1.1760
    33          H       0.8206   -1.6082   -0.7491
    34          H       2.5137   -1.7843   -2.4528
    35          H       0.8109   -5.6239   -3.5371
    36          H       1.4297   -5.4052   -1.8975
    37          H      -3.5436    4.1061    0.6679
    38          H       1.8754   -1.2564    1.8676
    39          H       0.3644   -1.2662    2.2746
    40          O       0.9544   -1.1685    1.4543


    FIRST DERIVATIVES WILL BE USED IN THE CALCULATION OF SECOND DERIVATIVES

          ESTIMATED TIME TO COMPLETE CALCULATION =       56.25 SECONDS

    FOR POINT-GROUP C1   THERE ARE   1 UNIQUE SYMMETRY FUNCTIONS.

 STEP:   1 TIME =     0.11 SECS, INTEGRAL =      0.11 TIME LEFT:1209599.66
 STEP:   2 TIME =     0.12 SECS, INTEGRAL =      0.23 TIME LEFT:1209599.54
 STEP:   3 TIME =     0.12 SECS, INTEGRAL =      0.34 TIME LEFT:1209599.42
 STEP:   4 TIME =     0.21 SECS, INTEGRAL =      0.55 TIME LEFT:1209599.21
 STEP:   5 TIME =     0.11 SECS, INTEGRAL =      0.66 TIME LEFT:1209599.10
 STEP:   6 TIME =     0.12 SECS, INTEGRAL =      0.78 TIME LEFT:1209598.98
 STEP:   7 TIME =     0.18 SECS, INTEGRAL =      0.96 TIME LEFT:1209598.80
 STEP:   8 TIME =     0.12 SECS, INTEGRAL =      1.08 TIME LEFT:1209598.69
 STEP:   9 TIME =     0.12 SECS, INTEGRAL =      1.20 TIME LEFT:1209598.57
 STEP:  10 TIME =     0.13 SECS, INTEGRAL =      1.33 TIME LEFT:1209598.44
 STEP:  11 TIME =     0.12 SECS, INTEGRAL =      1.45 TIME LEFT:1209598.32
 STEP:  12 TIME =     0.18 SECS, INTEGRAL =      1.62 TIME LEFT:1209598.14
 STEP:  13 TIME =     0.16 SECS, INTEGRAL =      1.78 TIME LEFT:1209597.98
 STEP:  14 TIME =     0.13 SECS, INTEGRAL =      1.91 TIME LEFT:1209597.85
 STEP:  15 TIME =     0.12 SECS, INTEGRAL =      2.03 TIME LEFT:1209597.73
 STEP:  16 TIME =     0.12 SECS, INTEGRAL =      2.15 TIME LEFT:1209597.62
 STEP:  17 TIME =     0.13 SECS, INTEGRAL =      2.28 TIME LEFT:1209597.48
 STEP:  18 TIME =     0.12 SECS, INTEGRAL =      2.41 TIME LEFT:1209597.36
 STEP:  19 TIME =     0.12 SECS, INTEGRAL =      2.53 TIME LEFT:1209597.23
 STEP:  20 TIME =     0.12 SECS, INTEGRAL =      2.65 TIME LEFT:1209597.12
 STEP:  21 TIME =     0.12 SECS, INTEGRAL =      2.77 TIME LEFT:1209597.00
 STEP:  22 TIME =     0.19 SECS, INTEGRAL =      2.95 TIME LEFT:1209596.81
 STEP:  23 TIME =     0.12 SECS, INTEGRAL =      3.07 TIME LEFT:1209596.70
 STEP:  24 TIME =     0.12 SECS, INTEGRAL =      3.19 TIME LEFT:1209596.58
 STEP:  25 TIME =     0.12 SECS, INTEGRAL =      3.30 TIME LEFT:1209596.46
 STEP:  26 TIME =     0.11 SECS, INTEGRAL =      3.41 TIME LEFT:1209596.35
 STEP:  27 TIME =     0.14 SECS, INTEGRAL =      3.55 TIME LEFT:1209596.21
 STEP:  28 TIME =     0.12 SECS, INTEGRAL =      3.67 TIME LEFT:1209596.09
 STEP:  29 TIME =     0.12 SECS, INTEGRAL =      3.79 TIME LEFT:1209595.98
 STEP:  30 TIME =     0.12 SECS, INTEGRAL =      3.91 TIME LEFT:1209595.86
 STEP:  31 TIME =     0.13 SECS, INTEGRAL =      4.04 TIME LEFT:1209595.73
 STEP:  32 TIME =     0.13 SECS, INTEGRAL =      4.17 TIME LEFT:1209595.59
 STEP:  33 TIME =     0.12 SECS, INTEGRAL =      4.29 TIME LEFT:1209595.48
 STEP:  34 TIME =     0.12 SECS, INTEGRAL =      4.41 TIME LEFT:1209595.36
 STEP:  35 TIME =     0.13 SECS, INTEGRAL =      4.54 TIME LEFT:1209595.23
 STEP:  36 TIME =     0.12 SECS, INTEGRAL =      4.66 TIME LEFT:1209595.11
 STEP:  37 TIME =     0.12 SECS, INTEGRAL =      4.77 TIME LEFT:1209594.99
 STEP:  38 TIME =     0.13 SECS, INTEGRAL =      4.91 TIME LEFT:1209594.86
 STEP:  39 TIME =     0.14 SECS, INTEGRAL =      5.05 TIME LEFT:1209594.72
 STEP:  40 TIME =     0.12 SECS, INTEGRAL =      5.16 TIME LEFT:1209594.60
 STEP:  41 TIME =     0.12 SECS, INTEGRAL =      5.28 TIME LEFT:1209594.48
 STEP:  42 TIME =     0.12 SECS, INTEGRAL =      5.40 TIME LEFT:1209594.37
 STEP:  43 TIME =     0.11 SECS, INTEGRAL =      5.51 TIME LEFT:1209594.26
 STEP:  44 TIME =     0.12 SECS, INTEGRAL =      5.62 TIME LEFT:1209594.14
 STEP:  45 TIME =     0.12 SECS, INTEGRAL =      5.74 TIME LEFT:1209594.02
 STEP:  46 TIME =     0.12 SECS, INTEGRAL =      5.86 TIME LEFT:1209593.91
 STEP:  47 TIME =     0.12 SECS, INTEGRAL =      5.98 TIME LEFT:1209593.79
 STEP:  48 TIME =     0.12 SECS, INTEGRAL =      6.09 TIME LEFT:1209593.67
 STEP:  49 TIME =     0.12 SECS, INTEGRAL =      6.21 TIME LEFT:1209593.55
 STEP:  50 TIME =     0.14 SECS, INTEGRAL =      6.35 TIME LEFT:1209593.41
 STEP:  51 TIME =     0.12 SECS, INTEGRAL =      6.48 TIME LEFT:1209593.29
 STEP:  52 TIME =     0.13 SECS, INTEGRAL =      6.61 TIME LEFT:1209593.16
 STEP:  53 TIME =     0.12 SECS, INTEGRAL =      6.73 TIME LEFT:1209593.04
 STEP:  54 TIME =     0.12 SECS, INTEGRAL =      6.84 TIME LEFT:1209592.92
 STEP:  55 TIME =     0.11 SECS, INTEGRAL =      6.95 TIME LEFT:1209592.81
 STEP:  56 TIME =     0.12 SECS, INTEGRAL =      7.07 TIME LEFT:1209592.70
 STEP:  57 TIME =     0.12 SECS, INTEGRAL =      7.19 TIME LEFT:1209592.58
 STEP:  58 TIME =     0.12 SECS, INTEGRAL =      7.30 TIME LEFT:1209592.46
 STEP:  59 TIME =     0.12 SECS, INTEGRAL =      7.42 TIME LEFT:1209592.34
 STEP:  60 TIME =     0.12 SECS, INTEGRAL =      7.54 TIME LEFT:1209592.23
 STEP:  61 TIME =     0.11 SECS, INTEGRAL =      7.65 TIME LEFT:1209592.12
 STEP:  62 TIME =     0.12 SECS, INTEGRAL =      7.77 TIME LEFT:1209592.00
 STEP:  63 TIME =     0.12 SECS, INTEGRAL =      7.88 TIME LEFT:1209591.88
 STEP:  64 TIME =     0.12 SECS, INTEGRAL =      8.01 TIME LEFT:1209591.76
 STEP:  65 TIME =     0.12 SECS, INTEGRAL =      8.12 TIME LEFT:1209591.64
 STEP:  66 TIME =     0.12 SECS, INTEGRAL =      8.24 TIME LEFT:1209591.52
 STEP:  67 TIME =     0.12 SECS, INTEGRAL =      8.37 TIME LEFT:1209591.40
 STEP:  68 TIME =     0.12 SECS, INTEGRAL =      8.48 TIME LEFT:1209591.28
 STEP:  69 TIME =     0.12 SECS, INTEGRAL =      8.60 TIME LEFT:1209591.16
 STEP:  70 TIME =     0.11 SECS, INTEGRAL =      8.71 TIME LEFT:1209591.05
 STEP:  71 TIME =     0.12 SECS, INTEGRAL =      8.83 TIME LEFT:1209590.94
 STEP:  72 TIME =     0.12 SECS, INTEGRAL =      8.95 TIME LEFT:1209590.82
 STEP:  73 TIME =     0.13 SECS, INTEGRAL =      9.08 TIME LEFT:1209590.69
 STEP:  74 TIME =     0.12 SECS, INTEGRAL =      9.20 TIME LEFT:1209590.57
 STEP:  75 TIME =     0.11 SECS, INTEGRAL =      9.30 TIME LEFT:1209590.46
 STEP:  76 TIME =     0.12 SECS, INTEGRAL =      9.43 TIME LEFT:1209590.34
 STEP:  77 TIME =     0.12 SECS, INTEGRAL =      9.55 TIME LEFT:1209590.22
 STEP:  78 TIME =     0.12 SECS, INTEGRAL =      9.66 TIME LEFT:1209590.10
 STEP:  79 TIME =     0.12 SECS, INTEGRAL =      9.79 TIME LEFT:1209589.98
 STEP:  80 TIME =     0.15 SECS, INTEGRAL =      9.94 TIME LEFT:1209589.83
