 *******************************************************************************
 **                                                                           **
 **                              MOPAC v22.0.6                                **
 **                                                                           **
 *******************************************************************************
 **          Digital Object Identifier (DOI): 10.5281/zenodo.6511958          **
 **    Visit the DOI location for information on how to cite this program.    **
 *******************************************************************************

                              PM7 CALCULATION RESULTS

 *******************************************************************************
 *  CALCULATION DONE:                                Sun Mar 24 22:23:29 2024  *
 *  PM7        - The PM7 Hamiltonian to be used
 *  SINGLET    - SPIN STATE DEFINED AS A SINGLET
 *
 *
 *
 *                 CHARGE ON SYSTEM = -1
 *
 *
 *
 *  EPS=78.4   - USE ANDREAS KLAMT'S COSMO IMPLICIT SOLVATION MODEL
 *  THREADS    - USE A MAXIMUM OF 30 THREADS
 *  T=         - A TIME OF 14.0 DAYS REQUESTED
 *  DUMP=N     - RESTART FILE WRITTEN EVERY 30.0 MINUTES REQUESTED
 *  RELSCF     - DEFAULT SCF CRITERION MULTIPLIED BY 1.0000
 *              (DEFAULT SCF CRITERION = 0.00010)
 *  ITRY=      - DO A MAXIMUM OF 15000 ITERATIONS FOR SCF
 *  AUX        - OUTPUT AUXILIARY INFORMATION
 *  BONDS      - FINAL BOND-ORDER MATRIX TO BE PRINTED
 *******************************************************************************
PM7 BONDS AUX DUMP=30M ITRY=15000 T=14D THREADS=30 CHARGE=-1 SINGLET eps=78.4 RELSCF=1
 Title: ASE calculation

   ATOM   CHEMICAL          X               Y               Z
  NUMBER   SYMBOL      (ANGSTROMS)     (ANGSTROMS)     (ANGSTROMS)

     1       C          0.45710390  *   1.28741415  *   0.33164345  *
     2       C          0.90183232  *   0.68730726  *  -0.84997460  *
     3       C          0.49418941  *  -0.61777593  *  -1.17218498  *
     4       C         -0.35577938  *  -1.29347698  *  -0.28394005  *
     5       C         -0.77858010  *  -0.67297226  *   0.89397750  *
     6       C         -0.38565812  *   0.62700963  *   1.22457985  *
     7       H          1.57826816  *   1.23419354  *  -1.52268929  *
     8       H         -0.69479264  *  -2.31336801  *  -0.51759317  *
     9       H         -0.72501440  *   1.10696162  *   2.15404819  *
    10       N         -1.64889405  *  -1.38986476  *   1.79985749  *
    11       O         -2.07911454  *  -0.81395272  *   2.79017692  *
    12       O         -1.93391974  *  -2.55472761  *   1.55628156  *
    13       C          0.95309523     -1.28657897     -2.36919673   
    14       H          4.16146589     -1.23586877  *  -2.34131481  *
    15       C          1.13121640  *  -2.76658753  *  -2.33401486  *
    16       H          1.79295705  *  -3.13411053  *  -3.13225342  *
    17       H          0.17363878  *  -3.29663096  *  -2.45174601  *
    18       H          1.57489354  *  -3.09707670  *  -1.38175394  *
    19       N          1.21249925  *  -0.62108929  *  -3.50312042  *
    20       O          1.63967900  *  -1.21028980  *  -4.52965545  *
    21       O          1.02679768  *   0.62132855  *  -3.59831124  *
    22       O          8.02521040  *  -0.70998295  *  -2.93319597  *
    23       H          8.48083821  *  -1.08832352  *  -2.17186829  *
    24       N          0.89025433  *   2.63351596  *   0.64316981  *
    25       O          0.51482915  *   3.15088058  *   1.68585834  *
    26       O          1.61904689  *   3.22074925  *  -0.14444953  *
    27       H          5.55867503  *  -1.33440954  *  -1.39612049  *
    28       H          7.09635505  *  -0.89629368  *  -2.77871521  *
    29       O          5.44980078     -1.23569003     -2.34553690   



          CARTESIAN COORDINATES 

    NO.       ATOM           X           Y           Z

     1         C          0.4571      1.2874      0.3316
     2         C          0.9018      0.6873     -0.8500
     3         C          0.4942     -0.6178     -1.1722
     4         C         -0.3558     -1.2935     -0.2839
     5         C         -0.7786     -0.6730      0.8940
     6         C         -0.3857      0.6270      1.2246
     7         H          1.5783      1.2342     -1.5227
     8         H         -0.6948     -2.3134     -0.5176
     9         H         -0.7250      1.1070      2.1540
    10         N         -1.6489     -1.3899      1.7999
    11         O         -2.0791     -0.8140      2.7902
    12         O         -1.9339     -2.5547      1.5563
    13         C          0.9531     -1.2866     -2.3692
    14         H          4.1615     -1.2359     -2.3413
    15         C          1.1312     -2.7666     -2.3340
    16         H          1.7930     -3.1341     -3.1323
    17         H          0.1736     -3.2966     -2.4517
    18         H          1.5749     -3.0971     -1.3818
    19         N          1.2125     -0.6211     -3.5031
    20         O          1.6397     -1.2103     -4.5297
    21         O          1.0268      0.6213     -3.5983
    22         O          8.0252     -0.7100     -2.9332
    23         H          8.4808     -1.0883     -2.1719
    24         N          0.8903      2.6335      0.6432
    25         O          0.5148      3.1509      1.6859
    26         O          1.6190      3.2207     -0.1444
    27         H          5.5587     -1.3344     -1.3961
    28         H          7.0964     -0.8963     -2.7787
    29         O          5.4498     -1.2357     -2.3455

 General Reference for PM7:
 "Optimization of Parameters for Semiempirical Methods VI: More Modifications to the 
 NDDO Approximations and Re-optimization of Parameters", J. J. P. Stewart, J. Mol. Mod., 1:32, 19 (2013)
 https://link.springer.com/article/10.1007/s00894-012-1667-x

           Empirical Formula: C8 H10 N3 O8  =    29 atoms



      MOLECULAR POINT GROUP   :   C1  


 SINGLET STATE CALCULATION


      RHF CALCULATION, NO. OF DOUBLY OCCUPIED LEVELS = 53


          Geometry optimization using EF
  SCF CRITERION =    0.1000E-03

          DIAGONAL MATRIX USED AS START HESSIAN

 CYCLE:     1 TIME:   0.273 TIME LEFT:  2.00W  GRAD.:     6.325 HEAT: -226.8916
 CYCLE:     2 TIME:   0.945 TIME LEFT:  2.00W  GRAD.:     5.091 HEAT: -226.8946

     TRUST RADIUS NOW LESS THAN  0.00010 OPTIMIZATION TERMINATING
      THE GEOMETRY MAY NOT BE COMPLETELY OPTIMIZED
      (TO CONTINUE, ADD 'LET DDMIN=0.0' TO THE KEYWORD LINE)

 -------------------------------------------------------------------------------
 PM7 BONDS AUX DUMP=30M ITRY=15000 T=14D THREADS=30 CHARGE=-1 SINGLET eps=78.4 RELSCF=1
 Title: ASE calculation



     GEOMETRY OPTIMISED USING EIGENVECTOR FOLLOWING (EF).     
     SCF FIELD WAS ACHIEVED                                   


                              PM7 CALCULATION
                                                       MOPAC v22.0.6 Linux
                                                       Sun Mar 24 22:23:31 2024




          FINAL HEAT OF FORMATION =       -226.89462 KCAL/MOL =    -949.32710 KJ/MOL
          VAN DER WAALS AREA      =        297.34 SQUARE ANGSTROMS



          DIELECTRIC ENERGY       =         -3.27689 EV
          COSMO AREA              =        297.34 SQUARE ANGSTROMS
          COSMO VOLUME            =        300.01 CUBIC ANGSTROMS

          GRADIENT NORM           =          5.09130          =       0.94543 PER ATOM
          IONIZATION POTENTIAL    =          8.555630 EV
          HOMO LUMO ENERGIES (EV) =         -8.556 -1.682
          NO. OF FILLED LEVELS    =         53
          MOLECULAR WEIGHT        =        276.1823         POINT GROUP:  C1  

          MOLECULAR DIMENSIONS (Angstroms)

            Atom       Atom       Distance
            H    23    O    11    11.67084
            O    25    H    17     7.49936
            O    21    H    23     4.62569


          SCF CALCULATIONS        =         13

          WALL-CLOCK TIME         =      1.766 SECONDS
          COMPUTATION TIME        =          2 MINUTES AND 11.607 SECONDS



       FINAL  POINT  AND  DERIVATIVES

   PARAMETER     ATOM    TYPE            VALUE        GRADIENT
      1          1  C    CARTESIAN X     0.457179     -0.718830  KCAL/ANGSTROM
      2          1  C    CARTESIAN Y     1.287508     -1.002974  KCAL/ANGSTROM
      3          1  C    CARTESIAN Z     0.331564      0.645979  KCAL/ANGSTROM
      4          2  C    CARTESIAN X     0.901813      0.139491  KCAL/ANGSTROM
      5          2  C    CARTESIAN Y     0.687199      0.943519  KCAL/ANGSTROM
      6          2  C    CARTESIAN Z    -0.850023      0.495471  KCAL/ANGSTROM
      7          3  C    CARTESIAN X     0.494326     -1.332921  KCAL/ANGSTROM
      8          3  C    CARTESIAN Y    -0.617546     -2.100602  KCAL/ANGSTROM
      9          3  C    CARTESIAN Z    -1.172256      0.685535  KCAL/ANGSTROM
     10          4  C    CARTESIAN X    -0.355861      0.723295  KCAL/ANGSTROM
     11          4  C    CARTESIAN Y    -1.293658      1.712088  KCAL/ANGSTROM
     12          4  C    CARTESIAN Z    -0.283894     -0.365094  KCAL/ANGSTROM
     13          5  C    CARTESIAN X    -0.778555     -0.146561  KCAL/ANGSTROM
     14          5  C    CARTESIAN Y    -0.672810     -1.443721  KCAL/ANGSTROM
     15          5  C    CARTESIAN Z     0.894040     -0.654650  KCAL/ANGSTROM
     16          6  C    CARTESIAN X    -0.385772      1.062501  KCAL/ANGSTROM
     17          6  C    CARTESIAN Y     0.626875      1.149412  KCAL/ANGSTROM
     18          6  C    CARTESIAN Z     1.224692     -1.057528  KCAL/ANGSTROM
     19          7  H    CARTESIAN X     1.578258      0.109398  KCAL/ANGSTROM
     20          7  H    CARTESIAN Y     1.234174      0.217754  KCAL/ANGSTROM
     21          7  H    CARTESIAN Z    -1.522697      0.094782  KCAL/ANGSTROM
     22          8  H    CARTESIAN X    -0.694776     -0.171873  KCAL/ANGSTROM
     23          8  H    CARTESIAN Y    -2.313318     -0.501659  KCAL/ANGSTROM
     24          8  H    CARTESIAN Z    -0.517591     -0.014361  KCAL/ANGSTROM
     25          9  H    CARTESIAN X    -0.725012     -0.006469  KCAL/ANGSTROM
     26          9  H    CARTESIAN Y     1.106936      0.265564  KCAL/ANGSTROM
     27          9  H    CARTESIAN Z     2.154010      0.378976  KCAL/ANGSTROM
     28         10  N    CARTESIAN X    -1.648920      0.190457  KCAL/ANGSTROM
     29         10  N    CARTESIAN Y    -1.389891      0.183420  KCAL/ANGSTROM
     30         10  N    CARTESIAN Z     1.799874     -0.080103  KCAL/ANGSTROM
     31         11  O    CARTESIAN X    -2.079103     -0.092761  KCAL/ANGSTROM
     32         11  O    CARTESIAN Y    -0.813986      0.355414  KCAL/ANGSTROM
     33         11  O    CARTESIAN Z     2.790137      0.374031  KCAL/ANGSTROM
     34         12  O    CARTESIAN X    -1.933913     -0.070338  KCAL/ANGSTROM
     35         12  O    CARTESIAN Y    -2.554682     -0.458054  KCAL/ANGSTROM
     36         12  O    CARTESIAN Z     1.556290     -0.072457  KCAL/ANGSTROM
     37         14  H    CARTESIAN Y    -1.235854     -0.168870  KCAL/ANGSTROM
     38         14  H    CARTESIAN Z    -2.341385      0.790576  KCAL/ANGSTROM
     39         15  C    CARTESIAN X     1.131221     -0.049106  KCAL/ANGSTROM
     40         15  C    CARTESIAN Y    -2.766632      0.468132  KCAL/ANGSTROM
     41         15  C    CARTESIAN Z    -2.333981     -0.341300  KCAL/ANGSTROM
     42         16  H    CARTESIAN X     1.792985     -0.335228  KCAL/ANGSTROM
     43         16  H    CARTESIAN Y    -3.134092     -0.226801  KCAL/ANGSTROM
     44         16  H    CARTESIAN Z    -3.132262      0.094058  KCAL/ANGSTROM
     45         17  H    CARTESIAN X     0.173650     -0.130472  KCAL/ANGSTROM
     46         17  H    CARTESIAN Y    -3.296634      0.051074  KCAL/ANGSTROM
     47         17  H    CARTESIAN Z    -2.451756      0.111667  KCAL/ANGSTROM
     48         18  H    CARTESIAN X     1.574909     -0.200189  KCAL/ANGSTROM
     49         18  H    CARTESIAN Y    -3.097088      0.138431  KCAL/ANGSTROM
     50         18  H    CARTESIAN Z    -1.381784      0.317082  KCAL/ANGSTROM
     51         19  N    CARTESIAN X     1.212545     -0.554419  KCAL/ANGSTROM
     52         19  N    CARTESIAN Y    -0.621057     -0.367876  KCAL/ANGSTROM
     53         19  N    CARTESIAN Z    -3.503136      0.229834  KCAL/ANGSTROM
     54         20  O    CARTESIAN X     1.639668      0.168044  KCAL/ANGSTROM
     55         20  O    CARTESIAN Y    -1.210333      0.412249  KCAL/ANGSTROM
     56         20  O    CARTESIAN Z    -4.529693      0.362531  KCAL/ANGSTROM
     57         21  O    CARTESIAN X     1.026802     -0.087384  KCAL/ANGSTROM
     58         21  O    CARTESIAN Y     0.621383     -0.535815  KCAL/ANGSTROM
     59         21  O    CARTESIAN Z    -3.598289     -0.207416  KCAL/ANGSTROM
     60         22  O    CARTESIAN X     8.025156      0.635134  KCAL/ANGSTROM
     61         22  O    CARTESIAN Y    -0.710002      0.180240  KCAL/ANGSTROM
     62         22  O    CARTESIAN Z    -2.933185     -0.041515  KCAL/ANGSTROM
     63         23  H    CARTESIAN X     8.480782      0.683934  KCAL/ANGSTROM
     64         23  H    CARTESIAN Y    -1.088307     -0.167017  KCAL/ANGSTROM
     65         23  H    CARTESIAN Z    -2.171934      0.701105  KCAL/ANGSTROM
     66         24  N    CARTESIAN X     0.890259      0.014642  KCAL/ANGSTROM
     67         24  N    CARTESIAN Y     2.633509      0.174055  KCAL/ANGSTROM
     68         24  N    CARTESIAN Z     0.643136      0.334524  KCAL/ANGSTROM
     69         25  O    CARTESIAN X     0.514832     -0.065733  KCAL/ANGSTROM
     70         25  O    CARTESIAN Y     3.150885     -0.034084  KCAL/ANGSTROM
     71         25  O    CARTESIAN Z     1.685873     -0.107001  KCAL/ANGSTROM
     72         26  O    CARTESIAN X     1.619037      0.087872  KCAL/ANGSTROM
     73         26  O    CARTESIAN Y     3.220743      0.029782  KCAL/ANGSTROM
     74         26  O    CARTESIAN Z    -0.144440     -0.085945  KCAL/ANGSTROM
     75         27  H    CARTESIAN X     5.558654      0.268363  KCAL/ANGSTROM
     76         27  H    CARTESIAN Y    -1.334437      0.319533  KCAL/ANGSTROM
     77         27  H    CARTESIAN Z    -1.396054     -0.729726  KCAL/ANGSTROM
     78         28  H    CARTESIAN X     7.096316      0.509004  KCAL/ANGSTROM
     79         28  H    CARTESIAN Y    -0.896257     -0.422295  KCAL/ANGSTROM
     80         28  H    CARTESIAN Z    -2.778693     -0.279639  KCAL/ANGSTROM




   ATOM   CHEMICAL          X               Y               Z
  NUMBER   SYMBOL      (ANGSTROMS)     (ANGSTROMS)     (ANGSTROMS)

     1       C          0.45717925  *   1.28750790  *   0.33156407  *
     2       C          0.90181300  *   0.68719945  *  -0.85002342  *
     3       C          0.49432624  *  -0.61754556  *  -1.17225623  *
     4       C         -0.35586147  *  -1.29365798  *  -0.28389377  *
     5       C         -0.77855530  *  -0.67280980  *   0.89403997  *
     6       C         -0.38577156  *   0.62687533  *   1.22469219  *
     7       H          1.57825820  *   1.23417398  *  -1.52269686  *
     8       H         -0.69477640  *  -2.31331782  *  -0.51759062  *
     9       H         -0.72501206  *   1.10693626  *   2.15400954  *
    10       N         -1.64891964  *  -1.38989118  *   1.79987394  *
    11       O         -2.07910328  *  -0.81398568  *   2.79013680  *
    12       O         -1.93391257  *  -2.55468157  *   1.55629005  *
    13       C          0.95309523     -1.28657897     -2.36919673   
    14       H          4.16146589     -1.23585432  *  -2.34138475  *
    15       C          1.13122117  *  -2.76663165  *  -2.33398091  *
    16       H          1.79298466  *  -3.13409152  *  -3.13226242  *
    17       H          0.17365008  *  -3.29663450  *  -2.45175577  *
    18       H          1.57490872  *  -3.09708771  *  -1.38178410  *
    19       N          1.21254521  *  -0.62105711  *  -3.50313631  *
    20       O          1.63966815  *  -1.21033323  *  -4.52969289  *
    21       O          1.02680164  *   0.62138285  *  -3.59828947  *
    22       O          8.02515616  *  -0.71000223  *  -2.93318549  *
    23       H          8.48078168  *  -1.08830693  *  -2.17193386  *
    24       N          0.89025882  *   2.63350949  *   0.64313631  *
    25       O          0.51483239  *   3.15088538  *   1.68587317  *
    26       O          1.61903732  *   3.22074297  *  -0.14444034  *
    27       H          5.55865427  *  -1.33443687  *  -1.39605390  *
    28       H          7.09631559  *  -0.89625685  *  -2.77869254  *
    29       O          5.44980078     -1.23569003     -2.34553690   

                             CARTESIAN COORDINATES

   1    C        0.457179248     1.287507899     0.331564072
   2    C        0.901812998     0.687199452    -0.850023415
   3    C        0.494326238    -0.617545558    -1.172256228
   4    C       -0.355861473    -1.293657976    -0.283893774
   5    C       -0.778555298    -0.672809803     0.894039972
   6    C       -0.385771563     0.626875333     1.224692186
   7    H        1.578258196     1.234173977    -1.522696856
   8    H       -0.694776404    -2.313317817    -0.517590621
   9    H       -0.725012056     1.106936256     2.154009537
  10    N       -1.648919643    -1.389891181     1.799873940
  11    O       -2.079103277    -0.813985684     2.790136804
  12    O       -1.933912568    -2.554681569     1.556290054
  13    C        0.953095230    -1.286578970    -2.369196730
  14    H        4.161465890    -1.235854318    -2.341384750
  15    C        1.131221165    -2.766631647    -2.333980909
  16    H        1.792984664    -3.134091518    -3.132262418
  17    H        0.173650078    -3.296634497    -2.451755769
  18    H        1.574908724    -3.097087708    -1.381784096
  19    N        1.212545211    -0.621057112    -3.503136306
  20    O        1.639668154    -1.210333233    -4.529692890
  21    O        1.026801642     0.621382853    -3.598289470
  22    O        8.025156160    -0.710002229    -2.933185486
  23    H        8.480781676    -1.088306929    -2.171933859
  24    N        0.890258823     2.633509492     0.643136309
  25    O        0.514832391     3.150885378     1.685873170
  26    O        1.619037321     3.220742966    -0.144440337
  27    H        5.558654274    -1.334436870    -1.396053898
  28    H        7.096315590    -0.896256846    -2.778692540
  29    O        5.449800780    -1.235690030    -2.345536900


           Empirical Formula: C8 H10 N3 O8  =    29 atoms



      MOLECULAR POINT GROUP   :   C1  


                  EIGENVALUES  
 -37.60526 -37.54106 -36.04587 -31.78972 -30.98766 -30.90599 -29.27937 -28.59699
 -28.44442 -28.18449 -27.52767 -26.50934 -25.28468 -25.08284 -24.07838 -22.23117
 -21.48789 -20.36558 -19.14517 -18.65200 -18.05489 -17.82123 -17.80368 -17.59741
 -17.56477 -17.20586 -17.11428 -16.57639 -16.48492 -15.87468 -15.68231 -14.80690
 -14.43566 -14.08283 -13.87959 -13.75985 -13.62703 -13.28230 -12.89706 -12.36263
 -12.04168 -12.00056 -11.98051 -11.92046 -11.90210 -11.84028 -11.69156 -11.12873
 -11.08504 -11.05179 -10.87948 -10.73269  -8.55563  -1.68235  -1.39549  -0.18218
   0.25071   0.28874   0.42268   1.04604   1.68543   1.89382   2.02224   2.86892
   3.04915   3.47436   3.51946   3.72900   3.81099   4.06468   4.19795   4.43551
   4.53987   4.54724   4.62664   4.68527   5.25637   5.42221   5.49214   5.64611
   5.78258   5.83233   5.89039   6.05134   6.85846   7.02151


              NET ATOMIC CHARGES AND DIPOLE CONTRIBUTIONS

  ATOM NO.   TYPE          CHARGE      No. of ELECS.   s-Pop       p-Pop       
    1          C          -0.069489        4.0695     1.06681     3.00268
    2          C          -0.064132        4.0641     1.10152     2.96261
    3          C           0.072716        3.9273     1.05613     2.87116
    4          C          -0.072225        4.0722     1.10026     2.97196
    5          C          -0.071184        4.0712     1.06709     3.00410
    6          C          -0.055867        4.0559     1.09502     2.96085
    7          H           0.211294        0.7887     0.78871
    8          H           0.203764        0.7962     0.79624
    9          H           0.213857        0.7861     0.78614
   10          N           0.674055        4.3259     1.44695     2.87900
   11          O          -0.453766        6.4538     1.94097     4.51280
   12          O          -0.455278        6.4553     1.94089     4.51439
   13          C          -0.293223        4.2932     1.02462     3.26860
   14          H           0.446558        0.5534     0.55344
   15          C          -0.407761        4.4078     1.04357     3.36419
   16          H           0.163102        0.8369     0.83690
   17          H           0.153412        0.8466     0.84659
   18          H           0.159045        0.8410     0.84096
   19          N           0.694709        4.3053     1.41944     2.88585
   20          O          -0.685673        6.6857     1.94500     4.74068
   21          O          -0.690604        6.6906     1.94533     4.74527
   22          O          -0.763479        6.7635     1.81220     4.95128
   23          H           0.374613        0.6254     0.62539
   24          N           0.677066        4.3229     1.44612     2.87682
   25          O          -0.454412        6.4544     1.94086     4.51355
   26          O          -0.448850        6.4489     1.94074     4.50811
   27          H           0.355128        0.6449     0.64487
   28          H           0.375357        0.6246     0.62464
   29          O          -0.788731        6.7887     1.88150     4.90724
 DIPOLE           X         Y         Z       TOTAL
 POINT-CHG.    -1.989    -4.807    11.936    13.020
 HYBRID        -0.421     0.372     0.718     0.912
 SUM           -2.409    -4.435    12.654    13.623


          ATOMIC ORBITAL ELECTRON POPULATIONS

     Atom    s        px        py        pz   
    1  C   1.06681   1.08193   0.88467   1.03607
    2  C   1.10152   0.97758   1.00740   0.97763
    3  C   1.05613   0.94843   0.95490   0.96783
    4  C   1.10026   0.93656   1.08670   0.94870
    5  C   1.06709   1.04032   0.98162   0.98215
    6  C   1.09502   0.93875   0.96954   1.05256
    7  H   0.78871
    8  H   0.79624
    9  H   0.78614
   10  N   1.44695   0.94839   0.96428   0.96633
   11  O   1.94097   1.59532   1.67820   1.23927
   12  O   1.94089   1.65904   1.06513   1.79021
   13  C   1.02462   1.38085   0.97397   0.91378
   14  H   0.55344
   15  C   1.04357   1.18103   0.99295   1.19021
   16  H   0.83690
   17  H   0.84659
   18  H   0.84096
   19  N   1.41944   0.96411   0.93976   0.98198
   20  O   1.94500   1.67284   1.72882   1.33901
   21  O   1.94533   1.75926   1.05880   1.92721
   22  O   1.81220   1.44156   1.88415   1.62557
   23  H   0.62539
   24  N   1.44612   0.93061   0.99980   0.94640
   25  O   1.94086   1.60626   1.73162   1.17567
   26  O   1.94074   1.37062   1.68350   1.45399
   27  H   0.64487
   28  H   0.62464
   29  O   1.88150   1.46672   1.99311   1.44741

          BONDING CONTRIBUTION OF EACH M.O.

  1.3486  1.3465  1.4144  1.8655  1.0190  0.9867  1.1334  1.5713  1.2635  1.2970
  0.8934  1.2576  1.1642  1.3878  1.3028  1.5812  1.2874  1.3013  1.2666  1.2233
  1.1878  1.5734  1.6419  1.6390  1.5173  1.2811  1.8237  1.8169  1.4599  1.3284
  1.7907  0.8633  1.8469  1.8565  0.9801  1.7670  1.8865  1.8833  1.8570  0.0001
  0.0044  0.8577  0.8588  0.3029  0.2967  0.6016  0.6675  0.8067  1.5223  1.4604
  0.7554  0.3838  1.2938 -2.1272 -2.1663 -2.1942 -2.1415 -2.2491 -2.1020 -2.3973
 -2.1119 -1.6116 -2.1307 -1.9538 -1.9586 -1.9704 -1.9767 -1.9808 -2.0234 -2.0217
 -1.9951 -2.0055 -1.9582 -1.9640 -1.7363 -1.9604 -1.9207 -1.9321 -1.9424 -1.9453
 -1.9729 -1.9708 -1.7315 -1.9502 -1.7157 -1.9056





            (VALENCIES)   BOND ORDERS

     1  C     (3.939)     6  C 1.402     2  C 1.382    24  N 0.898     4  C 0.090    26  O 0.069    25  O 0.069

     2  C     (3.942)     3  C 1.386     1  C 1.382     7  H 0.938     5  C 0.091     4  C 0.036    25  O 0.018
                         13  C 0.015    19  N 0.013    26  O 0.011

     3  C     (3.991)     2  C 1.386     4  C 1.386    13  C 1.076     6  C 0.093    20  O 0.014

     4  C     (3.946)     5  C 1.386     3  C 1.386     8  H 0.942     1  C 0.090     2  C 0.036    11  O 0.018
                         19  N 0.015    13  C 0.015    12  O 0.011

     5  C     (3.936)     6  C 1.396     4  C 1.386    10  N 0.899     2  C 0.091    12  O 0.068    11  O 0.068

     6  C     (3.944)     1  C 1.402     5  C 1.396     9  H 0.938     3  C 0.093    26  O 0.018    12  O 0.018
                         11  O 0.012    25  O 0.012

     7  H     (0.955)     2  C 0.938

     8  H     (0.958)     4  C 0.942

     9  H     (0.954)     6  C 0.938

    10  N     (3.783)    11  O 1.427    12  O 1.426     5  C 0.899

    11  O     (1.822)    10  N 1.427    12  O 0.288     5  C 0.068     4  C 0.018     6  C 0.012

    12  O     (1.821)    10  N 1.426    11  O 0.288     5  C 0.068     6  C 0.018     4  C 0.011

    13  C     (3.768)    19  N 1.346     3  C 1.076    15  C 1.001    20  O 0.144    21  O 0.143     2  C 0.015
                          4  C 0.015

    14  H     (0.801)    29  O 0.788

    15  C     (3.920)    13  C 1.001    18  H 0.963    17  H 0.963    16  H 0.961    21  O 0.012

    16  H     (0.973)    15  C 0.961

    17  H     (0.976)    15  C 0.963

    18  H     (0.975)    15  C 0.963

    19  N     (3.813)    13  C 1.346    20  O 1.209    21  O 1.202     4  C 0.015     2  C 0.013

    20  O     (1.544)    19  N 1.209    21  O 0.157    13  C 0.144     3  C 0.014

    21  O     (1.541)    19  N 1.202    20  O 0.157    13  C 0.143    15  C 0.012

    22  O     (1.707)    23  H 0.858    28  H 0.832

    23  H     (0.860)    22  O 0.858

    24  N     (3.784)    26  O 1.428    25  O 1.427     1  C 0.898

    25  O     (1.823)    24  N 1.427    26  O 0.288     1  C 0.069     2  C 0.018     6  C 0.012

    26  O     (1.824)    24  N 1.428    25  O 0.288     1  C 0.069     6  C 0.018     2  C 0.011

    27  H     (0.874)    29  O 0.869

    28  H     (0.859)    22  O 0.832    29  O 0.025

    29  O     (1.690)    27  H 0.869    14  H 0.788    28  H 0.025


 **********************
 *                    *
 * JOB ENDED NORMALLY *
 *                    *
 **********************



 TOTAL JOB TIME:             1.78 SECONDS

 == MOPAC DONE ==
