 *******************************************************************************
 **                                                                           **
 **                              MOPAC v22.1.0                                **
 **                                                                           **
 *******************************************************************************
 **          Digital Object Identifier (DOI): 10.5281/zenodo.6511958          **
 **    Visit the DOI location for information on how to cite this program.    **
 *******************************************************************************

                              PM7 CALCULATION RESULTS

 *******************************************************************************
 *  CALCULATION DONE:                                Sat Mar 23 21:07:53 2024  *
 *  PM7        - The PM7 Hamiltonian to be used
 *  SINGLET    - SPIN STATE DEFINED AS A SINGLET
 *
 *
 *
 *                 CHARGE ON SYSTEM = -1
 *
 *
 *
 *  EPS=78.4   - USE ANDREAS KLAMT'S COSMO IMPLICIT SOLVATION MODEL
 *  THREADS    - USE A MAXIMUM OF 40 THREADS
 *  T=         - A TIME OF 14.0 DAYS REQUESTED
 *  DUMP=N     - RESTART FILE WRITTEN EVERY 30.0 MINUTES REQUESTED
 *  ITRY=      - DO A MAXIMUM OF 15000 ITERATIONS FOR SCF
 *  AUX        - OUTPUT AUXILIARY INFORMATION
 *  PL         - MONITOR CONVERGENCE IN DENSITY MATRIX
 *******************************************************************************
PM7 CHARGE=-1 SINGLET AUX DUMP=30M ITRY=15000 eps=78.4 T=14D PL THREADS=40

 Mopac file generated by Gabedit
   ATOM   CHEMICAL          X               Y               Z
  NUMBER   SYMBOL      (ANGSTROMS)     (ANGSTROMS)     (ANGSTROMS)

     1       C          0.88830000  *   3.30671000  *   1.94962000  *
     2       C          1.40316000  *   2.01227000  *   1.88065000  *
     3       C          0.54503000  *   0.91514000  *   1.77560000  *
     4       C         -0.83715000  *   1.11233000  *   1.73753000  *
     5       C         -1.31710000  *   2.41111000  *   1.81404000  *
     6       C         -0.48933000  *   3.52055000  *   1.91761000  *
     7       H          1.56593000  *   4.16110000  *   2.03388000  *
     8       H          2.48775000  *   1.86899000  *   1.91519000  *
     9       H         -1.52268000  *   0.26499000  *   1.64971000  *
    10      Cl         -3.02088000  *   2.63877000  *   1.79140000  *
    11       H         -0.89200000  *   4.53374000  *   1.97695000  *
    12       C          1.12231000  *  -0.47505000  *   1.72000000  *
    13       C          0.50695000  *  -1.40973000  *   2.75426000  *
    14       H          1.00004000  *  -2.39358000  *   2.77362000  *
    15       H         -0.56528000  *  -1.59173000  *   2.58950000  *
    16       H          0.59863000  *  -0.98692000  *   3.76852000  *
    17       N          0.87483000  *  -1.03729000  *   0.34463000  *
    18       O          1.84657000  *  -1.30316000  *  -0.34546000  *
    19       O         -0.26950000  *  -1.20459000  *  -0.03717000  *
    20       H          2.24621000  *  -0.44802000  *   1.86494000  *
    21       O          6.58046800  *   0.00847400  *   2.54767900  *
    22       H          7.01668800  *   0.71574400  *   2.22680900  *
    23       H          4.49799900  *   0.38734700  *   1.77930000  *
    24       H          3.60413000  *  -1.08482500  *   1.80122600  *
    25       O          3.99836700  *  -0.32957400  *   1.79440800  *



          CARTESIAN COORDINATES 

    NO.       ATOM           X           Y           Z

     1         C          0.8883      3.3067      1.9496
     2         C          1.4032      2.0123      1.8807
     3         C          0.5450      0.9151      1.7756
     4         C         -0.8372      1.1123      1.7375
     5         C         -1.3171      2.4111      1.8140
     6         C         -0.4893      3.5206      1.9176
     7         H          1.5659      4.1611      2.0339
     8         H          2.4878      1.8690      1.9152
     9         H         -1.5227      0.2650      1.6497
    10        Cl         -3.0209      2.6388      1.7914
    11         H         -0.8920      4.5337      1.9769
    12         C          1.1223     -0.4751      1.7200
    13         C          0.5070     -1.4097      2.7543
    14         H          1.0000     -2.3936      2.7736
    15         H         -0.5653     -1.5917      2.5895
    16         H          0.5986     -0.9869      3.7685
    17         N          0.8748     -1.0373      0.3446
    18         O          1.8466     -1.3032     -0.3455
    19         O         -0.2695     -1.2046     -0.0372
    20         H          2.2462     -0.4480      1.8649
    21         O          6.5805      0.0085      2.5477
    22         H          7.0167      0.7157      2.2268
    23         H          4.4980      0.3873      1.7793
    24         H          3.6041     -1.0848      1.8012
    25         O          3.9984     -0.3296      1.7944

 General Reference for PM7:
 "Optimization of Parameters for Semiempirical Methods VI: More Modifications to the 
 NDDO Approximations and Re-optimization of Parameters", J. J. P. Stewart, J. Mol. Mod., 1:32, 19 (2013)
 https://link.springer.com/article/10.1007/s00894-012-1667-x

           Empirical Formula: C8 H11 N O4 Cl  =    25 atoms



      MOLECULAR POINT GROUP   :   C1  


 SINGLET STATE CALCULATION


      RHF CALCULATION, NO. OF DOUBLY OCCUPIED LEVELS = 40


          Geometry optimization using EF
 ITERATION   1 PLS= 0.100E+01 0.000E+00 ENERGY    11490.731941 DELTAE    0.0000000
 ITERATION   2 PLS= 0.124E+01 0.000E+00 ENERGY      112.733742 DELTAE    0.0000000
 ITERATION   3 PLS= 0.103E+00 0.000E+00 ENERGY       -0.205724 DELTAE -112.9394653
 ITERATION   4 PLS= 0.717E-01 0.000E+00 ENERGY     -184.316902 DELTAE -184.1111789
 ITERATION   5 PLS= 0.190E-01 0.000E+00 ENERGY      -80.888367 DELTAE  103.4285357
 ITERATION   6 PLS= 0.118E-01 0.000E+00 ENERGY      -83.499095 DELTAE   -2.6107281
 ITERATION   7 PLS= 0.240E-01 0.000E+00 ENERGY      -99.693522 DELTAE  -16.1944272
 ITERATION   8 PLS= 0.167E-01 0.000E+00 ENERGY      -87.861360 DELTAE   11.8321620
 ITERATION   9 PLS= 0.760E-02 0.000E+00 ENERGY      -88.048271 DELTAE   -0.1869110
 ITERATION  10 PLS= 0.296E-02 0.000E+00 ENERGY      -88.132356 DELTAE   -0.0840849
 ITERATION  11 PLS= 0.627E-03 0.000E+00 ENERGY      -88.092856 DELTAE    0.0395004
 ITERATION  12 PLS= 0.284E-03 0.000E+00 ENERGY      -88.093050 DELTAE   -0.0001946
 ITERATION  13 PLS= 0.144E-03 0.000E+00 ENERGY      -88.093184 DELTAE   -0.0001337
 ITERATION   1 PLS= 0.772E-04 0.000E+00 ENERGY     -183.471580 DELTAE -283.4715800
 ITERATION   2 PLS= 0.302E-01 0.000E+00 ENERGY     -185.576152 DELTAE   -2.1045715
 ITERATION   3 PLS= 0.117E-01 0.000E+00 ENERGY     -185.921999 DELTAE   -0.3458479
 ITERATION   4 PLS= 0.549E-02 0.000E+00 ENERGY     -186.155175 DELTAE   -0.2331755
 ITERATION   5 PLS= 0.904E-03 0.000E+00 ENERGY     -186.043819 DELTAE    0.1113563
 ITERATION   6 PLS= 0.653E-03 0.000E+00 ENERGY     -186.044602 DELTAE   -0.0007829
 ITERATION   7 PLS= 0.476E-03 0.000E+00 ENERGY     -186.046719 DELTAE   -0.0021169
 ITERATION   8 PLS= 0.109E-03 0.000E+00 ENERGY     -186.045222 DELTAE    0.0014966

          DIAGONAL MATRIX USED AS START HESSIAN

 CYCLE:     1 TIME:   0.203 TIME LEFT:  2.00W  GRAD.:    34.855 HEAT: -186.0452
 ITERATION   1 PLS= 0.814E-04 0.000E+00 ENERGY     -185.968277 DELTAE -285.9682775
 ITERATION   2 PLS= 0.126E-01 0.000E+00 ENERGY     -187.095294 DELTAE   -1.1270162
 ITERATION   3 PLS= 0.265E-02 0.000E+00 ENERGY     -187.266431 DELTAE   -0.1711378
 ITERATION   4 PLS= 0.132E-02 0.000E+00 ENERGY     -187.345352 DELTAE   -0.0789208
 ITERATION   5 PLS= 0.391E-03 0.000E+00 ENERGY     -187.311208 DELTAE    0.0341446
 CYCLE:     2 TIME:   0.102 TIME LEFT:  2.00W  GRAD.:    52.302 HEAT: -187.3113
 ITERATION   1 PLS= 0.139E-03 0.000E+00 ENERGY     -177.030616 DELTAE -277.0306161
 ITERATION   2 PLS= 0.407E-01 0.000E+00 ENERGY     -188.828324 DELTAE  -11.7977084
 ITERATION   3 PLS= 0.205E-01 0.000E+00 ENERGY     -191.256908 DELTAE   -2.4285839
 ITERATION   4 PLS= 0.111E-01 0.000E+00 ENERGY     -193.315171 DELTAE   -2.0582626
 ITERATION   5 PLS= 0.304E-02 0.000E+00 ENERGY     -192.122812 DELTAE    1.1923594
 ITERATION   6 PLS= 0.102E-02 0.000E+00 ENERGY     -192.125163 DELTAE   -0.0023517
 CYCLE:     3 TIME:   0.102 TIME LEFT:  2.00W  GRAD.:   135.876 HEAT: -192.1260
 ITERATION   1 PLS= 0.374E-03 0.000E+00 ENERGY     -173.452991 DELTAE -273.4529906
 ITERATION   2 PLS= 0.959E-01 0.000E+00 ENERGY     -191.608356 DELTAE  -18.1553654
 ITERATION   3 PLS= 0.395E-01 0.000E+00 ENERGY     -196.021259 DELTAE   -4.4129028
 ITERATION   4 PLS= 0.223E-01 0.000E+00 ENERGY     -201.334287 DELTAE   -5.3130285
 ITERATION   5 PLS= 0.738E-02 0.000E+00 ENERGY     -198.044593 DELTAE    3.2896945
 ITERATION   6 PLS= 0.225E-02 0.000E+00 ENERGY     -198.053413 DELTAE   -0.0088198
 CYCLE:     4 TIME:   0.094 TIME LEFT:  2.00W  GRAD.:   164.258 HEAT: -198.0564
 ITERATION   1 PLS= 0.880E-03 0.000E+00 ENERGY     -146.460288 DELTAE -246.4602882
 ITERATION   2 PLS= 0.531E-01 0.000E+00 ENERGY     -181.383597 DELTAE  -34.9233087
 ITERATION   3 PLS= 0.262E-01 0.000E+00 ENERGY     -186.066234 DELTAE   -4.6826370
 ITERATION   4 PLS= 0.161E-01 0.000E+00 ENERGY     -188.882505 DELTAE   -2.8162715
 ITERATION   5 PLS= 0.286E-02 0.000E+00 ENERGY     -187.443548 DELTAE    1.4389570
 ITERATION   6 PLS= 0.150E-02 0.000E+00 ENERGY     -187.450375 DELTAE   -0.0068264
 ITERATION   1 PLS= 0.977E-03 0.000E+00 ENERGY     -194.436234 DELTAE -294.4362342
 ITERATION   2 PLS= 0.220E-01 0.000E+00 ENERGY     -202.019876 DELTAE   -7.5836418
 ITERATION   3 PLS= 0.130E-01 0.000E+00 ENERGY     -203.202470 DELTAE   -1.1825943
 ITERATION   4 PLS= 0.730E-02 0.000E+00 ENERGY     -203.959173 DELTAE   -0.7567029
 ITERATION   5 PLS= 0.840E-03 0.000E+00 ENERGY     -203.561744 DELTAE    0.3974289
 ITERATION   6 PLS= 0.512E-03 0.000E+00 ENERGY     -203.563052 DELTAE   -0.0013080
 CYCLE:     5 TIME:   0.219 TIME LEFT:  2.00W  GRAD.:   117.727 HEAT: -203.5644
 ITERATION   1 PLS= 0.327E-03 0.000E+00 ENERGY     -203.119010 DELTAE -303.1190098
 ITERATION   2 PLS= 0.213E-01 0.000E+00 ENERGY     -207.781346 DELTAE   -4.6623364
 ITERATION   3 PLS= 0.124E-01 0.000E+00 ENERGY     -208.529305 DELTAE   -0.7479591
 ITERATION   4 PLS= 0.681E-02 0.000E+00 ENERGY     -209.045309 DELTAE   -0.5160037
 ITERATION   5 PLS= 0.138E-02 0.000E+00 ENERGY     -208.772002 DELTAE    0.2733073
 ITERATION   6 PLS= 0.648E-03 0.000E+00 ENERGY     -208.773296 DELTAE   -0.0012949
 CYCLE:     6 TIME:   0.102 TIME LEFT:  2.00W  GRAD.:    72.917 HEAT: -208.7747
 ITERATION   1 PLS= 0.329E-03 0.000E+00 ENERGY     -199.413607 DELTAE -299.4136071
 ITERATION   2 PLS= 0.288E-01 0.000E+00 ENERGY     -206.103097 DELTAE   -6.6894900
 ITERATION   3 PLS= 0.101E-01 0.000E+00 ENERGY     -206.924274 DELTAE   -0.8211769
 ITERATION   4 PLS= 0.498E-02 0.000E+00 ENERGY     -207.401301 DELTAE   -0.4770273
 ITERATION   5 PLS= 0.113E-02 0.000E+00 ENERGY     -207.161965 DELTAE    0.2393359
 ITERATION   6 PLS= 0.704E-03 0.000E+00 ENERGY     -207.166033 DELTAE   -0.0040677
 ITERATION   1 PLS= 0.520E-03 0.000E+00 ENERGY     -208.182173 DELTAE -308.1821728
 ITERATION   2 PLS= 0.104E-01 0.000E+00 ENERGY     -209.780501 DELTAE   -1.5983280
 ITERATION   3 PLS= 0.501E-02 0.000E+00 ENERGY     -210.008104 DELTAE   -0.2276029
 ITERATION   4 PLS= 0.297E-02 0.000E+00 ENERGY     -210.165065 DELTAE   -0.1569609
 ITERATION   5 PLS= 0.471E-03 0.000E+00 ENERGY     -210.073353 DELTAE    0.0917120
 CYCLE:     7 TIME:   0.227 TIME LEFT:  2.00W  GRAD.:    75.763 HEAT: -210.0742
 ITERATION   1 PLS= 0.329E-03 0.000E+00 ENERGY     -209.618612 DELTAE -309.6186123
 ITERATION   2 PLS= 0.181E-01 0.000E+00 ENERGY     -211.339817 DELTAE   -1.7212044
 ITERATION   3 PLS= 0.613E-02 0.000E+00 ENERGY     -211.545317 DELTAE   -0.2055005
 ITERATION   4 PLS= 0.283E-02 0.000E+00 ENERGY     -211.652113 DELTAE   -0.1067956
 ITERATION   5 PLS= 0.514E-03 0.000E+00 ENERGY     -211.601017 DELTAE    0.0510961
 CYCLE:     8 TIME:   0.094 TIME LEFT:  2.00W  GRAD.:    63.384 HEAT: -211.6013
 ITERATION   1 PLS= 0.239E-03 0.000E+00 ENERGY     -212.096933 DELTAE -312.0969331
 ITERATION   2 PLS= 0.121E-01 0.000E+00 ENERGY     -213.624421 DELTAE   -1.5274882
 ITERATION   3 PLS= 0.579E-02 0.000E+00 ENERGY     -213.858329 DELTAE   -0.2339073
 ITERATION   4 PLS= 0.271E-02 0.000E+00 ENERGY     -214.001628 DELTAE   -0.1432997
 ITERATION   5 PLS= 0.499E-03 0.000E+00 ENERGY     -213.927182 DELTAE    0.0744461
 CYCLE:     9 TIME:   0.102 TIME LEFT:  2.00W  GRAD.:    68.882 HEAT: -213.9283
 ITERATION   1 PLS= 0.363E-03 0.000E+00 ENERGY     -209.183989 DELTAE -309.1839887
 ITERATION   2 PLS= 0.304E-01 0.000E+00 ENERGY     -214.144938 DELTAE   -4.9609493
 ITERATION   3 PLS= 0.153E-01 0.000E+00 ENERGY     -214.893310 DELTAE   -0.7483718
 ITERATION   4 PLS= 0.722E-02 0.000E+00 ENERGY     -215.215583 DELTAE   -0.3222728
 ITERATION   5 PLS= 0.955E-03 0.000E+00 ENERGY     -215.063885 DELTAE    0.1516978
 ITERATION   6 PLS= 0.348E-03 0.000E+00 ENERGY     -215.064306 DELTAE   -0.0004212
 CYCLE:    10 TIME:   0.117 TIME LEFT:  2.00W  GRAD.:    95.658 HEAT: -215.0646
 ITERATION   1 PLS= 0.148E-03 0.000E+00 ENERGY     -210.691703 DELTAE -310.6917028
 ITERATION   2 PLS= 0.162E-01 0.000E+00 ENERGY     -214.228670 DELTAE   -3.5369676
 ITERATION   3 PLS= 0.680E-02 0.000E+00 ENERGY     -214.736891 DELTAE   -0.5082205
 ITERATION   4 PLS= 0.279E-02 0.000E+00 ENERGY     -214.998617 DELTAE   -0.2617264
 ITERATION   5 PLS= 0.665E-03 0.000E+00 ENERGY     -214.857921 DELTAE    0.1406961
 ITERATION   6 PLS= 0.353E-03 0.000E+00 ENERGY     -214.858784 DELTAE   -0.0008626
 ITERATION   1 PLS= 0.198E-03 0.000E+00 ENERGY     -215.704781 DELTAE -315.7047814
 ITERATION   2 PLS= 0.123E-01 0.000E+00 ENERGY     -216.547670 DELTAE   -0.8428882
 ITERATION   3 PLS= 0.508E-02 0.000E+00 ENERGY     -216.680775 DELTAE   -0.1331059
 ITERATION   4 PLS= 0.214E-02 0.000E+00 ENERGY     -216.742972 DELTAE   -0.0621969
 ITERATION   5 PLS= 0.249E-03 0.000E+00 ENERGY     -216.713848 DELTAE    0.0291248
 CYCLE:    11 TIME:   0.211 TIME LEFT:  2.00W  GRAD.:    72.883 HEAT: -216.7140
 ITERATION   1 PLS= 0.139E-03 0.000E+00 ENERGY     -214.102579 DELTAE -314.1025793
 ITERATION   2 PLS= 0.212E-01 0.000E+00 ENERGY     -216.614818 DELTAE   -2.5122383
 ITERATION   3 PLS= 0.729E-02 0.000E+00 ENERGY     -216.944412 DELTAE   -0.3295944
 ITERATION   4 PLS= 0.335E-02 0.000E+00 ENERGY     -217.122346 DELTAE   -0.1779343
 ITERATION   5 PLS= 0.102E-02 0.000E+00 ENERGY     -217.035373 DELTAE    0.0869728
 CYCLE:    12 TIME:   0.125 TIME LEFT:  2.00W  GRAD.:    76.338 HEAT: -217.0358
 ITERATION   1 PLS= 0.351E-03 0.000E+00 ENERGY     -217.270144 DELTAE -317.2701438
 ITERATION   2 PLS= 0.110E-01 0.000E+00 ENERGY     -218.669725 DELTAE   -1.3995808
 ITERATION   3 PLS= 0.404E-02 0.000E+00 ENERGY     -218.884573 DELTAE   -0.2148483
 ITERATION   4 PLS= 0.203E-02 0.000E+00 ENERGY     -219.004909 DELTAE   -0.1203363
 ITERATION   5 PLS= 0.644E-03 0.000E+00 ENERGY     -218.944279 DELTAE    0.0606302
 CYCLE:    13 TIME:   0.102 TIME LEFT:  2.00W  GRAD.:    33.143 HEAT: -218.9445
 ITERATION   1 PLS= 0.214E-03 0.000E+00 ENERGY     -212.935811 DELTAE -312.9358109
 ITERATION   2 PLS= 0.158E-01 0.000E+00 ENERGY     -216.679954 DELTAE   -3.7441435
 ITERATION   3 PLS= 0.598E-02 0.000E+00 ENERGY     -217.234570 DELTAE   -0.5546151
 ITERATION   4 PLS= 0.336E-02 0.000E+00 ENERGY     -217.538740 DELTAE   -0.3041703
 ITERATION   5 PLS= 0.670E-03 0.000E+00 ENERGY     -217.382612 DELTAE    0.1561278
 ITERATION   6 PLS= 0.366E-03 0.000E+00 ENERGY     -217.383244 DELTAE   -0.0006324
 ITERATION   1 PLS= 0.229E-03 0.000E+00 ENERGY     -217.936974 DELTAE -317.9369745
 ITERATION   2 PLS= 0.777E-02 0.000E+00 ENERGY     -218.829801 DELTAE   -0.8928267
 ITERATION   3 PLS= 0.349E-02 0.000E+00 ENERGY     -218.972233 DELTAE   -0.1424313
 ITERATION   4 PLS= 0.162E-02 0.000E+00 ENERGY     -219.050856 DELTAE   -0.0786233
 ITERATION   5 PLS= 0.300E-03 0.000E+00 ENERGY     -219.011333 DELTAE    0.0395233
 CYCLE:    14 TIME:   0.188 TIME LEFT:  2.00W  GRAD.:    48.368 HEAT: -219.0115
 ITERATION   1 PLS= 0.165E-03 0.000E+00 ENERGY     -219.231308 DELTAE -319.2313077
 ITERATION   2 PLS= 0.605E-02 0.000E+00 ENERGY     -219.952991 DELTAE   -0.7216835
 ITERATION   3 PLS= 0.246E-02 0.000E+00 ENERGY     -220.062102 DELTAE   -0.1091109
 ITERATION   4 PLS= 0.125E-02 0.000E+00 ENERGY     -220.117567 DELTAE   -0.0554651
 ITERATION   5 PLS= 0.351E-03 0.000E+00 ENERGY     -220.090011 DELTAE    0.0275560
 CYCLE:    15 TIME:   0.109 TIME LEFT:  2.00W  GRAD.:    24.041 HEAT: -220.0901
 ITERATION   1 PLS= 0.191E-03 0.000E+00 ENERGY     -218.962303 DELTAE -318.9623029
 ITERATION   2 PLS= 0.149E-01 0.000E+00 ENERGY     -220.072259 DELTAE   -1.1099566
 ITERATION   3 PLS= 0.746E-02 0.000E+00 ENERGY     -220.270512 DELTAE   -0.1982526
 ITERATION   4 PLS= 0.371E-02 0.000E+00 ENERGY     -220.383932 DELTAE   -0.1134203
 ITERATION   5 PLS= 0.259E-03 0.000E+00 ENERGY     -220.328956 DELTAE    0.0549762
 CYCLE:    16 TIME:   0.086 TIME LEFT:  2.00W  GRAD.:    43.241 HEAT: -220.3292
 ITERATION   1 PLS= 0.149E-03 0.000E+00 ENERGY     -219.461687 DELTAE -319.4616869
 ITERATION   2 PLS= 0.176E-01 0.000E+00 ENERGY     -220.564971 DELTAE   -1.1032836
 ITERATION   3 PLS= 0.892E-02 0.000E+00 ENERGY     -220.769778 DELTAE   -0.2048074
 ITERATION   4 PLS= 0.452E-02 0.000E+00 ENERGY     -220.897769 DELTAE   -0.1279915
 ITERATION   5 PLS= 0.350E-03 0.000E+00 ENERGY     -220.833690 DELTAE    0.0640790
 CYCLE:    17 TIME:   0.102 TIME LEFT:  2.00W  GRAD.:    29.778 HEAT: -220.8341
 ITERATION   1 PLS= 0.161E-03 0.000E+00 ENERGY     -219.801707 DELTAE -319.8017066
 ITERATION   2 PLS= 0.155E-01 0.000E+00 ENERGY     -220.959293 DELTAE   -1.1575863
 ITERATION   3 PLS= 0.636E-02 0.000E+00 ENERGY     -221.145181 DELTAE   -0.1858877
 ITERATION   4 PLS= 0.312E-02 0.000E+00 ENERGY     -221.234811 DELTAE   -0.0896307
 ITERATION   5 PLS= 0.272E-03 0.000E+00 ENERGY     -221.194220 DELTAE    0.0405910
 CYCLE:    18 TIME:   0.094 TIME LEFT:  2.00W  GRAD.:    32.169 HEAT: -221.1944
 ITERATION   1 PLS= 0.143E-03 0.000E+00 ENERGY     -220.413279 DELTAE -320.4132789
 ITERATION   2 PLS= 0.185E-01 0.000E+00 ENERGY     -221.293380 DELTAE   -0.8801013
 ITERATION   3 PLS= 0.960E-02 0.000E+00 ENERGY     -221.476252 DELTAE   -0.1828722
 ITERATION   4 PLS= 0.491E-02 0.000E+00 ENERGY     -221.584227 DELTAE   -0.1079747
 ITERATION   5 PLS= 0.392E-03 0.000E+00 ENERGY     -221.531297 DELTAE    0.0529302
 CYCLE:    19 TIME:   0.070 TIME LEFT:  2.00W  GRAD.:    36.054 HEAT: -221.5314
 ITERATION   1 PLS= 0.173E-03 0.000E+00 ENERGY     -221.186879 DELTAE -321.1868793
 ITERATION   2 PLS= 0.671E-02 0.000E+00 ENERGY     -221.788001 DELTAE   -0.6011217
 ITERATION   3 PLS= 0.347E-02 0.000E+00 ENERGY     -221.895316 DELTAE   -0.1073147
 ITERATION   4 PLS= 0.190E-02 0.000E+00 ENERGY     -221.959497 DELTAE   -0.0641817
 ITERATION   5 PLS= 0.366E-03 0.000E+00 ENERGY     -221.927001 DELTAE    0.0324964
 CYCLE:    20 TIME:   0.047 TIME LEFT:  2.00W  GRAD.:    28.146 HEAT: -221.9272
 ITERATION   1 PLS= 0.176E-03 0.000E+00 ENERGY     -221.243360 DELTAE -321.2433604
 ITERATION   2 PLS= 0.111E-01 0.000E+00 ENERGY     -221.891958 DELTAE   -0.6485975
 ITERATION   3 PLS= 0.563E-02 0.000E+00 ENERGY     -222.010479 DELTAE   -0.1185213
 ITERATION   4 PLS= 0.286E-02 0.000E+00 ENERGY     -222.083753 DELTAE   -0.0732742
 ITERATION   5 PLS= 0.236E-03 0.000E+00 ENERGY     -222.047004 DELTAE    0.0367492
 CYCLE:    21 TIME:   0.047 TIME LEFT:  2.00W  GRAD.:    23.129 HEAT: -222.0472
 ITERATION   1 PLS= 0.161E-03 0.000E+00 ENERGY     -221.889756 DELTAE -321.8897562
 ITERATION   2 PLS= 0.483E-02 0.000E+00 ENERGY     -222.186715 DELTAE   -0.2969585
 ITERATION   3 PLS= 0.170E-02 0.000E+00 ENERGY     -222.237345 DELTAE   -0.0506298
 ITERATION   4 PLS= 0.878E-03 0.000E+00 ENERGY     -222.264820 DELTAE   -0.0274760
 ITERATION   5 PLS= 0.242E-03 0.000E+00 ENERGY     -222.252294 DELTAE    0.0125268
 CYCLE:    22 TIME:   0.055 TIME LEFT:  2.00W  GRAD.:    13.054 HEAT: -222.2524
 ITERATION   1 PLS= 0.969E-04 0.000E+00 ENERGY     -222.075858 DELTAE -322.0758581
 ITERATION   2 PLS= 0.384E-02 0.000E+00 ENERGY     -222.241243 DELTAE   -0.1653853
 ITERATION   3 PLS= 0.182E-02 0.000E+00 ENERGY     -222.269262 DELTAE   -0.0280187
 ITERATION   4 PLS= 0.860E-03 0.000E+00 ENERGY     -222.284117 DELTAE   -0.0148545
 CYCLE:    23 TIME:   0.047 TIME LEFT:  2.00W  GRAD.:    17.222 HEAT: -222.2770
 ITERATION   1 PLS= 0.955E-04 0.000E+00 ENERGY     -222.167046 DELTAE -322.1670462
 ITERATION   2 PLS= 0.574E-02 0.000E+00 ENERGY     -222.278943 DELTAE   -0.1118968
 ITERATION   3 PLS= 0.297E-02 0.000E+00 ENERGY     -222.300681 DELTAE   -0.0217382
 ITERATION   4 PLS= 0.152E-02 0.000E+00 ENERGY     -222.313739 DELTAE   -0.0130581
 CYCLE:    24 TIME:   0.039 TIME LEFT:  2.00W  GRAD.:     9.022 HEAT: -222.3073
 ITERATION   1 PLS= 0.127E-03 0.000E+00 ENERGY     -221.995937 DELTAE -321.9959365
 ITERATION   2 PLS= 0.658E-02 0.000E+00 ENERGY     -222.312884 DELTAE   -0.3169473
 ITERATION   3 PLS= 0.331E-02 0.000E+00 ENERGY     -222.376554 DELTAE   -0.0636703
 ITERATION   4 PLS= 0.165E-02 0.000E+00 ENERGY     -222.414887 DELTAE   -0.0383330
 ITERATION   5 PLS= 0.115E-03 0.000E+00 ENERGY     -222.397203 DELTAE    0.0176843
 CYCLE:    25 TIME:   0.047 TIME LEFT:  2.00W  GRAD.:    14.660 HEAT: -222.3974
 ITERATION   1 PLS= 0.698E-04 0.000E+00 ENERGY     -222.331221 DELTAE -322.3312209
 ITERATION   2 PLS= 0.453E-02 0.000E+00 ENERGY     -222.487981 DELTAE   -0.1567603
 ITERATION   3 PLS= 0.230E-02 0.000E+00 ENERGY     -222.519160 DELTAE   -0.0311787
 ITERATION   4 PLS= 0.115E-02 0.000E+00 ENERGY     -222.540194 DELTAE   -0.0210339
 CYCLE:    26 TIME:   0.047 TIME LEFT:  2.00W  GRAD.:    11.165 HEAT: -222.5310
 ITERATION   1 PLS= 0.105E-03 0.000E+00 ENERGY     -222.353929 DELTAE -322.3539287
 ITERATION   2 PLS= 0.554E-02 0.000E+00 ENERGY     -222.525853 DELTAE   -0.1719241
 ITERATION   3 PLS= 0.251E-02 0.000E+00 ENERGY     -222.555320 DELTAE   -0.0294671
 ITERATION   4 PLS= 0.115E-02 0.000E+00 ENERGY     -222.572121 DELTAE   -0.0168016
 CYCLE:    27 TIME:   0.047 TIME LEFT:  2.00W  GRAD.:    12.572 HEAT: -222.5646
 ITERATION   1 PLS= 0.145E-03 0.000E+00 ENERGY     -222.382117 DELTAE -322.3821166
 ITERATION   2 PLS= 0.440E-02 0.000E+00 ENERGY     -222.517881 DELTAE   -0.1357641
 ITERATION   3 PLS= 0.227E-02 0.000E+00 ENERGY     -222.543001 DELTAE   -0.0251204
 ITERATION   4 PLS= 0.114E-02 0.000E+00 ENERGY     -222.557909 DELTAE   -0.0149079
 ITERATION   1 PLS= 0.117E-03 0.000E+00 ENERGY     -222.565453 DELTAE -322.5654532
 ITERATION   2 PLS= 0.301E-02 0.000E+00 ENERGY     -222.601612 DELTAE   -0.0361587
 ITERATION   3 PLS= 0.150E-02 0.000E+00 ENERGY     -222.609096 DELTAE   -0.0074836
 ITERATION   4 PLS= 0.741E-03 0.000E+00 ENERGY     -222.613390 DELTAE   -0.0042947
 CYCLE:    28 TIME:   0.086 TIME LEFT:  2.00W  GRAD.:     7.051 HEAT: -222.6113
 ITERATION   1 PLS= 0.378E-04 0.000E+00 ENERGY     -222.577897 DELTAE -322.5778966
 ITERATION   2 PLS= 0.336E-02 0.000E+00 ENERGY     -222.639158 DELTAE   -0.0612610
 ITERATION   3 PLS= 0.158E-02 0.000E+00 ENERGY     -222.651881 DELTAE   -0.0127230
 ITERATION   4 PLS= 0.756E-03 0.000E+00 ENERGY     -222.659747 DELTAE   -0.0078665
 CYCLE:    29 TIME:   0.047 TIME LEFT:  2.00W  GRAD.:     5.568 HEAT: -222.6560
 ITERATION   1 PLS= 0.744E-04 0.000E+00 ENERGY     -222.417721 DELTAE -322.4177213
 ITERATION   2 PLS= 0.551E-02 0.000E+00 ENERGY     -222.511229 DELTAE   -0.0935076
 ITERATION   3 PLS= 0.276E-02 0.000E+00 ENERGY     -222.532044 DELTAE   -0.0208152
 ITERATION   4 PLS= 0.137E-02 0.000E+00 ENERGY     -222.545282 DELTAE   -0.0132380
 ITERATION   1 PLS= 0.452E-04 0.000E+00 ENERGY     -222.660348 DELTAE -322.6603477
 ITERATION   2 PLS= 0.289E-02 0.000E+00 ENERGY     -222.686739 DELTAE   -0.0263916
 ITERATION   3 PLS= 0.141E-02 0.000E+00 ENERGY     -222.692435 DELTAE   -0.0056957
 ITERATION   4 PLS= 0.690E-03 0.000E+00 ENERGY     -222.695852 DELTAE   -0.0034167
 CYCLE:    30 TIME:   0.078 TIME LEFT:  2.00W  GRAD.:     4.635 HEAT: -222.6942
 ITERATION   1 PLS= 0.263E-04 0.000E+00 ENERGY     -222.689974 DELTAE -322.6899742
 ITERATION   2 PLS= 0.319E-02 0.000E+00 ENERGY     -222.732746 DELTAE   -0.0427715
 ITERATION   3 PLS= 0.167E-02 0.000E+00 ENERGY     -222.742428 DELTAE   -0.0096825
 ITERATION   4 PLS= 0.862E-03 0.000E+00 ENERGY     -222.749032 DELTAE   -0.0066038
 CYCLE:    31 TIME:   0.047 TIME LEFT:  2.00W  GRAD.:     3.666 HEAT: -222.7457
 ITERATION   1 PLS= 0.508E-04 0.000E+00 ENERGY     -222.747820 DELTAE -322.7478205
 ITERATION   2 PLS= 0.525E-02 0.000E+00 ENERGY     -222.832644 DELTAE   -0.0848236
 ITERATION   3 PLS= 0.264E-02 0.000E+00 ENERGY     -222.852936 DELTAE   -0.0202923
 ITERATION   4 PLS= 0.133E-02 0.000E+00 ENERGY     -222.866615 DELTAE   -0.0136784
 ITERATION   5 PLS= 0.570E-04 0.000E+00 ENERGY     -222.859680 DELTAE    0.0069351
 CYCLE:    32 TIME:   0.047 TIME LEFT:  2.00W  GRAD.:     3.837 HEAT: -222.8597
 ITERATION   1 PLS= 0.358E-04 0.000E+00 ENERGY     -222.644879 DELTAE -322.6448786
 ITERATION   2 PLS= 0.748E-02 0.000E+00 ENERGY     -222.812417 DELTAE   -0.1675382
 ITERATION   3 PLS= 0.373E-02 0.000E+00 ENERGY     -222.851771 DELTAE   -0.0393541
 ITERATION   4 PLS= 0.187E-02 0.000E+00 ENERGY     -222.877918 DELTAE   -0.0261473
 ITERATION   5 PLS= 0.650E-04 0.000E+00 ENERGY     -222.864743 DELTAE    0.0131755
 CYCLE:    33 TIME:   0.047 TIME LEFT:  2.00W  GRAD.:     3.132 HEAT: -222.8648
 ITERATION   1 PLS= 0.385E-04 0.000E+00 ENERGY     -222.611599 DELTAE -322.6115987
 ITERATION   2 PLS= 0.813E-02 0.000E+00 ENERGY     -222.765514 DELTAE   -0.1539154
 ITERATION   3 PLS= 0.404E-02 0.000E+00 ENERGY     -222.802595 DELTAE   -0.0370812
 ITERATION   4 PLS= 0.201E-02 0.000E+00 ENERGY     -222.827907 DELTAE   -0.0253118
 ITERATION   5 PLS= 0.777E-04 0.000E+00 ENERGY     -222.815135 DELTAE    0.0127717
 ITERATION   1 PLS= 0.471E-04 0.000E+00 ENERGY     -222.775830 DELTAE -322.7758299
 ITERATION   2 PLS= 0.410E-02 0.000E+00 ENERGY     -222.814539 DELTAE   -0.0387094
 ITERATION   3 PLS= 0.201E-02 0.000E+00 ENERGY     -222.823872 DELTAE   -0.0093325
 ITERATION   4 PLS= 0.101E-02 0.000E+00 ENERGY     -222.830066 DELTAE   -0.0061946
 ITERATION   5 PLS= 0.324E-04 0.000E+00 ENERGY     -222.826983 DELTAE    0.0030831
 ITERATION   1 PLS= 0.194E-04 0.000E+00 ENERGY     -222.822228 DELTAE -322.8222275
 ITERATION   2 PLS= 0.210E-02 0.000E+00 ENERGY     -222.832204 DELTAE   -0.0099763
 ITERATION   3 PLS= 0.104E-02 0.000E+00 ENERGY     -222.834606 DELTAE   -0.0024021
 ITERATION   4 PLS= 0.516E-03 0.000E+00 ENERGY     -222.836213 DELTAE   -0.0016069
 ITERATION   1 PLS= 0.218E-04 0.000E+00 ENERGY     -222.825509 DELTAE -322.8255095
 ITERATION   2 PLS= 0.103E-02 0.000E+00 ENERGY     -222.828086 DELTAE   -0.0025767
 ITERATION   3 PLS= 0.516E-03 0.000E+00 ENERGY     -222.828702 DELTAE   -0.0006160
 ITERATION   4 PLS= 0.258E-03 0.000E+00 ENERGY     -222.829118 DELTAE   -0.0004155
 ITERATION   1 PLS= 0.107E-04 0.000E+00 ENERGY     -222.868639 DELTAE -322.8686386
 ITERATION   2 PLS= 0.486E-03 0.000E+00 ENERGY     -222.869352 DELTAE   -0.0007136
 ITERATION   3 PLS= 0.244E-03 0.000E+00 ENERGY     -222.869521 DELTAE   -0.0001691
 ITERATION   4 PLS= 0.122E-03 0.000E+00 ENERGY     -222.869641 DELTAE   -0.0001201
 CYCLE:    34 TIME:   0.234 TIME LEFT:  2.00W  GRAD.:     2.127 HEAT: -222.8696
 ITERATION   1 PLS= 0.688E-05 0.000E+00 ENERGY     -221.099112 DELTAE -321.0991118
 ITERATION   2 PLS= 0.262E-01 0.000E+00 ENERGY     -222.464012 DELTAE   -1.3648998
 ITERATION   3 PLS= 0.130E-01 0.000E+00 ENERGY     -222.793345 DELTAE   -0.3293337
 ITERATION   4 PLS= 0.682E-02 0.000E+00 ENERGY     -223.023146 DELTAE   -0.2298003
 ITERATION   5 PLS= 0.335E-03 0.000E+00 ENERGY     -222.904919 DELTAE    0.1182262
 ITERATION   6 PLS= 0.120E-03 0.000E+00 ENERGY     -222.905017 DELTAE   -0.0000979
 CYCLE:    35 TIME:   0.055 TIME LEFT:  2.00W  GRAD.:    11.150 HEAT: -222.9051
 ITERATION   1 PLS= 0.727E-04 0.000E+00 ENERGY     -222.610617 DELTAE -322.6106170
 ITERATION   2 PLS= 0.130E-01 0.000E+00 ENERGY     -222.952515 DELTAE   -0.3418984
 ITERATION   3 PLS= 0.668E-02 0.000E+00 ENERGY     -223.031095 DELTAE   -0.0785794
 ITERATION   4 PLS= 0.340E-02 0.000E+00 ENERGY     -223.083517 DELTAE   -0.0524221
 ITERATION   5 PLS= 0.122E-03 0.000E+00 ENERGY     -223.057053 DELTAE    0.0264640
 CYCLE:    36 TIME:   0.055 TIME LEFT:  2.00W  GRAD.:     7.361 HEAT: -223.0571
 ITERATION   1 PLS= 0.720E-04 0.000E+00 ENERGY     -222.926630 DELTAE -322.9266296
 ITERATION   2 PLS= 0.688E-02 0.000E+00 ENERGY     -223.034785 DELTAE   -0.1081556
 ITERATION   3 PLS= 0.351E-02 0.000E+00 ENERGY     -223.057668 DELTAE   -0.0228827
 ITERATION   4 PLS= 0.178E-02 0.000E+00 ENERGY     -223.072040 DELTAE   -0.0143718
 CYCLE:    37 TIME:   0.047 TIME LEFT:  2.00W  GRAD.:     4.095 HEAT: -223.0649
 ITERATION   1 PLS= 0.742E-04 0.000E+00 ENERGY     -221.461431 DELTAE -321.4614314
 ITERATION   2 PLS= 0.277E-01 0.000E+00 ENERGY     -222.725194 DELTAE   -1.2637626
 ITERATION   3 PLS= 0.138E-01 0.000E+00 ENERGY     -223.018863 DELTAE   -0.2936686
 ITERATION   4 PLS= 0.706E-02 0.000E+00 ENERGY     -223.214279 DELTAE   -0.1954168
 ITERATION   5 PLS= 0.260E-03 0.000E+00 ENERGY     -223.116011 DELTAE    0.0982679
 ITERATION   6 PLS= 0.143E-03 0.000E+00 ENERGY     -223.116128 DELTAE   -0.0001166
 CYCLE:    38 TIME:   0.055 TIME LEFT:  2.00W  GRAD.:     9.179 HEAT: -223.1163
 ITERATION   1 PLS= 0.861E-04 0.000E+00 ENERGY     -223.061459 DELTAE -323.0614590
 ITERATION   2 PLS= 0.191E-02 0.000E+00 ENERGY     -223.083365 DELTAE   -0.0219060
 ITERATION   3 PLS= 0.747E-03 0.000E+00 ENERGY     -223.086446 DELTAE   -0.0030809
 ITERATION   4 PLS= 0.425E-03 0.000E+00 ENERGY     -223.088287 DELTAE   -0.0018413
 ITERATION   1 PLS= 0.136E-03 0.000E+00 ENERGY     -223.143399 DELTAE -323.1433989
 ITERATION   2 PLS= 0.829E-03 0.000E+00 ENERGY     -223.149415 DELTAE   -0.0060157
 ITERATION   3 PLS= 0.362E-03 0.000E+00 ENERGY     -223.150353 DELTAE   -0.0009381
 ITERATION   4 PLS= 0.199E-03 0.000E+00 ENERGY     -223.150870 DELTAE   -0.0005170
 CYCLE:    39 TIME:   0.078 TIME LEFT:  2.00W  GRAD.:     4.466 HEAT: -223.1506
 ITERATION   1 PLS= 0.514E-04 0.000E+00 ENERGY     -223.198014 DELTAE -323.1980140
 ITERATION   2 PLS= 0.150E-02 0.000E+00 ENERGY     -223.209376 DELTAE   -0.0113617
 ITERATION   3 PLS= 0.806E-03 0.000E+00 ENERGY     -223.211426 DELTAE   -0.0020500
 ITERATION   4 PLS= 0.430E-03 0.000E+00 ENERGY     -223.212696 DELTAE   -0.0012706
 CYCLE:    40 TIME:   0.047 TIME LEFT:  2.00W  GRAD.:     2.563 HEAT: -223.2121
 ITERATION   1 PLS= 0.605E-04 0.000E+00 ENERGY     -223.189780 DELTAE -323.1897796
 ITERATION   2 PLS= 0.111E-02 0.000E+00 ENERGY     -223.194148 DELTAE   -0.0043684
 ITERATION   3 PLS= 0.581E-03 0.000E+00 ENERGY     -223.195036 DELTAE   -0.0008881
 ITERATION   4 PLS= 0.302E-03 0.000E+00 ENERGY     -223.195574 DELTAE   -0.0005378
 ITERATION   1 PLS= 0.253E-04 0.000E+00 ENERGY     -223.230795 DELTAE -323.2307947
 ITERATION   2 PLS= 0.649E-03 0.000E+00 ENERGY     -223.231973 DELTAE   -0.0011778
 ITERATION   3 PLS= 0.315E-03 0.000E+00 ENERGY     -223.232214 DELTAE   -0.0002417
 ITERATION   4 PLS= 0.155E-03 0.000E+00 ENERGY     -223.232359 DELTAE   -0.0001451
 CYCLE:    41 TIME:   0.086 TIME LEFT:  2.00W  GRAD.:     2.315 HEAT: -223.2323
 ITERATION   1 PLS= 0.107E-04 0.000E+00 ENERGY     -223.292367 DELTAE -323.2923670
 ITERATION   2 PLS= 0.460E-03 0.000E+00 ENERGY     -223.293383 DELTAE   -0.0010160
 ITERATION   3 PLS= 0.230E-03 0.000E+00 ENERGY     -223.293585 DELTAE   -0.0002024
 ITERATION   4 PLS= 0.117E-03 0.000E+00 ENERGY     -223.293699 DELTAE   -0.0001140
 CYCLE:    42 TIME:   0.039 TIME LEFT:  2.00W  GRAD.:     2.031 HEAT: -223.2936
 ITERATION   1 PLS= 0.573E-05 0.000E+00 ENERGY     -223.211519 DELTAE -323.2115188
 ITERATION   2 PLS= 0.495E-03 0.000E+00 ENERGY     -223.212376 DELTAE   -0.0008571
 ITERATION   3 PLS= 0.246E-03 0.000E+00 ENERGY     -223.212555 DELTAE   -0.0001792
 ITERATION   4 PLS= 0.122E-03 0.000E+00 ENERGY     -223.212657 DELTAE   -0.0001020
 ITERATION   1 PLS= 0.421E-05 0.000E+00 ENERGY     -223.294431 DELTAE -323.2944306
 ITERATION   2 PLS= 0.272E-03 0.000E+00 ENERGY     -223.294656 DELTAE   -0.0002257
 ITERATION   3 PLS= 0.133E-03 0.000E+00 ENERGY     -223.294704 DELTAE   -0.0000472
 ITERATION   4 PLS= 0.650E-04 0.000E+00 ENERGY     -223.294730 DELTAE   -0.0000261
 CYCLE:    43 TIME:   0.086 TIME LEFT:  2.00W  GRAD.:     1.938 HEAT: -223.2947
 ITERATION   1 PLS= 0.332E-05 0.000E+00 ENERGY     -204.309815 DELTAE -304.3098153
 ITERATION   2 PLS= 0.923E-01 0.000E+00 ENERGY     -217.814860 DELTAE  -13.5050443
 ITERATION   3 PLS= 0.436E-01 0.000E+00 ENERGY     -221.032622 DELTAE   -3.2177628
 ITERATION   4 PLS= 0.233E-01 0.000E+00 ENERGY     -223.271982 DELTAE   -2.2393601
 ITERATION   5 PLS= 0.197E-02 0.000E+00 ENERGY     -222.158422 DELTAE    1.1135609
 ITERATION   6 PLS= 0.484E-03 0.000E+00 ENERGY     -222.159958 DELTAE   -0.0015366
 ITERATION   7 PLS= 0.284E-03 0.000E+00 ENERGY     -222.161612 DELTAE   -0.0016544
 ITERATION   8 PLS= 0.416E-04 0.000E+00 ENERGY     -222.160743 DELTAE    0.0008690
 ITERATION   1 PLS= 0.286E-04 0.000E+00 ENERGY     -218.166797 DELTAE -318.1667965
 ITERATION   2 PLS= 0.424E-01 0.000E+00 ENERGY     -222.129451 DELTAE   -3.9626540
 ITERATION   3 PLS= 0.227E-01 0.000E+00 ENERGY     -223.045442 DELTAE   -0.9159917
 ITERATION   4 PLS= 0.119E-01 0.000E+00 ENERGY     -223.695420 DELTAE   -0.6499773
 ITERATION   5 PLS= 0.403E-03 0.000E+00 ENERGY     -223.352910 DELTAE    0.3425101
 ITERATION   6 PLS= 0.252E-03 0.000E+00 ENERGY     -223.353367 DELTAE   -0.0004572
 CYCLE:    44 TIME:   0.094 TIME LEFT:  2.00W  GRAD.:    14.899 HEAT: -223.3537
 ITERATION   1 PLS= 0.138E-03 0.000E+00 ENERGY     -222.014803 DELTAE -322.0148034
 ITERATION   2 PLS= 0.224E-01 0.000E+00 ENERGY     -223.107862 DELTAE   -1.0930587
 ITERATION   3 PLS= 0.114E-01 0.000E+00 ENERGY     -223.355201 DELTAE   -0.2473394
 ITERATION   4 PLS= 0.577E-02 0.000E+00 ENERGY     -223.514396 DELTAE   -0.1591944
 ITERATION   5 PLS= 0.195E-03 0.000E+00 ENERGY     -223.434485 DELTAE    0.0799109
 CYCLE:    45 TIME:   0.047 TIME LEFT:  2.00W  GRAD.:     2.711 HEAT: -223.4346
 ITERATION   1 PLS= 0.102E-03 0.000E+00 ENERGY     -223.116180 DELTAE -323.1161803
 ITERATION   2 PLS= 0.102E-01 0.000E+00 ENERGY     -223.311200 DELTAE   -0.1950197
 ITERATION   3 PLS= 0.518E-02 0.000E+00 ENERGY     -223.355915 DELTAE   -0.0447153
 ITERATION   4 PLS= 0.263E-02 0.000E+00 ENERGY     -223.385239 DELTAE   -0.0293234
 ITERATION   5 PLS= 0.977E-04 0.000E+00 ENERGY     -223.370525 DELTAE    0.0147138
 ITERATION   1 PLS= 0.569E-04 0.000E+00 ENERGY     -223.241941 DELTAE -323.2419406
 ITERATION   2 PLS= 0.509E-02 0.000E+00 ENERGY     -223.290880 DELTAE   -0.0489390
 ITERATION   3 PLS= 0.256E-02 0.000E+00 ENERGY     -223.302060 DELTAE   -0.0111804
 ITERATION   4 PLS= 0.129E-02 0.000E+00 ENERGY     -223.309326 DELTAE   -0.0072657
 ITERATION   5 PLS= 0.489E-04 0.000E+00 ENERGY     -223.305670 DELTAE    0.0036555
 ITERATION   1 PLS= 0.295E-04 0.000E+00 ENERGY     -223.275729 DELTAE -323.2757286
 ITERATION   2 PLS= 0.269E-02 0.000E+00 ENERGY     -223.288842 DELTAE   -0.0131132
 ITERATION   3 PLS= 0.135E-02 0.000E+00 ENERGY     -223.291876 DELTAE   -0.0030342
 ITERATION   4 PLS= 0.680E-03 0.000E+00 ENERGY     -223.293879 DELTAE   -0.0020031
 ITERATION   1 PLS= 0.286E-04 0.000E+00 ENERGY     -223.361371 DELTAE -323.3613709
 ITERATION   2 PLS= 0.159E-02 0.000E+00 ENERGY     -223.365313 DELTAE   -0.0039420
 ITERATION   3 PLS= 0.798E-03 0.000E+00 ENERGY     -223.366232 DELTAE   -0.0009195
 ITERATION   4 PLS= 0.402E-03 0.000E+00 ENERGY     -223.366844 DELTAE   -0.0006121
 ITERATION   1 PLS= 0.165E-04 0.000E+00 ENERGY     -223.491916 DELTAE -323.4919159
 ITERATION   2 PLS= 0.653E-03 0.000E+00 ENERGY     -223.493128 DELTAE   -0.0012124
 ITERATION   3 PLS= 0.330E-03 0.000E+00 ENERGY     -223.493403 DELTAE   -0.0002744
 ITERATION   4 PLS= 0.171E-03 0.000E+00 ENERGY     -223.493596 DELTAE   -0.0001927
 CYCLE:    46 TIME:   0.234 TIME LEFT:  2.00W  GRAD.:     1.613 HEAT: -223.4935
 ITERATION   1 PLS= 0.902E-05 0.000E+00 ENERGY     -223.369122 DELTAE -323.3691222
 ITERATION   2 PLS= 0.447E-03 0.000E+00 ENERGY     -223.369617 DELTAE   -0.0004951
 ITERATION   3 PLS= 0.206E-03 0.000E+00 ENERGY     -223.369718 DELTAE   -0.0001007
 ITERATION   4 PLS= 0.103E-03 0.000E+00 ENERGY     -223.369789 DELTAE   -0.0000709
 ITERATION   1 PLS= 0.865E-05 0.000E+00 ENERGY     -223.364042 DELTAE -323.3640421
 ITERATION   2 PLS= 0.115E-03 0.000E+00 ENERGY     -223.364123 DELTAE   -0.0000809
 ITERATION   3 PLS= 0.543E-04 0.000E+00 ENERGY     -223.364138 DELTAE   -0.0000150
 ITERATION   4 PLS= 0.300E-04 0.000E+00 ENERGY     -223.364147 DELTAE   -0.0000085
 ITERATION   1 PLS= 0.371E-05 0.000E+00 ENERGY     -223.499297 DELTAE -323.4992969
 ITERATION   2 PLS= 0.452E-03 0.000E+00 ENERGY     -223.499479 DELTAE   -0.0001816
 ITERATION   3 PLS= 0.207E-03 0.000E+00 ENERGY     -223.499520 DELTAE   -0.0000413
 ITERATION   4 PLS= 0.102E-03 0.000E+00 ENERGY     -223.499550 DELTAE   -0.0000303
 CYCLE:    47 TIME:   0.125 TIME LEFT:  2.00W  GRAD.:     1.503 HEAT: -223.4995
 ITERATION   1 PLS= 0.640E-05 0.000E+00 ENERGY     -222.447825 DELTAE -322.4478249
 ITERATION   2 PLS= 0.193E-01 0.000E+00 ENERGY     -223.112421 DELTAE   -0.6645959
 ITERATION   3 PLS= 0.954E-02 0.000E+00 ENERGY     -223.266263 DELTAE   -0.1538426
 ITERATION   4 PLS= 0.489E-02 0.000E+00 ENERGY     -223.369451 DELTAE   -0.1031872
 ITERATION   5 PLS= 0.192E-03 0.000E+00 ENERGY     -223.317745 DELTAE    0.0517058
 ITERATION   6 PLS= 0.112E-03 0.000E+00 ENERGY     -223.317877 DELTAE   -0.0001324
 ITERATION   1 PLS= 0.670E-04 0.000E+00 ENERGY     -223.204872 DELTAE -323.2048716
 ITERATION   2 PLS= 0.105E-01 0.000E+00 ENERGY     -223.391029 DELTAE   -0.1861574
 ITERATION   3 PLS= 0.532E-02 0.000E+00 ENERGY     -223.434564 DELTAE   -0.0435346
 ITERATION   4 PLS= 0.269E-02 0.000E+00 ENERGY     -223.463742 DELTAE   -0.0291784
 ITERATION   5 PLS= 0.101E-03 0.000E+00 ENERGY     -223.448996 DELTAE    0.0147455
 ITERATION   6 PLS= 0.601E-04 0.000E+00 ENERGY     -223.449017 DELTAE   -0.0000202
 ITERATION   1 PLS= 0.360E-04 0.000E+00 ENERGY     -223.248789 DELTAE -323.2487886
 ITERATION   2 PLS= 0.532E-02 0.000E+00 ENERGY     -223.297020 DELTAE   -0.0482315
 ITERATION   3 PLS= 0.266E-02 0.000E+00 ENERGY     -223.308153 DELTAE   -0.0111330
 ITERATION   4 PLS= 0.134E-02 0.000E+00 ENERGY     -223.315546 DELTAE   -0.0073925
 ITERATION   5 PLS= 0.497E-04 0.000E+00 ENERGY     -223.311835 DELTAE    0.0037102
 ITERATION   6 PLS= 0.292E-04 0.000E+00 ENERGY     -223.311843 DELTAE   -0.0000077
 ITERATION   1 PLS= 0.175E-04 0.000E+00 ENERGY     -223.361867 DELTAE -323.3618671
 ITERATION   2 PLS= 0.225E-02 0.000E+00 ENERGY     -223.372907 DELTAE   -0.0110394
 ITERATION   3 PLS= 0.114E-02 0.000E+00 ENERGY     -223.375397 DELTAE   -0.0024908
 ITERATION   4 PLS= 0.580E-03 0.000E+00 ENERGY     -223.377042 DELTAE   -0.0016448
 ITERATION   5 PLS= 0.224E-04 0.000E+00 ENERGY     -223.376224 DELTAE    0.0008187
 ITERATION   1 PLS= 0.131E-04 0.000E+00 ENERGY     -223.365658 DELTAE -323.3656581
 ITERATION   2 PLS= 0.808E-03 0.000E+00 ENERGY     -223.367878 DELTAE   -0.0022203
 ITERATION   3 PLS= 0.396E-03 0.000E+00 ENERGY     -223.368352 DELTAE   -0.0004732
 ITERATION   4 PLS= 0.197E-03 0.000E+00 ENERGY     -223.368672 DELTAE   -0.0003201
 ITERATION   1 PLS= 0.970E-05 0.000E+00 ENERGY     -223.369264 DELTAE -323.3692643
 ITERATION   2 PLS= 0.265E-03 0.000E+00 ENERGY     -223.369758 DELTAE   -0.0004935
 ITERATION   3 PLS= 0.136E-03 0.000E+00 ENERGY     -223.369864 DELTAE   -0.0001061
 ITERATION   4 PLS= 0.715E-04 0.000E+00 ENERGY     -223.369943 DELTAE   -0.0000794
 ITERATION   1 PLS= 0.511E-05 0.000E+00 ENERGY     -223.368097 DELTAE -323.3680971
 ITERATION   2 PLS= 0.102E-03 0.000E+00 ENERGY     -223.368222 DELTAE   -0.0001249
 ITERATION   3 PLS= 0.502E-04 0.000E+00 ENERGY     -223.368250 DELTAE   -0.0000278
 ITERATION   4 PLS= 0.270E-04 0.000E+00 ENERGY     -223.368273 DELTAE   -0.0000229
 ITERATION   1 PLS= 0.291E-05 0.000E+00 ENERGY     -223.365489 DELTAE -323.3654885
 ITERATION   2 PLS= 0.427E-04 0.000E+00 ENERGY     -223.365524 DELTAE   -0.0000351
 ITERATION   3 PLS= 0.215E-04 0.000E+00 ENERGY     -223.365532 DELTAE   -0.0000082
 ITERATION   4 PLS= 0.117E-04 0.000E+00 ENERGY     -223.365539 DELTAE   -0.0000073
 ITERATION   1 PLS= 0.271E-05 0.000E+00 ENERGY     -223.363868 DELTAE -323.3638677
 ITERATION   2 PLS= 0.247E-04 0.000E+00 ENERGY     -223.363878 DELTAE   -0.0000100
 ITERATION   3 PLS= 0.116E-04 0.000E+00 ENERGY     -223.363880 DELTAE   -0.0000025
 ITERATION   4 PLS= 0.560E-05 0.000E+00 ENERGY     -223.363883 DELTAE   -0.0000023

     TRUST RADIUS NOW LESS THAN  0.00010 OPTIMIZATION TERMINATING
      THE GEOMETRY MAY NOT BE COMPLETELY OPTIMIZED
      (TO CONTINUE, ADD 'LET DDMIN=0.0' TO THE KEYWORD LINE)
 ITERATION   1 PLS= 0.141E-05 0.000E+00 ENERGY     -223.499309 DELTAE -323.4993088
 ITERATION   2 PLS= 0.453E-03 0.000E+00 ENERGY     -223.499480 DELTAE   -0.0001711
 ITERATION   3 PLS= 0.206E-03 0.000E+00 ENERGY     -223.499520 DELTAE   -0.0000397
 ITERATION   4 PLS= 0.101E-03 0.000E+00 ENERGY     -223.499550 DELTAE   -0.0000299

 -------------------------------------------------------------------------------
 PM7 CHARGE=-1 SINGLET AUX DUMP=30M ITRY=15000 eps=78.4 T=14D PL THREADS=40

 Mopac file generated by Gabedit


     GEOMETRY OPTIMISED USING EIGENVECTOR FOLLOWING (EF).     
     SCF FIELD WAS ACHIEVED                                   


                              PM7 CALCULATION
                                                       MOPAC v22.1.0 Linux
                                                       Sat Mar 23 21:07:58 2024




          FINAL HEAT OF FORMATION =       -223.49954 KCAL/MOL =    -935.12206 KJ/MOL
          VAN DER WAALS AREA      =        246.36 SQUARE ANGSTROMS



          DIELECTRIC ENERGY       =         -3.49630 EV
          COSMO AREA              =        246.36 SQUARE ANGSTROMS
          COSMO VOLUME            =        251.07 CUBIC ANGSTROMS

          GRADIENT NORM           =          1.50312          =       0.30062 PER ATOM
          IONIZATION POTENTIAL    =         10.044883 EV
          HOMO LUMO ENERGIES (EV) =        -10.045 -0.683
          NO. OF FILLED LEVELS    =         40
          MOLECULAR WEIGHT        =        220.6322         POINT GROUP:  C1  

          MOLECULAR DIMENSIONS (Angstroms)

            Atom       Atom       Distance
            H    22   Cl    10    10.10010
            H     7    H    14     6.57441
            O    18    H    16     4.08093


          SCF CALCULATIONS        =         78

          WALL-CLOCK TIME         =      4.891 SECONDS
          COMPUTATION TIME        =          4 MINUTES AND 4.050 SECONDS




   ATOM   CHEMICAL          X               Y               Z
  NUMBER   SYMBOL      (ANGSTROMS)     (ANGSTROMS)     (ANGSTROMS)

     1       C          0.88896014  *   3.27563397  *   1.95683563  *
     2       C          1.38127305  *   1.97358570  *   1.87904351  *
     3       C          0.50242724  *   0.89328684  *   1.77224248  *
     4       C         -0.87696042  *   1.10897094  *   1.73759666  *
     5       C         -1.33250005  *   2.41573179  *   1.81740812  *
     6       C         -0.48500537  *   3.50975380  *   1.92746888  *
     7       H          1.57890133  *   4.11923309  *   2.03998019  *
     8       H          2.46429979  *   1.79968539  *   1.90238617  *
     9       H         -1.56966322  *   0.26781716  *   1.64575174  *
    10      Cl         -3.02908476  *   2.69004954  *   1.77701379  *
    11       H         -0.87421430  *   4.52771307  *   1.98907493  *
    12       C          1.06704838  *  -0.49939515  *   1.71138528  *
    13       C          0.44627196  *  -1.42798939  *   2.74619498  *
    14       H          0.92679998  *  -2.41733663  *   2.76317974  *
    15       H         -0.62828199  *  -1.59211679  *   2.58457634  *
    16       H          0.54675848  *  -1.00559026  *   3.75906059  *
    17       N          0.81635470  *  -1.06873832  *   0.34376325  *
    18       O          1.77299168  *  -1.47286482  *  -0.29870560  *
    19       O         -0.32410881  *  -1.11561394  *  -0.08582604  *
    20       H          2.19887560  *  -0.46787292  *   1.86220985  *
    21       O          6.54592808  *   0.07101444  *   2.57367630  *
    22       H          6.86812018  *   0.68492078  *   1.96910404  *
    23       H          5.28179627  *  -0.05550249  *   2.22061830  *
    24       H          4.19581027  *  -0.74639179  *   1.18319328  *
    25       O          4.18897987  *  -0.15536459  *   1.90910489  *

                             CARTESIAN COORDINATES

   1    C        0.888960143     3.275633965     1.956835626
   2    C        1.381273052     1.973585700     1.879043506
   3    C        0.502427238     0.893286843     1.772242477
   4    C       -0.876960418     1.108970938     1.737596664
   5    C       -1.332500053     2.415731791     1.817408121
   6    C       -0.485005370     3.509753796     1.927468879
   7    H        1.578901333     4.119233091     2.039980192
   8    H        2.464299794     1.799685389     1.902386167
   9    H       -1.569663218     0.267817161     1.645751735
  10   Cl       -3.029084761     2.690049541     1.777013795
  11    H       -0.874214300     4.527713069     1.989074927
  12    C        1.067048383    -0.499395151     1.711385283
  13    C        0.446271959    -1.427989389     2.746194984
  14    H        0.926799976    -2.417336630     2.763179741
  15    H       -0.628281995    -1.592116786     2.584576344
  16    H        0.546758480    -1.005590256     3.759060590
  17    N        0.816354699    -1.068738317     0.343763249
  18    O        1.772991684    -1.472864825    -0.298705598
  19    O       -0.324108806    -1.115613938    -0.085826044
  20    H        2.198875598    -0.467872916     1.862209848
  21    O        6.545928077     0.071014437     2.573676297
  22    H        6.868120185     0.684920776     1.969104038
  23    H        5.281796272    -0.055502492     2.220618296
  24    H        4.195810269    -0.746391792     1.183193283
  25    O        4.188979868    -0.155364589     1.909104890


           Empirical Formula: C8 H11 N O4 Cl  =    25 atoms



      MOLECULAR POINT GROUP   :   C1  


                  EIGENVALUES  
 -37.32472 -31.52942 -30.79946 -29.24180 -27.42756 -27.07790 -26.04838 -25.39025
 -24.97119 -24.90480 -22.45123 -21.15418 -20.38978 -18.47441 -18.37192 -17.50409
 -17.26672 -16.43835 -16.26533 -15.40170 -15.08164 -14.67747 -14.46876 -14.23871
 -14.05020 -13.78142 -13.49298 -13.02109 -12.64415 -12.42223 -12.14450 -11.89212
 -11.79429 -11.53113 -11.40082 -11.26812 -10.95573 -10.57291 -10.36026 -10.04488
  -0.68317  -0.39862  -0.36330   0.56725   0.72125   1.92490   2.87251   3.26224
   3.74499   3.90774   4.11136   4.31814   4.41951   4.48582   4.54555   4.84306
   5.16775   5.37807   5.42467   5.57972   5.68944   5.79478   5.84160   5.91149
   6.61152   7.09362   7.99493  69.54491  69.55787  69.59133  69.83899  69.85412


              NET ATOMIC CHARGES AND DIPOLE CONTRIBUTIONS

  ATOM NO.   TYPE          CHARGE      No. of ELECS.   s-Pop       p-Pop       d-Pop       
    1          C          -0.129141        4.1291     1.08810     3.04104
    2          C          -0.132149        4.1321     1.09310     3.03905
    3          C          -0.043006        4.0430     1.06746     2.97555
    4          C          -0.156931        4.1569     1.08837     3.06856
    5          C           0.012202        3.9878     1.09512     2.89268
    6          C          -0.160115        4.1601     1.08917     3.07094
    7          H           0.178701        0.8213     0.82130
    8          H           0.193830        0.8062     0.80617
    9          H           0.192119        0.8079     0.80788
   10         Cl          -0.126962        7.1270     1.98129     5.13928     0.00639
   11          H           0.181257        0.8187     0.81874
   12          C          -0.049971        4.0500     1.09919     2.95078
   13          C          -0.470952        4.4710     1.05786     3.41309
   14          H           0.180271        0.8197     0.81973
   15          H           0.172588        0.8274     0.82741
   16          H           0.186576        0.8134     0.81342
   17          N           0.624054        4.3759     1.47998     2.89596
   18          O          -0.450440        6.4504     1.93978     4.51066
   19          O          -0.449934        6.4499     1.93938     4.51055
   20          H           0.242066        0.7579     0.75793
   21          O          -1.141948        7.1419     1.86485     5.27710
   22          H           0.340929        0.6591     0.65907
   23          H           0.436387        0.5636     0.56361
   24          H           0.345416        0.6546     0.65458
   25          O          -0.974846        6.9748     1.84580     5.12905
 DIPOLE           X         Y         Z       TOTAL
 POINT-CHG.   -19.123     5.761    -0.181    19.973
 HYBRID        -0.406    -0.128    -0.862     0.961
 SUM          -19.530     5.634    -1.042    20.353


          ATOMIC ORBITAL ELECTRON POPULATIONS

     Atom    s        px        py        pz      x^2-y^2     xz        z^2       yz        xy
    1  C   1.08810   1.01258   1.05188   0.97658
    2  C   1.09310   1.09488   0.97332   0.97084
    3  C   1.06746   0.97435   0.96405   1.03715
    4  C   1.08837   1.03704   1.03623   0.99529
    5  C   1.09512   0.84326   0.99481   1.05461
    6  C   1.08917   1.00723   1.07218   0.99153
    7  H   0.82130
    8  H   0.80617
    9  H   0.80788
   10 Cl   1.98129   1.19719   1.97192   1.97018   0.00239   0.00067   0.00126   0.00005   0.00203
   11  H   0.81874
   12  C   1.09919   1.16172   0.96225   0.82682
   13  C   1.05786   1.17793   1.12676   1.10841
   14  H   0.81973
   15  H   0.82741
   16  H   0.81342
   17  N   1.47998   0.95315   0.92622   1.01660
   18  O   1.93978   1.33876   1.53109   1.64081
   19  O   1.93938   1.11658   1.62176   1.77221
   20  H   0.75793
   21  O   1.86485   1.78091   1.75620   1.73998
   22  H   0.65907
   23  H   0.56361
   24  H   0.65458
   25  O   1.84580   1.69084   1.77867   1.65954

 **********************
 *                    *
 * JOB ENDED NORMALLY *
 *                    *
 **********************



 TOTAL JOB TIME:             4.90 SECONDS

 == MOPAC DONE ==
