
                                 *****************
                                 * O   R   C   A *
                                 *****************

                                            #,                                       
                                            ###                                      
                                            ####                                     
                                            #####                                    
                                            ######                                   
                                           ########,                                 
                                     ,,################,,,,,                         
                               ,,#################################,,                 
                          ,,##########################################,,             
                       ,#########################################, ''#####,          
                    ,#############################################,,   '####,        
                  ,##################################################,,,,####,       
                ,###########''''           ''''###############################       
              ,#####''   ,,,,##########,,,,          '''####'''          '####       
            ,##' ,,,,###########################,,,                        '##       
           ' ,,###''''                  '''############,,,                           
         ,,##''                                '''############,,,,        ,,,,,,###''
      ,#''                                            '''#######################'''  
     '                                                          ''''####''''         
             ,#######,   #######,   ,#######,      ##                                
            ,#'     '#,  ##    ##  ,#'     '#,    #''#        ######   ,####,        
            ##       ##  ##   ,#'  ##            #'  '#       #        #'  '#        
            ##       ##  #######   ##           ,######,      #####,   #    #        
            '#,     ,#'  ##    ##  '#,     ,#' ,#      #,         ##   #,  ,#        
             '#######'   ##     ##  '#######'  #'      '#     #####' # '####'        



                  #######################################################
                  #                        -***-                        #
                  #          Department of theory and spectroscopy      #
                  #    Directorship and core code : Frank Neese         #
                  #        Max Planck Institute fuer Kohlenforschung    #
                  #                Kaiser Wilhelm Platz 1               #
                  #                 D-45470 Muelheim/Ruhr               #
                  #                      Germany                        #
                  #                                                     #
                  #                  All rights reserved                #
                  #                        -***-                        #
                  #######################################################


                         Program Version 5.0.4 -  RELEASE  -


 With contributions from (in alphabetic order):
   Daniel Aravena         : Magnetic Suceptibility
   Michael Atanasov       : Ab Initio Ligand Field Theory (pilot matlab implementation)
   Alexander A. Auer      : GIAO ZORA, VPT2 properties, NMR spectrum
   Ute Becker             : Parallelization
   Giovanni Bistoni       : ED, misc. LED, open-shell LED, HFLD
   Martin Brehm           : Molecular dynamics
   Dmytro Bykov           : SCF Hessian
   Vijay G. Chilkuri      : MRCI spin determinant printing, contributions to CSF-ICE
   Dipayan Datta          : RHF DLPNO-CCSD density
   Achintya Kumar Dutta   : EOM-CC, STEOM-CC
   Dmitry Ganyushin       : Spin-Orbit,Spin-Spin,Magnetic field MRCI
   Miquel Garcia          : C-PCM and meta-GGA Hessian, CC/C-PCM, Gaussian charge scheme
   Yang Guo               : DLPNO-NEVPT2, F12-NEVPT2, CIM, IAO-localization
   Andreas Hansen         : Spin unrestricted coupled pair/coupled cluster methods
   Benjamin Helmich-Paris : MC-RPA, TRAH-SCF, COSX integrals
   Lee Huntington         : MR-EOM, pCC
   Robert Izsak           : Overlap fitted RIJCOSX, COSX-SCS-MP3, EOM
   Marcus Kettner         : VPT2
   Christian Kollmar      : KDIIS, OOCD, Brueckner-CCSD(T), CCSD density, CASPT2, CASPT2-K
   Simone Kossmann        : Meta GGA functionals, TD-DFT gradient, OOMP2, MP2 Hessian
   Martin Krupicka        : Initial AUTO-CI
   Lucas Lang             : DCDCAS
   Marvin Lechner         : AUTO-CI (C++ implementation), FIC-MRCC
   Dagmar Lenk            : GEPOL surface, SMD
   Dimitrios Liakos       : Extrapolation schemes; Compound Job, initial MDCI parallelization
   Dimitrios Manganas     : Further ROCIS development; embedding schemes
   Dimitrios Pantazis     : SARC Basis sets
   Anastasios Papadopoulos: AUTO-CI, single reference methods and gradients
   Taras Petrenko         : DFT Hessian,TD-DFT gradient, ASA, ECA, R-Raman, ABS, FL, XAS/XES, NRVS
   Peter Pinski           : DLPNO-MP2, DLPNO-MP2 Gradient
   Christoph Reimann      : Effective Core Potentials
   Marius Retegan         : Local ZFS, SOC
   Christoph Riplinger    : Optimizer, TS searches, QM/MM, DLPNO-CCSD(T), (RO)-DLPNO pert. Triples
   Tobias Risthaus        : Range-separated hybrids, TD-DFT gradient, RPA, STAB
   Michael Roemelt        : Original ROCIS implementation
   Masaaki Saitow         : Open-shell DLPNO-CCSD energy and density
   Barbara Sandhoefer     : DKH picture change effects
   Avijit Sen             : IP-ROCIS
   Kantharuban Sivalingam : CASSCF convergence, NEVPT2, FIC-MRCI
   Bernardo de Souza      : ESD, SOC TD-DFT
   Georgi Stoychev        : AutoAux, RI-MP2 NMR, DLPNO-MP2 response
   Willem Van den Heuvel  : Paramagnetic NMR
   Boris Wezisla          : Elementary symmetry handling
   Frank Wennmohs         : Technical directorship


 We gratefully acknowledge several colleagues who have allowed us to
 interface, adapt or use parts of their codes:
   Stefan Grimme, W. Hujo, H. Kruse, P. Pracht,  : VdW corrections, initial TS optimization,
                  C. Bannwarth, S. Ehlert          DFT functionals, gCP, sTDA/sTD-DF
   Ed Valeev, F. Pavosevic, A. Kumar             : LibInt (2-el integral package), F12 methods
   Garnet Chan, S. Sharma, J. Yang, R. Olivares  : DMRG
   Ulf Ekstrom                                   : XCFun DFT Library
   Mihaly Kallay                                 : mrcc  (arbitrary order and MRCC methods)
   Jiri Pittner, Ondrej Demel                    : Mk-CCSD
   Frank Weinhold                                : gennbo (NPA and NBO analysis)
   Christopher J. Cramer and Donald G. Truhlar   : smd solvation model
   Lars Goerigk                                  : TD-DFT with DH, B97 family of functionals
   V. Asgeirsson, H. Jonsson                     : NEB implementation
   FAccTs GmbH                                   : IRC, NEB, NEB-TS, DLPNO-Multilevel, CI-OPT
                                                   MM, QMMM, 2- and 3-layer-ONIOM, Crystal-QMMM,
                                                   LR-CPCM, SF, NACMEs, symmetry and pop. for TD-DFT,
                                                   nearIR, NL-DFT gradient (VV10), updates on ESD,
                                                   ML-optimized integration grids
   S Lehtola, MJT Oliveira, MAL Marques          : LibXC Library
   Liviu Ungur et al                             : ANISO software


 Your calculation uses the libint2 library for the computation of 2-el integrals
 For citations please refer to: http://libint.valeyev.net

 Your ORCA version has been built with support for libXC version: 5.1.0
 For citations please refer to: https://tddft.org/programs/libxc/

 This ORCA versions uses:
   CBLAS   interface :  Fast vector & matrix operations
   LAPACKE interface :  Fast linear algebra routines
   SCALAPACK package :  Parallel linear algebra routines
   Shared memory     :  Shared parallel matrices
   BLAS/LAPACK       :  OpenBLAS 0.3.15  USE64BITINT DYNAMIC_ARCH NO_AFFINITY Prescott SINGLE_THREADED
        Core in use  :  Prescott
   Copyright (c) 2011-2014, The OpenBLAS Project


Your calculation utilizes the atom-pairwise dispersion correction
with the Becke-Johnson damping scheme (D3BJ)
Cite in your paper:
S.Grimme, S.Ehrlich, L.Goerigk, J Comput Chem, (2011), 32, 1456–1465 
S.Grimme, J.Antony, S.Ehrlich and H.Krieg, J.Chem.Phys., 132, (2010), 154104 
   

================================================================================

----- Orbital basis set information -----
Your calculation utilizes the basis: def2-TZVP
   F. Weigend and R. Ahlrichs, Phys. Chem. Chem. Phys. 7, 3297 (2005).

----- AuxJ basis set information -----
Your calculation utilizes the auxiliary basis: def2/J
   F. Weigend, Phys. Chem. Chem. Phys. 8, 1057 (2006).

================================================================================
                                        WARNINGS
                       Please study these warnings very carefully!
================================================================================

WARNING: Gradients needed for Numerical Frequencies
  ===> : Setting RunTyp to EnGrad

INFO   : the flag for use of the SHARK integral package has been found!

================================================================================
                                       INPUT FILE
================================================================================
NAME = /home/rudenko/mop_saddle_orca_4_serv/for_orca/m,m-o2n2c6h4chno2ch3_oh/orca/freq_H/f_H.inp
|  1> !  NUMFREQ B3LYP def2-TZVP CPCM D3 
|  2> %pal nprocs 102 end
|  3> %cpcm epsilon 78.4 end 
|  4> *xyz -1 1 
|  5> C   -2.34304228579715 0.61256991173244 -0.62737752246131
|  6> C   -1.06371149866044 0.79663267366164 -0.12825243894238
|  7> C   -0.0724165626182 -0.15349159090067 -0.38678679585458
|  8> C   -0.4135578755999 -1.2806955947633 -1.12989176084609
|  9> C   -1.71116000274086 -1.43110713506563 -1.60323607114695
| 10> C   -2.70391480925767 -0.49803249152475 -1.37234213957706
| 11> H   -0.84145162276959 1.66990496629506 0.46308775827099
| 12> H   0.3156307298918 -2.04367385016507 -1.35093997810238
| 13> H   -3.7048348182502 -0.62867168453229 -1.74802766500291
| 14> N   -2.04519199130523 -2.62793766355929 -2.3893919685091
| 15> O   -3.18418302546663 -2.73213507713 -2.82149420323377
| 16> O   -1.16697883559121 -3.45924629790181 -2.57067283529784
| 17> C   1.30585487912383 0.02555427995277 0.17399803891102
| 18> H   1.16818297999111 0.46023014232876 1.3249756393872
| 19> C   2.15781417872307 -1.22249356323829 0.28895556806808
| 20> H   3.03920501563429 -1.02286217935867 0.89404136018501
| 21> H   2.48684831570905 -1.60624292771119 -0.67974003900129
| 22> H   1.57460148444579 -1.99641210195836 0.78871418254514
| 23> N   2.02245994485646 1.12625488937431 -0.47694785850037
| 24> O   3.2546513721574 1.10933842811659 -0.46826417951407
| 25> O   1.38420966782794 2.07900699740791 -0.93421773772579
| 26> O   3.51702147162086 1.80038392105833 3.18241837019653
| 27> H   3.77156649212694 1.40314681856697 4.02228938877933
| 28> N   -3.36767045402275 1.63110099339812 -0.35158376867012
| 29> O   -4.50958916145122 1.41380480857802 -0.73054303298234
| 30> O   -3.02553370336922 2.64439648242092 0.23968587765773
| 31> H   0.46509799717569 1.59754729269265 2.7046734692479
| 32> H   2.5843679180722 1.45691922093126 3.00093826987228
| 33> O   1.10572419954379 0.87621033129354 2.68593207224711
| 34> *
| 35> 
| 36>                          ****END OF INPUT****
================================================================================

                     *******************************
                     * Energy+Gradient Calculation *
                     *******************************

---------------------------------
CARTESIAN COORDINATES (ANGSTROEM)
---------------------------------
  C     -2.343042    0.612570   -0.627378
  C     -1.063711    0.796633   -0.128252
  C     -0.072417   -0.153492   -0.386787
  C     -0.413558   -1.280696   -1.129892
  C     -1.711160   -1.431107   -1.603236
  C     -2.703915   -0.498032   -1.372342
  H     -0.841452    1.669905    0.463088
  H      0.315631   -2.043674   -1.350940
  H     -3.704835   -0.628672   -1.748028
  N     -2.045192   -2.627938   -2.389392
  O     -3.184183   -2.732135   -2.821494
  O     -1.166979   -3.459246   -2.570673
  C      1.305855    0.025554    0.173998
  H      1.168183    0.460230    1.324976
  C      2.157814   -1.222494    0.288956
  H      3.039205   -1.022862    0.894041
  H      2.486848   -1.606243   -0.679740
  H      1.574601   -1.996412    0.788714
  N      2.022460    1.126255   -0.476948
  O      3.254651    1.109338   -0.468264
  O      1.384210    2.079007   -0.934218
  O      3.517021    1.800384    3.182418
  H      3.771566    1.403147    4.022289
  N     -3.367670    1.631101   -0.351584
  O     -4.509589    1.413805   -0.730543
  O     -3.025534    2.644396    0.239686
  H      0.465098    1.597547    2.704673
  H      2.584368    1.456919    3.000938
  O      1.105724    0.876210    2.685932

----------------------------
CARTESIAN COORDINATES (A.U.)
----------------------------
  NO LB      ZA    FRAG     MASS         X           Y           Z
   0 C     6.0000    0    12.011   -4.427708    1.157589   -1.185572
   1 C     6.0000    0    12.011   -2.010123    1.505418   -0.242362
   2 C     6.0000    0    12.011   -0.136847   -0.290057   -0.730921
   3 C     6.0000    0    12.011   -0.781511   -2.420164   -2.135186
   4 C     6.0000    0    12.011   -3.233624   -2.704401   -3.029677
   5 C     6.0000    0    12.011   -5.109658   -0.941145   -2.593351
   6 H     1.0000    0     1.008   -1.590113    3.155663    0.875109
   7 H     1.0000    0     1.008    0.596456   -3.861984   -2.552907
   8 H     1.0000    0     1.008   -7.001123   -1.188017   -3.303294
   9 N     7.0000    0    14.007   -3.864853   -4.966082   -4.515296
  10 O     8.0000    0    15.999   -6.017234   -5.162987   -5.331851
  11 O     8.0000    0    15.999   -2.205270   -6.537028   -4.857868
  12 C     6.0000    0    12.011    2.467708    0.048291    0.328809
  13 H     1.0000    0     1.008    2.207546    0.869709    2.503841
  14 C     6.0000    0    12.011    4.077678   -2.310178    0.546047
  15 H     1.0000    0     1.008    5.743265   -1.932929    1.689493
  16 H     1.0000    0     1.008    4.699462   -3.035359   -1.284523
  17 H     1.0000    0     1.008    2.975566   -3.772672    1.490454
  18 N     7.0000    0    14.007    3.821895    2.128313   -0.901301
  19 O     8.0000    0    15.999    6.150400    2.096346   -0.884891
  20 O     8.0000    0    15.999    2.615777    3.928754   -1.765416
  21 O     8.0000    0    15.999    6.646207    3.402233    6.013899
  22 H     1.0000    0     1.008    7.127228    2.651563    7.601025
  23 N     7.0000    0    14.007   -6.363975    3.082334   -0.664397
  24 O     8.0000    0    15.999   -8.521888    2.671704   -1.380526
  25 O     8.0000    0    15.999   -5.717430    4.997185    0.452941
  26 H     1.0000    0     1.008    0.878908    3.018927    5.111092
  27 H     1.0000    0     1.008    4.883748    2.753178    5.670951
  28 O     8.0000    0    15.999    2.089516    1.655798    5.075676

--------------------------------
INTERNAL COORDINATES (ANGSTROEM)
--------------------------------
 C      0   0   0     0.000000000000     0.00000000     0.00000000
 C      1   0   0     1.385529578263     0.00000000     0.00000000
 C      2   1   0     1.397226460541   119.87436158     0.00000000
 C      3   2   1     1.392541292293   118.38361393   358.96246564
 C      4   3   2     1.389406257331   119.88216420     0.56282857
 C      5   4   3     1.381847460437   122.74718404     0.13079069
 H      2   1   3     1.077815929717   119.71512451   180.39907005
 H      4   3   2     1.078292240048   121.09682217   180.30260323
 H      6   5   4     1.077054816231   121.83383310   179.87893592
 N      5   4   3     1.470381507731   118.84411095   179.79146404
 O     10   5   4     1.222648771377   118.03135521   181.45266285
 O     10   5   4     1.222781724211   118.00036980     1.49768017
 C      3   2   1     1.498722529988   120.13114290   181.26742397
 H     13   3   2     1.238000845695   106.71141551    40.05654112
 C     13   3   2     1.515477911610   116.55072753   158.62259161
 H     15  13   3     1.087580485593   110.28139356   192.09718710
 H     15  13   3     1.092656495515   113.03353326    70.73253044
 H     15  13   3     1.090341975751   108.57878135   310.22752883
 N     13   3   2     1.465876943393   111.90783635   289.57949231
 O     19  13   3     1.232338138035   118.38297605   204.43359225
 O     19  13   3     1.234583224386   119.42063425    29.24890229
 O     14  13   3     3.280723686725   126.16977405   194.26077271
 H     22  14  13     0.963313973176   120.95410054   241.26402688
 N      1   2   3     1.470826516647   118.92700270   180.48049541
 O     24   1   2     1.222622627928   117.99891422   184.32135334
 O     24   1   2     1.222057731406   118.02649852     4.48165718
 H     14  13   3     1.921297711260   156.37170168   312.74734064
 H     22  14  13     1.010319592007    25.64630998   184.48062424
 O     27  14  13     0.964924962369    45.61948477   180.91302085

---------------------------
INTERNAL COORDINATES (A.U.)
---------------------------
 C      0   0   0     0.000000000000     0.00000000     0.00000000
 C      1   0   0     2.618271453365     0.00000000     0.00000000
 C      2   1   0     2.640375357491   119.87436158     0.00000000
 C      3   2   1     2.631521672611   118.38361393   358.96246564
 C      4   3   2     2.625597315112   119.88216420     0.56282857
 C      5   4   3     2.611313259081   122.74718404     0.13079069
 H      2   1   3     2.036776929944   119.71512451   180.39907005
 H      4   3   2     2.037677026023   121.09682217   180.30260323
 H      6   5   4     2.035338633897   121.83383310   179.87893592
 N      5   4   3     2.778618361993   118.84411095   179.79146404
 O     10   5   4     2.310471335877   118.03135521   181.45266285
 O     10   5   4     2.310722580323   118.00036980     1.49768017
 C      3   2   1     2.832175132415   120.13114290   181.26742397
 H     13   3   2     2.339482551926   106.71141551    40.05654112
 C     13   3   2     2.863838214950   116.55072753   158.62259161
 H     15  13   3     2.055229266368   110.28139356   192.09718710
 H     15  13   3     2.064821534973   113.03353326    70.73253044
 H     15  13   3     2.060447726488   108.57878135   310.22752883
 N     13   3   2     2.770105969042   111.90783635   289.57949231
 O     19  13   3     2.328781585273   118.38297605   204.43359225
 O     19  13   3     2.333024183624   119.42063425    29.24890229
 O     14  13   3     6.199669288979   126.16977405   194.26077271
 H     22  14  13     1.820399590282   120.95410054   241.26402688
 N      1   2   3     2.779459306971   118.92700270   180.48049541
 O     24   1   2     2.310421931918   117.99891422   184.32135334
 O     24   1   2     2.309354432199   118.02649852     4.48165718
 H     14  13   3     3.630726496012   156.37170168   312.74734064
 H     22  14  13     1.909227336629    25.64630998   184.48062424
 O     27  14  13     1.823443918661    45.61948477   180.91302085

---------------------
BASIS SET INFORMATION
---------------------
There are 4 groups of distinct atoms

 Group   1 Type C   : 11s6p2d1f contracted to 5s3p2d1f pattern {62111/411/11/1}
 Group   2 Type H   : 5s1p contracted to 3s1p pattern {311/1}
 Group   3 Type N   : 11s6p2d1f contracted to 5s3p2d1f pattern {62111/411/11/1}
 Group   4 Type O   : 11s6p2d1f contracted to 5s3p2d1f pattern {62111/411/11/1}

Atom   0C    basis set group =>   1
Atom   1C    basis set group =>   1
Atom   2C    basis set group =>   1
Atom   3C    basis set group =>   1
Atom   4C    basis set group =>   1
Atom   5C    basis set group =>   1
Atom   6H    basis set group =>   2
Atom   7H    basis set group =>   2
Atom   8H    basis set group =>   2
Atom   9N    basis set group =>   3
Atom  10O    basis set group =>   4
Atom  11O    basis set group =>   4
Atom  12C    basis set group =>   1
Atom  13H    basis set group =>   2
Atom  14C    basis set group =>   1
Atom  15H    basis set group =>   2
Atom  16H    basis set group =>   2
Atom  17H    basis set group =>   2
Atom  18N    basis set group =>   3
Atom  19O    basis set group =>   4
Atom  20O    basis set group =>   4
Atom  21O    basis set group =>   4
Atom  22H    basis set group =>   2
Atom  23N    basis set group =>   3
Atom  24O    basis set group =>   4
Atom  25O    basis set group =>   4
Atom  26H    basis set group =>   2
Atom  27H    basis set group =>   2
Atom  28O    basis set group =>   4
---------------------------------
AUXILIARY/J BASIS SET INFORMATION
---------------------------------
There are 4 groups of distinct atoms

 Group   1 Type C   : 12s5p4d2f1g contracted to 6s4p3d1f1g pattern {711111/2111/211/2/1}
 Group   2 Type H   : 5s2p1d contracted to 3s1p1d pattern {311/2/1}
 Group   3 Type N   : 12s5p4d2f1g contracted to 6s4p3d1f1g pattern {711111/2111/211/2/1}
 Group   4 Type O   : 12s5p4d2f1g contracted to 6s4p3d1f1g pattern {711111/2111/211/2/1}

Atom   0C    basis set group =>   1
Atom   1C    basis set group =>   1
Atom   2C    basis set group =>   1
Atom   3C    basis set group =>   1
Atom   4C    basis set group =>   1
Atom   5C    basis set group =>   1
Atom   6H    basis set group =>   2
Atom   7H    basis set group =>   2
Atom   8H    basis set group =>   2
Atom   9N    basis set group =>   3
Atom  10O    basis set group =>   4
Atom  11O    basis set group =>   4
Atom  12C    basis set group =>   1
Atom  13H    basis set group =>   2
Atom  14C    basis set group =>   1
Atom  15H    basis set group =>   2
Atom  16H    basis set group =>   2
Atom  17H    basis set group =>   2
Atom  18N    basis set group =>   3
Atom  19O    basis set group =>   4
Atom  20O    basis set group =>   4
Atom  21O    basis set group =>   4
Atom  22H    basis set group =>   2
Atom  23N    basis set group =>   3
Atom  24O    basis set group =>   4
Atom  25O    basis set group =>   4
Atom  26H    basis set group =>   2
Atom  27H    basis set group =>   2
Atom  28O    basis set group =>   4


           ************************************************************
           *        Program running with 102 parallel MPI-processes   *
           *              working on a common directory               *
           ************************************************************
------------------------------------------------------------------------------
                           ORCA GTO INTEGRAL CALCULATION
                           -- RI-GTO INTEGRALS CHOSEN --
------------------------------------------------------------------------------
------------------------------------------------------------------------------
                   ___                                                        
                  /   \      - P O W E R E D   B Y -                         
                 /     \                                                     
                 |  |  |   _    _      __       _____    __    __             
                 |  |  |  | |  | |    /  \     |  _  \  |  |  /  |          
                  \  \/   | |  | |   /    \    | | | |  |  | /  /          
                 / \  \   | |__| |  /  /\  \   | |_| |  |  |/  /          
                |  |  |   |  __  | /  /__\  \  |    /   |      \           
                |  |  |   | |  | | |   __   |  |    \   |  |\   \          
                \     /   | |  | | |  |  |  |  | |\  \  |  | \   \       
                 \___/    |_|  |_| |__|  |__|  |_| \__\ |__|  \__/        
                                                                              
                      - O R C A' S   B I G   F R I E N D -                    
                                      &                                       
                       - I N T E G R A L  F E E D E R -                       
                                                                              
 v1 FN, 2020, v2 2021                                                         
------------------------------------------------------------------------------


Reading SHARK input file /home/rudenko/mop_saddle_orca_4_serv/for_orca/m,m-o2n2c6h4chno2ch3_oh/orca/freq_H/f_H.SHARKINP.tmp ... ok
----------------------
SHARK INTEGRAL PACKAGE
----------------------

Number of atoms                             ...     29
Number of basis functions                   ...    649
Number of shells                            ...    249
Maximum angular momentum                    ...      3
Integral batch strategy                     ... SHARK/LIBINT Hybrid
RI-J (if used) integral strategy            ... SPLIT-RIJ (Revised 2003 algorithm where possible)
Printlevel                                  ...      1
Contraction scheme used                     ... SEGMENTED contraction
Coulomb Range Separation                    ... NOT USED
Exchange Range Separation                   ... NOT USED
Finite Nucleus Model                        ... NOT USED
Auxiliary Coulomb fitting basis             ... AVAILABLE
   # of basis functions in Aux-J            ...   1041
   # of shells in Aux-J                     ...    335
   Maximum angular momentum in Aux-J        ...      4
Auxiliary J/K fitting basis                 ... NOT available
Auxiliary Correlation fitting basis         ... NOT available
Auxiliary 'external' fitting basis          ... NOT available
Integral threshold                          ...     2.500000e-11
Primitive cut-off                           ...     2.500000e-12
Primitive pair pre-selection threshold      ...     2.500000e-12

Calculating pre-screening integrals         ... done (  0.1 sec) Dimension = 249
Organizing shell pair data                  ... done (  0.5 sec)
Shell pair information
Total number of shell pairs                 ...     31125
Shell pairs after pre-screening             ...     21889
Total number of primitive shell pairs       ...     97468
Primitive shell pairs kept                  ...     45725
          la=0 lb=0:   5334 shell pairs
          la=1 lb=0:   6251 shell pairs
          la=1 lb=1:   1846 shell pairs
          la=2 lb=0:   3150 shell pairs
          la=2 lb=1:   1887 shell pairs
          la=2 lb=2:    487 shell pairs
          la=3 lb=0:   1480 shell pairs
          la=3 lb=1:    904 shell pairs
          la=3 lb=2:    439 shell pairs
          la=3 lb=3:    111 shell pairs

Calculating one electron integrals          ... done (  0.2 sec)
Calculating RI/J V-Matrix + Cholesky decomp.... done (  0.2 sec)
Calculating Nuclear repulsion               ... done (  0.0 sec) ENN=   1478.420132706218 Eh

SHARK setup successfully completed in   1.3 seconds

Maximum memory used throughout the entire GTOINT-calculation: 35.9 MB


           ************************************************************
           *        Program running with 102 parallel MPI-processes   *
           *              working on a common directory               *
           ************************************************************
-------------------------------------------------------------------------------
                                 ORCA SCF
-------------------------------------------------------------------------------

------------
SCF SETTINGS
------------
Hamiltonian:
 Density Functional     Method          .... DFT(GTOs)
 Exchange Functional    Exchange        .... B88
   X-Alpha parameter    XAlpha          ....  0.666667
   Becke's b parameter  XBeta           ....  0.004200
 Correlation Functional Correlation     .... LYP
 LDA part of GGA corr.  LDAOpt          .... VWN-5
 Gradients option       PostSCFGGA      .... off
 Hybrid DFT is turned on
   Fraction HF Exchange ScalHFX         ....  0.200000
   Scaling of DF-GGA-X  ScalDFX         ....  0.720000
   Scaling of DF-GGA-C  ScalDFC         ....  0.810000
   Scaling of DF-LDA-C  ScalLDAC        ....  1.000000
   Perturbative correction              ....  0.000000
   Density functional embedding theory  .... OFF
   NL short-range parameter             ....  4.800000
 RI-approximation to the Coulomb term is turned on
   Number of AuxJ basis functions       .... 1041
   RIJ-COSX (HFX calculated with COS-X)).... on


General Settings:
 Integral files         IntName         .... /home/rudenko/mop_saddle_orca_4_serv/for_orca/m,m-o2n2c6h4chno2ch3_oh/orca/freq_H/f_H
 Hartree-Fock type      HFTyp           .... RHF
 Total Charge           Charge          ....   -1
 Multiplicity           Mult            ....    1
 Number of Electrons    NEL             ....  144
 Basis Dimension        Dim             ....  649
 Nuclear Repulsion      ENuc            ....   1478.4201327062 Eh

Convergence Acceleration:
 DIIS                   CNVDIIS         .... on
   Start iteration      DIISMaxIt       ....    12
   Startup error        DIISStart       ....  0.200000
   # of expansion vecs  DIISMaxEq       ....     5
   Bias factor          DIISBfac        ....   1.050
   Max. coefficient     DIISMaxC        ....  10.000
 Trust-Rad. Augm. Hess. CNVTRAH         .... auto
   Auto Start mean grad. ratio tolernc. ....  1.125000
   Auto Start start iteration           ....    20
   Auto Start num. interpolation iter.  ....    10
   Max. Number of Micro iterations      ....    16
   Max. Number of Macro iterations      .... Maxiter - #DIIS iter
   Number of Davidson start vectors     ....     2
   Converg. threshold I  (grad. norm)   ....   1.000e-05
   Converg. threshold II (energy diff.) ....   1.000e-08
   Grad. Scal. Fac. for Micro threshold ....   0.100
   Minimum threshold for Micro iter.    ....   0.010
   NR start threshold (gradient norm)   ....   0.001
   Initial trust radius                 ....   0.400
   Minimum AH scaling param. (alpha)    ....   1.000
   Maximum AH scaling param. (alpha)    .... 1000.000
   Orbital update algorithm             .... Taylor
   White noise on init. David. guess    .... on
   Maximum white noise                  ....   0.010
   Quad. conv. algorithm                .... NR
 SOSCF                  CNVSOSCF        .... on
   Start iteration      SOSCFMaxIt      ....   150
   Startup grad/error   SOSCFStart      ....  0.003300
 Level Shifting         CNVShift        .... on
   Level shift para.    LevelShift      ....    0.2500
   Turn off err/grad.   ShiftErr        ....    0.0010
 Zerner damping         CNVZerner       .... off
 Static damping         CNVDamp         .... on
   Fraction old density DampFac         ....    0.7000
   Max. Damping (<1)    DampMax         ....    0.9800
   Min. Damping (>=0)   DampMin         ....    0.0000
   Turn off err/grad.   DampErr         ....    0.1000
 Fernandez-Rico         CNVRico         .... off

SCF Procedure:
 Maximum # iterations   MaxIter         ....   125
 SCF integral mode      SCFMode         .... Direct
   Integral package                     .... SHARK and LIBINT hybrid scheme
 Reset frequency        DirectResetFreq ....    20
 Integral Threshold     Thresh          ....  2.500e-11 Eh
 Primitive CutOff       TCut            ....  2.500e-12 Eh

Convergence Tolerance:
 Convergence Check Mode ConvCheckMode   .... Total+1el-Energy
 Convergence forced     ConvForced      .... 0
 Energy Change          TolE            ....  1.000e-08 Eh
 1-El. energy change                    ....  1.000e-05 Eh
 Orbital Gradient       TolG            ....  1.000e-05
 Orbital Rotation angle TolX            ....  1.000e-05
 DIIS Error             TolErr          ....  5.000e-07


Diagonalization of the overlap matrix:
Smallest eigenvalue                        ... 6.625e-06
Time for diagonalization                   ...    0.159 sec
Threshold for overlap eigenvalues          ... 1.000e-08
Number of eigenvalues below threshold      ... 0
Time for construction of square roots      ...    0.366 sec
Total time needed                          ...    0.530 sec

Time for model grid setup =    0.238 sec

------------------------------
INITIAL GUESS: MODEL POTENTIAL
------------------------------
Loading Hartree-Fock densities                     ... done
Calculating cut-offs                               ... done
Initializing the effective Hamiltonian             ... done
Setting up the integral package (SHARK)            ... done
Starting the Coulomb interaction                   ... done (   0.1 sec)
Reading the grid                                   ... done
Mapping shells                                     ... done
Starting the XC term evaluation                    ... done (   0.1 sec)
  promolecular density results
     # of electrons  =    142.997753147
     EX              =   -129.368403191
     EC              =     -5.054968641
     EX+EC           =   -134.423371832
Transforming the Hamiltonian                       ... done (   0.3 sec)
Diagonalizing the Hamiltonian                      ... done (   0.2 sec)
Back transforming the eigenvectors                 ... done (   0.1 sec)
Now organizing SCF variables                       ... done
                      ------------------
                      INITIAL GUESS DONE (   1.1 sec)
                      ------------------
-------------------
DFT GRID GENERATION
-------------------

General Integration Accuracy     IntAcc      ... 4.388
Radial Grid Type                 RadialGrid  ... OptM3 with GC (2021)
Angular Grid (max. ang.)         AngularGrid ... 4 (Lebedev-302)
Angular grid pruning method      GridPruning ... 4 (adaptive)
Weight generation scheme         WeightScheme... Becke
Basis function cutoff            BFCut       ... 1.0000e-11
Integration weight cutoff        WCut        ... 1.0000e-14
Angular grids for H and He will be reduced by one unit
Partially contracted basis set               ... off
Rotationally invariant grid construction     ... off

Total number of grid points                  ...   146462
Total number of batches                      ...     2302
Average number of points per batch           ...       63
Average number of grid points per atom       ...     5050
Time for grid setup =    1.234 sec

--------------------
COSX GRID GENERATION
--------------------

GRIDX 1
-------
General Integration Accuracy     IntAcc      ... 3.816
Radial Grid Type                 RadialGrid  ... OptM3 with GC (2021)
Angular Grid (max. ang.)         AngularGrid ... 1 (Lebedev-50)
Angular grid pruning method      GridPruning ... 4 (adaptive)
Weight generation scheme         WeightScheme... Becke
Basis function cutoff            BFCut       ... 1.0000e-11
Integration weight cutoff        WCut        ... 1.0000e-14
Angular grids for H and He will be reduced by one unit
Partially contracted basis set               ... on
Rotationally invariant grid construction     ... off

Total number of grid points                  ...    18553
Total number of batches                      ...      302
Average number of points per batch           ...       61
Average number of grid points per atom       ...      640
UseSFitting                                  ... on

GRIDX 2
-------
General Integration Accuracy     IntAcc      ... 4.020
Radial Grid Type                 RadialGrid  ... OptM3 with GC (2021)
Angular Grid (max. ang.)         AngularGrid ... 2 (Lebedev-110)
Angular grid pruning method      GridPruning ... 4 (adaptive)
Weight generation scheme         WeightScheme... Becke
Basis function cutoff            BFCut       ... 1.0000e-11
Integration weight cutoff        WCut        ... 1.0000e-14
Angular grids for H and He will be reduced by one unit
Partially contracted basis set               ... on
Rotationally invariant grid construction     ... off

Total number of grid points                  ...    41355
Total number of batches                      ...      662
Average number of points per batch           ...       62
Average number of grid points per atom       ...     1426
UseSFitting                                  ... on

GRIDX 3
-------
General Integration Accuracy     IntAcc      ... 4.338
Radial Grid Type                 RadialGrid  ... OptM3 with GC (2021)
Angular Grid (max. ang.)         AngularGrid ... 3 (Lebedev-194)
Angular grid pruning method      GridPruning ... 4 (adaptive)
Weight generation scheme         WeightScheme... Becke
Basis function cutoff            BFCut       ... 1.0000e-11
Integration weight cutoff        WCut        ... 1.0000e-14
Angular grids for H and He will be reduced by one unit
Partially contracted basis set               ... on
Rotationally invariant grid construction     ... off

Total number of grid points                  ...    90979
Total number of batches                      ...     1437
Average number of points per batch           ...       63
Average number of grid points per atom       ...     3137
UseSFitting                                  ... on

Time for X-Grid setup             =    2.199 sec


--------------------
CPCM SOLVATION MODEL
--------------------
CPCM parameters:
  Epsilon                                         ...      78.4000
  Refrac                                          ...       1.3300
  Rsolv                                           ...       1.3000
  Surface type                                    ... GAUSSIAN VDW
  Epsilon function type                           ...         CPCM
Radii:
 Radius for C  used is    3.8550 Bohr (=   2.0400 Ang.)
 Radius for H  used is    2.4944 Bohr (=   1.3200 Ang.)
 Radius for N  used is    3.5149 Bohr (=   1.8600 Ang.)
 Radius for O  used is    3.4469 Bohr (=   1.8240 Ang.)
Calculating surface                               ...        done! (  0.0s)
GEPOL surface points                              ...         1621
GEPOL Volume                                      ...    1998.2299
GEPOL Surface-area                                ...    1111.0503
Calculating surface distance matrix               ...        done! (  0.1s)
Performing Cholesky decomposition & store         ...        done! (  0.5s)
Overall time for CPCM initialization              ...                 0.7s
--------------
SCF ITERATIONS
--------------
ITER       Energy         Delta-E        Max-DP      RMS-DP      [F,P]     Damp
               ***  Starting incremental Fock matrix formation  ***
  0  -1075.9021223317   0.000000000000 0.94517419  0.00285311  0.4115215 0.7000
  1  -1076.2972488591  -0.395126527459 0.76078020  0.00222171  0.1473175 0.7000
                               ***Turning on DIIS***
  2  -1076.4189241699  -0.121675310767 0.58826500  0.00210046  0.0390780 0.0000
  3  -1076.6603789542  -0.241454784357 0.72512096  0.00202132  0.0881005 0.0000
  4  -1076.6927468284  -0.032367874125 0.18176617  0.00052648  0.0220581 0.0000
  5  -1076.6961309961  -0.003384167728 0.04440834  0.00016685  0.0044160 0.0000
                      *** Initiating the SOSCF procedure ***
                           *** Shutting down DIIS ***
                      *** Re-Reading the Fockian *** 
                      *** Removing any level shift *** 
ITER      Energy       Delta-E        Grad      Rot      Max-DP    RMS-DP
  6  -1076.69622546  -0.0000944653  0.000676  0.000676  0.011158  0.000047
               *** Restarting incremental Fock matrix formation ***
  7  -1076.69624623  -0.0000207717  0.000328  0.002058  0.004714  0.000029
  8  -1076.69624915  -0.0000029138  0.000191  0.001155  0.001388  0.000014
  9  -1076.69625115  -0.0000020072  0.000090  0.000580  0.001393  0.000009
 10  -1076.69625139  -0.0000002338  0.000049  0.000090  0.000408  0.000003
 11  -1076.69625148  -0.0000000923  0.000037  0.000179  0.000460  0.000003
 12  -1076.69625153  -0.0000000524  0.000023  0.000047  0.000441  0.000002
 13  -1076.69625153   0.0000000065  0.000018  0.000053  0.000261  0.000002
 14  -1076.69625154  -0.0000000163  0.000004  0.000014  0.000189  0.000001
 15  -1076.69625156  -0.0000000171  0.000006  0.000020  0.000270  0.000002
 16  -1076.69625156  -0.0000000040  0.000005  0.000011  0.000698  0.000004
 17  -1076.69625155   0.0000000091  0.000005  0.000009  0.000131  0.000001
                  ***Gradient check signals convergence***
              ***Rediagonalizing the Fockian in SOSCF/NRSCF***

               *****************************************************
               *                     SUCCESS                       *
               *           SCF CONVERGED AFTER  18 CYCLES          *
               *****************************************************

Old exchange energy                            =    -26.113499898 Eh
New exchange energy                            =    -26.113462619 Eh
Exchange energy change after final integration =      0.000037279 Eh
Total energy after final integration           =  -1076.696214284 Eh
Final COS-X integration done in                =     2.795 sec

----------------
TOTAL SCF ENERGY
----------------

Total Energy       :        -1076.69621428 Eh          -29298.39349 eV

Components:
Nuclear Repulsion  :         1478.42013271 Eh           40229.85706 eV
Electronic Energy  :        -2555.11634699 Eh          -69528.25055 eV
One Electron Energy:        -4428.15243143 Eh         -120496.15357 eV
Two Electron Energy:         1873.03608444 Eh           50967.90302 eV
Max COSX asymmetry :            0.00000147 Eh               0.00004 eV
CPCM Dielectric    :           -0.09748995 Eh              -2.65284 eV

Virial components:
Potential Energy   :        -2149.25831440 Eh          -58484.29202 eV
Kinetic Energy     :         1072.56210012 Eh           29185.89853 eV
Virial Ratio       :            2.00385443


DFT components:
N(Alpha)           :       72.000127485467 electrons
N(Beta)            :       72.000127485467 electrons
N(Total)           :      144.000254970933 electrons
E(X)               :     -104.170103399115 Eh       
E(C)               :       -5.974411003040 Eh       
E(XC)              :     -110.144514402155 Eh       
DFET-embed. en.    :        0.000000000000 Eh       
CPCM Solvation Model Properties:
Surface-charge          :            0.97586097
Charge-correction       :           -0.00259754 Eh              -0.07068 eV
Free-energy (cav+disp)  :  This term is not implemented in the current solvation scheme

---------------
SCF CONVERGENCE
---------------

  Last Energy change         ...   -8.5606e-09  Tolerance :   1.0000e-08
  Last MAX-Density change    ...    2.8866e-15  Tolerance :   1.0000e-07
  Last RMS-Density change    ...    1.8489e-17  Tolerance :   5.0000e-09
  Last Orbital Gradient      ...    4.2947e-07  Tolerance :   1.0000e-05
  Last Orbital Rotation      ...    1.5232e-06  Tolerance :   1.0000e-05

             **** THE GBW FILE WAS UPDATED (/home/rudenko/mop_saddle_orca_4_serv/for_orca/m,m-o2n2c6h4chno2ch3_oh/orca/freq_H/f_H.gbw) ****
             **** DENSITY /home/rudenko/mop_saddle_orca_4_serv/for_orca/m,m-o2n2c6h4chno2ch3_oh/orca/freq_H/f_H.scfp WAS UPDATED ****
             **** ENERGY FILE WAS UPDATED (/home/rudenko/mop_saddle_orca_4_serv/for_orca/m,m-o2n2c6h4chno2ch3_oh/orca/freq_H/f_H.en.tmp) ****
             **** THE GBW FILE WAS UPDATED (/home/rudenko/mop_saddle_orca_4_serv/for_orca/m,m-o2n2c6h4chno2ch3_oh/orca/freq_H/f_H.gbw) ****
             **** DENSITY /home/rudenko/mop_saddle_orca_4_serv/for_orca/m,m-o2n2c6h4chno2ch3_oh/orca/freq_H/f_H.scfp WAS UPDATED ****
----------------
ORBITAL ENERGIES
----------------

  NO   OCC          E(Eh)            E(eV) 
   0   2.0000     -19.175224      -521.7844 
   1   2.0000     -19.175198      -521.7837 
   2   2.0000     -19.175029      -521.7791 
   3   2.0000     -19.174995      -521.7781 
   4   2.0000     -19.146417      -521.0005 
   5   2.0000     -19.144868      -520.9583 
   6   2.0000     -19.082210      -519.2533 
   7   2.0000     -19.046122      -518.2713 
   8   2.0000     -14.568922      -396.4405 
   9   2.0000     -14.568847      -396.4385 
  10   2.0000     -14.533540      -395.4777 
  11   2.0000     -10.251830      -278.9665 
  12   2.0000     -10.251590      -278.9599 
  13   2.0000     -10.219099      -278.0758 
  14   2.0000     -10.215169      -277.9689 
  15   2.0000     -10.212196      -277.8880 
  16   2.0000     -10.212109      -277.8856 
  17   2.0000     -10.204677      -277.6834 
  18   2.0000     -10.162038      -276.5231 
  19   2.0000      -1.249672       -34.0053 
  20   2.0000      -1.249430       -33.9987 
  21   2.0000      -1.214171       -33.0393 
  22   2.0000      -1.074740       -29.2452 
  23   2.0000      -1.074536       -29.2396 
  24   2.0000      -1.038229       -28.2517 
  25   2.0000      -0.964907       -26.2564 
  26   2.0000      -0.918491       -24.9934 
  27   2.0000      -0.896996       -24.4085 
  28   2.0000      -0.845124       -22.9970 
  29   2.0000      -0.843186       -22.9442 
  30   2.0000      -0.783331       -21.3155 
  31   2.0000      -0.731639       -19.9089 
  32   2.0000      -0.718238       -19.5443 
  33   2.0000      -0.693116       -18.8607 
  34   2.0000      -0.640509       -17.4291 
  35   2.0000      -0.604597       -16.4519 
  36   2.0000      -0.590781       -16.0760 
  37   2.0000      -0.566651       -15.4194 
  38   2.0000      -0.556607       -15.1461 
  39   2.0000      -0.553619       -15.0647 
  40   2.0000      -0.546664       -14.8755 
  41   2.0000      -0.540918       -14.7191 
  42   2.0000      -0.533428       -14.5153 
  43   2.0000      -0.531903       -14.4738 
  44   2.0000      -0.520321       -14.1587 
  45   2.0000      -0.513240       -13.9660 
  46   2.0000      -0.509141       -13.8544 
  47   2.0000      -0.493052       -13.4166 
  48   2.0000      -0.489079       -13.3085 
  49   2.0000      -0.451002       -12.2724 
  50   2.0000      -0.416827       -11.3424 
  51   2.0000      -0.408948       -11.1280 
  52   2.0000      -0.407941       -11.1006 
  53   2.0000      -0.397634       -10.8202 
  54   2.0000      -0.391466       -10.6523 
  55   2.0000      -0.376327       -10.2404 
  56   2.0000      -0.369221       -10.0470 
  57   2.0000      -0.341808        -9.3011 
  58   2.0000      -0.338086        -9.1998 
  59   2.0000      -0.336329        -9.1520 
  60   2.0000      -0.336022        -9.1436 
  61   2.0000      -0.331503        -9.0206 
  62   2.0000      -0.316614        -8.6155 
  63   2.0000      -0.315327        -8.5805 
  64   2.0000      -0.313423        -8.5287 
  65   2.0000      -0.309762        -8.4290 
  66   2.0000      -0.302704        -8.2370 
  67   2.0000      -0.295656        -8.0452 
  68   2.0000      -0.284045        -7.7293 
  69   2.0000      -0.277601        -7.5539 
  70   2.0000      -0.248931        -6.7738 
  71   2.0000      -0.219953        -5.9852 
  72   0.0000      -0.111379        -3.0308 
  73   0.0000      -0.105988        -2.8841 
  74   0.0000      -0.061046        -1.6611 
  75   0.0000      -0.030414        -0.8276 
  76   0.0000      -0.003794        -0.1032 
  77   0.0000       0.041284         1.1234 
  78   0.0000       0.061463         1.6725 
  79   0.0000       0.066271         1.8033 
  80   0.0000       0.078447         2.1346 
  81   0.0000       0.086026         2.3409 
  82   0.0000       0.103973         2.8293 
  83   0.0000       0.112856         3.0710 
  84   0.0000       0.122036         3.3208 
  85   0.0000       0.128316         3.4917 
  86   0.0000       0.131901         3.5892 
  87   0.0000       0.139320         3.7911 
  88   0.0000       0.143281         3.8989 
  89   0.0000       0.157946         4.2979 
  90   0.0000       0.175352         4.7716 
  91   0.0000       0.176833         4.8119 
  92   0.0000       0.181197         4.9306 
  93   0.0000       0.190827         5.1927 
  94   0.0000       0.201310         5.4779 
  95   0.0000       0.208270         5.6673 
  96   0.0000       0.211668         5.7598 
  97   0.0000       0.217809         5.9269 
  98   0.0000       0.227051         6.1784 
  99   0.0000       0.233801         6.3621 
 100   0.0000       0.241289         6.5658 
 101   0.0000       0.244365         6.6495 
 102   0.0000       0.248800         6.7702 
 103   0.0000       0.254239         6.9182 
 104   0.0000       0.258637         7.0379 
 105   0.0000       0.272874         7.4253 
 106   0.0000       0.281714         7.6658 
 107   0.0000       0.290758         7.9119 
 108   0.0000       0.298778         8.1302 
 109   0.0000       0.302282         8.2255 
 110   0.0000       0.306821         8.3490 
 111   0.0000       0.313589         8.5332 
 112   0.0000       0.321668         8.7530 
 113   0.0000       0.331334         9.0160 
 114   0.0000       0.332958         9.0603 
 115   0.0000       0.337162         9.1746 
 116   0.0000       0.342133         9.3099 
 117   0.0000       0.350388         9.5346 
 118   0.0000       0.359962         9.7951 
 119   0.0000       0.365575         9.9478 
 120   0.0000       0.378892        10.3102 
 121   0.0000       0.381823        10.3899 
 122   0.0000       0.384700        10.4682 
 123   0.0000       0.389388        10.5958 
 124   0.0000       0.393876        10.7179 
 125   0.0000       0.404831        11.0160 
 126   0.0000       0.408901        11.1268 
 127   0.0000       0.411558        11.1991 
 128   0.0000       0.412743        11.2313 
 129   0.0000       0.424498        11.5512 
 130   0.0000       0.429388        11.6842 
 131   0.0000       0.435197        11.8423 
 132   0.0000       0.436214        11.8700 
 133   0.0000       0.441205        12.0058 
 134   0.0000       0.443125        12.0581 
 135   0.0000       0.453004        12.3269 
 136   0.0000       0.458147        12.4668 
 137   0.0000       0.462741        12.5918 
 138   0.0000       0.466330        12.6895 
 139   0.0000       0.469828        12.7847 
 140   0.0000       0.474548        12.9131 
 141   0.0000       0.477101        12.9826 
 142   0.0000       0.492772        13.4090 
 143   0.0000       0.494241        13.4490 
 144   0.0000       0.500625        13.6227 
 145   0.0000       0.506696        13.7879 
 146   0.0000       0.512157        13.9365 
 147   0.0000       0.518685        14.1141 
 148   0.0000       0.520266        14.1571 
 149   0.0000       0.525397        14.2968 
 150   0.0000       0.533119        14.5069 
 151   0.0000       0.541687        14.7401 
 152   0.0000       0.548640        14.9293 
 153   0.0000       0.561417        15.2769 
 154   0.0000       0.575478        15.6596 
 155   0.0000       0.581163        15.8143 
 156   0.0000       0.583186        15.8693 
 157   0.0000       0.590343        16.0640 
 158   0.0000       0.594031        16.1644 
 159   0.0000       0.596809        16.2400 
 160   0.0000       0.610058        16.6005 
 161   0.0000       0.618212        16.8224 
 162   0.0000       0.621860        16.9217 
 163   0.0000       0.628170        17.0934 
 164   0.0000       0.637896        17.3580 
 165   0.0000       0.640636        17.4326 
 166   0.0000       0.644005        17.5243 
 167   0.0000       0.648510        17.6468 
 168   0.0000       0.651927        17.7398 
 169   0.0000       0.658492        17.9185 
 170   0.0000       0.671120        18.2621 
 171   0.0000       0.683041        18.5865 
 172   0.0000       0.686278        18.6746 
 173   0.0000       0.699839        19.0436 
 174   0.0000       0.708419        19.2771 
 175   0.0000       0.720626        19.6092 
 176   0.0000       0.729856        19.8604 
 177   0.0000       0.737898        20.0792 
 178   0.0000       0.741682        20.1822 
 179   0.0000       0.750689        20.4273 
 180   0.0000       0.763433        20.7741 
 181   0.0000       0.775883        21.1128 
 182   0.0000       0.786780        21.4094 
 183   0.0000       0.791656        21.5421 
 184   0.0000       0.808796        22.0085 
 185   0.0000       0.814704        22.1692 
 186   0.0000       0.828623        22.5480 
 187   0.0000       0.835672        22.7398 
 188   0.0000       0.850145        23.1336 
 189   0.0000       0.855334        23.2748 
 190   0.0000       0.872002        23.7284 
 191   0.0000       0.891723        24.2650 
 192   0.0000       0.898639        24.4532 
 193   0.0000       0.901770        24.5384 
 194   0.0000       0.919176        25.0121 
 195   0.0000       0.925860        25.1939 
 196   0.0000       0.957383        26.0517 
 197   0.0000       0.963686        26.2232 
 198   0.0000       0.969121        26.3711 
 199   0.0000       0.986482        26.8435 
 200   0.0000       1.006140        27.3785 
 201   0.0000       1.013422        27.5766 
 202   0.0000       1.019275        27.7359 
 203   0.0000       1.022882        27.8340 
 204   0.0000       1.032698        28.1012 
 205   0.0000       1.050786        28.5933 
 206   0.0000       1.067402        29.0455 
 207   0.0000       1.070879        29.1401 
 208   0.0000       1.083530        29.4844 
 209   0.0000       1.085834        29.5470 
 210   0.0000       1.091184        29.6926 
 211   0.0000       1.118076        30.4244 
 212   0.0000       1.129142        30.7255 
 213   0.0000       1.138181        30.9715 
 214   0.0000       1.150550        31.3080 
 215   0.0000       1.159570        31.5535 
 216   0.0000       1.168624        31.7999 
 217   0.0000       1.196919        32.5698 
 218   0.0000       1.218610        33.1601 
 219   0.0000       1.225697        33.3529 
 220   0.0000       1.236425        33.6448 
 221   0.0000       1.255062        34.1520 
 222   0.0000       1.258467        34.2446 
 223   0.0000       1.269947        34.5570 
 224   0.0000       1.278913        34.8010 
 225   0.0000       1.289131        35.0790 
 226   0.0000       1.298516        35.3344 
 227   0.0000       1.306668        35.5562 
 228   0.0000       1.318849        35.8877 
 229   0.0000       1.322246        35.9801 
 230   0.0000       1.329448        36.1761 
 231   0.0000       1.346701        36.6456 
 232   0.0000       1.355120        36.8747 
 233   0.0000       1.360811        37.0296 
 234   0.0000       1.377678        37.4885 
 235   0.0000       1.381940        37.6045 
 236   0.0000       1.390863        37.8473 
 237   0.0000       1.402169        38.1550 
 238   0.0000       1.415185        38.5091 
 239   0.0000       1.421104        38.6702 
 240   0.0000       1.436481        39.0886 
 241   0.0000       1.444605        39.3097 
 242   0.0000       1.450127        39.4600 
 243   0.0000       1.465656        39.8825 
 244   0.0000       1.468730        39.9662 
 245   0.0000       1.494607        40.6703 
 246   0.0000       1.501469        40.8571 
 247   0.0000       1.506982        41.0071 
 248   0.0000       1.521159        41.3928 
 249   0.0000       1.552928        42.2573 
 250   0.0000       1.560571        42.4653 
 251   0.0000       1.565439        42.5978 
 252   0.0000       1.573482        42.8166 
 253   0.0000       1.583494        43.0891 
 254   0.0000       1.588906        43.2363 
 255   0.0000       1.604066        43.6489 
 256   0.0000       1.609042        43.7843 
 257   0.0000       1.614268        43.9265 
 258   0.0000       1.622419        44.1483 
 259   0.0000       1.630897        44.3790 
 260   0.0000       1.639123        44.6028 
 261   0.0000       1.645678        44.7812 
 262   0.0000       1.659353        45.1533 
 263   0.0000       1.664559        45.2950 
 264   0.0000       1.676257        45.6133 
 265   0.0000       1.687359        45.9154 
 266   0.0000       1.693692        46.0877 
 267   0.0000       1.700997        46.2865 
 268   0.0000       1.704833        46.3909 
 269   0.0000       1.713731        46.6330 
 270   0.0000       1.727295        47.0021 
 271   0.0000       1.739073        47.3226 
 272   0.0000       1.748935        47.5909 
 273   0.0000       1.753765        47.7224 
 274   0.0000       1.763465        47.9863 
 275   0.0000       1.764867        48.0245 
 276   0.0000       1.774456        48.2854 
 277   0.0000       1.785213        48.5781 
 278   0.0000       1.820291        49.5326 
 279   0.0000       1.828406        49.7535 
 280   0.0000       1.843513        50.1646 
 281   0.0000       1.858162        50.5631 
 282   0.0000       1.863215        50.7007 
 283   0.0000       1.872912        50.9645 
 284   0.0000       1.896120        51.5960 
 285   0.0000       1.905501        51.8513 
 286   0.0000       1.919387        52.2292 
 287   0.0000       1.929377        52.5010 
 288   0.0000       1.939281        52.7705 
 289   0.0000       1.948732        53.0277 
 290   0.0000       1.952580        53.1324 
 291   0.0000       1.968669        53.5702 
 292   0.0000       1.976321        53.7784 
 293   0.0000       1.981913        53.9306 
 294   0.0000       1.996832        54.3366 
 295   0.0000       2.000088        54.4252 
 296   0.0000       2.014975        54.8302 
 297   0.0000       2.035647        55.3928 
 298   0.0000       2.037842        55.4525 
 299   0.0000       2.049744        55.7764 
 300   0.0000       2.053535        55.8795 
 301   0.0000       2.067917        56.2709 
 302   0.0000       2.078258        56.5523 
 303   0.0000       2.087889        56.8144 
 304   0.0000       2.102813        57.2205 
 305   0.0000       2.108704        57.3807 
 306   0.0000       2.113584        57.5135 
 307   0.0000       2.114443        57.5369 
 308   0.0000       2.121003        57.7154 
 309   0.0000       2.127267        57.8859 
 310   0.0000       2.140863        58.2559 
 311   0.0000       2.152791        58.5804 
 312   0.0000       2.160901        58.8011 
 313   0.0000       2.173778        59.1515 
 314   0.0000       2.183278        59.4100 
 315   0.0000       2.191799        59.6419 
 316   0.0000       2.202397        59.9303 
 317   0.0000       2.220989        60.4362 
 318   0.0000       2.244182        61.0673 
 319   0.0000       2.247668        61.1622 
 320   0.0000       2.256231        61.3952 
 321   0.0000       2.262341        61.5614 
 322   0.0000       2.275223        61.9120 
 323   0.0000       2.283656        62.1414 
 324   0.0000       2.288777        62.2808 
 325   0.0000       2.299470        62.5718 
 326   0.0000       2.342360        63.7389 
 327   0.0000       2.352713        64.0206 
 328   0.0000       2.358709        64.1837 
 329   0.0000       2.364308        64.3361 
 330   0.0000       2.379522        64.7501 
 331   0.0000       2.409996        65.5793 
 332   0.0000       2.420602        65.8679 
 333   0.0000       2.430217        66.1296 
 334   0.0000       2.446321        66.5678 
 335   0.0000       2.455533        66.8184 
 336   0.0000       2.464334        67.0579 
 337   0.0000       2.466897        67.1277 
 338   0.0000       2.488512        67.7159 
 339   0.0000       2.498587        67.9900 
 340   0.0000       2.503773        68.1311 
 341   0.0000       2.510228        68.3068 
 342   0.0000       2.540756        69.1375 
 343   0.0000       2.558046        69.6080 
 344   0.0000       2.567785        69.8730 
 345   0.0000       2.586209        70.3743 
 346   0.0000       2.590309        70.4859 
 347   0.0000       2.594190        70.5915 
 348   0.0000       2.605690        70.9044 
 349   0.0000       2.613441        71.1154 
 350   0.0000       2.617614        71.2289 
 351   0.0000       2.627496        71.4978 
 352   0.0000       2.633646        71.6652 
 353   0.0000       2.639154        71.8150 
 354   0.0000       2.658187        72.3330 
 355   0.0000       2.666520        72.5597 
 356   0.0000       2.669236        72.6336 
 357   0.0000       2.678410        72.8832 
 358   0.0000       2.692331        73.2621 
 359   0.0000       2.694737        73.3275 
 360   0.0000       2.709137        73.7194 
 361   0.0000       2.715161        73.8833 
 362   0.0000       2.717271        73.9407 
 363   0.0000       2.719368        73.9978 
 364   0.0000       2.731367        74.3243 
 365   0.0000       2.748507        74.7907 
 366   0.0000       2.757642        75.0392 
 367   0.0000       2.771888        75.4269 
 368   0.0000       2.774111        75.4874 
 369   0.0000       2.788912        75.8901 
 370   0.0000       2.807218        76.3883 
 371   0.0000       2.811671        76.5094 
 372   0.0000       2.823836        76.8405 
 373   0.0000       2.834980        77.1437 
 374   0.0000       2.842147        77.3387 
 375   0.0000       2.855173        77.6932 
 376   0.0000       2.858603        77.7865 
 377   0.0000       2.867300        78.0232 
 378   0.0000       2.879485        78.3548 
 379   0.0000       2.894776        78.7709 
 380   0.0000       2.899341        78.8951 
 381   0.0000       2.918047        79.4041 
 382   0.0000       2.933988        79.8379 
 383   0.0000       2.942341        80.0652 
 384   0.0000       2.946349        80.1742 
 385   0.0000       2.953268        80.3625 
 386   0.0000       2.978593        81.0516 
 387   0.0000       2.985089        81.2284 
 388   0.0000       2.996556        81.5404 
 389   0.0000       3.004491        81.7564 
 390   0.0000       3.016071        82.0715 
 391   0.0000       3.043919        82.8293 
 392   0.0000       3.046491        82.8992 
 393   0.0000       3.058443        83.2245 
 394   0.0000       3.069534        83.5263 
 395   0.0000       3.077229        83.7357 
 396   0.0000       3.093021        84.1654 
 397   0.0000       3.102494        84.4231 
 398   0.0000       3.115958        84.7895 
 399   0.0000       3.123632        84.9983 
 400   0.0000       3.134571        85.2960 
 401   0.0000       3.148361        85.6713 
 402   0.0000       3.164603        86.1132 
 403   0.0000       3.170010        86.2604 
 404   0.0000       3.192455        86.8711 
 405   0.0000       3.193661        86.9039 
 406   0.0000       3.206841        87.2626 
 407   0.0000       3.210985        87.3753 
 408   0.0000       3.220475        87.6336 
 409   0.0000       3.226531        87.7984 
 410   0.0000       3.242240        88.2258 
 411   0.0000       3.248036        88.3836 
 412   0.0000       3.256991        88.6272 
 413   0.0000       3.270903        89.0058 
 414   0.0000       3.275203        89.1228 
 415   0.0000       3.286417        89.4280 
 416   0.0000       3.292593        89.5960 
 417   0.0000       3.307487        90.0013 
 418   0.0000       3.323216        90.4293 
 419   0.0000       3.331892        90.6654 
 420   0.0000       3.345925        91.0473 
 421   0.0000       3.362948        91.5105 
 422   0.0000       3.375613        91.8551 
 423   0.0000       3.381592        92.0178 
 424   0.0000       3.388288        92.2000 
 425   0.0000       3.403089        92.6028 
 426   0.0000       3.415671        92.9451 
 427   0.0000       3.425381        93.2094 
 428   0.0000       3.446932        93.7958 
 429   0.0000       3.467081        94.3441 
 430   0.0000       3.485116        94.8348 
 431   0.0000       3.503567        95.3369 
 432   0.0000       3.510311        95.5204 
 433   0.0000       3.522063        95.8402 
 434   0.0000       3.524409        95.9040 
 435   0.0000       3.539802        96.3229 
 436   0.0000       3.565792        97.0301 
 437   0.0000       3.600437        97.9729 
 438   0.0000       3.653801        99.4250 
 439   0.0000       3.661920        99.6459 
 440   0.0000       3.675565       100.0172 
 441   0.0000       3.689760       100.4035 
 442   0.0000       3.705372       100.8283 
 443   0.0000       3.711040       100.9825 
 444   0.0000       3.729096       101.4739 
 445   0.0000       3.731148       101.5297 
 446   0.0000       3.747852       101.9842 
 447   0.0000       3.759149       102.2917 
 448   0.0000       3.770366       102.5969 
 449   0.0000       3.792762       103.2063 
 450   0.0000       3.800499       103.4168 
 451   0.0000       3.834643       104.3459 
 452   0.0000       3.846685       104.6736 
 453   0.0000       3.856654       104.9449 
 454   0.0000       3.885730       105.7361 
 455   0.0000       3.895733       106.0083 
 456   0.0000       3.924349       106.7870 
 457   0.0000       3.960085       107.7594 
 458   0.0000       3.972062       108.0853 
 459   0.0000       3.972711       108.1030 
 460   0.0000       4.000278       108.8531 
 461   0.0000       4.013189       109.2044 
 462   0.0000       4.025662       109.5438 
 463   0.0000       4.031805       109.7110 
 464   0.0000       4.046712       110.1166 
 465   0.0000       4.054384       110.3254 
 466   0.0000       4.056613       110.3860 
 467   0.0000       4.077399       110.9517 
 468   0.0000       4.088236       111.2466 
 469   0.0000       4.111606       111.8825 
 470   0.0000       4.126903       112.2987 
 471   0.0000       4.143739       112.7569 
 472   0.0000       4.156364       113.1004 
 473   0.0000       4.159510       113.1860 
 474   0.0000       4.173167       113.5577 
 475   0.0000       4.192971       114.0965 
 476   0.0000       4.221284       114.8670 
 477   0.0000       4.243628       115.4750 
 478   0.0000       4.248860       115.6174 
 479   0.0000       4.271174       116.2245 
 480   0.0000       4.292445       116.8034 
 481   0.0000       4.315408       117.4282 
 482   0.0000       4.338077       118.0451 
 483   0.0000       4.379740       119.1788 
 484   0.0000       4.382766       119.2611 
 485   0.0000       4.460210       121.3685 
 486   0.0000       4.475496       121.7844 
 487   0.0000       4.492746       122.2538 
 488   0.0000       4.511916       122.7755 
 489   0.0000       4.519398       122.9791 
 490   0.0000       4.529295       123.2484 
 491   0.0000       4.575443       124.5041 
 492   0.0000       4.586081       124.7936 
 493   0.0000       4.601804       125.2215 
 494   0.0000       4.641937       126.3135 
 495   0.0000       4.651740       126.5803 
 496   0.0000       4.652660       126.6053 
 497   0.0000       4.673733       127.1787 
 498   0.0000       4.674721       127.2056 
 499   0.0000       4.688798       127.5887 
 500   0.0000       4.713999       128.2744 
 501   0.0000       4.725548       128.5887 
 502   0.0000       4.740994       129.0090 
 503   0.0000       4.749136       129.2306 
 504   0.0000       4.776568       129.9770 
 505   0.0000       4.780708       130.0897 
 506   0.0000       4.792072       130.3989 
 507   0.0000       4.814283       131.0033 
 508   0.0000       4.837565       131.6368 
 509   0.0000       4.866730       132.4305 
 510   0.0000       4.887584       132.9979 
 511   0.0000       4.908904       133.5781 
 512   0.0000       4.928374       134.1079 
 513   0.0000       4.969064       135.2151 
 514   0.0000       4.980377       135.5229 
 515   0.0000       5.015547       136.4800 
 516   0.0000       5.036891       137.0608 
 517   0.0000       5.058532       137.6497 
 518   0.0000       5.066395       137.8636 
 519   0.0000       5.093827       138.6101 
 520   0.0000       5.105295       138.9221 
 521   0.0000       5.108015       138.9961 
 522   0.0000       5.111896       139.1017 
 523   0.0000       5.118494       139.2813 
 524   0.0000       5.125526       139.4726 
 525   0.0000       5.128036       139.5409 
 526   0.0000       5.129801       139.5890 
 527   0.0000       5.133342       139.6853 
 528   0.0000       5.136005       139.7578 
 529   0.0000       5.143165       139.9526 
 530   0.0000       5.150566       140.1540 
 531   0.0000       5.163156       140.4966 
 532   0.0000       5.180166       140.9595 
 533   0.0000       5.217384       141.9722 
 534   0.0000       5.220460       142.0559 
 535   0.0000       5.236958       142.5049 
 536   0.0000       5.252131       142.9178 
 537   0.0000       5.264408       143.2518 
 538   0.0000       5.281355       143.7130 
 539   0.0000       5.285282       143.8198 
 540   0.0000       5.287812       143.8887 
 541   0.0000       5.295234       144.0906 
 542   0.0000       5.301038       144.2486 
 543   0.0000       5.312302       144.5551 
 544   0.0000       5.358716       145.8181 
 545   0.0000       5.376975       146.3149 
 546   0.0000       5.383686       146.4975 
 547   0.0000       5.394483       146.7914 
 548   0.0000       5.421985       147.5397 
 549   0.0000       5.426102       147.6517 
 550   0.0000       5.440391       148.0406 
 551   0.0000       5.448174       148.2523 
 552   0.0000       5.463218       148.6617 
 553   0.0000       5.482588       149.1888 
 554   0.0000       5.489693       149.3821 
 555   0.0000       5.496788       149.5752 
 556   0.0000       5.502515       149.7311 
 557   0.0000       5.532411       150.5446 
 558   0.0000       5.590815       152.1338 
 559   0.0000       5.596808       152.2969 
 560   0.0000       5.603818       152.4876 
 561   0.0000       5.631566       153.2427 
 562   0.0000       5.643798       153.5756 
 563   0.0000       5.708171       155.3272 
 564   0.0000       5.725356       155.7948 
 565   0.0000       5.770317       157.0183 
 566   0.0000       5.785537       157.4325 
 567   0.0000       5.800435       157.8379 
 568   0.0000       5.843677       159.0145 
 569   0.0000       5.954400       162.0275 
 570   0.0000       5.958169       162.1300 
 571   0.0000       5.962527       162.2486 
 572   0.0000       6.037292       164.2831 
 573   0.0000       6.207576       168.9167 
 574   0.0000       6.215537       169.1334 
 575   0.0000       6.217108       169.1761 
 576   0.0000       6.257019       170.2622 
 577   0.0000       6.260923       170.3684 
 578   0.0000       6.263328       170.4338 
 579   0.0000       6.294292       171.2764 
 580   0.0000       6.310308       171.7122 
 581   0.0000       6.313162       171.7899 
 582   0.0000       6.318165       171.9260 
 583   0.0000       6.328059       172.1952 
 584   0.0000       6.357605       172.9992 
 585   0.0000       6.374871       173.4691 
 586   0.0000       6.392303       173.9434 
 587   0.0000       6.396227       174.0502 
 588   0.0000       6.401250       174.1869 
 589   0.0000       6.405622       174.3058 
 590   0.0000       6.417448       174.6276 
 591   0.0000       6.425201       174.8386 
 592   0.0000       6.429308       174.9504 
 593   0.0000       6.435717       175.1248 
 594   0.0000       6.438748       175.2072 
 595   0.0000       6.451077       175.5427 
 596   0.0000       6.491860       176.6525 
 597   0.0000       6.520473       177.4311 
 598   0.0000       6.613372       179.9590 
 599   0.0000       6.694605       182.1695 
 600   0.0000       6.726400       183.0347 
 601   0.0000       6.753661       183.7765 
 602   0.0000       6.832412       185.9194 
 603   0.0000       6.833498       185.9489 
 604   0.0000       6.856673       186.5796 
 605   0.0000       6.857707       186.6077 
 606   0.0000       6.860715       186.6895 
 607   0.0000       6.868207       186.8934 
 608   0.0000       6.879482       187.2002 
 609   0.0000       6.916861       188.2174 
 610   0.0000       6.919951       188.3014 
 611   0.0000       6.922469       188.3700 
 612   0.0000       7.011430       190.7907 
 613   0.0000       7.078439       192.6141 
 614   0.0000       7.107035       193.3922 
 615   0.0000       7.110422       193.4844 
 616   0.0000       7.119599       193.7341 
 617   0.0000       7.123589       193.8427 
 618   0.0000       7.251590       197.3258 
 619   0.0000       7.254856       197.4147 
 620   0.0000       7.259924       197.5526 
 621   0.0000       7.301298       198.6784 
 622   0.0000       7.396671       201.2736 
 623   0.0000       7.404113       201.4762 
 624   0.0000       7.443379       202.5446 
 625   0.0000       7.444945       202.5872 
 626   0.0000       7.501791       204.1341 
 627   0.0000       7.507931       204.3012 
 628   0.0000       7.524654       204.7563 
 629   0.0000       7.553753       205.5481 
 630   0.0000      22.396962       609.4523 
 631   0.0000      22.422841       610.1565 
 632   0.0000      22.740248       618.7936 
 633   0.0000      22.812676       620.7645 
 634   0.0000      22.915560       623.5641 
 635   0.0000      22.991336       625.6260 
 636   0.0000      22.996287       625.7608 
 637   0.0000      23.308424       634.2545 
 638   0.0000      32.478480       883.7844 
 639   0.0000      32.505889       884.5302 
 640   0.0000      32.532815       885.2629 
 641   0.0000      43.408891      1181.2160 
 642   0.0000      43.707891      1189.3522 
 643   0.0000      44.023735      1197.9467 
 644   0.0000      44.026933      1198.0338 
 645   0.0000      44.074822      1199.3369 
 646   0.0000      44.080346      1199.4872 
 647   0.0000      44.100998      1200.0492 
 648   0.0000      44.179937      1202.1972 

                    ********************************
                    * MULLIKEN POPULATION ANALYSIS *
                    ********************************

-----------------------
MULLIKEN ATOMIC CHARGES
-----------------------
   0 C :    0.134210
   1 C :   -0.214846
   2 C :    0.140187
   3 C :   -0.207348
   4 C :    0.124862
   5 C :   -0.189875
   6 H :    0.163166
   7 H :    0.184370
   8 H :    0.186246
   9 N :    0.464496
  10 O :   -0.345598
  11 O :   -0.344871
  12 C :   -0.029607
  13 H :    0.232229
  14 C :   -0.398465
  15 H :    0.129984
  16 H :    0.128730
  17 H :    0.140370
  18 N :    0.430795
  19 O :   -0.393052
  20 O :   -0.402901
  21 O :   -0.784201
  22 H :    0.331457
  23 N :    0.463312
  24 O :   -0.346158
  25 O :   -0.342026
  26 H :    0.301794
  27 H :    0.350782
  28 O :   -0.908040
Sum of atomic charges:   -1.0000000

--------------------------------
MULLIKEN REDUCED ORBITAL CHARGES
--------------------------------
  0 C s       :     3.065797  s :     3.065797
      pz      :     0.981783  p :     2.669787
      px      :     0.840008
      py      :     0.847996
      dz2     :     0.020186  d :     0.118188
      dxz     :     0.022999
      dyz     :     0.012803
      dx2y2   :     0.020129
      dxy     :     0.042071
      f0      :     0.000862  f :     0.012018
      f+1     :     0.001434
      f-1     :     0.001788
      f+2     :     0.001248
      f-2     :     0.001962
      f+3     :     0.002085
      f-3     :     0.002639
  1 C s       :     3.313347  s :     3.313347
      pz      :     0.926726  p :     2.805837
      px      :     0.921033
      py      :     0.958079
      dz2     :     0.008282  d :     0.088008
      dxz     :     0.019539
      dyz     :     0.013156
      dx2y2   :     0.024844
      dxy     :     0.022187
      f0      :     0.000708  f :     0.007653
      f+1     :     0.001215
      f-1     :     0.000605
      f+2     :     0.001027
      f-2     :     0.001214
      f+3     :     0.001315
      f-3     :     0.001568
  2 C s       :     3.215510  s :     3.215510
      pz      :     0.842283  p :     2.508276
      px      :     0.812066
      py      :     0.853927
      dz2     :     0.020851  d :     0.125902
      dxz     :     0.027387
      dyz     :     0.015951
      dx2y2   :     0.030946
      dxy     :     0.030767
      f0      :     0.000747  f :     0.010125
      f+1     :     0.001206
      f-1     :     0.001467
      f+2     :     0.001115
      f-2     :     0.001783
      f+3     :     0.001772
      f-3     :     0.002035
  3 C s       :     3.301462  s :     3.301462
      pz      :     0.874469  p :     2.813314
      px      :     0.978941
      py      :     0.959905
      dz2     :     0.016587  d :     0.084979
      dxz     :     0.015187
      dyz     :     0.011001
      dx2y2   :     0.016028
      dxy     :     0.026176
      f0      :     0.000499  f :     0.007593
      f+1     :     0.001030
      f-1     :     0.001359
      f+2     :     0.001085
      f-2     :     0.001078
      f+3     :     0.001104
      f-3     :     0.001437
  4 C s       :     3.067519  s :     3.067519
      pz      :     0.938322  p :     2.675998
      px      :     0.914748
      py      :     0.822929
      dz2     :     0.013595  d :     0.119544
      dxz     :     0.023173
      dyz     :     0.020983
      dx2y2   :     0.032229
      dxy     :     0.029564
      f0      :     0.001107  f :     0.012077
      f+1     :     0.001290
      f-1     :     0.001544
      f+2     :     0.001724
      f-2     :     0.002072
      f+3     :     0.001984
      f-3     :     0.002355
  5 C s       :     3.297352  s :     3.297352
      pz      :     0.907878  p :     2.792851
      px      :     0.985791
      py      :     0.899182
      dz2     :     0.015058  d :     0.091872
      dxz     :     0.013880
      dyz     :     0.017284
      dx2y2   :     0.025646
      dxy     :     0.020004
      f0      :     0.000860  f :     0.007801
      f+1     :     0.000491
      f-1     :     0.001518
      f+2     :     0.000907
      f-2     :     0.001379
      f+3     :     0.001530
      f-3     :     0.001117
  6 H s       :     0.813650  s :     0.813650
      pz      :     0.007345  p :     0.023184
      px      :     0.004143
      py      :     0.011697
  7 H s       :     0.792314  s :     0.792314
      pz      :     0.004564  p :     0.023316
      px      :     0.008821
      py      :     0.009930
  8 H s       :     0.790482  s :     0.790482
      pz      :     0.005371  p :     0.023272
      px      :     0.014026
      py      :     0.003875
  9 N s       :     3.260901  s :     3.260901
      pz      :     1.092717  p :     3.014000
      px      :     0.874108
      py      :     1.047174
      dz2     :     0.023249  d :     0.246335
      dxz     :     0.054594
      dyz     :     0.030317
      dx2y2   :     0.073004
      dxy     :     0.065171
      f0      :     0.001164  f :     0.014268
      f+1     :     0.002131
      f-1     :     0.000798
      f+2     :     0.001413
      f-2     :     0.002473
      f+3     :     0.002763
      f-3     :     0.003525
 10 O s       :     3.885459  s :     3.885459
      pz      :     1.466260  p :     4.415437
      px      :     1.192948
      py      :     1.756228
      dz2     :     0.005970  d :     0.041448
      dxz     :     0.012941
      dyz     :     0.001337
      dx2y2   :     0.012401
      dxy     :     0.008799
      f0      :     0.000273  f :     0.003255
      f+1     :     0.000642
      f-1     :     0.000013
      f+2     :     0.000738
      f-2     :     0.000202
      f+3     :     0.000747
      f-3     :     0.000640
 11 O s       :     3.886120  s :     3.886120
      pz      :     1.540192  p :     4.414043
      px      :     1.442805
      py      :     1.431046
      dz2     :     0.005157  d :     0.041454
      dxz     :     0.006649
      dyz     :     0.005459
      dx2y2   :     0.009540
      dxy     :     0.014649
      f0      :     0.000312  f :     0.003254
      f+1     :     0.000311
      f-1     :     0.000279
      f+2     :     0.000054
      f-2     :     0.000596
      f+3     :     0.000855
      f-3     :     0.000847
 12 C s       :     3.136908  s :     3.136908
      pz      :     1.041466  p :     2.735638
      px      :     0.827680
      py      :     0.866492
      dz2     :     0.022676  d :     0.146660
      dxz     :     0.023674
      dyz     :     0.030614
      dx2y2   :     0.037962
      dxy     :     0.031735
      f0      :     0.001104  f :     0.010401
      f+1     :     0.000959
      f-1     :     0.001303
      f+2     :     0.001076
      f-2     :     0.001937
      f+3     :     0.001827
      f-3     :     0.002196
 13 H s       :     0.713607  s :     0.713607
      pz      :     0.041369  p :     0.054164
      px      :     0.004555
      py      :     0.008240
 14 C s       :     3.324998  s :     3.324998
      pz      :     1.065424  p :     3.019108
[...]
     83      -0.208901   0.000099  -0.000017   0.000291   0.000020  -0.000261
     84      -0.004593   0.000012   0.000017  -0.000016   0.000003   0.000151
     85      -0.002352   0.000028  -0.000008   0.000013  -0.000005  -0.000079
     86      -0.002113   0.000262  -0.000002   0.000064  -0.000010   0.000085
                 84         85         86    
      0       0.001038   0.000020  -0.000003
      1       0.002468   0.000006  -0.000000
      2       0.001702   0.000003  -0.000003
      3       0.000481  -0.000034  -0.000003
      4       0.000005   0.000090   0.000012
      5       0.000167   0.000010   0.000005
      6      -0.000053   0.000030   0.000012
      7      -0.000045   0.000025   0.000002
      8      -0.000011   0.000053   0.000009
      9       0.000602   0.000012  -0.000002
     10       0.000025  -0.000001  -0.000001
     11       0.000164   0.000011   0.000002
     12       0.002450  -0.000010  -0.000001
     13      -0.002094  -0.000009  -0.000004
     14      -0.000446  -0.000009  -0.000003
     15      -0.081216  -0.000018  -0.000006
     16      -0.010514  -0.000008  -0.000001
     17      -0.030479  -0.000007  -0.000002
     18       0.000878  -0.000103  -0.000031
     19       0.001922  -0.001076  -0.000105
     20       0.001490  -0.000759  -0.000049
     21       0.000587   0.000034   0.000002
     22      -0.000211  -0.000034   0.000002
     23      -0.000036  -0.000023   0.000005
     24       0.925786  -0.000014   0.000007
     25       0.120684  -0.000031   0.000000
     26       0.347399  -0.000009   0.000003
     27      -0.001135   0.000010   0.000004
     28       0.000115   0.000015   0.000002
     29      -0.000280   0.000008   0.000002
     30       0.000488  -0.000003  -0.000002
     31      -0.000474  -0.000003  -0.000003
     32      -0.000119  -0.000006  -0.000003
     33       0.000125   0.000003   0.000000
     34       0.000072  -0.000004  -0.000002
     35       0.000082  -0.000005  -0.000000
     36       0.000014   0.000138   0.000027
     37       0.000072  -0.000022  -0.000001
     38       0.000056  -0.000286  -0.000089
     39       0.000405  -0.003218  -0.000514
     40      -0.000323   0.004279   0.000537
     41      -0.001100   0.002540   0.001757
     42      -0.000026   0.000028  -0.000013
     43       0.000018  -0.000043   0.000000
     44       0.000071  -0.000019  -0.000013
     45       0.000200  -0.000211   0.000109
     46      -0.000048  -0.000044   0.000190
     47       0.000052  -0.000131   0.000237
     48       0.000207  -0.000049   0.000004
     49      -0.000277  -0.000240  -0.000005
     50      -0.000624  -0.000109  -0.000011
     51       0.000161  -0.000023  -0.000021
     52       0.000169   0.000040  -0.000037
     53      -0.000173  -0.000076   0.000021
     54      -0.000046  -0.000167  -0.000039
     55      -0.000088  -0.000201  -0.000042
     56       0.000005   0.000100   0.000021
     57       0.000059   0.000133   0.000020
     58       0.000023   0.000011   0.000005
     59       0.000004  -0.000001  -0.000005
     60       0.000005  -0.000040  -0.000010
     61       0.000032   0.000093   0.000018
     62      -0.000004  -0.000060  -0.000009
     63       0.000030  -0.000065   0.019788
     64       0.000013   0.000494  -0.023654
     65       0.000007  -0.000896   0.053659
     66       0.000017   0.005578  -0.285539
     67       0.000001  -0.007214   0.399248
     68       0.000035   0.015902  -0.868049
     69      -0.001006   0.000017   0.000001
     70      -0.000403  -0.000012  -0.000002
     71      -0.000486   0.000002  -0.000003
     72       0.000188  -0.000008  -0.000006
     73       0.000560   0.000000  -0.000001
     74       0.000368   0.000001  -0.000005
     75       0.000166  -0.000007  -0.000006
     76      -0.000025   0.000001   0.000000
     77       0.000034   0.000004  -0.000004
     78      -0.000011   0.664800   0.011663
     79       0.000004  -0.743801  -0.013677
     80       0.000060  -0.022103  -0.000923
     81      -0.000486  -0.004334  -0.022817
     82      -0.000166   0.002058  -0.022919
     83      -0.000111  -0.001358   0.018827
     84      -0.000009  -0.041753  -0.001042
     85       0.000014   0.046556   0.000781
     86       0.000034   0.001436  -0.000139


-----------
IR SPECTRUM
-----------

 Mode   freq       eps      Int      T**2         TX        TY        TZ
       cm**-1   L/(mol*cm) km/mol    a.u.
----------------------------------------------------------------------------
  9:     25.62   0.001269    6.41  0.015459  (-0.051142 -0.021495  0.111271)
 10:     32.62   0.000093    0.47  0.000894  (-0.001750 -0.025406  0.015654)
 11:     34.19   0.000069    0.35  0.000628  ( 0.009026 -0.006227 -0.022527)
 12:     42.52   0.000740    3.74  0.005431  ( 0.019088 -0.053222 -0.047260)
 13:     53.80   0.001724    8.71  0.010000  (-0.079513 -0.055841 -0.023664)
 14:     69.43   0.001173    5.93  0.005274  ( 0.025759  0.060312  0.031189)
 15:     85.42   0.004537   22.93  0.016575  ( 0.012885  0.044730  0.120036)
 16:     89.49   0.002659   13.44  0.009273  (-0.058438  0.073647  0.020837)
 17:    144.83   0.000605    3.06  0.001303  (-0.020287 -0.029856  0.000019)
 18:    152.54   0.001185    5.99  0.002424  (-0.028323  0.004363 -0.040035)
 19:    175.13   0.002330   11.78  0.004152  ( 0.056605  0.029091 -0.010100)
 20:    196.46   0.000576    2.91  0.000915  ( 0.009664  0.004349 -0.028332)
 21:    254.08   0.001206    6.09  0.001481  ( 0.027697  0.021128  0.016344)
 22:    267.11   0.024757  125.11  0.028923  (-0.158420 -0.060380 -0.013446)
 23:    268.28   0.003047   15.40  0.003545  (-0.047650 -0.027906 -0.022257)
 24:    297.51   0.016021   80.97  0.016805  ( 0.094689  0.038492 -0.079733)
 25:    306.09   0.005140   25.97  0.005240  (-0.056345 -0.033263  0.030962)
 26:    336.84   0.003959   20.01  0.003668  (-0.013074  0.019090  0.055971)
 27:    354.82   0.000997    5.04  0.000877  (-0.010951  0.021119  0.017639)
 28:    362.63   0.004282   21.64  0.003685  ( 0.002606  0.023132  0.056065)
 29:    401.37   0.021633  109.33  0.016820  ( 0.020371 -0.017972 -0.126814)
 30:    478.04   0.000130    0.66  0.000085  ( 0.006388 -0.001097  0.006551)
 31:    488.88   0.050185  253.62  0.032035  (-0.012433 -0.012031 -0.178144)
 32:    504.02   0.024473  123.68  0.015152  (-0.080198 -0.013721 -0.092371)
 33:    520.94   0.003149   15.91  0.001886  ( 0.034058 -0.018934 -0.019184)
 34:    532.34   0.002141   10.82  0.001255  (-0.033583 -0.011283  0.000190)
 35:    569.05   0.002952   14.92  0.001619  ( 0.015124  0.021830  0.030225)
 36:    599.51   0.036949  186.72  0.019233  ( 0.021469  0.011988  0.136486)
 37:    619.54   0.002556   12.92  0.001287  ( 0.028343 -0.015939  0.015166)
 38:    667.80   0.016905   85.43  0.007900  ( 0.015857  0.011838  0.086650)
 39:    681.10   0.005100   25.77  0.002337  ( 0.005616 -0.022737  0.042288)
 40:    749.50   0.012763   64.50  0.005314  (-0.021106  0.068322  0.014167)
 41:    755.67   0.024616  124.40  0.010165  ( 0.031793  0.033992 -0.089438)
 42:    776.71   0.203169  1026.73  0.081629  ( 0.061723  0.009308 -0.278805)
 43:    792.42   0.000564    2.85  0.000222  ( 0.009036  0.001472 -0.011765)
 44:    804.35   0.065865  332.85  0.025554  (-0.066093  0.003434  0.145511)
 45:    834.69   0.065955  333.31  0.024659  ( 0.002317 -0.003825 -0.156967)
 46:    900.39   0.038663  195.38  0.013400  ( 0.010826  0.020467  0.113419)
 47:    933.90   0.000589    2.98  0.000197  (-0.005472  0.007009  0.010853)
 48:    937.67   0.022679  114.61  0.007548  (-0.019234  0.062437  0.057265)
 49:    953.37   0.005280   26.68  0.001728  ( 0.020999  0.031237 -0.017647)
 50:    958.30   0.065218  329.58  0.021238  ( 0.016153  0.023931  0.142842)
 51:    968.19   0.005290   26.74  0.001705  ( 0.002382  0.003917 -0.041039)
 52:    972.37   0.035347  178.63  0.011344  (-0.020895  0.088683  0.055159)
 53:   1025.77   0.000477    2.41  0.000145  ( 0.010841  0.001809  0.004941)
 54:   1069.74   0.005511   27.85  0.001608  ( 0.023362  0.029379  0.014100)
 55:   1092.20   0.024702  124.83  0.007058  (-0.021105  0.081314  0.000610)
 56:   1127.80   0.011688   59.07  0.003234  (-0.029127  0.003994  0.048681)
 57:   1140.54   0.029694  150.06  0.008125  (-0.059876  0.000782  0.067370)
 58:   1157.05   0.027547  139.21  0.007430  (-0.044122 -0.004716 -0.073896)
 59:   1279.43   0.011414   57.68  0.002784  ( 0.004146  0.052098  0.007259)
 60:   1286.59   0.000699    3.53  0.000169  ( 0.006327  0.010769 -0.003673)
 61:   1358.00   0.188731  953.77  0.043370  ( 0.041412 -0.182581 -0.091209)
 62:   1361.93   0.005924   29.94  0.001357  ( 0.013872  0.029872  0.016509)
 63:   1374.44   0.075897  383.55  0.017232  ( 0.125236  0.009517  0.038180)
 64:   1391.54   0.028918  146.14  0.006485  ( 0.042624  0.052738  0.043439)
 65:   1422.74   0.001974    9.98  0.000433  (-0.008664 -0.017502 -0.007191)
 66:   1441.22   0.065732  332.18  0.014233  (-0.012656 -0.100730 -0.062659)
 67:   1450.66   0.004155   21.00  0.000894  (-0.016627 -0.017998 -0.017129)
 68:   1478.18   0.024402  123.32  0.005152  (-0.041455 -0.011991 -0.057353)
 69:   1483.61   0.090338  456.53  0.019002  (-0.120582  0.046469 -0.047983)
 70:   1489.06   0.059995  303.19  0.012573  (-0.096798 -0.016498 -0.054139)
 71:   1496.59   0.017732   89.61  0.003697  ( 0.057319 -0.017447 -0.010372)
 72:   1550.49   0.044117  222.95  0.008879  (-0.090454  0.018780 -0.018564)
 73:   1552.12   0.060537  305.93  0.012171  ( 0.004139  0.099566  0.047336)
 74:   1560.45   0.111966  565.83  0.022391  (-0.146275 -0.010578 -0.029718)
 75:   1624.04   0.006559   33.15  0.001260  (-0.009723  0.027911  0.019665)
 76:   1631.80   0.018925   95.64  0.003619  (-0.029057 -0.042126  0.031627)
 77:   1656.60   0.006967   35.21  0.001312  ( 0.021894  0.009602  0.027220)
 78:   2877.82   0.409419  2069.03  0.044396  (-0.190417 -0.055984 -0.070736)
 79:   3035.57   0.005177   26.16  0.000532  (-0.008525  0.020784  0.005253)
 80:   3101.43   0.004542   22.95  0.000457  (-0.008315 -0.003998  0.019285)
 81:   3130.79   0.003555   17.97  0.000354  (-0.016231 -0.004562 -0.008373)
 82:   3241.62   0.002206   11.15  0.000212  ( 0.007932 -0.011444 -0.004296)
 83:   3246.51   0.002435   12.31  0.000234  ( 0.001001 -0.013648 -0.006844)
 84:   3257.91   0.008971   45.34  0.000859  ( 0.027371  0.004069  0.009674)
 85:   3784.98   0.002122   10.72  0.000175  ( 0.006707 -0.007132 -0.008894)
 86:   3819.88   0.009620   48.62  0.000786  (-0.015214  0.005513 -0.022892)

* The epsilon (eps) is given for a Dirac delta lineshape.
** The dipole moment derivative (T) already includes vibrational overlap.

The first frequency considered to be a vibration is 9
The total number of vibrations considered is 78


--------------------------
THERMOCHEMISTRY AT 298.15K
--------------------------

Temperature         ... 298.15 K
Pressure            ... 1.00 atm
Total Mass          ... 276.18 AMU

Throughout the following assumptions are being made:
  (1) The electronic state is orbitally nondegenerate
  (2) There are no thermally accessible electronically excited states
  (3) Hindered rotations indicated by low frequency modes are not
      treated as such but are treated as vibrations and this may
      cause some error
  (4) All equations used are the standard statistical mechanics
      equations for an ideal gas
  (5) All vibrations are strictly harmonic

freq.      25.62  E(vib)   ...       0.56 
freq.      32.62  E(vib)   ...       0.55 
freq.      34.19  E(vib)   ...       0.54 
freq.      42.52  E(vib)   ...       0.53 
freq.      53.80  E(vib)   ...       0.52 
freq.      69.43  E(vib)   ...       0.50 
freq.      85.42  E(vib)   ...       0.48 
freq.      89.49  E(vib)   ...       0.47 
freq.     144.83  E(vib)   ...       0.41 
freq.     152.54  E(vib)   ...       0.40 
freq.     175.13  E(vib)   ...       0.38 
freq.     196.46  E(vib)   ...       0.36 
freq.     254.08  E(vib)   ...       0.30 
freq.     267.11  E(vib)   ...       0.29 
freq.     268.28  E(vib)   ...       0.29 
freq.     297.51  E(vib)   ...       0.27 
freq.     306.09  E(vib)   ...       0.26 
freq.     336.84  E(vib)   ...       0.24 
freq.     354.82  E(vib)   ...       0.22 
freq.     362.63  E(vib)   ...       0.22 
freq.     401.37  E(vib)   ...       0.19 
freq.     478.04  E(vib)   ...       0.15 
freq.     488.88  E(vib)   ...       0.15 
freq.     504.02  E(vib)   ...       0.14 
freq.     520.94  E(vib)   ...       0.13 
freq.     532.34  E(vib)   ...       0.13 
freq.     569.05  E(vib)   ...       0.11 
freq.     599.51  E(vib)   ...       0.10 
freq.     619.54  E(vib)   ...       0.09 
freq.     667.80  E(vib)   ...       0.08 
freq.     681.10  E(vib)   ...       0.08 
freq.     749.50  E(vib)   ...       0.06 
freq.     755.67  E(vib)   ...       0.06 
freq.     776.71  E(vib)   ...       0.05 
freq.     792.42  E(vib)   ...       0.05 
freq.     804.35  E(vib)   ...       0.05 
freq.     834.69  E(vib)   ...       0.04 
freq.     900.39  E(vib)   ...       0.03 
freq.     933.90  E(vib)   ...       0.03 
freq.     937.67  E(vib)   ...       0.03 
freq.     953.37  E(vib)   ...       0.03 
freq.     958.30  E(vib)   ...       0.03 
freq.     968.19  E(vib)   ...       0.03 
freq.     972.37  E(vib)   ...       0.03 
freq.    1025.77  E(vib)   ...       0.02 
freq.    1069.74  E(vib)   ...       0.02 
freq.    1092.20  E(vib)   ...       0.02 
freq.    1127.80  E(vib)   ...       0.01 
freq.    1140.54  E(vib)   ...       0.01 
freq.    1157.05  E(vib)   ...       0.01 
freq.    1279.43  E(vib)   ...       0.01 
freq.    1286.59  E(vib)   ...       0.01 
freq.    1358.00  E(vib)   ...       0.01 
freq.    1361.93  E(vib)   ...       0.01 
freq.    1374.44  E(vib)   ...       0.01 
freq.    1391.54  E(vib)   ...       0.00 
freq.    1422.74  E(vib)   ...       0.00 
freq.    1441.22  E(vib)   ...       0.00 
freq.    1450.66  E(vib)   ...       0.00 
freq.    1478.18  E(vib)   ...       0.00 
freq.    1483.61  E(vib)   ...       0.00 
freq.    1489.06  E(vib)   ...       0.00 
freq.    1496.59  E(vib)   ...       0.00 
freq.    1550.49  E(vib)   ...       0.00 
freq.    1552.12  E(vib)   ...       0.00 
freq.    1560.45  E(vib)   ...       0.00 
freq.    1624.04  E(vib)   ...       0.00 
freq.    1631.80  E(vib)   ...       0.00 
freq.    1656.60  E(vib)   ...       0.00 
freq.    2877.82  E(vib)   ...       0.00 
freq.    3035.57  E(vib)   ...       0.00 
freq.    3101.43  E(vib)   ...       0.00 
freq.    3130.79  E(vib)   ...       0.00 
freq.    3241.62  E(vib)   ...       0.00 
freq.    3246.51  E(vib)   ...       0.00 
freq.    3257.91  E(vib)   ...       0.00 
freq.    3784.98  E(vib)   ...       0.00 
freq.    3819.88  E(vib)   ...       0.00 

------------
INNER ENERGY
------------

The inner energy is: U= E(el) + E(ZPE) + E(vib) + E(rot) + E(trans)
    E(el)   - is the total energy from the electronic structure calculation
              = E(kin-el) + E(nuc-el) + E(el-el) + E(nuc-nuc)
    E(ZPE)  - the the zero temperature vibrational energy from the frequency calculation
    E(vib)  - the the finite temperature correction to E(ZPE) due to population
              of excited vibrational states
    E(rot)  - is the rotational thermal energy
    E(trans)- is the translational thermal energy

Summary of contributions to the inner energy U:
Electronic energy                ...  -1076.75238333 Eh
Zero point energy                ...      0.19352713 Eh     121.44 kcal/mol
Thermal vibrational correction   ...      0.01562901 Eh       9.81 kcal/mol
Thermal rotational correction    ...      0.00141627 Eh       0.89 kcal/mol
Thermal translational correction ...      0.00141627 Eh       0.89 kcal/mol
-----------------------------------------------------------------------
Total thermal energy                  -1076.54039465 Eh


Summary of corrections to the electronic energy:
(perhaps to be used in another calculation)
Total thermal correction                  0.01846155 Eh      11.58 kcal/mol
Non-thermal (ZPE) correction              0.19352713 Eh     121.44 kcal/mol
-----------------------------------------------------------------------
Total correction                          0.21198868 Eh     133.02 kcal/mol


--------
ENTHALPY
--------

The enthalpy is H = U + kB*T
                kB is Boltzmann's constant
Total free energy                 ...  -1076.54039465 Eh 
Thermal Enthalpy correction       ...      0.00094421 Eh       0.59 kcal/mol
-----------------------------------------------------------------------
Total Enthalpy                    ...  -1076.53945044 Eh


Note: Only C1 symmetry has been detected, increase convergence thresholds 
      if your molecule has a higher symmetry. Symmetry factor of 1.0 is   
      used for the rotational entropy correction. 
 

Note: Rotational entropy computed according to Herzberg 
Infrared and Raman Spectra, Chapter V,1, Van Nostrand Reinhold, 1945 
Point Group:  C1, Symmetry Number:   1  
Rotational constants in cm-1:     0.015107     0.007489     0.005683 

Vibrational entropy computed according to the QRRHO of S. Grimme
Chem.Eur.J. 2012 18 9955


-------
ENTROPY
-------

The entropy contributions are T*S = T*(S(el)+S(vib)+S(rot)+S(trans))
     S(el)   - electronic entropy
     S(vib)  - vibrational entropy
     S(rot)  - rotational entropy
     S(trans)- translational entropy
The entropies will be listed as multiplied by the temperature to get
units of energy

Electronic entropy                ...      0.00000000 Eh      0.00 kcal/mol
Vibrational entropy               ...      0.02828244 Eh     17.75 kcal/mol
Rotational entropy                ...      0.01624144 Eh     10.19 kcal/mol
Translational entropy             ...      0.02031001 Eh     12.74 kcal/mol
-----------------------------------------------------------------------
Final entropy term                ...      0.06483389 Eh     40.68 kcal/mol

In case the symmetry of your molecule has not been determined correctly
or in case you have a reason to use a different symmetry number we print 
out the resulting rotational entropy values for sn=1,12 :
 --------------------------------------------------------
|  sn= 1 | S(rot)=       0.01624144 Eh     10.19 kcal/mol|
|  sn= 2 | S(rot)=       0.01558698 Eh      9.78 kcal/mol|
|  sn= 3 | S(rot)=       0.01520415 Eh      9.54 kcal/mol|
|  sn= 4 | S(rot)=       0.01493253 Eh      9.37 kcal/mol|
|  sn= 5 | S(rot)=       0.01472184 Eh      9.24 kcal/mol|
|  sn= 6 | S(rot)=       0.01454969 Eh      9.13 kcal/mol|
|  sn= 7 | S(rot)=       0.01440415 Eh      9.04 kcal/mol|
|  sn= 8 | S(rot)=       0.01427807 Eh      8.96 kcal/mol|
|  sn= 9 | S(rot)=       0.01416686 Eh      8.89 kcal/mol|
|  sn=10 | S(rot)=       0.01406738 Eh      8.83 kcal/mol|
|  sn=11 | S(rot)=       0.01397739 Eh      8.77 kcal/mol|
|  sn=12 | S(rot)=       0.01389524 Eh      8.72 kcal/mol|
 --------------------------------------------------------


-------------------
GIBBS FREE ENERGY
-------------------

The Gibbs free energy is G = H - T*S

Total enthalpy                    ...  -1076.53945044 Eh 
Total entropy correction          ...     -0.06483389 Eh    -40.68 kcal/mol
-----------------------------------------------------------------------
Final Gibbs free energy         ...  -1076.60428433 Eh

For completeness - the Gibbs free energy minus the electronic energy
G-E(el)                           ...      0.14809900 Eh     92.93 kcal/mol



Timings for individual modules:

Sum of individual times         ...     2648.574 sec (=  44.143 min)
GTO integral calculation        ...       10.278 sec (=   0.171 min)   0.4 %
SCF iterations                  ...      156.512 sec (=   2.609 min)   5.9 %
SCF Gradient evaluation         ...       28.834 sec (=   0.481 min)   1.1 %
Numerical frequency calculation ...     2452.949 sec (=  40.882 min)  92.6 %
                             ****ORCA TERMINATED NORMALLY****
TOTAL RUN TIME: 0 days 0 hours 42 minutes 34 seconds 812 msec
