 *******************************************************************************
 **                                                                           **
 **                              MOPAC v22.0.6                                **
 **                                                                           **
 *******************************************************************************
 **          Digital Object Identifier (DOI): 10.5281/zenodo.6511958          **
 **    Visit the DOI location for information on how to cite this program.    **
 *******************************************************************************

                              PM7 CALCULATION RESULTS

 *******************************************************************************
 *  CALCULATION DONE:                                Tue Mar 26 11:17:32 2024  *
 *  PM7        - The PM7 Hamiltonian to be used
 *  DOUBLET    - SPIN STATE DEFINED AS A DOUBLET
 *
 *
 *
 *                 CHARGE ON SYSTEM = 0
 *
 *
 *
 *  EPS=78.4   - USE ANDREAS KLAMT'S COSMO IMPLICIT SOLVATION MODEL
 *  SADDLE     - TRANSITION STATE TO BE OPTIMIZED
 *  T=         - A TIME OF 14.0 DAYS REQUESTED
 *  DUMP=N     - RESTART FILE WRITTEN EVERY 30.0 MINUTES REQUESTED
 *  RELSCF     - DEFAULT SCF CRITERION MULTIPLIED BY 1.0000
 *              (DEFAULT SCF CRITERION = 0.00010)
 *  ITRY=      - DO A MAXIMUM OF 15000 ITERATIONS FOR SCF
 *  AUX        - OUTPUT AUXILIARY INFORMATION
 *  BONDS      - FINAL BOND-ORDER MATRIX TO BE PRINTED
 *******************************************************************************
SADDLE PM7 BONDS AUX DUMP=30M ITRY=15000 T=14D CHARGE=0 DOUBLET eps=78.4 RELSCF=1


   ATOM   CHEMICAL          X               Y               Z
  NUMBER   SYMBOL      (ANGSTROMS)     (ANGSTROMS)     (ANGSTROMS)

     1       C         -0.35231209  *   1.00331070  *   1.08992910  *
     2       C          1.02631213  *   0.79867971  *   1.06966052  *
     3       C          1.55789936  *  -0.38708181  *   0.55311952  *
     4       C          0.70921287  *  -1.37021865  *   0.04801245  *
     5       C         -0.67137087  *  -1.14792865  *   0.07001007  *
     6       C         -1.21445899  *   0.03383078  *   0.58994954  *
     7       H         -0.75794022  *   1.93161118  *   1.50176907  *
     8       H          1.69274996  *   1.57747056  *   1.46582836  *
     9       H          1.11637014  *  -2.30418956  *  -0.36234992  *
    10       H         -2.29932015  *   0.19516988  *   0.60209045  *
    11       N         -1.55470357  *  -2.16210130  *  -0.44984139  *
    12       O         -2.76306556  *  -1.96497189  *  -0.43627987  *
    13       O         -1.07780083  *  -3.19888854  *  -0.89291930  *
    14       C          3.04748084  *  -0.59418930  *   0.57975912  *
    15       C          3.43765975  *  -1.87581895  *   1.30565005  *
    16       H          4.52783908  *  -1.98270965  *   1.40705952  *
    17       H          3.06302076  *  -2.78328933  *   0.80866072  *
    18       H          3.02623094  *  -1.88043139  *   2.32847135  *
    19       N          3.55718945  *  -0.66654824  *  -0.83271536  *
    20       O          4.38699488  *   0.15625627  *  -1.18556111  *
    21       O          3.13708535  *  -1.53352592  *  -1.57844362  *
    22       H          3.56585875  *   0.29011002  *   1.07255151  *
    23       C          5.92028879  *   4.68183803  *   5.93437053  *
    24       N          7.19528123  *   4.95587037  *   5.53371896  *
    25       C          7.64393972  *   4.53775969  *   4.19394021  *
    26       C          6.67680025  *   3.52662976  *   3.54347083  *
    27       N          5.27674202  *   3.99926877  *   3.60771079  *
    28       C          4.86278968  *   4.16140874  *   5.02503061  *
    29       H          5.66382022  *   4.84391038  *   6.96975892  *
    30       H          7.92114013  *   4.92066182  *   6.24839939  *
    31       H          8.66883965  *   4.10882997  *   4.24857937  *
    32       H          7.71870909  *   5.45383012  *   3.56063091  *
    33       H          6.95269826  *   3.35852041  *   2.47934894  *
    34       H          6.74625015  *   2.54020756  *   4.05211885  *
    35       H          5.18887074  *   4.89396989  *   3.11190086  *
    36       H          3.95917032  *   4.81505991  *   5.06145954  *
    37       H          4.52777816  *   3.15668906  *   5.38875132  *
    38       H          3.40773110  *   1.29322885  *   3.37652179  *
    39       H          4.20003934  *   2.52679990  *   2.92515852  *
    40       O          3.59559918  *   1.82879083  *   2.60253887  *



          CARTESIAN COORDINATES 

    NO.       ATOM           X           Y           Z

     1         C         -0.3523      1.0033      1.0899
     2         C          1.0263      0.7987      1.0697
     3         C          1.5579     -0.3871      0.5531
     4         C          0.7092     -1.3702      0.0480
     5         C         -0.6714     -1.1479      0.0700
     6         C         -1.2145      0.0338      0.5899
     7         H         -0.7579      1.9316      1.5018
     8         H          1.6927      1.5775      1.4658
     9         H          1.1164     -2.3042     -0.3623
    10         H         -2.2993      0.1952      0.6021
    11         N         -1.5547     -2.1621     -0.4498
    12         O         -2.7631     -1.9650     -0.4363
    13         O         -1.0778     -3.1989     -0.8929
    14         C          3.0475     -0.5942      0.5798
    15         C          3.4377     -1.8758      1.3057
    16         H          4.5278     -1.9827      1.4071
    17         H          3.0630     -2.7833      0.8087
    18         H          3.0262     -1.8804      2.3285
    19         N          3.5572     -0.6665     -0.8327
    20         O          4.3870      0.1563     -1.1856
    21         O          3.1371     -1.5335     -1.5784
    22         H          3.5659      0.2901      1.0726
    23         C          5.9203      4.6818      5.9344
    24         N          7.1953      4.9559      5.5337
    25         C          7.6439      4.5378      4.1939
    26         C          6.6768      3.5266      3.5435
    27         N          5.2767      3.9993      3.6077
    28         C          4.8628      4.1614      5.0250
    29         H          5.6638      4.8439      6.9698
    30         H          7.9211      4.9207      6.2484
    31         H          8.6688      4.1088      4.2486
    32         H          7.7187      5.4538      3.5606
    33         H          6.9527      3.3585      2.4793
    34         H          6.7463      2.5402      4.0521
    35         H          5.1889      4.8940      3.1119
    36         H          3.9592      4.8151      5.0615
    37         H          4.5278      3.1567      5.3888
    38         H          3.4077      1.2932      3.3765
    39         H          4.2000      2.5268      2.9252
    40         O          3.5956      1.8288      2.6025

 General Reference for PM7:
 "Optimization of Parameters for Semiempirical Methods VI: More Modifications to the 
 NDDO Approximations and Re-optimization of Parameters", J. J. P. Stewart, J. Mol. Mod., 1:32, 19 (2013)
 https://link.springer.com/article/10.1007/s00894-012-1667-x

           Empirical Formula: C12 H19 N4 O5  =    40 atoms



      MOLECULAR POINT GROUP   :   C1  


 DOUBLET STATE CALCULATION


          UHF CALCULATION, NO. OF ALPHA ELECTRONS =   59
                           NO. OF BETA  ELECTRONS =   58


  CARTESIAN GEOMETRY OF FIRST SYSTEM


   1    C          0.63945       0.99303      -0.73394
   2    C          0.75413      -0.28601      -1.27370
   3    C         -0.21331      -1.26483      -1.00465
   4    C         -1.31129      -0.94999      -0.19724
   5    C         -1.41714       0.34334       0.32406
   6    C         -0.44917       1.32202       0.06834
   7    H          1.40965       1.74135      -0.93841
   8    H          1.60582      -0.52984      -1.91329
   9    H         -2.07529      -1.70696       0.01180
  10    H         -0.54447       2.32682       0.49099
  11    N         -2.55662       0.67107       1.14563
  12    O         -2.65996       1.80486       1.59802
  13    O         -3.39875      -0.18658       1.37766
  14    C         -0.09438      -2.61202      -1.54237
  15    C         -0.07682      -3.74551      -0.57611
  16    H          0.13840      -4.71052      -1.05947
  17    H         -1.04538      -3.85444      -0.06120
  18    H          0.68976      -3.59877       0.20001
  19    N         -0.05473      -2.81267      -2.85993
  20    O          0.02930      -3.96990      -3.35812
  21    O         -0.10485      -1.84225      -3.66658
  22    H          2.21470      -2.90189      -1.92848
  23    C          5.09894      -6.45053      -5.06054
  24    N          4.12139      -6.90349      -5.88150
  25    C          2.74316      -6.40610      -5.75356
  26    C          2.51603      -5.61984      -4.45646
  27    N          3.61994      -4.60317      -4.30156
  28    C          4.93247      -5.33016      -4.10072
  29    H          6.06812      -6.92990      -5.09695
  30    H          4.21098      -7.84133      -6.26728
  31    H          2.01760      -7.25288      -5.81407
  32    H          2.52786      -5.76103      -6.64413
  33    H          1.52704      -5.09508      -4.48367
  34    H          2.49933      -6.29160      -3.56741
  35    H          3.67411      -4.00778      -5.15859
  36    H          5.76732      -4.59000      -4.19959
  37    H          4.98096      -5.70895      -3.04617
  38    H          3.51113      -3.36681      -1.23809
  39    H          3.42897      -3.96602      -3.48051
  40    O          3.17006      -2.97766      -2.05879


  CARTESIAN GEOMETRY OF SECOND SYSTEM


   1    C          1.08533       0.46195      -1.05544
   2    C          0.70684      -0.81314      -1.47230
   3    C         -0.42276      -1.42987      -0.92543
   4    C         -1.18204      -0.76740       0.03717
   5    C         -0.79288       0.51375       0.44106
   6    C          0.33975       1.13835      -0.09639
   7    H          1.97399       0.93271      -1.48505
   8    H          1.30605      -1.33128      -2.23392
   9    H         -2.07257      -1.24164       0.47137
  10    H          0.63453       2.14321       0.22990
  11    N         -1.57363       1.20367       1.43780
  12    O         -1.23655       2.32779       1.78697
  13    O         -2.55635       0.65056       1.91426
  14    C         -0.78369      -2.82130      -1.36828
  15    C         -0.88446      -3.79039      -0.19677
  16    H         -1.05702      -4.82597      -0.52539
  17    H         -1.68808      -3.53097       0.50875
  18    H          0.05511      -3.79748       0.37996
  19    N         -2.10959      -2.78159      -2.07576
  20    O         -2.15219      -3.16060      -3.23534
  21    O         -3.09468      -2.38011      -1.48190
  22    H         -0.02221      -3.21342      -2.11657
  23    C          5.84180      -5.84209      -4.79451
  24    N          5.40067      -6.75298      -5.70934
  25    C          3.97474      -6.78219      -6.07948
  26    C          3.10085      -5.96950      -5.10137
  27    N          3.65459      -4.61631      -4.87792
  28    C          5.01151      -4.71774      -4.28216
  29    H          6.84625      -5.94481      -4.41425
  30    H          5.85080      -7.66743      -5.70397
  31    H          3.61383      -7.83291      -6.13524
  32    H          3.88357      -6.36224      -7.10962
  33    H          2.06543      -5.87531      -5.49607
  34    H          3.02436      -6.49203      -4.12276
  35    H          3.69951      -4.10774      -5.76864
  36    H          5.53901      -3.74497      -4.42558
  37    H          4.87934      -4.83333      -3.17620
  38    H          2.45677      -3.62880      -1.96943
  39    H          2.54340      -3.82373      -3.48853
  40    O          2.03512      -3.36478      -2.79020


   "DISTANCE":     8.425206


  REACTION COORDINATE VECTOR


   1    C         -0.44588       0.53107       0.32150
   2    C          0.04729       0.52713       0.19860
   3    C          0.20945       0.16504      -0.07922
   4    C         -0.12925      -0.18259      -0.23442
   5    C         -0.62426      -0.17040      -0.11699
   6    C         -0.78892       0.18367       0.16473
   7    H         -0.56434       0.80864       0.54664
   8    H          0.29977       0.80144       0.32064
   9    H         -0.00272      -0.46532      -0.45958
  10    H         -1.17900       0.18361       0.26109
  11    N         -0.98298      -0.53260      -0.29217
  12    O         -1.42341      -0.52293      -0.18895
  13    O         -0.84240      -0.83714      -0.53660
  14    C          0.68931       0.20928      -0.17409
  15    C          0.80765       0.04487      -0.37935
  16    H          1.19542       0.11545      -0.53408
  17    H          0.64270      -0.32347      -0.56994
  18    H          0.63465       0.19870      -0.17995
  19    N          2.05486      -0.03108      -0.78417
  20    O          2.18149      -0.80930      -0.12278
  21    O          2.98983       0.53786      -2.18467
  22    H          2.23690       0.31153       0.18809
  23    C         -0.74286      -0.60844      -0.26603
  24    N         -1.27927      -0.15052      -0.17215
  25    C         -1.23158       0.37609       0.32592
  26    C         -0.58482       0.34966       0.64491
  27    N         -0.03465       0.01314       0.57637
  28    C         -0.07903      -0.61241       0.18144
  29    H         -0.77813      -0.98510      -0.68270
  30    H         -1.63982      -0.17390      -0.56331
  31    H         -1.59623       0.58003       0.32117
  32    H         -1.35571       0.60121       0.46549
  33    H         -0.53840       0.78023       1.01240
  34    H         -0.52503       0.20043       0.55535
  35    H         -0.02540       0.09996       0.61005
  36    H          0.22830      -0.84503       0.22599
  37    H          0.10161      -0.87562       0.13003
  38    H          1.05436       0.26198       0.73134
  39    H          0.88557      -0.14230       0.00802
  40    O          1.13494       0.38712       0.73141
 *+*+*+*+*+*+*+*+*+*+*+*+*+*+*+*+*+*+*+*+*+*+*+*+*+*+*+*+*+*+*+*+*+*+*+*+*+*+*+*+
            BAR SHORTENED BY       0.000 PERCENT
 GRADIENT CRITERION IN FLEPO =     1.000
  SCF CRITERION =    0.1000E-03
 

                    SINCE COS WAS JUST RESET,THE SEARCH IS BEING ENDED


          FOR POINT    1 SECOND STRUCTURE
 DISTANCE A - B      8.425206
 HEAT              -75.217323
 GRADIENT NORM      11.022312
 DIRECTION COSINE    0.000003
* ===============================
* Input file for Mopac
* ===============================
 PM7 BONDS AUX DUMP=30M ITRY=15000 T=14D CHARGE=0 DOUBLET eps=78.4 RELSCF=1


  C     0.00000000 +0    0.0000000 +0    0.0000000 +0     0     0     0
  C     1.39299870 +1    0.0000000 +0    0.0000000 +0     1     0     0
  C     1.40231186 +1  120.6466053 +1    0.0000000 +0     2     1     0
  C     1.39879136 +1  119.6827560 +1    0.6462697 +1     3     2     1
  C     1.39846188 +1  118.8637197 +1    0.0468844 +1     4     3     2
  C     1.39173196 +1  120.3198400 +1   -0.8165319 +1     1     2     3
  H     1.09318046 +1  119.8691905 +1  178.9799897 +1     1     2     3
  H     1.09255299 +1  119.7284162 +1  179.9905565 +1     2     1     3
  H     1.09561479 +1  120.1292546 +1  179.5503517 +1     4     3     2
  H     1.09423079 +1  120.5226936 +1 -179.7697627 +1     6     1     2
  N     1.44249582 +1  118.8291974 +1  179.3872169 +1     5     4     3
  O     1.22506393 +1  119.1568141 +1 -179.5144501 +1    11     5     4
  O     1.22414644 +1  119.4851287 +1    0.5418706 +1    11     5     4
  C     1.45539889 +1  121.2545489 +1 -178.9029847 +1     3     2     1
  C     1.48947711 +1  117.7537125 +1  122.4512776 +1    14     3     2
  H     1.10294133 +1  112.4059354 +1 -173.0395425 +1    15    14     3
  H     1.10152433 +1  111.5825857 +1   66.7939034 +1    15    14     3
  H     1.10085948 +1  111.3553976 +1  -52.9531309 +1    15    14     3
  N     1.33329920 +1  120.4492935 +1  -60.0488179 +1    14     3     2
  O     1.26272230 +1  121.9904506 +1 -179.0163814 +1    19    14     3
  O     1.26237307 +1  120.9663037 +1    0.8324506 +1    19    14     3
  H     2.36018765 +1  104.7826304 +1   24.2554809 +1    14     3     2
  C     5.53871352 +1  133.0122578 +1 -161.3798742 +1    22    14     3
  N     1.35447740 +1  100.3935499 +1   17.1939640 +1    23    22    14
  C     1.47079979 +1  120.7019221 +1    0.1423784 +1    24    23    22
  C     1.53279019 +1  112.6885885 +1  -12.6653065 +1    25    24    23
  N     1.50883084 +1  108.9479463 +1   48.8693457 +1    26    25    24
  C     1.48464852 +1   24.9550173 +1 -178.4007043 +1    23    22    14
  H     1.08186427 +1  140.2998048 +1 -151.7978553 +1    23    22    14
  H     1.01802850 +1  118.3109371 +1 -151.9558686 +1    24    23    22
  H     1.11673712 +1  110.3471450 +1 -135.7672707 +1    25    24    23
  H     1.12027270 +1  107.8097046 +1  109.3817940 +1    25    24    23
  H     1.11988238 +1  110.5890132 +1  169.1883909 +1    26    25    24
  H     1.11554036 +1  111.6068168 +1  -72.1893983 +1    26    25    24
  H     1.04496330 +1  109.6889956 +1   54.4054571 +1    27    26    25
  H     1.12005183 +1  110.9803137 +1 -149.4243288 +1    28    23    22
  H     1.12157142 +1  110.3746660 +1   93.4838503 +1    28    23    22
  H     1.54399917 +1  141.5663216 +1   88.1534300 +1    22    14     3
  H     1.06186959 +1  110.7038251 +1  173.2993565 +1    27    26    25
  O     0.96595600 +1  176.5662175 +1   20.9841470 +1    22    14     3

 TIME=     2.21
  REACTANTS AND PRODUCTS SWAPPED AROUND
 *+*+*+*+*+*+*+*+*+*+*+*+*+*+*+*+*+*+*+*+*+*+*+*+*+*+*+*+*+*+*+*+*+*+*+*+*+*+*+*+
            BAR SHORTENED BY       1.000 PERCENT
 GRADIENT CRITERION IN FLEPO =     8.022


          FOR POINT    2 FIRST  STRUCTURE
 DISTANCE A - B      8.340954
 HEAT              -67.715580
 GRADIENT NORM      15.140919
 DIRECTION COSINE   -0.050566
* ===============================
* Input file for Mopac
* ===============================
 PM7 BONDS AUX DUMP=30M ITRY=15000 T=14D CHARGE=0 DOUBLET eps=78.4 RELSCF=1


  C     0.00000000 +0    0.0000000 +0    0.0000000 +0     0     0     0
  C     1.39494954 +1    0.0000000 +0    0.0000000 +0     1     0     0
  C     1.39826498 +1  120.4504651 +1    0.0000000 +0     2     1     0
  C     1.39315031 +1  120.0430351 +1    0.3326855 +1     3     2     1
  C     1.40056857 +1  118.9291852 +1   -0.0331885 +1     4     3     2
  C     1.38994264 +1  120.3510461 +1   -0.3409993 +1     1     2     3
  H     1.09233508 +1  119.8430568 +1  179.6412650 +1     1     2     3
  H     1.09772411 +1  119.2958553 +1 -179.8645506 +1     2     1     3
  H     1.09739542 +1  120.7030498 +1  179.8914886 +1     4     3     2
  H     1.09496983 +1  120.5791748 +1 -179.6748922 +1     6     1     2
  N     1.44218168 +1  119.0922083 +1 -179.8180286 +1     5     4     3
  O     1.22304532 +1  118.9459947 +1 -179.5141157 +1    11     5     4
  O     1.22500663 +1  119.0532015 +1    0.0240231 +1    11     5     4
  C     1.50643981 +1  119.0399834 +1 -178.3337559 +1     3     2     1
  C     1.52358599 +1  111.9942296 +1  123.9410520 +1    14     3     2
  H     1.09912411 +1  112.1567211 +1 -174.8316449 +1    15    14     3
  H     1.10093761 +1  113.0424332 +1   63.4118656 +1    15    14     3
  H     1.10272564 +1  110.5538002 +1  -56.1156406 +1    15    14     3
  N     1.49582675 +1  109.0111866 +1 -115.3968265 +1    14     3     2
  O     1.22233896 +1  118.2453894 +1  121.2296961 +1    19    14     3
  O     1.21421176 +1  119.2391635 +1  -58.9772742 +1    19    14     3
  H     1.13779996 +1  110.4240130 +1    1.9170088 +1    14     3     2
  C     6.89752610 +1  157.7033814 +1  104.5660368 +1     8     2     1
  N     1.36465226 +1  118.0230129 +1  118.8181806 +1    23     8     2
  C     1.47547268 +1  119.7417925 +1   -2.7028987 +1    24    23     8
  C     1.54298586 +1  112.0860128 +1  -13.7824145 +1    25    24    23
  N     1.47863738 +1  111.5317911 +1   49.7972382 +1    26    25    24
  C     1.48459895 +1  109.8300790 +1  -61.2882893 +1    27    26    25
  H     1.07808711 +1  123.2128211 +1  -53.4324171 +1    23     8     2
  H     1.01981910 +1  116.9025416 +1 -147.6094372 +1    24    23     8
  H     1.11154611 +1  110.1488853 +1 -137.2964465 +1    25    24    23
  H     1.11672480 +1  107.4498149 +1  107.1370113 +1    25    24    23
  H     1.11206505 +1  110.1863263 +1  170.8269312 +1    26    25    24
  H     1.11235903 +1  110.5311902 +1  -71.4869331 +1    26    25    24
  H     1.02587067 +1  109.7752494 +1   59.9005331 +1    27    26    25
  H     1.11443610 +1  108.8802008 +1  161.7238165 +1    28    27    26
  H     1.12038246 +1  107.3368785 +1  -83.9776897 +1    28    27    26
  H     2.51272360 +1  133.3097052 +1   60.8195243 +1    22    14     3
  H     1.53552408 +1   90.8108691 +1 -168.8098468 +1    38    22    14
  O     0.96101127 +1   58.0209407 +1 -148.4828816 +1    38    22    14

 TIME=     0.60
  REACTANTS AND PRODUCTS SWAPPED AROUND
 *+*+*+*+*+*+*+*+*+*+*+*+*+*+*+*+*+*+*+*+*+*+*+*+*+*+*+*+*+*+*+*+*+*+*+*+*+*+*+*+
            BAR SHORTENED BY       1.000 PERCENT
 GRADIENT CRITERION IN FLEPO =    10.000


          FOR POINT    3 SECOND STRUCTURE
 DISTANCE A - B      8.257544
 HEAT              -75.025721
 GRADIENT NORM      23.532667
 DIRECTION COSINE    0.037019
* ===============================
* Input file for Mopac
* ===============================
 PM7 BONDS AUX DUMP=30M ITRY=15000 T=14D CHARGE=0 DOUBLET eps=78.4 RELSCF=1


  C     0.00000000 +0    0.0000000 +0    0.0000000 +0     0     0     0
  C     1.39008845 +1    0.0000000 +0    0.0000000 +0     1     0     0
  C     1.40073757 +1  121.1256823 +1    0.0000000 +0     2     1     0
  C     1.40167654 +1  119.2942559 +1    0.1304610 +1     3     2     1
  C     1.39114392 +1  119.2348826 +1    0.3925902 +1     4     3     2
  C     1.39097616 +1  120.0237991 +1   -0.2971329 +1     1     2     3
  H     1.08767683 +1  120.4307574 +1  179.5710500 +1     1     2     3
  H     1.08873842 +1  119.4576391 +1 -179.9732082 +1     2     1     3
  H     1.09755019 +1  119.5990873 +1  179.9241951 +1     4     3     2
  H     1.09773751 +1  120.9061594 +1 -179.5489556 +1     6     1     2
  N     1.44166478 +1  118.8284993 +1  179.2403931 +1     5     4     3
  O     1.22574308 +1  119.0264141 +1 -179.3423545 +1    11     5     4
  O     1.22428218 +1  119.4173679 +1    0.4012085 +1    11     5     4
  C     1.45450608 +1  121.5120231 +1 -178.9044807 +1     3     2     1
  C     1.48593087 +1  118.0403907 +1  121.7531818 +1    14     3     2
  H     1.09848160 +1  112.7154099 +1 -172.9743854 +1    15    14     3
  H     1.10166349 +1  111.2671499 +1   66.8209035 +1    15    14     3
  H     1.09977457 +1  111.4828403 +1  -52.4030769 +1    15    14     3
  N     1.33252231 +1  120.3591777 +1  -60.5235330 +1    14     3     2
  O     1.25938507 +1  122.5455723 +1 -179.3267495 +1    19    14     3
  O     1.26247369 +1  120.4705264 +1    0.2485010 +1    19    14     3
  H     2.35933855 +1  104.7295269 +1   23.4759477 +1    14     3     2
  C     5.53286861 +1  133.7274849 +1 -161.5120750 +1    22    14     3
  N     1.35765248 +1  100.3739010 +1   17.6065204 +1    23    22    14
  C     1.46822943 +1  120.5920864 +1    0.2787659 +1    24    23    22
  C     1.53341205 +1  112.7253515 +1  -12.8263886 +1    25    24    23
  N     1.50873166 +1  109.0759042 +1   48.9972192 +1    26    25    24
  C     1.48833060 +1   25.0225207 +1 -178.3580847 +1    23    22    14
  H     1.08153939 +1  140.1751186 +1 -151.3195925 +1    23    22    14
  H     1.01952274 +1  118.0687459 +1 -151.8452995 +1    24    23    22
  H     1.12038706 +1  110.0260602 +1 -135.6914263 +1    25    24    23
  H     1.11948808 +1  107.6185720 +1  109.1831101 +1    25    24    23
  H     1.11695528 +1  110.3707719 +1  169.4269635 +1    26    25    24
  H     1.11427010 +1  111.6006557 +1  -71.9790605 +1    26    25    24
  H     1.04755060 +1  109.8044978 +1   54.3863398 +1    27    26    25
  H     1.11935434 +1  110.9186623 +1 -149.9174503 +1    28    23    22
  H     1.12096851 +1  110.0852196 +1   93.2592947 +1    28    23    22
  H     1.53802135 +1  140.9704489 +1   87.9887341 +1    22    14     3
  H     1.05777986 +1  110.4802878 +1  173.1799643 +1    27    26    25
  O     0.96371203 +1   37.1973985 +1 -173.6293451 +1    38    22    14

 *+*+*+*+*+*+*+*+*+*+*+*+*+*+*+*+*+*+*+*+*+*+*+*+*+*+*+*+*+*+*+*+*+*+*+*+*+*+*+*+
            BAR SHORTENED BY       1.000 PERCENT
 GRADIENT CRITERION IN FLEPO =    10.000


          FOR POINT    4 SECOND STRUCTURE
 DISTANCE A - B      8.174969
 HEAT              -75.192963
 GRADIENT NORM      21.616470
 DIRECTION COSINE    0.098985
* ===============================
* Input file for Mopac
* ===============================
 PM7 BONDS AUX DUMP=30M ITRY=15000 T=14D CHARGE=0 DOUBLET eps=78.4 RELSCF=1


  C     0.00000000 +0    0.0000000 +0    0.0000000 +0     0     0     0
  C     1.39441000 +1    0.0000000 +0    0.0000000 +0     1     0     0
  C     1.40044169 +1  120.6765910 +1    0.0000000 +0     2     1     0
  C     1.39500989 +1  119.7061362 +1    0.1341407 +1     3     2     1
  C     1.39568387 +1  119.0993062 +1    0.2707666 +1     4     3     2
  C     1.39032302 +1  120.0632069 +1   -0.2226725 +1     1     2     3
  H     1.09131031 +1  120.0363899 +1  179.6434973 +1     1     2     3
  H     1.09096657 +1  119.7002956 +1  179.9795099 +1     2     1     3
  H     1.09482352 +1  120.0247117 +1 -179.9038227 +1     4     3     2
  H     1.09460947 +1  120.4239048 +1 -179.5120627 +1     6     1     2
  N     1.43886214 +1  118.9155170 +1  179.2794318 +1     5     4     3
  O     1.22659645 +1  119.2773329 +1 -179.2882954 +1    11     5     4
  O     1.22741001 +1  119.4286947 +1    0.5205621 +1    11     5     4
  C     1.45483434 +1  121.1524003 +1 -178.7872365 +1     3     2     1
  C     1.48885181 +1  117.8846974 +1  121.8828872 +1    14     3     2
  H     1.10332908 +1  112.3876894 +1 -173.0084592 +1    15    14     3
  H     1.09885349 +1  111.2710292 +1   66.8548129 +1    15    14     3
  H     1.09777746 +1  111.3341664 +1  -52.9953142 +1    15    14     3
  N     1.32861218 +1  120.3106620 +1  -61.2740450 +1    14     3     2
  O     1.25780816 +1  123.0866280 +1 -179.6623001 +1    19    14     3
  O     1.25798282 +1  120.1298173 +1    0.4945935 +1    19    14     3
  H     2.34958782 +1  104.9219089 +1   23.1593281 +1    14     3     2
  C     5.53243374 +1  134.3692711 +1 -161.5806721 +1    22    14     3
  N     1.35492049 +1  100.6358376 +1   17.8598427 +1    23    22    14
  C     1.47561323 +1  120.3743582 +1    0.2476669 +1    24    23    22
  C     1.53435673 +1  112.4921864 +1  -12.7438608 +1    25    24    23
  N     1.50734601 +1  109.2328323 +1   49.1400298 +1    26    25    24
  C     1.48169632 +1   25.0913135 +1 -178.3243809 +1    23    22    14
  H     1.08309887 +1  140.1258377 +1 -151.0136859 +1    23    22    14
  H     1.01394429 +1  118.3760481 +1 -151.4171476 +1    24    23    22
  H     1.11483028 +1  110.1501178 +1 -135.6157077 +1    25    24    23
  H     1.12062320 +1  107.3999646 +1  108.9897695 +1    25    24    23
  H     1.12043539 +1  110.1241456 +1  169.1969422 +1    26    25    24
  H     1.11258961 +1  111.5297224 +1  -72.1417659 +1    26    25    24
  H     1.04631789 +1  109.9149094 +1   54.2274545 +1    27    26    25
  H     1.12107312 +1  110.9400450 +1 -149.9130120 +1    28    23    22
  H     1.12159569 +1  110.4041667 +1   93.2919391 +1    28    23    22
  H     1.54417974 +1  140.6846798 +1   87.7405733 +1    22    14     3
  H     1.05829836 +1  110.4562016 +1  173.2366727 +1    27    26    25
  O     0.96892947 +1   37.2686096 +1 -172.9394534 +1    38    22    14

 *+*+*+*+*+*+*+*+*+*+*+*+*+*+*+*+*+*+*+*+*+*+*+*+*+*+*+*+*+*+*+*+*+*+*+*+*+*+*+*+
            BAR SHORTENED BY       1.000 PERCENT
 GRADIENT CRITERION IN FLEPO =    10.000


          FOR POINT    5 SECOND STRUCTURE
 DISTANCE A - B      8.093219
 HEAT              -74.918063
 GRADIENT NORM      24.308897
 DIRECTION COSINE    0.565264
* ===============================
* Input file for Mopac
* ===============================
 PM7 BONDS AUX DUMP=30M ITRY=15000 T=14D CHARGE=0 DOUBLET eps=78.4 RELSCF=1


  C     0.00000000 +0    0.0000000 +0    0.0000000 +0     0     0     0
  C     1.39329441 +1    0.0000000 +0    0.0000000 +0     1     0     0
  C     1.40283816 +1  120.2903587 +1    0.0000000 +0     2     1     0
  C     1.39267438 +1  120.0415268 +1    0.7586078 +1     3     2     1
  C     1.39784106 +1  118.8222419 +1   -0.2530470 +1     4     3     2
  C     1.38985155 +1  120.3760495 +1   -0.9216266 +1     1     2     3
  H     1.09408454 +1  119.7940659 +1  179.6585938 +1     1     2     3
  H     1.09710102 +1  120.0829929 +1 -179.9074872 +1     2     1     3
  H     1.09466407 +1  120.6564972 +1 -179.3047067 +1     4     3     2
  H     1.09642947 +1  120.2969360 +1 -179.6243888 +1     6     1     2
  N     1.44242870 +1  119.0826885 +1  179.3472287 +1     5     4     3
  O     1.22618602 +1  119.6586357 +1 -179.8437729 +1    11     5     4
  O     1.23110437 +1  118.9140235 +1    1.2079881 +1    11     5     4
  C     1.45771146 +1  121.0648932 +1 -178.7833638 +1     3     2     1
  C     1.48255349 +1  117.9427833 +1  121.9341510 +1    14     3     2
  H     1.09852671 +1  112.7489064 +1 -172.7327373 +1    15    14     3
  H     1.10262729 +1  111.0763145 +1   66.8791922 +1    15    14     3
  H     1.10114052 +1  111.3332339 +1  -52.5208816 +1    15    14     3
  N     1.32864958 +1  120.3044873 +1  -61.2270972 +1    14     3     2
  O     1.25779504 +1  123.4119562 +1  179.8810282 +1    19    14     3
  O     1.25770627 +1  119.8331794 +1   -0.1066045 +1    19    14     3
  H     2.34523523 +1  104.7966674 +1   23.1855787 +1    14     3     2
  C     5.53251863 +1  134.9240626 +1 -161.8156433 +1    22    14     3
  N     1.35758854 +1  100.5142236 +1   18.1999561 +1    23    22    14
  C     1.46857527 +1  120.4829086 +1    0.2221317 +1    24    23    22
  C     1.53429038 +1  112.6762722 +1  -12.6003625 +1    25    24    23
  N     1.50795252 +1  109.2043931 +1   48.9925532 +1    26    25    24
  C     1.48492951 +1   25.1287679 +1 -178.3355669 +1    23    22    14
  H     1.08133158 +1  139.9479053 +1 -150.7026817 +1    23    22    14
  H     1.01734641 +1  117.9409774 +1 -151.3361302 +1    24    23    22
  H     1.11936788 +1  110.0276813 +1 -135.5531565 +1    25    24    23
  H     1.12072626 +1  107.3089875 +1  109.2204163 +1    25    24    23
  H     1.11930966 +1  110.3107093 +1  169.3145349 +1    26    25    24
  H     1.11604838 +1  111.4341708 +1  -71.9383708 +1    26    25    24
  H     1.04367759 +1  109.9270848 +1   54.6582011 +1    27    26    25
  H     1.12101624 +1  110.8344632 +1 -149.8673801 +1    28    23    22
  H     1.12038226 +1  110.4540775 +1   93.3306181 +1    28    23    22
  H     1.53911485 +1  140.4492908 +1   87.6137839 +1    22    14     3
  H     1.05915052 +1  110.3536984 +1  173.5436336 +1    27    26    25
  O     0.96798142 +1   37.5133140 +1 -172.3573042 +1    38    22    14

 TIME=     2.49
  REACTANTS AND PRODUCTS SWAPPED AROUND
 *+*+*+*+*+*+*+*+*+*+*+*+*+*+*+*+*+*+*+*+*+*+*+*+*+*+*+*+*+*+*+*+*+*+*+*+*+*+*+*+
            BAR SHORTENED BY       0.000 PERCENT
 GRADIENT CRITERION IN FLEPO =    10.000


          FOR POINT    6 FIRST  STRUCTURE
 DISTANCE A - B      8.093219
 HEAT              -67.880351
 GRADIENT NORM      12.785784
 DIRECTION COSINE   -0.113906
* ===============================
* Input file for Mopac
* ===============================
 PM7 BONDS AUX DUMP=30M ITRY=15000 T=14D CHARGE=0 DOUBLET eps=78.4 RELSCF=1


  C     0.00000000 +0    0.0000000 +0    0.0000000 +0     0     0     0
  C     1.39414334 +1    0.0000000 +0    0.0000000 +0     1     0     0
  C     1.39785399 +1  120.4401465 +1    0.0000000 +0     2     1     0
  C     1.39392038 +1  119.9691206 +1    0.3237573 +1     3     2     1
  C     1.39861685 +1  118.9459606 +1    0.0121444 +1     4     3     2
  C     1.39054597 +1  120.3694378 +1   -0.3609638 +1     1     2     3
  H     1.09297487 +1  119.9007510 +1  179.5541890 +1     1     2     3
  H     1.09988608 +1  119.2457929 +1 -179.8193860 +1     2     1     3
  H     1.09917810 +1  120.7071545 +1  179.9379260 +1     4     3     2
  H     1.09690865 +1  120.4281364 +1 -179.6998955 +1     6     1     2
  N     1.44141273 +1  119.0653256 +1 -179.9486189 +1     5     4     3
  O     1.22357449 +1  119.2445576 +1 -179.5178824 +1    11     5     4
  O     1.22635094 +1  119.3156694 +1    0.4187573 +1    11     5     4
  C     1.50128554 +1  118.9624182 +1 -178.1270724 +1     3     2     1
  C     1.52486865 +1  112.0694803 +1  124.1610358 +1    14     3     2
  H     1.10280427 +1  112.1244648 +1 -174.9887492 +1    15    14     3
  H     1.09673474 +1  113.2429203 +1   63.2085966 +1    15    14     3
  H     1.10210132 +1  110.3195783 +1  -56.6344544 +1    15    14     3
  N     1.50420500 +1  108.9673292 +1 -115.5525275 +1    14     3     2
  O     1.22089036 +1  118.2565258 +1  121.1019314 +1    19    14     3
  O     1.21895569 +1  119.1474801 +1  -58.8436720 +1    19    14     3
  H     1.13568140 +1  110.8274969 +1    1.6825634 +1    14     3     2
  C     6.89481676 +1  157.7267272 +1  104.8238444 +1     8     2     1
  N     1.36187650 +1  118.0701822 +1  118.3007524 +1    23     8     2
  C     1.47396336 +1  119.8044426 +1   -2.3454197 +1    24    23     8
  C     1.54300162 +1  112.0985436 +1  -14.1479447 +1    25    24    23
  N     1.47906470 +1  111.4197519 +1   49.8599194 +1    26    25    24
  C     1.48596787 +1  109.8515595 +1  -61.1806773 +1    27    26    25
  H     1.07686948 +1  123.1325445 +1  -53.5556434 +1    23     8     2
  H     1.01970082 +1  117.1836993 +1 -147.8377341 +1    24    23     8
  H     1.11264820 +1  110.2381386 +1 -137.3628670 +1    25    24    23
  H     1.11644641 +1  107.7376534 +1  106.8834838 +1    25    24    23
  H     1.12352446 +1  110.5262373 +1  171.0293434 +1    26    25    24
  H     1.11237185 +1  110.6064689 +1  -71.3710385 +1    26    25    24
  H     1.02689448 +1  109.8250993 +1   59.8927334 +1    27    26    25
  H     1.11634272 +1  108.7327663 +1  161.9415567 +1    28    27    26
  H     1.12004278 +1  107.1973771 +1  -84.1483568 +1    28    27    26
  H     2.51224513 +1  133.2070453 +1   60.7070113 +1    22    14     3
  H     1.53303272 +1   90.8163914 +1 -168.3062878 +1    38    22    14
  O     0.96002231 +1   57.9208464 +1 -148.1653042 +1    38    22    14

 TIME=     0.58
  REACTANTS AND PRODUCTS SWAPPED AROUND
 *+*+*+*+*+*+*+*+*+*+*+*+*+*+*+*+*+*+*+*+*+*+*+*+*+*+*+*+*+*+*+*+*+*+*+*+*+*+*+*+
            BAR SHORTENED BY       1.000 PERCENT
 GRADIENT CRITERION IN FLEPO =     9.786


          FOR POINT    7 SECOND STRUCTURE
 DISTANCE A - B      8.012287
 HEAT              -74.829826
 GRADIENT NORM      27.528186
 DIRECTION COSINE   -0.031280
* ===============================
* Input file for Mopac
* ===============================
 PM7 BONDS AUX DUMP=30M ITRY=15000 T=14D CHARGE=0 DOUBLET eps=78.4 RELSCF=1


  C     0.00000000 +0    0.0000000 +0    0.0000000 +0     0     0     0
  C     1.39231022 +1    0.0000000 +0    0.0000000 +0     1     0     0
  C     1.40125253 +1  120.6088028 +1    0.0000000 +0     2     1     0
  C     1.39803235 +1  119.6736159 +1    0.1995705 +1     3     2     1
  C     1.39667515 +1  118.9945295 +1   -0.1275389 +1     4     3     2
  C     1.38828216 +1  120.3969313 +1   -0.0592292 +1     1     2     3
  H     1.09530605 +1  119.9546492 +1  179.5452250 +1     1     2     3
  H     1.09418647 +1  119.8367235 +1  179.2279273 +1     2     1     3
  H     1.09516405 +1  120.2757286 +1 -178.8612340 +1     4     3     2
  H     1.09503752 +1  120.6092558 +1  179.9988743 +1     6     1     2
  N     1.44646948 +1  118.8073584 +1  179.6830230 +1     5     4     3
  O     1.22333573 +1  118.9847197 +1 -179.3515649 +1    11     5     4
  O     1.22461595 +1  119.1082202 +1    0.8862549 +1    11     5     4
  C     1.45261101 +1  121.3223461 +1 -178.8327666 +1     3     2     1
  C     1.48813629 +1  118.0447704 +1  121.1942057 +1    14     3     2
  H     1.09969837 +1  112.1986214 +1 -173.0475281 +1    15    14     3
  H     1.10295453 +1  110.5439390 +1   67.2535877 +1    15    14     3
  H     1.09358110 +1  111.4470584 +1  -52.3218821 +1    15    14     3
  N     1.32943772 +1  120.0381832 +1  -62.1735940 +1    14     3     2
  O     1.25686577 +1  123.3920545 +1  179.4734368 +1    19    14     3
  O     1.25736412 +1  119.5654662 +1   -0.1885188 +1    19    14     3
  H     2.34534582 +1  105.1234051 +1   21.6281894 +1    14     3     2
  C     5.51214710 +1  136.1401495 +1 -162.6070909 +1    22    14     3
  N     1.35133509 +1  100.6358409 +1   19.6323234 +1    23    22    14
  C     1.47325377 +1  120.3293383 +1    0.3453495 +1    24    23    22
  C     1.53186048 +1  112.7068589 +1  -12.9287692 +1    25    24    23
  N     1.50934853 +1  109.2423639 +1   49.0182319 +1    26    25    24
  C     1.48529969 +1   25.2707478 +1 -176.7281710 +1    23    22    14
  H     1.08347159 +1  140.0952463 +1 -149.2849165 +1    23    22    14
  H     1.01700455 +1  118.5062686 +1 -151.3242477 +1    24    23    22
  H     1.11894694 +1  110.3257893 +1 -135.7589330 +1    25    24    23
  H     1.11555008 +1  107.5629744 +1  108.9938232 +1    25    24    23
  H     1.11885775 +1  110.4038605 +1  169.4384536 +1    26    25    24
  H     1.11673810 +1  111.5529423 +1  -71.5488114 +1    26    25    24
  H     1.04658067 +1  109.8224893 +1   54.7010984 +1    27    26    25
  H     1.11971686 +1  110.8326433 +1 -149.7302538 +1    28    23    22
  H     1.12283536 +1  110.2439030 +1   93.5131611 +1    28    23    22
  H     1.55411967 +1  138.1808354 +1   87.0652300 +1    22    14     3
  H     1.05904684 +1  110.4754783 +1  173.8274801 +1    27    26    25
  O     0.96837622 +1  172.0738871 +1   40.6876463 +1    22    14     3

 TIME=     0.90
  REACTANTS AND PRODUCTS SWAPPED AROUND
 *+*+*+*+*+*+*+*+*+*+*+*+*+*+*+*+*+*+*+*+*+*+*+*+*+*+*+*+*+*+*+*+*+*+*+*+*+*+*+*+
            BAR SHORTENED BY       1.000 PERCENT
 GRADIENT CRITERION IN FLEPO =    10.000


          FOR POINT    8 FIRST  STRUCTURE
 DISTANCE A - B      7.932164
 HEAT              -67.827553
 GRADIENT NORM      17.837876
 DIRECTION COSINE    0.025087
* ===============================
* Input file for Mopac
* ===============================
 PM7 BONDS AUX DUMP=30M ITRY=15000 T=14D CHARGE=0 DOUBLET eps=78.4 RELSCF=1


  C     0.00000000 +0    0.0000000 +0    0.0000000 +0     0     0     0
  C     1.39271142 +1    0.0000000 +0    0.0000000 +0     1     0     0
  C     1.39923660 +1  120.3494867 +1    0.0000000 +0     2     1     0
  C     1.39341243 +1  120.1935311 +1    0.6752645 +1     3     2     1
  C     1.40132237 +1  118.6512880 +1   -0.2070884 +1     4     3     2
  C     1.39089054 +1  120.4286455 +1   -0.6668006 +1     1     2     3
  H     1.09434572 +1  119.8602979 +1  179.3338761 +1     1     2     3
  H     1.10351555 +1  119.0673954 +1 -178.9933565 +1     2     1     3
  H     1.09506259 +1  121.0377333 +1  179.8628367 +1     4     3     2
  H     1.09762618 +1  120.3118214 +1 -179.6446085 +1     6     1     2
  N     1.44085163 +1  118.8033972 +1 -179.9397762 +1     5     4     3
  O     1.22674760 +1  118.9525476 +1 -179.5335887 +1    11     5     4
  O     1.22051268 +1  119.4776367 +1    0.3794107 +1    11     5     4
  C     1.50469872 +1  118.8658580 +1 -178.0091623 +1     3     2     1
  C     1.52403116 +1  112.0355926 +1  124.3550619 +1    14     3     2
  H     1.09769131 +1  112.2484723 +1 -175.0789294 +1    15    14     3
  H     1.10190161 +1  113.1444866 +1   63.0768914 +1    15    14     3
  H     1.10349022 +1  110.3376903 +1  -56.4039549 +1    15    14     3
  N     1.49664479 +1  108.9669240 +1 -115.0690949 +1    14     3     2
  O     1.22297132 +1  118.4435860 +1  122.0770334 +1    19    14     3
  O     1.21497961 +1  118.9111425 +1  -58.1270328 +1    19    14     3
  H     1.13691071 +1  110.6085179 +1    2.2438845 +1    14     3     2
  C     6.89222100 +1  158.1317529 +1  106.3467695 +1     8     2     1
  N     1.36582020 +1  117.9493216 +1  116.4246462 +1    23     8     2
  C     1.47327535 +1  119.6803505 +1   -2.4964302 +1    24    23     8
  C     1.53939961 +1  112.3371840 +1  -14.0841838 +1    25    24    23
  N     1.47886691 +1  111.4381921 +1   49.7302646 +1    26    25    24
  C     1.48561054 +1  109.9019722 +1  -61.1105372 +1    27    26    25
  H     1.07773698 +1  123.3175897 +1  -55.3767487 +1    23     8     2
  H     1.01871972 +1  117.1945796 +1 -147.9880767 +1    24    23     8
  H     1.11455554 +1  110.0483571 +1 -137.5547637 +1    25    24    23
  H     1.11630238 +1  107.5695662 +1  106.9139643 +1    25    24    23
  H     1.11555488 +1  110.5751161 +1  171.1916348 +1    26    25    24
  H     1.11448457 +1  110.6078575 +1  -71.2755610 +1    26    25    24
  H     1.02534843 +1  109.6045773 +1   59.8660025 +1    27    26    25
  H     1.11453498 +1  108.9024960 +1  161.7542774 +1    28    27    26
  H     1.12039695 +1  107.3807843 +1  -83.9608282 +1    28    27    26
  H     2.50601310 +1  133.7904066 +1   60.9711574 +1    22    14     3
  H     1.53524637 +1   90.5898264 +1 -168.7533993 +1    38    22    14
  O     0.95986520 +1   57.8353916 +1 -148.5233086 +1    38    22    14

 TIME=     0.65
  REACTANTS AND PRODUCTS SWAPPED AROUND
 *+*+*+*+*+*+*+*+*+*+*+*+*+*+*+*+*+*+*+*+*+*+*+*+*+*+*+*+*+*+*+*+*+*+*+*+*+*+*+*+
            BAR SHORTENED BY       1.000 PERCENT
 GRADIENT CRITERION IN FLEPO =    10.000


          FOR POINT    9 SECOND STRUCTURE
 DISTANCE A - B      7.852842
 HEAT              -74.762835
 GRADIENT NORM      25.594801
 DIRECTION COSINE   -0.313188
* ===============================
* Input file for Mopac
* ===============================
 PM7 BONDS AUX DUMP=30M ITRY=15000 T=14D CHARGE=0 DOUBLET eps=78.4 RELSCF=1


  C     0.00000000 +0    0.0000000 +0    0.0000000 +0     0     0     0
  C     1.39462852 +1    0.0000000 +0    0.0000000 +0     1     0     0
  C     1.39996020 +1  120.3815434 +1    0.0000000 +0     2     1     0
  C     1.40016559 +1  119.8154084 +1    0.2108452 +1     3     2     1
  C     1.39517995 +1  118.9388809 +1    0.2409410 +1     4     3     2
  C     1.39310460 +1  120.5374085 +1   -0.4152010 +1     1     2     3
  H     1.10257072 +1  119.5080702 +1  178.5417874 +1     1     2     3
  H     1.09292944 +1  119.7024929 +1  179.7059032 +1     2     1     3
  H     1.08944360 +1  120.0806883 +1 -179.4007569 +1     4     3     2
  H     1.09713852 +1  120.4663092 +1  179.7527373 +1     6     1     2
  N     1.44142521 +1  118.7009924 +1  179.3637103 +1     5     4     3
  O     1.22437368 +1  119.1247650 +1 -179.8858515 +1    11     5     4
  O     1.22136589 +1  119.4359606 +1    0.8094093 +1    11     5     4
  C     1.45474413 +1  121.2536618 +1 -178.6731282 +1     3     2     1
  C     1.48050353 +1  118.2553563 +1  121.4462438 +1    14     3     2
  H     1.09824788 +1  112.5685129 +1 -172.5508108 +1    15    14     3
  H     1.10461695 +1  111.0433706 +1   66.6515115 +1    15    14     3
  H     1.09963479 +1  111.3104500 +1  -52.3539460 +1    15    14     3
  N     1.32906053 +1  119.7695652 +1  -62.4544385 +1    14     3     2
  O     1.26529205 +1  123.3416672 +1  179.1242968 +1    19    14     3
  O     1.25725132 +1  119.4150758 +1   -0.5783241 +1    19    14     3
  H     2.33575478 +1  104.9941839 +1   21.6475251 +1    14     3     2
  C     5.51767130 +1  136.5636307 +1 -162.4343095 +1    22    14     3
  N     1.35690472 +1  100.6434059 +1   19.5571472 +1    23    22    14
  C     1.46758980 +1  120.2659689 +1    0.5178790 +1    24    23    22
  C     1.53356785 +1  112.7849448 +1  -12.9784214 +1    25    24    23
  N     1.50788709 +1  109.2821999 +1   49.1544172 +1    26    25    24
  C     1.48179342 +1   25.2435187 +1 -176.9709855 +1    23    22    14
  H     1.08207265 +1  139.9282638 +1 -149.1454315 +1    23    22    14
  H     1.01808405 +1  118.0607730 +1 -151.0844216 +1    24    23    22
  H     1.11610508 +1  110.2609018 +1 -135.9293272 +1    25    24    23
  H     1.12070386 +1  107.4256027 +1  108.7648906 +1    25    24    23
  H     1.11835521 +1  110.2277506 +1  169.5707127 +1    26    25    24
  H     1.11335971 +1  111.5553097 +1  -71.7407902 +1    26    25    24
  H     1.04526940 +1  109.7891477 +1   55.0798132 +1    27    26    25
  H     1.12123413 +1  110.8176774 +1 -149.8441617 +1    28    23    22
  H     1.11904342 +1  110.3630140 +1   93.4456839 +1    28    23    22
  H     1.54585819 +1  138.5437470 +1   86.9620144 +1    22    14     3
  H     1.06061920 +1  110.2348578 +1  173.8219077 +1    27    26    25
  O     0.96973466 +1   37.1866379 +1 -170.1939941 +1    38    22    14

 TIME=     0.91
  REACTANTS AND PRODUCTS SWAPPED AROUND
 *+*+*+*+*+*+*+*+*+*+*+*+*+*+*+*+*+*+*+*+*+*+*+*+*+*+*+*+*+*+*+*+*+*+*+*+*+*+*+*+
            BAR SHORTENED BY       1.000 PERCENT
 GRADIENT CRITERION IN FLEPO =    10.000


          FOR POINT   10 FIRST  STRUCTURE
 DISTANCE A - B      7.774314
 HEAT              -67.603047
 GRADIENT NORM      19.143607
 DIRECTION COSINE   -0.038995
* ===============================
* Input file for Mopac
* ===============================
 PM7 BONDS AUX DUMP=30M ITRY=15000 T=14D CHARGE=0 DOUBLET eps=78.4 RELSCF=1


  C     0.00000000 +0    0.0000000 +0    0.0000000 +0     0     0     0
  C     1.39227320 +1    0.0000000 +0    0.0000000 +0     1     0     0
  C     1.40316662 +1  120.0462312 +1    0.0000000 +0     2     1     0
  C     1.39389254 +1  120.2722807 +1   -0.1066813 +1     3     2     1
  C     1.39817498 +1  118.6838833 +1    0.0697790 +1     4     3     2
  C     1.38896325 +1  120.7035015 +1    0.1462209 +1     1     2     3
  H     1.09473022 +1  119.6875602 +1  179.6771326 +1     1     2     3
  H     1.09563075 +1  119.5520188 +1  179.6197302 +1     2     1     3
  H     1.09844884 +1  120.8999437 +1 -179.8220289 +1     4     3     2
  H     1.09796154 +1  120.5451057 +1  179.9909131 +1     6     1     2
  N     1.44214610 +1  118.9450696 +1  179.9437254 +1     5     4     3
  O     1.22405534 +1  119.0220543 +1 -179.3313700 +1    11     5     4
  O     1.22398547 +1  119.1661625 +1    0.4792209 +1    11     5     4
  C     1.50552833 +1  118.7002400 +1 -178.2784537 +1     3     2     1
  C     1.52362781 +1  111.9444261 +1  124.0878293 +1    14     3     2
  H     1.09915071 +1  111.9790536 +1 -175.2058722 +1    15    14     3
  H     1.10077445 +1  113.2077345 +1   62.8785595 +1    15    14     3
  H     1.10453258 +1  110.3808691 +1  -56.5721631 +1    15    14     3
  N     1.49400327 +1  108.9175410 +1 -115.1098690 +1    14     3     2
  O     1.22019543 +1  118.7684452 +1  122.5153071 +1    19    14     3
  O     1.21369081 +1  118.5560785 +1  -57.4909392 +1    19    14     3
  H     1.13741284 +1  110.4071209 +1    2.1311235 +1    14     3     2
  C     6.90077396 +1  157.7096412 +1  106.8995527 +1     8     2     1
  N     1.36374438 +1  117.8243259 +1  116.9338127 +1    23     8     2
  C     1.47410056 +1  119.7378904 +1   -2.9550365 +1    24    23     8
  C     1.54029847 +1  112.2092893 +1  -13.8323523 +1    25    24    23
  N     1.48073037 +1  111.3942055 +1   49.7340212 +1    26    25    24
  C     1.48731078 +1  109.7553015 +1  -61.3502197 +1    27    26    25
  H     1.07915960 +1  123.5087219 +1  -55.2609106 +1    23     8     2
  H     1.01760207 +1  117.3076625 +1 -147.7818402 +1    24    23     8
  H     1.11185522 +1  110.3282244 +1 -137.0176108 +1    25    24    23
  H     1.11660375 +1  107.4461470 +1  107.0027230 +1    25    24    23
  H     1.11150900 +1  110.4530556 +1  170.7830436 +1    26    25    24
  H     1.11005249 +1  110.8182402 +1  -71.5057040 +1    26    25    24
  H     1.02797530 +1  109.6159701 +1   59.6016467 +1    27    26    25
  H     1.11650710 +1  108.7579467 +1  161.9348313 +1    28    27    26
  H     1.12011817 +1  107.2087665 +1  -83.8146752 +1    28    27    26
  H     2.49718114 +1  134.4498809 +1   61.3504145 +1    22    14     3
  H     1.53627738 +1   90.4981371 +1 -169.1798435 +1    38    22    14
  O     0.95992986 +1   57.8355964 +1 -148.5838155 +1    38    22    14

 TIME=     0.59
  REACTANTS AND PRODUCTS SWAPPED AROUND
 *+*+*+*+*+*+*+*+*+*+*+*+*+*+*+*+*+*+*+*+*+*+*+*+*+*+*+*+*+*+*+*+*+*+*+*+*+*+*+*+
            BAR SHORTENED BY       1.000 PERCENT
 GRADIENT CRITERION IN FLEPO =    10.000


          FOR POINT   11 SECOND STRUCTURE
 DISTANCE A - B      7.696571
 HEAT              -74.747842
 GRADIENT NORM      16.642025
 DIRECTION COSINE    0.146970
* ===============================
* Input file for Mopac
* ===============================
 PM7 BONDS AUX DUMP=30M ITRY=15000 T=14D CHARGE=0 DOUBLET eps=78.4 RELSCF=1


  C     0.00000000 +0    0.0000000 +0    0.0000000 +0     0     0     0
  C     1.39456030 +1    0.0000000 +0    0.0000000 +0     1     0     0
  C     1.40221249 +1  120.4514104 +1    0.0000000 +0     2     1     0
  C     1.39632024 +1  119.7032519 +1    0.4453825 +1     3     2     1
  C     1.39850474 +1  119.0423310 +1    0.0562909 +1     4     3     2
  C     1.39244460 +1  120.4109342 +1   -0.5601079 +1     1     2     3
  H     1.09297099 +1  119.5554264 +1  178.8564829 +1     1     2     3
  H     1.08988096 +1  119.7908562 +1 -179.8358071 +1     2     1     3
  H     1.09534496 +1  119.9950343 +1 -179.2347201 +1     4     3     2
  H     1.09412223 +1  120.3010188 +1  179.9153937 +1     6     1     2
  N     1.44356433 +1  118.5256173 +1  179.7202471 +1     5     4     3
  O     1.22564071 +1  118.8654626 +1 -179.5769733 +1    11     5     4
  O     1.22436471 +1  119.4424096 +1    0.3303916 +1    11     5     4
  C     1.45610692 +1  121.3267534 +1 -178.3876568 +1     3     2     1
  C     1.48679363 +1  118.0794926 +1  120.8930721 +1    14     3     2
  H     1.09708427 +1  112.4910490 +1 -173.0390162 +1    15    14     3
  H     1.10396338 +1  110.8501294 +1   66.8192199 +1    15    14     3
  H     1.09810232 +1  111.4891227 +1  -52.3171247 +1    15    14     3
  N     1.32996653 +1  119.7016343 +1  -62.8045918 +1    14     3     2
  O     1.25921315 +1  123.4675768 +1  179.0140450 +1    19    14     3
  O     1.26365329 +1  119.1390887 +1   -1.0265243 +1    19    14     3
  H     2.33173224 +1  104.8904807 +1   21.4075782 +1    14     3     2
  C     5.52185588 +1  136.9561187 +1 -162.4222784 +1    22    14     3
  N     1.35469925 +1  100.8389797 +1   19.7164598 +1    23    22    14
  C     1.46568095 +1  120.1303142 +1    0.7447559 +1    24    23    22
  C     1.53697228 +1  112.9533988 +1  -13.2857148 +1    25    24    23
  N     1.50774764 +1  109.0666188 +1   49.4014579 +1    26    25    24
  C     1.48656187 +1   25.1827889 +1 -177.1581440 +1    23    22    14
  H     1.08282619 +1  139.5899602 +1 -148.9025005 +1    23    22    14
  H     1.01614071 +1  118.0790292 +1 -150.8652549 +1    24    23    22
  H     1.11923331 +1  110.2966594 +1 -135.9845512 +1    25    24    23
  H     1.12174543 +1  107.8164752 +1  108.9002770 +1    25    24    23
  H     1.11891873 +1  110.5012804 +1  169.6680400 +1    26    25    24
  H     1.11495031 +1  111.6182633 +1  -71.3558341 +1    26    25    24
  H     1.04603239 +1  110.0000392 +1   55.1561100 +1    27    26    25
  H     1.12194395 +1  110.6872925 +1 -149.9159720 +1    28    23    22
  H     1.11692609 +1  110.3256030 +1   93.1669982 +1    28    23    22
  H     1.53918349 +1  138.6060792 +1   87.1647177 +1    22    14     3
  H     1.05995817 +1  110.2581429 +1  173.9546416 +1    27    26    25
  O     0.96799185 +1   37.3848462 +1 -170.1399335 +1    38    22    14

 *+*+*+*+*+*+*+*+*+*+*+*+*+*+*+*+*+*+*+*+*+*+*+*+*+*+*+*+*+*+*+*+*+*+*+*+*+*+*+*+
            BAR SHORTENED BY       1.000 PERCENT
 GRADIENT CRITERION IN FLEPO =    10.000
 

                    SINCE COS WAS JUST RESET,THE SEARCH IS BEING ENDED


          FOR POINT   12 SECOND STRUCTURE
 DISTANCE A - B      7.619605
 HEAT              -74.463689
 GRADIENT NORM      23.747280
 DIRECTION COSINE    0.253804
* ===============================
* Input file for Mopac
* ===============================
 PM7 BONDS AUX DUMP=30M ITRY=15000 T=14D CHARGE=0 DOUBLET eps=78.4 RELSCF=1


  C     0.00000000 +0    0.0000000 +0    0.0000000 +0     0     0     0
  C     1.39137716 +1    0.0000000 +0    0.0000000 +0     1     0     0
  C     1.39932740 +1  120.5491177 +1    0.0000000 +0     2     1     0
  C     1.39552092 +1  119.6600263 +1    0.7872795 +1     3     2     1
  C     1.39472106 +1  119.1921134 +1   -0.0069935 +1     4     3     2
  C     1.39239028 +1  120.4817575 +1   -0.9743410 +1     1     2     3
  H     1.09403490 +1  119.8523920 +1  178.6143797 +1     1     2     3
  H     1.09493533 +1  119.8527702 +1 -179.4824868 +1     2     1     3
  H     1.09439417 +1  120.0107748 +1 -179.3962953 +1     4     3     2
  H     1.09364679 +1  120.3608091 +1 -179.8215442 +1     6     1     2
  N     1.44022376 +1  118.9216162 +1  179.7384253 +1     5     4     3
  O     1.22531321 +1  119.1493142 +1 -179.6825875 +1    11     5     4
  O     1.22687115 +1  119.4595967 +1    0.6642718 +1    11     5     4
  C     1.45894362 +1  121.4156572 +1 -178.0931043 +1     3     2     1
  C     1.48681538 +1  117.8778837 +1  121.1264594 +1    14     3     2
  H     1.10226923 +1  112.1201437 +1 -172.9062625 +1    15    14     3
  H     1.09818582 +1  111.0212915 +1   66.9102265 +1    15    14     3
  H     1.09688977 +1  111.3729904 +1  -52.8092493 +1    15    14     3
  N     1.32682796 +1  119.4841253 +1  -63.3366986 +1    14     3     2
  O     1.25600834 +1  123.5236671 +1  178.5361730 +1    19    14     3
  O     1.25904241 +1  118.9991122 +1   -0.9181661 +1    19    14     3
  H     2.32112031 +1  104.7639923 +1   21.2227596 +1    14     3     2
  C     5.52635090 +1  137.3738054 +1 -162.6149852 +1    22    14     3
  N     1.35660146 +1  100.9698231 +1   20.0752732 +1    23    22    14
  C     1.47014647 +1  119.9200260 +1    0.8731003 +1    24    23    22
  C     1.53312663 +1  112.8295468 +1  -13.4332014 +1    25    24    23
  N     1.50708650 +1  109.3149268 +1   49.6651869 +1    26    25    24
  C     1.48322216 +1   25.2171661 +1 -177.2552057 +1    23    22    14
  H     1.08217486 +1  139.5728646 +1 -148.3968429 +1    23    22    14
  H     1.01601991 +1  118.2685268 +1 -150.6471630 +1    24    23    22
  H     1.11614680 +1  110.0869055 +1 -136.0276735 +1    25    24    23
  H     1.11623850 +1  107.6583017 +1  108.8416555 +1    25    24    23
  H     1.12045414 +1  110.3103934 +1  169.8665296 +1    26    25    24
  H     1.10652393 +1  111.3760513 +1  -71.4042637 +1    26    25    24
  H     1.04602400 +1  109.9932685 +1   54.9555854 +1    27    26    25
  H     1.11881187 +1  110.9270251 +1 -150.4075479 +1    28    23    22
  H     1.12059822 +1  110.2121865 +1   92.7600565 +1    28    23    22
  H     1.54439275 +1  138.3852716 +1   87.4247677 +1    22    14     3
  H     1.06036556 +1  110.3656192 +1  173.9537768 +1    27    26    25
  O     0.97189691 +1   37.5101370 +1 -170.2552130 +1    38    22    14

 *+*+*+*+*+*+*+*+*+*+*+*+*+*+*+*+*+*+*+*+*+*+*+*+*+*+*+*+*+*+*+*+*+*+*+*+*+*+*+*+
            BAR SHORTENED BY       1.000 PERCENT
 GRADIENT CRITERION IN FLEPO =    10.000


          FOR POINT   13 SECOND STRUCTURE
 DISTANCE A - B      7.543409
 HEAT              -74.449733
 GRADIENT NORM      19.389538
 DIRECTION COSINE    0.391965
* ===============================
* Input file for Mopac
* ===============================
 PM7 BONDS AUX DUMP=30M ITRY=15000 T=14D CHARGE=0 DOUBLET eps=78.4 RELSCF=1


  C     0.00000000 +0    0.0000000 +0    0.0000000 +0     0     0     0
  C     1.39339217 +1    0.0000000 +0    0.0000000 +0     1     0     0
  C     1.40254276 +1  120.3390485 +1    0.0000000 +0     2     1     0
  C     1.39282090 +1  119.9333719 +1    1.5233967 +1     3     2     1
  C     1.39429260 +1  118.8707619 +1   -0.3255768 +1     4     3     2
  C     1.39014766 +1  120.4788794 +1   -1.4512046 +1     1     2     3
  H     1.09190357 +1  120.0393301 +1  178.0288904 +1     1     2     3
  H     1.09033687 +1  119.6823656 +1 -178.8065232 +1     2     1     3
  H     1.09700558 +1  120.2814620 +1  179.8475135 +1     4     3     2
  H     1.09724584 +1  120.7465672 +1 -179.6585928 +1     6     1     2
  N     1.43989955 +1  118.8528425 +1  179.9275844 +1     5     4     3
  O     1.22367140 +1  119.7971965 +1 -179.7543881 +1    11     5     4
  O     1.22794647 +1  119.3388774 +1   -0.0357633 +1    11     5     4
  C     1.45904739 +1  121.1138545 +1 -178.4037394 +1     3     2     1
  C     1.48116956 +1  117.8073835 +1  121.7333871 +1    14     3     2
  H     1.09673465 +1  112.6418274 +1 -172.6928214 +1    15    14     3
  H     1.10332607 +1  110.8372997 +1   66.9647929 +1    15    14     3
  H     1.10124270 +1  111.3021724 +1  -52.2223021 +1    15    14     3
  N     1.33104818 +1  119.7704064 +1  -62.7106606 +1    14     3     2
  O     1.25837373 +1  123.7435411 +1  178.1540295 +1    19    14     3
  O     1.26285312 +1  118.8903593 +1   -1.3942721 +1    19    14     3
  H     2.32169358 +1  104.6984633 +1   21.8397337 +1    14     3     2
  C     5.52446830 +1  137.9171528 +1 -163.2327687 +1    22    14     3
  N     1.35607296 +1  100.9618018 +1   20.5256568 +1    23    22    14
  C     1.47250334 +1  120.1630319 +1    0.8841467 +1    24    23    22
  C     1.53389202 +1  112.6838158 +1  -13.2844748 +1    25    24    23
  N     1.50851656 +1  109.4036103 +1   49.4616553 +1    26    25    24
  C     1.48498353 +1   25.0377736 +1 -177.0434103 +1    23    22    14
  H     1.08108992 +1  139.2728594 +1 -147.8851539 +1    23    22    14
  H     1.01826119 +1  118.3281936 +1 -150.5655614 +1    24    23    22
  H     1.11544238 +1  110.0770929 +1 -135.3737156 +1    25    24    23
  H     1.12038660 +1  107.3548979 +1  108.5496539 +1    25    24    23
  H     1.11825604 +1  110.4213563 +1  169.8384190 +1    26    25    24
  H     1.11451501 +1  111.2611167 +1  -71.3734143 +1    26    25    24
  H     1.04605320 +1  109.9474111 +1   55.3260954 +1    27    26    25
  H     1.12122667 +1  110.4517956 +1 -150.4432614 +1    28    23    22
  H     1.11899660 +1  110.6869798 +1   92.9700629 +1    28    23    22
  H     1.54154626 +1  138.0216088 +1   86.8615613 +1    22    14     3
  H     1.06037986 +1  110.0889637 +1  173.9692412 +1    27    26    25
  O     0.96451234 +1  172.1360666 +1   36.4118893 +1    22    14     3

 TIME=     3.85
  REACTANTS AND PRODUCTS SWAPPED AROUND
 *+*+*+*+*+*+*+*+*+*+*+*+*+*+*+*+*+*+*+*+*+*+*+*+*+*+*+*+*+*+*+*+*+*+*+*+*+*+*+*+
            BAR SHORTENED BY       0.000 PERCENT
 GRADIENT CRITERION IN FLEPO =    10.000


          FOR POINT   14 FIRST  STRUCTURE
 DISTANCE A - B      7.543409
 HEAT              -67.680443
 GRADIENT NORM      12.773378
 DIRECTION COSINE    0.108524
* ===============================
* Input file for Mopac
* ===============================
 PM7 BONDS AUX DUMP=30M ITRY=15000 T=14D CHARGE=0 DOUBLET eps=78.4 RELSCF=1


  C     0.00000000 +0    0.0000000 +0    0.0000000 +0     0     0     0
  C     1.39552921 +1    0.0000000 +0    0.0000000 +0     1     0     0
  C     1.39754152 +1  120.2365872 +1    0.0000000 +0     2     1     0
  C     1.39076871 +1  120.2406071 +1   -0.2741255 +1     3     2     1
  C     1.40014567 +1  118.8856963 +1    0.3400999 +1     4     3     2
  C     1.39074127 +1  120.3453861 +1    0.1381922 +1     1     2     3
  H     1.09248929 +1  120.0194127 +1  179.6116148 +1     1     2     3
  H     1.09794057 +1  119.2604641 +1  179.7669332 +1     2     1     3
  H     1.10030183 +1  121.0349816 +1 -179.9365334 +1     4     3     2
  H     1.09853762 +1  120.3897360 +1  179.9203093 +1     6     1     2
  N     1.44119501 +1  119.1763634 +1  179.7091899 +1     5     4     3
  O     1.22545806 +1  119.2537281 +1 -179.4384012 +1    11     5     4
  O     1.22151016 +1  119.2046538 +1    0.7235670 +1    11     5     4
  C     1.50339571 +1  118.6391327 +1 -178.0481283 +1     3     2     1
  C     1.52172185 +1  111.9348657 +1  124.0672987 +1    14     3     2
  H     1.10103507 +1  112.2890328 +1 -175.5271142 +1    15    14     3
  H     1.10144742 +1  113.2753024 +1   63.0126876 +1    15    14     3
  H     1.10083420 +1  110.5875872 +1  -56.8179760 +1    15    14     3
  N     1.50049913 +1  108.8474816 +1 -115.3156148 +1    14     3     2
  O     1.22034405 +1  118.7583092 +1  122.4285583 +1    19    14     3
  O     1.21964736 +1  118.4772631 +1  -57.3792254 +1    19    14     3
  H     1.13638502 +1  110.7955206 +1    1.7046527 +1    14     3     2
  C     6.90196678 +1  157.8648199 +1  107.1911289 +1     8     2     1
  N     1.36370990 +1  117.7477517 +1  116.3805260 +1    23     8     2
  C     1.47329625 +1  119.7707583 +1   -2.7502166 +1    24    23     8
  C     1.54338984 +1  112.2811021 +1  -14.0446628 +1    25    24    23
  N     1.47899595 +1  111.1318553 +1   49.7951789 +1    26    25    24
  C     1.48418772 +1  110.0180902 +1  -61.4488470 +1    27    26    25
  H     1.07769176 +1  123.4064075 +1  -55.5230988 +1    23     8     2
  H     1.01955552 +1  116.9978176 +1 -147.7965195 +1    24    23     8
  H     1.11438717 +1  110.2006863 +1 -137.2229477 +1    25    24    23
  H     1.11697517 +1  107.6425682 +1  107.0760326 +1    25    24    23
  H     1.11206032 +1  110.4579481 +1  170.5229574 +1    26    25    24
  H     1.11215821 +1  110.6713954 +1  -71.3885748 +1    26    25    24
  H     1.02574363 +1  109.7599726 +1   59.7171338 +1    27    26    25
  H     1.11387892 +1  108.9519847 +1  162.2240305 +1    28    27    26
  H     1.12011354 +1  107.3627367 +1  -83.6700590 +1    28    27    26
  H     2.49815903 +1  134.1226285 +1   61.3315530 +1    22    14     3
  H     1.53173479 +1   90.4417826 +1 -168.8044120 +1    38    22    14
  O     0.95951350 +1   57.5709195 +1 -148.1754710 +1    38    22    14

 TIME=     0.58
  REACTANTS AND PRODUCTS SWAPPED AROUND
 *+*+*+*+*+*+*+*+*+*+*+*+*+*+*+*+*+*+*+*+*+*+*+*+*+*+*+*+*+*+*+*+*+*+*+*+*+*+*+*+
            BAR SHORTENED BY       1.000 PERCENT
 GRADIENT CRITERION IN FLEPO =     9.773


          FOR POINT   15 SECOND STRUCTURE
 DISTANCE A - B      7.467975
 HEAT              -74.311939
 GRADIENT NORM      16.900420
 DIRECTION COSINE   -0.157241
* ===============================
* Input file for Mopac
* ===============================
 PM7 BONDS AUX DUMP=30M ITRY=15000 T=14D CHARGE=0 DOUBLET eps=78.4 RELSCF=1


  C     0.00000000 +0    0.0000000 +0    0.0000000 +0     0     0     0
  C     1.39333613 +1    0.0000000 +0    0.0000000 +0     1     0     0
  C     1.40187995 +1  120.6570866 +1    0.0000000 +0     2     1     0
  C     1.39654299 +1  119.7733038 +1    0.9143355 +1     3     2     1
  C     1.39774846 +1  118.7673753 +1   -0.1524127 +1     4     3     2
  C     1.39245519 +1  120.2340036 +1   -0.9161186 +1     1     2     3
  H     1.09295949 +1  120.0641328 +1  178.3981913 +1     1     2     3
  H     1.09365220 +1  119.7122573 +1 -179.7009148 +1     2     1     3
  H     1.09988666 +1  121.1875726 +1 -178.3910285 +1     4     3     2
  H     1.09527761 +1  120.4521966 +1  179.7420394 +1     6     1     2
  N     1.44047846 +1  118.6127228 +1  179.8056675 +1     5     4     3
  O     1.22495256 +1  119.2396132 +1 -179.6322398 +1    11     5     4
  O     1.22491785 +1  119.6185885 +1    0.4232480 +1    11     5     4
  C     1.45496855 +1  121.3882086 +1 -178.4260779 +1     3     2     1
  C     1.48465332 +1  117.8432693 +1  121.1204220 +1    14     3     2
  H     1.09876195 +1  112.4618996 +1 -172.9011172 +1    15    14     3
  H     1.09896413 +1  110.6760116 +1   67.1353290 +1    15    14     3
  H     1.09859761 +1  111.4520362 +1  -52.2621494 +1    15    14     3
  N     1.33009853 +1  119.5001872 +1  -63.6311741 +1    14     3     2
  O     1.25922046 +1  123.6463185 +1  177.9016030 +1    19    14     3
  O     1.26076068 +1  118.7563349 +1   -1.5954665 +1    19    14     3
  H     2.31100800 +1  104.7323614 +1   21.1806161 +1    14     3     2
  C     5.52881238 +1  138.4570516 +1 -163.1444094 +1    22    14     3
  N     1.35861129 +1  100.9321581 +1   20.6730774 +1    23    22    14
  C     1.46768019 +1  120.1271022 +1    1.0362826 +1    24    23    22
  C     1.53396522 +1  112.7842269 +1  -13.3288709 +1    25    24    23
  N     1.50690346 +1  109.4672339 +1   49.5180236 +1    26    25    24
  C     1.48737618 +1   25.1555658 +1 -177.6209915 +1    23    22    14
  H     1.08157435 +1  139.2927129 +1 -147.3411637 +1    23    22    14
  H     1.01627700 +1  117.9479739 +1 -150.5516773 +1    24    23    22
  H     1.11921936 +1  109.9532639 +1 -135.8268373 +1    25    24    23
  H     1.12016315 +1  107.3296842 +1  108.7922479 +1    25    24    23
  H     1.11822858 +1  110.3598920 +1  170.0526680 +1    26    25    24
  H     1.11621724 +1  111.2044484 +1  -71.3482373 +1    26    25    24
  H     1.04429463 +1  109.9370165 +1   55.5709811 +1    27    26    25
  H     1.12090116 +1  110.7755520 +1 -151.1817164 +1    28    23    22
  H     1.12318737 +1  110.0588060 +1   92.0946334 +1    28    23    22
  H     1.54309849 +1  138.0534433 +1   86.8148587 +1    22    14     3
  H     1.06156417 +1  110.0640841 +1  174.1325420 +1    27    26    25
  O     0.96826517 +1  171.9764967 +1   36.5850156 +1    22    14     3

 TIME=     0.85
  REACTANTS AND PRODUCTS SWAPPED AROUND
 *+*+*+*+*+*+*+*+*+*+*+*+*+*+*+*+*+*+*+*+*+*+*+*+*+*+*+*+*+*+*+*+*+*+*+*+*+*+*+*+
            BAR SHORTENED BY       1.000 PERCENT
 GRADIENT CRITERION IN FLEPO =    10.000


          FOR POINT   16 FIRST  STRUCTURE
 DISTANCE A - B      7.393295
 HEAT              -67.747985
 GRADIENT NORM      17.122497
 DIRECTION COSINE    0.185453
* ===============================
* Input file for Mopac
* ===============================
 PM7 BONDS AUX DUMP=30M ITRY=15000 T=14D CHARGE=0 DOUBLET eps=78.4 RELSCF=1


  C     0.00000000 +0    0.0000000 +0    0.0000000 +0     0     0     0
  C     1.39468823 +1    0.0000000 +0    0.0000000 +0     1     0     0
  C     1.39876965 +1  120.3672015 +1    0.0000000 +0     2     1     0
  C     1.39400058 +1  120.0775260 +1    0.0499657 +1     3     2     1
  C     1.40017040 +1  118.7892129 +1   -0.0514606 +1     4     3     2
  C     1.38846267 +1  120.4395015 +1    0.0664700 +1     1     2     3
  H     1.09320524 +1  120.0021688 +1  179.5201651 +1     1     2     3
  H     1.09774492 +1  119.2626677 +1  179.8939297 +1     2     1     3
  H     1.09683734 +1  120.9715388 +1 -179.8653737 +1     4     3     2
  H     1.09697352 +1  120.5990557 +1 -179.9656565 +1     6     1     2
  N     1.44092293 +1  119.0517477 +1  179.9281167 +1     5     4     3
  O     1.22467781 +1  119.2430016 +1 -179.3250643 +1    11     5     4
  O     1.22570692 +1  119.0761026 +1    0.7435537 +1    11     5     4
  C     1.50374907 +1  118.6969055 +1 -178.1566669 +1     3     2     1
  C     1.52421197 +1  111.7328763 +1  124.2247630 +1    14     3     2
  H     1.09675329 +1  112.1322033 +1 -175.5432791 +1    15    14     3
  H     1.10104804 +1  113.1607326 +1   62.8889171 +1    15    14     3
  H     1.10125356 +1  110.5088958 +1  -56.6826453 +1    15    14     3
  N     1.49336839 +1  108.9363046 +1 -114.8822103 +1    14     3     2
  O     1.21791386 +1  119.0002464 +1  123.0458199 +1    19    14     3
  O     1.21597779 +1  118.2529778 +1  -56.6519934 +1    19    14     3
  H     1.14008190 +1  110.4790003 +1    2.3760929 +1    14     3     2
  C     6.89709340 +1  163.5208962 +1   81.2044679 +1    22    14     3
  N     1.36734142 +1  103.4258596 +1  132.6544414 +1    23    22    14
  C     1.47281608 +1  119.6888897 +1   10.7371830 +1    24    23    22
  C     1.54603230 +1  112.1682451 +1  -13.9818542 +1    25    24    23
  N     1.47851747 +1  111.2031799 +1   49.8161806 +1    26    25    24
  C     1.48512110 +1   27.3713869 +1  -86.1333666 +1    23    22    14
  H     1.07947278 +1  133.8483976 +1  -21.2780131 +1    23    22    14
  H     1.01866386 +1  117.0792906 +1 -134.2912347 +1    24    23    22
  H     1.11012965 +1  110.2458172 +1 -137.1794372 +1    25    24    23
  H     1.11479587 +1  107.5656016 +1  106.8319166 +1    25    24    23
  H     1.11144314 +1  110.3462721 +1  170.5203218 +1    26    25    24
  H     1.11213021 +1  110.6948842 +1  -71.4876080 +1    26    25    24
  H     1.02904732 +1  109.6737819 +1   59.5409938 +1    27    26    25
  H     1.11726012 +1  110.3668045 +1 -173.0070342 +1    28    23    22
  H     1.11993876 +1  109.1825563 +1   70.8726363 +1    28    23    22
  H     2.48778102 +1  134.7054623 +1   61.4391223 +1    22    14     3
  H     1.53811396 +1   90.1544276 +1 -169.3794252 +1    38    22    14
  O     0.96153715 +1   57.5882760 +1 -148.8621310 +1    38    22    14

 TIME=     0.78
  REACTANTS AND PRODUCTS SWAPPED AROUND
 *+*+*+*+*+*+*+*+*+*+*+*+*+*+*+*+*+*+*+*+*+*+*+*+*+*+*+*+*+*+*+*+*+*+*+*+*+*+*+*+
            BAR SHORTENED BY       1.000 PERCENT
 GRADIENT CRITERION IN FLEPO =    10.000


          FOR POINT   17 SECOND STRUCTURE
 DISTANCE A - B      7.319362
 HEAT              -74.501671
 GRADIENT NORM      20.565385
 DIRECTION COSINE    0.153436
* ===============================
* Input file for Mopac
* ===============================
 PM7 BONDS AUX DUMP=30M ITRY=15000 T=14D CHARGE=0 DOUBLET eps=78.4 RELSCF=1


  C     0.00000000 +0    0.0000000 +0    0.0000000 +0     0     0     0
  C     1.39535468 +1    0.0000000 +0    0.0000000 +0     1     0     0
  C     1.40023763 +1  120.7266356 +1    0.0000000 +0     2     1     0
  C     1.39705716 +1  119.6259943 +1    0.1171384 +1     3     2     1
  C     1.40256380 +1  118.9478561 +1    0.1701223 +1     4     3     2
  C     1.39555224 +1  120.3525926 +1   -0.2792739 +1     1     2     3
  H     1.09519855 +1  119.9287751 +1  178.9525737 +1     1     2     3
  H     1.09054222 +1  119.5158052 +1 -179.6181755 +1     2     1     3
  H     1.09497366 +1  120.3353164 +1 -179.2043369 +1     4     3     2
  H     1.09083536 +1  120.3830003 +1 -179.6335717 +1     6     1     2
  N     1.44139261 +1  118.6325624 +1  178.7813413 +1     5     4     3
  O     1.22417390 +1  119.0766649 +1 -178.9571228 +1    11     5     4
  O     1.22575797 +1  119.0601945 +1    1.1660238 +1    11     5     4
  C     1.45798637 +1  121.3935766 +1 -178.0709455 +1     3     2     1
  C     1.48451489 +1  117.9786545 +1  120.5765009 +1    14     3     2
  H     1.10054941 +1  112.4797599 +1 -171.7409027 +1    15    14     3
  H     1.10057047 +1  110.4145690 +1   67.4771250 +1    15    14     3
  H     1.10440614 +1  111.5759758 +1  -52.2765329 +1    15    14     3
  N     1.33414064 +1  119.1114299 +1  -64.4964137 +1    14     3     2
  O     1.26049809 +1  123.2310974 +1  177.9438869 +1    19    14     3
  O     1.26208508 +1  118.7041808 +1   -1.7986367 +1    19    14     3
  H     2.30930035 +1  104.9103295 +1   19.9771728 +1    14     3     2
  C     5.52529466 +1  139.2895685 +1 -163.5595126 +1    22    14     3
  N     1.35725849 +1  100.9246738 +1   21.6721973 +1    23    22    14
  C     1.47422980 +1  120.1577418 +1    0.9806888 +1    24    23    22
  C     1.53480906 +1  112.7569126 +1  -13.3481244 +1    25    24    23
  N     1.50758935 +1  109.3661960 +1   49.4815849 +1    26    25    24
  C     1.48303012 +1   24.9861199 +1 -176.5388491 +1    23    22    14
  H     1.08204152 +1  139.5177187 +1 -146.2223935 +1    23    22    14
  H     1.01689089 +1  118.4238174 +1 -150.3257385 +1    24    23    22
  H     1.11834880 +1  110.2595510 +1 -136.0435056 +1    25    24    23
  H     1.12083967 +1  107.4182003 +1  108.8057339 +1    25    24    23
  H     1.11910112 +1  110.4811730 +1  169.8809154 +1    26    25    24
  H     1.11464878 +1  111.2482270 +1  -71.2855893 +1    26    25    24
  H     1.04538789 +1  109.9649633 +1   55.5227958 +1    27    26    25
  H     1.12225318 +1  110.6724390 +1 -150.8524998 +1    28    23    22
  H     1.12054779 +1  110.0754306 +1   92.6817225 +1    28    23    22
  H     1.53916522 +1  136.8741765 +1   86.9981359 +1    22    14     3
  H     1.06147759 +1  110.0424534 +1  174.2130515 +1    27    26    25
  O     0.96578016 +1   37.2809972 +1 -168.8827274 +1    38    22    14

 *+*+*+*+*+*+*+*+*+*+*+*+*+*+*+*+*+*+*+*+*+*+*+*+*+*+*+*+*+*+*+*+*+*+*+*+*+*+*+*+
            BAR SHORTENED BY       1.000 PERCENT
 GRADIENT CRITERION IN FLEPO =    10.000


          FOR POINT   18 SECOND STRUCTURE
 DISTANCE A - B      7.246169
 HEAT              -74.462291
 GRADIENT NORM      20.810971
 DIRECTION COSINE    0.285205
* ===============================
* Input file for Mopac
* ===============================
 PM7 BONDS AUX DUMP=30M ITRY=15000 T=14D CHARGE=0 DOUBLET eps=78.4 RELSCF=1


  C     0.00000000 +0    0.0000000 +0    0.0000000 +0     0     0     0
  C     1.39350886 +1    0.0000000 +0    0.0000000 +0     1     0     0
  C     1.40247744 +1  120.6880046 +1    0.0000000 +0     2     1     0
  C     1.39539598 +1  119.6743336 +1   -0.0678929 +1     3     2     1
  C     1.39604125 +1  118.9069189 +1    0.6066624 +1     4     3     2
  C     1.39316698 +1  120.1594994 +1   -0.4091382 +1     1     2     3
  H     1.09229143 +1  119.9158253 +1  179.0074093 +1     1     2     3
  H     1.09257024 +1  119.6796997 +1 -179.7679189 +1     2     1     3
  H     1.09358634 +1  120.2467588 +1 -179.2233876 +1     4     3     2
  H     1.09507040 +1  120.2788903 +1 -179.7502266 +1     6     1     2
  N     1.43634986 +1  118.7406072 +1  179.0577203 +1     5     4     3
  O     1.22606619 +1  119.5096909 +1 -178.8129369 +1    11     5     4
  O     1.23049456 +1  119.3018320 +1    0.3583106 +1    11     5     4
  C     1.45833675 +1  121.3337331 +1 -177.9729044 +1     3     2     1
  C     1.48305228 +1  118.0059643 +1  120.2716540 +1    14     3     2
  H     1.09883655 +1  112.5772949 +1 -172.0140410 +1    15    14     3
  H     1.10333046 +1  110.5901254 +1   67.6604403 +1    15    14     3
  H     1.10143337 +1  111.6390813 +1  -51.7889296 +1    15    14     3
  N     1.33095448 +1  119.0990592 +1  -64.8633957 +1    14     3     2
  O     1.25751632 +1  123.5708514 +1  177.6646668 +1    19    14     3
  O     1.26052558 +1  118.4972778 +1   -2.1804326 +1    19    14     3
  H     2.30384699 +1  104.9148100 +1   19.7085844 +1    14     3     2
  C     5.52858498 +1  139.7767628 +1 -163.6513573 +1    22    14     3
  N     1.35758010 +1  100.7645173 +1   21.7622379 +1    23    22    14
  C     1.46779440 +1  120.4335842 +1    1.2096676 +1    24    23    22
  C     1.53382630 +1  112.6561008 +1  -13.5178593 +1    25    24    23
  N     1.50726330 +1  109.4842131 +1   49.5814112 +1    26    25    24
  C     1.48799592 +1   25.0854461 +1 -176.4685796 +1    23    22    14
  H     1.08165671 +1  139.4425585 +1 -145.9276104 +1    23    22    14
  H     1.01886236 +1  118.0947594 +1 -150.2733683 +1    24    23    22
  H     1.11631084 +1  110.4364938 +1 -136.2038781 +1    25    24    23
  H     1.11871671 +1  107.5843052 +1  108.5470767 +1    25    24    23
  H     1.11952135 +1  110.4461534 +1  170.0341479 +1    26    25    24
  H     1.11601110 +1  111.1438716 +1  -71.3968215 +1    26    25    24
  H     1.04628768 +1  110.0258291 +1   55.6843982 +1    27    26    25
  H     1.11850278 +1  110.6141143 +1 -150.8220832 +1    28    23    22
  H     1.11995913 +1  110.0175303 +1   92.3045109 +1    28    23    22
  H     1.54188035 +1  136.7591681 +1   86.9227763 +1    22    14     3
  H     1.06208649 +1  110.1291525 +1  174.3500220 +1    27    26    25
  O     0.96982963 +1   37.4652667 +1 -168.5589956 +1    38    22    14

 *+*+*+*+*+*+*+*+*+*+*+*+*+*+*+*+*+*+*+*+*+*+*+*+*+*+*+*+*+*+*+*+*+*+*+*+*+*+*+*+
            BAR SHORTENED BY       1.000 PERCENT
 GRADIENT CRITERION IN FLEPO =    10.000
 

                    SINCE COS WAS JUST RESET,THE SEARCH IS BEING ENDED


          FOR POINT   19 SECOND STRUCTURE
 DISTANCE A - B      7.173707
 HEAT              -74.716938
 GRADIENT NORM      25.640589
 DIRECTION COSINE    0.285452
* ===============================
* Input file for Mopac
* ===============================
 PM7 BONDS AUX DUMP=30M ITRY=15000 T=14D CHARGE=0 DOUBLET eps=78.4 RELSCF=1


  C     0.00000000 +0    0.0000000 +0    0.0000000 +0     0     0     0
  C     1.39363202 +1    0.0000000 +0    0.0000000 +0     1     0     0
  C     1.40090425 +1  120.7100268 +1    0.0000000 +0     2     1     0
  C     1.39620348 +1  119.5223952 +1    0.8564805 +1     3     2     1
  C     1.39617420 +1  119.1912367 +1    0.0000000 +1     4     3     2
  C     1.39407419 +1  120.2407477 +1   -1.1303105 +1     1     2     3
  H     1.08974001 +1  120.0663167 +1  179.0474103 +1     1     2     3
  H     1.09080684 +1  119.2861018 +1 -179.5868985 +1     2     1     3
  H     1.09426183 +1  119.8821353 +1 -179.8026817 +1     4     3     2
  H     1.09353929 +1  120.2894333 +1 -179.7829879 +1     6     1     2
  N     1.44146167 +1  118.6055032 +1  179.3656285 +1     5     4     3
  O     1.22482559 +1  119.1331222 +1 -179.5284486 +1    11     5     4
  O     1.22503592 +1  119.2870398 +1    0.5957988 +1    11     5     4
  C     1.45987221 +1  121.5283549 +1 -178.1289762 +1     3     2     1
  C     1.48270366 +1  117.9075914 +1  120.1943535 +1    14     3     2
  H     1.09872420 +1  112.6488306 +1 -171.1776925 +1    15    14     3
  H     1.10417362 +1  110.6269674 +1   68.1694568 +1    15    14     3
  H     1.10007135 +1  111.7660100 +1  -50.8346857 +1    15    14     3
  N     1.33256596 +1  119.0523987 +1  -64.8284191 +1    14     3     2
  O     1.25895308 +1  123.3991169 +1  176.8936460 +1    19    14     3
  O     1.26327386 +1  118.9495646 +1   -2.4538382 +1    19    14     3
  H     2.29477129 +1  103.9987451 +1   19.6247754 +1    14     3     2
  C     5.54793045 +1  139.6262167 +1 -164.9704609 +1    22    14     3
  N     1.35745090 +1  101.0787672 +1   23.3613945 +1    23    22    14
  C     1.46893983 +1  120.7765368 +1    1.4791532 +1    24    23    22
  C     1.55191606 +1  111.8796232 +1  -14.3148277 +1    25    24    23
  N     1.50695632 +1  109.2076455 +1   50.2447000 +1    26    25    24
  C     1.48470243 +1   24.8846171 +1 -174.8625857 +1    23    22    14
  H     1.08144710 +1  139.3072547 +1 -144.6400786 +1    23    22    14
  H     1.01834269 +1  118.1344564 +1 -150.1749945 +1    24    23    22
  H     1.12213124 +1  110.1367017 +1 -135.0714870 +1    25    24    23
  H     1.10254294 +1  108.4208285 +1  107.5737041 +1    25    24    23
  H     1.11919887 +1  110.2840558 +1  170.3820443 +1    26    25    24
  H     1.11538126 +1  111.6579851 +1  -70.8427734 +1    26    25    24
  H     1.04579197 +1  109.9495927 +1   55.4118118 +1    27    26    25
  H     1.11962387 +1  110.5734742 +1 -150.5850960 +1    28    23    22
  H     1.12039271 +1  110.1266599 +1   92.7104359 +1    28    23    22
  H     1.55052768 +1  135.9263872 +1   89.1191259 +1    22    14     3
  H     1.05939969 +1  110.1576988 +1  173.6991784 +1    27    26    25
  O     0.96963413 +1   36.9679085 +1 -171.4548869 +1    38    22    14

 TIME=     5.37
  REACTANTS AND PRODUCTS SWAPPED AROUND
 *+*+*+*+*+*+*+*+*+*+*+*+*+*+*+*+*+*+*+*+*+*+*+*+*+*+*+*+*+*+*+*+*+*+*+*+*+*+*+*+
            BAR SHORTENED BY       0.000 PERCENT
 GRADIENT CRITERION IN FLEPO =    10.000


          FOR POINT   20 FIRST  STRUCTURE
 DISTANCE A - B      7.173707
 HEAT              -67.672313
 GRADIENT NORM      15.397055
 DIRECTION COSINE   -0.207905
* ===============================
* Input file for Mopac
[...]
    106         36  H    CARTESIAN X     5.305270      0.117322  KCAL/ANGSTROM
    107         36  H    CARTESIAN Y    -3.693614     -0.249768  KCAL/ANGSTROM
    108         36  H    CARTESIAN Z    -4.163253     -0.254122  KCAL/ANGSTROM
    109         37  H    CARTESIAN X     4.800252      0.076865  KCAL/ANGSTROM
    110         37  H    CARTESIAN Y    -4.858622     -0.150400  KCAL/ANGSTROM
    111         37  H    CARTESIAN Z    -2.899565     -0.176984  KCAL/ANGSTROM
    112         38  H    CARTESIAN X     2.349338     -0.622221  KCAL/ANGSTROM
    113         38  H    CARTESIAN Y    -3.463786     -0.150682  KCAL/ANGSTROM
    114         38  H    CARTESIAN Z    -1.965533     -1.470207  KCAL/ANGSTROM
    115         39  H    CARTESIAN X     2.688241     -0.607238  KCAL/ANGSTROM
    116         39  H    CARTESIAN Y    -4.095202      0.399737  KCAL/ANGSTROM
    117         39  H    CARTESIAN Z    -3.696411      0.636778  KCAL/ANGSTROM
    118         40  O    CARTESIAN X     1.801420      1.069102  KCAL/ANGSTROM
    119         40  O    CARTESIAN Y    -3.404348     -0.655551  KCAL/ANGSTROM
    120         40  O    CARTESIAN Z    -2.723521      0.358169  KCAL/ANGSTROM




   ATOM   CHEMICAL          X               Y               Z
  NUMBER   SYMBOL      (ANGSTROMS)     (ANGSTROMS)     (ANGSTROMS)

     1       C          1.18306085  *   0.66432619  *  -0.88483719  *
     2       C          0.91428758  *  -0.62604848  *  -1.33472123  *
     3       C         -0.19332490  *  -1.33353430  *  -0.85392699  *
     4       C         -1.04106127  *  -0.73104988  *   0.08286060  *
     5       C         -0.75727196  *   0.56600371  *   0.52437172  *
     6       C          0.35423585  *   1.27471095  *   0.04879291  *
     7       H          2.05366531  *   1.20064710  *  -1.26821426  *
     8       H          1.57497642  *  -1.09421401  *  -2.07394304  *
     9       H         -1.91714680  *  -1.26857355  *   0.46379061  *
    10       H          0.56924858  *   2.28697482  *   0.40307292  *
    11       N         -1.60807899  *   1.20894935  *   1.49681625  *
    12       O         -1.33223280  *   2.34271159  *   1.87198753  *
    13       O         -2.58349295  *   0.61281641  *   1.93339413  *
    14       C         -0.43331781  *  -2.71311619  *  -1.35260432  *
    15       C         -0.40969414  *  -3.76461209  *  -0.26762742  *
    16       H         -0.50429790  *  -4.78194850  *  -0.67295016  *
    17       H         -1.22662262  *  -3.62492976  *   0.45733593  *
    18       H          0.53247512  *  -3.73291737  *   0.29442855  *
    19       N         -1.55946541  *  -2.81135384  *  -2.21129184  *
    20       O         -1.96830005  *  -3.91301871  *  -2.58833108  *
    21       O         -2.11304699  *  -1.78980612  *  -2.63263355  *
    22       H          0.67539324  *  -3.09871175  *  -2.17584928  *
    23       C          5.61041202  *  -5.75342265  *  -4.66367224  *
    24       N          5.14375878  *  -6.58917376  *  -5.62915010  *
    25       C          3.71172183  *  -6.58149616  *  -5.94882447  *
    26       C          2.86447000  *  -5.94540303  *  -4.83489283  *
    27       N          3.37828369  *  -4.57841533  *  -4.48114923  *
    28       C          4.80892314  *  -4.68504415  *  -4.00533739  *
    29       H          6.63924907  *  -5.86518376  *  -4.34567901  *
    30       H          5.61734186  *  -7.48318592  *  -5.76027163  *
    31       H          3.35594493  *  -7.62308759  *  -6.14219522  *
    32       H          3.57540473  *  -6.03256269  *  -6.91414196  *
    33       H          1.80359972  *  -5.85598469  *  -5.16845372  *
    34       H          2.86813163  *  -6.58301980  *  -3.92290508  *
    35       H          3.34508884  *  -3.96744263  *  -5.32191072  *
    36       H          5.30526976  *  -3.69361359  *  -4.16325270  *
    37       H          4.80025180  *  -4.85862221  *  -2.89956477  *
    38       H          2.34933843  *  -3.46378618  *  -1.96553348  *
    39       H          2.68824124  *  -4.09520181  *  -3.69641107  *
    40       O          1.80141987  *  -3.40434802  *  -2.72352061  *

                             CARTESIAN COORDINATES

   1    C        1.183060851     0.664326185    -0.884837189
   2    C        0.914287575    -0.626048478    -1.334721227
   3    C       -0.193324902    -1.333534296    -0.853926985
   4    C       -1.041061269    -0.731049879     0.082860600
   5    C       -0.757271962     0.566003715     0.524371717
   6    C        0.354235847     1.274710950     0.048792908
   7    H        2.053665310     1.200647101    -1.268214260
   8    H        1.574976423    -1.094214012    -2.073943040
   9    H       -1.917146799    -1.268573552     0.463790607
  10    H        0.569248577     2.286974821     0.403072921
  11    N       -1.608078993     1.208949354     1.496816252
  12    O       -1.332232798     2.342711587     1.871987529
  13    O       -2.583492946     0.612816410     1.933394130
  14    C       -0.433317806    -2.713116194    -1.352604318
  15    C       -0.409694141    -3.764612089    -0.267627416
  16    H       -0.504297895    -4.781948502    -0.672950155
  17    H       -1.226622618    -3.624929758     0.457335935
  18    H        0.532475117    -3.732917371     0.294428545
  19    N       -1.559465408    -2.811353841    -2.211291836
  20    O       -1.968300045    -3.913018707    -2.588331075
  21    O       -2.113046990    -1.789806123    -2.632633550
  22    H        0.675393243    -3.098711747    -2.175849283
  23    C        5.610412024    -5.753422650    -4.663672241
  24    N        5.143758781    -6.589173759    -5.629150103
  25    C        3.711721826    -6.581496155    -5.948824470
  26    C        2.864469997    -5.945403034    -4.834892827
  27    N        3.378283687    -4.578415334    -4.481149229
  28    C        4.808923138    -4.685044146    -4.005337386
  29    H        6.639249074    -5.865183763    -4.345679014
  30    H        5.617341861    -7.483185923    -5.760271628
  31    H        3.355944925    -7.623087592    -6.142195217
  32    H        3.575404731    -6.032562687    -6.914141957
  33    H        1.803599720    -5.855984687    -5.168453721
  34    H        2.868131628    -6.583019799    -3.922905079
  35    H        3.345088835    -3.967442630    -5.321910721
  36    H        5.305269762    -3.693613586    -4.163252701
  37    H        4.800251802    -4.858622214    -2.899564769
  38    H        2.349338433    -3.463786182    -1.965533479
  39    H        2.688241237    -4.095201807    -3.696411074
  40    O        1.801419869    -3.404348022    -2.723520609


           Empirical Formula: C12 H19 N4 O5  =    40 atoms



      MOLECULAR POINT GROUP   :   C1  


          ALPHA EIGENVALUES  
 -37.93715 -37.45311 -36.69494 -36.15784 -31.36251 -30.78309 -29.73420 -28.70540
 -27.52532 -26.89674 -26.63931 -25.91570 -25.35665 -24.71442 -24.59777 -22.73740
 -22.08542 -21.36484 -20.25987 -20.13272 -19.12812 -19.07356 -18.31278 -17.82980
 -17.68075 -17.58790 -17.32801 -16.89937 -16.87419 -16.70966 -16.59968 -15.83610
 -15.79916 -15.23065 -15.04666 -14.75770 -14.60410 -14.12535 -13.96758 -13.69938
 -13.59548 -13.43066 -13.31747 -13.02739 -12.79439 -12.37800 -12.31113 -11.93361
 -11.82482 -11.67341 -11.58023 -11.57989 -11.42044 -11.40146 -11.30060 -10.59200
 -10.27115  -9.50939  -7.94770  -1.38416  -0.41696   0.06013   0.28945   0.49754
   1.20032   1.30900   1.98428   2.34848   2.95415   3.08096   3.14117   3.47771
   3.60675   3.68717   4.02226   4.16565   4.23530   4.34403   4.42815   4.49762
   4.52189   4.75207   4.75830   4.87722   4.97701   5.01195   5.08468   5.10554
   5.24857   5.43192   5.48450   5.49546   5.61654   5.67546   5.73958   5.75534
   5.82594   5.91082   6.02724   6.06745   6.55305   6.86425   6.92143


           BETA EIGENVALUES 
 -37.84797 -37.45310 -36.69493 -35.75009 -31.36252 -30.78307 -29.73440 -28.70540
 -27.52532 -26.84304 -26.63069 -25.91517 -25.23139 -24.71431 -24.59767 -22.64369
 -22.08542 -21.36483 -20.25689 -20.00894 -19.10996 -19.00164 -18.30999 -17.80822
 -17.65827 -17.58786 -17.29322 -16.87639 -16.82073 -16.65266 -16.51800 -15.79963
 -15.67108 -15.22866 -15.04651 -14.60093 -14.49866 -14.11993 -13.87454 -13.68651
 -13.56772 -13.39843 -13.23331 -13.02739 -12.73175 -12.37795 -12.25633 -11.93358
 -11.82478 -11.67309 -11.58057 -11.41849 -11.40151 -11.30022 -10.59198 -10.33697
 -10.27114  -9.50817  -1.38427  -0.41696   0.06003   0.28948   0.49756   0.95356
   1.24641   1.30904   1.98429   2.60686   2.96399   3.08098   3.19006   3.48428
   3.66353   3.77815   4.07562   4.16748   4.23942   4.35004   4.43711   4.50894
   4.53556   4.75207   4.84508   4.97730   5.02460   5.08392   5.09649   5.11014
   5.26142   5.44631   5.48563   5.52987   5.61656   5.73883   5.75431   5.75595
   5.82600   5.91114   6.03033   6.32274   6.81013   6.86428   6.92161


              NET ATOMIC CHARGES AND DIPOLE CONTRIBUTIONS

  ATOM NO.   TYPE          CHARGE      No. of ELECS.   s-Pop       p-Pop       
    1          C          -0.174484        4.1745     1.08499     3.08950
    2          C          -0.091737        4.0917     1.10283     2.98891
    3          C           0.002393        3.9976     1.06545     2.93216
    4          C          -0.080395        4.0804     1.09607     2.98432
    5          C          -0.089226        4.0892     1.06829     3.02093
    6          C          -0.075698        4.0757     1.09421     2.98149
    7          H           0.176408        0.8236     0.82359
    8          H           0.179444        0.8206     0.82056
    9          H           0.196975        0.8030     0.80303
   10          H           0.191513        0.8085     0.80849
   11          N           0.677445        4.3226     1.44736     2.87520
   12          O          -0.466952        6.4670     1.94110     4.52586
   13          O          -0.459376        6.4594     1.94045     4.51893
   14          C          -0.320373        4.3204     1.10933     3.21104
   15          C          -0.423254        4.4233     1.04969     3.37356
   16          H           0.161760        0.8382     0.83824
   17          H           0.160653        0.8393     0.83935
   18          H           0.163482        0.8365     0.83652
   19          N           0.702486        4.2975     1.45222     2.84529
   20          O          -0.548153        6.5482     1.94112     4.60703
   21          O          -0.557341        6.5573     1.94131     4.61603
   22          H           0.429825        0.5702     0.57018
   23          C          -0.273512        4.2735     1.06492     3.20859
   24          N          -0.414626        5.4146     1.54940     3.86522
   25          C          -0.133131        4.1331     1.07375     3.05938
   26          C          -0.187066        4.1871     1.08712     3.09995
   27          N          -0.252854        5.2529     1.54126     3.71159
   28          C          -0.147021        4.1470     1.07530     3.07172
   29          H           0.173430        0.8266     0.82657
   30          H           0.325413        0.6746     0.67459
   31          H           0.175051        0.8249     0.82495
   32          H           0.170514        0.8295     0.82949
   33          H           0.194635        0.8054     0.80537
   34          H           0.186386        0.8136     0.81361
   35          H           0.315361        0.6846     0.68464
   36          H           0.182942        0.8171     0.81706
   37          H           0.184485        0.8155     0.81552
   38          H           0.350253        0.6497     0.64975
   39          H           0.399055        0.6009     0.60094
   40          O          -1.004710        7.0047     1.85544     5.14927
 DIPOLE           X         Y         Z       TOTAL
 POINT-CHG.    20.663   -11.828    -9.581    25.665
 HYBRID        -1.118     0.144     0.599     1.276
 SUM           19.545   -11.684    -8.982    24.479


          ATOMIC ORBITAL ELECTRON POPULATIONS

     Atom    s        px        py        pz   
    1  C   1.08499   1.06501   1.01365   1.01084
    2  C   1.10283   1.00400   0.98859   0.99631
    3  C   1.06545   0.98156   0.96915   0.98145
    4  C   1.09607   1.04643   0.97221   0.96568
    5  C   1.06829   1.00000   1.00337   1.01755
    6  C   1.09421   0.94852   1.07101   0.96196
    7  H   0.82359
    8  H   0.82056
    9  H   0.80303
   10  H   0.80849
   11  N   1.44736   0.95970   0.95790   0.95759
   12  O   1.94110   1.76849   1.09547   1.66190
   13  O   1.94045   1.24308   1.64666   1.62919
   14  C   1.10933   1.09691   1.00279   1.11134
   15  C   1.04969   1.19088   1.09880   1.08388
   16  H   0.83824
   17  H   0.83935
   18  H   0.83652
   19  N   1.45222   0.95599   0.93414   0.95515
   20  O   1.94112   1.72657   1.20246   1.67800
   21  O   1.94131   1.64235   1.30222   1.67147
   22  H   0.57018
   23  C   1.06492   1.07121   1.06355   1.07383
   24  N   1.54940   1.15697   1.28386   1.42439
   25  C   1.07375   0.83906   1.16243   1.05789
   26  C   1.08712   1.09588   0.88946   1.11460
   27  N   1.54126   1.19811   1.19136   1.32213
   28  C   1.07530   0.83604   1.11954   1.11614
   29  H   0.82657
   30  H   0.67459
   31  H   0.82495
   32  H   0.82949
   33  H   0.80537
   34  H   0.81361
   35  H   0.68464
   36  H   0.81706
   37  H   0.81552
   38  H   0.64975
   39  H   0.60094
   40  O   1.85544   1.62807   1.96382   1.55738


                    (SZ)    =    0.500000
                    (S**2)  =    0.752436


          ATOMIC ORBITAL SPIN POPULATIONS

    Atom   Total    s     px     py     pz   
         Atomic
    1  C  0.0001  0.000  0.000  0.000  0.000
    2  C -0.0001 -0.000 -0.000 -0.000 -0.000
    3  C  0.0001  0.000  0.000  0.000  0.000
    4  C -0.0001 -0.000 -0.000 -0.000 -0.000
    5  C  0.0001  0.000  0.000  0.000  0.000
    6  C -0.0001 -0.000 -0.000 -0.000 -0.000
    7  H -0.0000 -0.000
    8  H  0.0000  0.000
    9  H  0.0000  0.000
   10  H  0.0000  0.000
   11  N -0.0000 -0.000 -0.000  0.000 -0.000
   12  O  0.0000  0.000  0.000  0.000  0.000
   13  O  0.0000 -0.000  0.000  0.000 -0.000
   14  C -0.0000  0.000  0.000 -0.000 -0.000
   15  C  0.0000  0.000  0.000  0.000  0.000
   16  H -0.0000 -0.000
   17  H  0.0000  0.000
   18  H -0.0000 -0.000
   19  N  0.0000  0.000  0.000  0.000 -0.000
   20  O -0.0001 -0.000 -0.000 -0.000 -0.000
   21  O -0.0001 -0.000  0.000 -0.000 -0.000
   22  H  0.0000  0.000
   23  C  0.7305  0.018  0.062  0.260  0.391
   24  N  0.2794  0.026  0.028  0.070  0.156
   25  C -0.0084  0.000 -0.003 -0.001 -0.005
   26  C  0.0041  0.000  0.002  0.000  0.002
   27  N  0.0012  0.000  0.001  0.000  0.000
   28  C -0.0325 -0.005 -0.003 -0.015 -0.010
   29  H -0.0209 -0.021
   30  H  0.0051  0.005
   31  H  0.0031  0.003
   32  H  0.0061  0.006
   33  H -0.0001 -0.000
   34  H -0.0003 -0.000
   35  H  0.0003  0.000
   36  H  0.0151  0.015
   37  H  0.0178  0.018
   38  H -0.0000 -0.000
   39  H -0.0004 -0.000
   40  O -0.0000 -0.000  0.000 -0.000  0.000

          BONDING CONTRIBUTION OF EACH ALPHA M.O.

  0.7146  0.6733  0.6766  0.6634  0.9420  0.4994  0.4920  0.8224  0.7377  0.9420
  0.5559  0.7844  0.9058  0.6823  0.6460  0.9754  0.8538  0.7486  0.7140  0.9137
  0.8663  0.8763  0.6406  0.7215  0.6880  0.7609  0.8272  0.9813  0.8918  0.9036
  0.9183  0.8755  0.9367  0.6940  0.9487  0.7979  0.7810  0.8976  0.9823  0.8911
  0.8775  0.9537  0.9322  0.9282  0.9194  0.9708  0.8437  0.4230  0.1456  0.3370
  0.3703  0.4405  0.0613  0.1725  0.3156  0.9496  0.9998  0.5362  0.1387 -1.0855
 -0.9705 -1.1777 -1.0962 -1.0588 -0.9564 -1.0479 -0.9933 -0.9496 -0.9365 -0.9791
 -0.9949 -0.9665 -0.9682 -0.9842 -0.9606 -1.0226 -0.9735 -0.9831 -0.9708 -0.9573
 -0.9656 -0.9860 -0.9555 -0.9441 -0.9926 -0.9770 -0.9813 -0.9849 -0.9411 -0.9717
 -0.9766 -0.9629 -0.9768 -0.9640 -0.9781 -0.9827 -0.9779 -0.9717 -0.9152 -0.9687
 -0.9184 -0.9412 -0.8720

          BONDING CONTRIBUTION OF EACH BETA  M.O.

  0.7195  0.6733  0.6766  0.6947  0.9420  0.4994  0.4920  0.8224  0.7377  0.9295
  0.5717  0.7835  0.9181  0.6825  0.6461  0.9804  0.8538  0.7486  0.7052  0.9366
  0.7870  0.9603  0.6393  0.6905  0.7156  0.7613  0.8403  0.8747  1.0026  0.9231
  0.9593  0.9369  0.9541  0.6944  0.9482  0.7855  0.9731  0.8990  0.9902  0.8965
  0.8751  0.9349  0.9769  0.9282  0.9378  0.9704  0.8562  0.4230  0.1457  0.3378
  0.3690  0.0655  0.1722  0.3158  0.9496  0.8672  0.9998  0.5364 -1.0855 -0.9705
 -1.1777 -1.0962 -1.0588 -0.8454 -0.9460 -1.0478 -0.9934 -0.9483 -0.9347 -0.9791
 -0.9875 -0.9689 -0.9786 -0.9530 -0.9754 -1.0227 -0.9739 -0.9841 -0.9729 -0.9713
 -0.9413 -0.9860 -0.9557 -0.9931 -0.9724 -0.9698 -0.9544 -0.9717 -0.9373 -0.9679
 -0.9761 -0.9537 -0.9768 -0.9764 -0.9651 -0.9741 -0.9779 -0.9719 -0.9124 -0.9799
 -0.9077 -0.9413 -0.8721





            (VALENCIES)   BOND ORDERS

     1  C     (3.969)     6  C 1.463     2  C 1.428     7  H 0.956     4  C 0.101

     2  C     (3.958)     1  C 1.428     3  C 1.413     8  H 0.952     5  C 0.104

     3  C     (3.993)     4  C 1.436     2  C 1.413    14  C 0.999     6  C 0.103

     4  C     (3.953)     3  C 1.436     5  C 1.385     9  H 0.946     1  C 0.101    12  O 0.019    13  O 0.012
                          6  C 0.010

     5  C     (3.929)     4  C 1.385     6  C 1.373    11  N 0.909     2  C 0.104    13  O 0.068    12  O 0.068

     6  C     (3.955)     1  C 1.463     5  C 1.373    10  H 0.949     3  C 0.103    13  O 0.019    12  O 0.011
                          4  C 0.010

     7  H     (0.969)     1  C 0.956

     8  H     (0.968)     2  C 0.952

     9  H     (0.961)     4  C 0.946

    10  H     (0.963)     6  C 0.949

    11  N     (3.782)    13  O 1.423    12  O 1.417     5  C 0.909

    12  O     (1.809)    11  N 1.417    13  O 0.284     5  C 0.068     4  C 0.019     6  C 0.011

    13  O     (1.816)    11  N 1.423    12  O 0.284     5  C 0.068     6  C 0.019     4  C 0.012

    14  C     (3.670)     3  C 0.999    15  C 0.982    19  N 0.980    22  H 0.426    21  O 0.092    20  O 0.090
                         40  O 0.058

    15  C     (3.915)    14  C 0.982    17  H 0.965    16  H 0.964    18  H 0.961    21  O 0.012

    16  H     (0.974)    15  C 0.964

    17  H     (0.974)    15  C 0.965

    18  H     (0.973)    15  C 0.961

    19  N     (3.767)    20  O 1.370    21  O 1.362    14  C 0.980    22  H 0.012    40  O 0.010

    20  O     (1.734)    19  N 1.370    21  O 0.240    14  C 0.090

    21  O     (1.726)    19  N 1.362    20  O 0.240    14  C 0.092    15  C 0.012

    22  H     (0.815)    14  C 0.426    40  O 0.345    19  N 0.012

    23  C     (3.845)    24  N 1.151    28  C 1.012    29  H 0.950    25  C 0.018

    24  N     (3.227)    23  C 1.151    25  C 0.934    30  H 0.846

    25  C     (3.904)    26  C 0.999    31  H 0.954    32  H 0.952    24  N 0.934    23  C 0.018    30  H 0.012
                         29  H 0.011

    26  C     (3.885)    25  C 0.999    34  H 0.954    33  H 0.948    27  N 0.935    28  C 0.010

    27  N     (3.495)    26  C 0.935    28  C 0.929    35  H 0.876    39  H 0.676    40  O 0.040

    28  C     (3.889)    23  C 1.012    37  H 0.946    36  H 0.946    27  N 0.929    26  C 0.010

    29  H     (0.970)    23  C 0.950    25  C 0.011

    30  H     (0.894)    24  N 0.846    25  C 0.012

    31  H     (0.969)    25  C 0.954

    32  H     (0.971)    25  C 0.952

    33  H     (0.962)    26  C 0.948

    34  H     (0.965)    26  C 0.954

    35  H     (0.901)    27  N 0.876

    36  H     (0.967)    28  C 0.946

    37  H     (0.966)    28  C 0.946

    38  H     (0.877)    40  O 0.868

    39  H     (0.841)    27  N 0.676    40  O 0.136

    40  O     (1.480)    38  H 0.868    22  H 0.345    39  H 0.136    14  C 0.058    27  N 0.040    19  N 0.010


 **********************
 *                    *
 * JOB ENDED NORMALLY *
 *                    *
 **********************



 TOTAL JOB TIME:           370.40 SECONDS

 == MOPAC DONE ==
