 *******************************************************************************
 **                                                                           **
 **                              MOPAC v22.0.6                                **
 **                                                                           **
 *******************************************************************************
 **          Digital Object Identifier (DOI): 10.5281/zenodo.6511958          **
 **    Visit the DOI location for information on how to cite this program.    **
 *******************************************************************************

                              PM7 CALCULATION RESULTS

 *******************************************************************************
 *  CALCULATION DONE:                                Tue Mar 26 12:50:53 2024  *
 *  PM7        - The PM7 Hamiltonian to be used
 *  SINGLET    - SPIN STATE DEFINED AS A SINGLET
 *
 *
 *
 *                 CHARGE ON SYSTEM = 0
 *
 *
 *
 *  EPS=32.66  - USE ANDREAS KLAMT'S COSMO IMPLICIT SOLVATION MODEL
 *  T=         - A TIME OF 14.0 DAYS REQUESTED
 *  DUMP=N     - RESTART FILE WRITTEN EVERY 30.0 MINUTES REQUESTED
 *  RELSCF     - DEFAULT SCF CRITERION MULTIPLIED BY 1.0000
 *              (DEFAULT SCF CRITERION = 0.00010)
 *  ITRY=      - DO A MAXIMUM OF 15000 ITERATIONS FOR SCF
 *  AUX        - OUTPUT AUXILIARY INFORMATION
 *  BONDS      - FINAL BOND-ORDER MATRIX TO BE PRINTED
 *******************************************************************************
PM7 BONDS AUX DUMP=30M ITRY=15000 T=14D CHARGE=0 SINGLET eps=32.66 RELSCF=1
 Title: ASE calculation

   ATOM   CHEMICAL          X               Y               Z
  NUMBER   SYMBOL      (ANGSTROMS)     (ANGSTROMS)     (ANGSTROMS)

     1       C         -1.74928000  *   0.54299000  *  -2.88639000  *
     2       C         -0.94544000  *   0.64221000  *  -1.73358000  *
     3       C         -1.18881000  *  -0.19847000  *  -0.60375000  *
     4       C         -2.22447000  *  -1.15199000  *  -0.61179000  *
     5       C         -2.99540000  *  -1.23165000  *  -1.75423000  *
     6       N         -4.08023000  *  -2.05474000  *  -2.03814000  *
     7       C         -4.52183000  *  -1.76905000  *  -3.33552000  *
     8       C         -3.76263000  *  -0.75663000  *  -3.88422000  *
     9       C         -2.76892000  *  -0.37982000  *  -2.91036000  *
    10       H         -3.86915000  *  -0.31275000  *  -4.85070000  *
    11       H         -5.35567000  *  -2.31007000  *  -3.75751000  *
    12       H         -2.39951000  *  -1.79369000  *   0.24763000  *
    13       H         -1.55791000  *   1.19261000  *  -3.74264000  *
    14       N         -0.41335000  *  -0.10104000  *   0.54174000  *
    15       C          0.57020000  *   0.77485000  *   0.58261000  *
    16       C          0.88388000  *   1.64544000  *  -0.50871000  *
    17       H          1.71232000  *   2.34302000  *  -0.40492000  *
    18       H          1.16264000  *   0.81973000  *   1.50916000  *
    19       C          0.13152000  *   1.57622000  *  -1.64620000  *
    20       H          0.33358000  *   2.22450000  *  -2.50368000  *
    21       H         -4.39009000  *  -2.81534000  *  -1.44332000  *
    22       C         -0.85504000  *  -2.17604000  *   3.61338000  *
    23       H         -0.38567000  *  -3.00414000  *   3.07054000  *
    24       H         -0.09875000  *  -1.46585000  *   3.96469000  *
    25       H         -1.45167000  *  -2.54855000  *   4.45402000  *
    26       H         -1.30413000  *  -1.08682000  *   2.00722000  *
    27       O         -1.78349000  *  -1.51171000  *   2.77325000  *
    28       C         -5.61213000  *  -4.78240000  *  -0.21233000  *
    29       H         -5.61803000  *  -5.60761000  *   0.50791000  *
    30       H         -6.37240000  *  -4.03707000  *   0.04541000  *
    31       H         -5.76984000  *  -5.16184000  *  -1.22943000  *
    32       H         -4.08959000  *  -3.80909000  *   0.64645000  *
    33       O         -4.33209000  *  -4.18289000  *  -0.24504000  *
    34       C         -3.60660000  *  -4.38816000  *   3.00015000  *
    35       H         -2.70077000  *  -4.93065000  *   2.70708000  *
    36       H         -3.56476000  *  -4.10381000  *   4.05713000  *
    37       H         -4.50121000  *  -4.99078000  *   2.80071000  *
    38       H         -2.98950000  *  -2.60985000  *   2.33022000  *
    39       O         -3.76126000  *  -3.23104000  *   2.19791000  *



          CARTESIAN COORDINATES 

    NO.       ATOM           X           Y           Z

     1         C         -1.7493      0.5430     -2.8864
     2         C         -0.9454      0.6422     -1.7336
     3         C         -1.1888     -0.1985     -0.6038
     4         C         -2.2245     -1.1520     -0.6118
     5         C         -2.9954     -1.2316     -1.7542
     6         N         -4.0802     -2.0547     -2.0381
     7         C         -4.5218     -1.7691     -3.3355
     8         C         -3.7626     -0.7566     -3.8842
     9         C         -2.7689     -0.3798     -2.9104
    10         H         -3.8692     -0.3128     -4.8507
    11         H         -5.3557     -2.3101     -3.7575
    12         H         -2.3995     -1.7937      0.2476
    13         H         -1.5579      1.1926     -3.7426
    14         N         -0.4134     -0.1010      0.5417
    15         C          0.5702      0.7749      0.5826
    16         C          0.8839      1.6454     -0.5087
    17         H          1.7123      2.3430     -0.4049
    18         H          1.1626      0.8197      1.5092
    19         C          0.1315      1.5762     -1.6462
    20         H          0.3336      2.2245     -2.5037
    21         H         -4.3901     -2.8153     -1.4433
    22         C         -0.8550     -2.1760      3.6134
    23         H         -0.3857     -3.0041      3.0705
    24         H         -0.0988     -1.4659      3.9647
    25         H         -1.4517     -2.5486      4.4540
    26         H         -1.3041     -1.0868      2.0072
    27         O         -1.7835     -1.5117      2.7732
    28         C         -5.6121     -4.7824     -0.2123
    29         H         -5.6180     -5.6076      0.5079
    30         H         -6.3724     -4.0371      0.0454
    31         H         -5.7698     -5.1618     -1.2294
    32         H         -4.0896     -3.8091      0.6465
    33         O         -4.3321     -4.1829     -0.2450
    34         C         -3.6066     -4.3882      3.0002
    35         H         -2.7008     -4.9306      2.7071
    36         H         -3.5648     -4.1038      4.0571
    37         H         -4.5012     -4.9908      2.8007
    38         H         -2.9895     -2.6099      2.3302
    39         O         -3.7613     -3.2310      2.1979

 General Reference for PM7:
 "Optimization of Parameters for Semiempirical Methods VI: More Modifications to the 
 NDDO Approximations and Re-optimization of Parameters", J. J. P. Stewart, J. Mol. Mod., 1:32, 19 (2013)
 https://link.springer.com/article/10.1007/s00894-012-1667-x

           Empirical Formula: C14 H20 N2 O3  =    39 atoms



      MOLECULAR POINT GROUP   :   C1  


 SINGLET STATE CALCULATION


      RHF CALCULATION, NO. OF DOUBLY OCCUPIED LEVELS = 52


          Geometry optimization using L-BFGS
  SCF CRITERION =    0.1000E-03
 CYCLE:     1 TIME:   5.574 TIME LEFT:  2.00W  GRAD.:     0.881 HEAT: -119.5212

 -------------------------------------------------------------------------------
 PM7 BONDS AUX DUMP=30M ITRY=15000 T=14D CHARGE=0 SINGLET eps=32.66 RELSCF=1
 Title: ASE calculation



     HERBERTS TEST WAS SATISFIED IN BFGS                      
     SCF FIELD WAS ACHIEVED                                   


                              PM7 CALCULATION
                                                       MOPAC v22.0.6 Linux
                                                       Tue Mar 26 12:50:59 2024




          FINAL HEAT OF FORMATION =       -119.52116 KCAL/MOL =    -500.07655 KJ/MOL
          VAN DER WAALS AREA      =        311.43 SQUARE ANGSTROMS



          DIELECTRIC ENERGY       =         -0.63210 EV
          COSMO AREA              =        311.43 SQUARE ANGSTROMS
          COSMO VOLUME            =        347.22 CUBIC ANGSTROMS

          GRADIENT NORM           =          0.88125          =       0.14111 PER ATOM
          IONIZATION POTENTIAL    =          8.565412 EV
          HOMO LUMO ENERGIES (EV) =         -8.565 -1.182
          NO. OF FILLED LEVELS    =         52
          MOLECULAR WEIGHT        =        264.3236         POINT GROUP:  C1  

          MOLECULAR DIMENSIONS (Angstroms)

            Atom       Atom       Distance
            H    29    H    17    10.85264
            H    25    H    10     9.83872
            H    23    H    30     2.34335


          SCF CALCULATIONS        =          3

          WALL-CLOCK TIME         =      6.102 SECONDS
          COMPUTATION TIME        =          3 MINUTES AND 40.080 SECONDS




   ATOM   CHEMICAL          X               Y               Z
  NUMBER   SYMBOL      (ANGSTROMS)     (ANGSTROMS)     (ANGSTROMS)

     1       C         -1.74928000  *   0.54299000  *  -2.88639000  *
     2       C         -0.94544000  *   0.64221000  *  -1.73358000  *
     3       C         -1.18881000  *  -0.19847000  *  -0.60375000  *
     4       C         -2.22447000  *  -1.15199000  *  -0.61179000  *
     5       C         -2.99540000  *  -1.23165000  *  -1.75423000  *
     6       N         -4.08023000  *  -2.05474000  *  -2.03814000  *
     7       C         -4.52183000  *  -1.76905000  *  -3.33552000  *
     8       C         -3.76263000  *  -0.75663000  *  -3.88422000  *
     9       C         -2.76892000  *  -0.37982000  *  -2.91036000  *
    10       H         -3.86915000  *  -0.31275000  *  -4.85070000  *
    11       H         -5.35567000  *  -2.31007000  *  -3.75751000  *
    12       H         -2.39951000  *  -1.79369000  *   0.24763000  *
    13       H         -1.55791000  *   1.19261000  *  -3.74264000  *
    14       N         -0.41335000  *  -0.10104000  *   0.54174000  *
    15       C          0.57020000  *   0.77485000  *   0.58261000  *
    16       C          0.88388000  *   1.64544000  *  -0.50871000  *
    17       H          1.71232000  *   2.34302000  *  -0.40492000  *
    18       H          1.16264000  *   0.81973000  *   1.50916000  *
    19       C          0.13152000  *   1.57622000  *  -1.64620000  *
    20       H          0.33358000  *   2.22450000  *  -2.50368000  *
    21       H         -4.39009000  *  -2.81534000  *  -1.44332000  *
    22       C         -0.85504000  *  -2.17604000  *   3.61338000  *
    23       H         -0.38567000  *  -3.00414000  *   3.07054000  *
    24       H         -0.09875000  *  -1.46585000  *   3.96469000  *
    25       H         -1.45167000  *  -2.54855000  *   4.45402000  *
    26       H         -1.30413000  *  -1.08682000  *   2.00722000  *
    27       O         -1.78349000  *  -1.51171000  *   2.77325000  *
    28       C         -5.61213000  *  -4.78240000  *  -0.21233000  *
    29       H         -5.61803000  *  -5.60761000  *   0.50791000  *
    30       H         -6.37240000  *  -4.03707000  *   0.04541000  *
    31       H         -5.76984000  *  -5.16184000  *  -1.22943000  *
    32       H         -4.08959000  *  -3.80909000  *   0.64645000  *
    33       O         -4.33209000  *  -4.18289000  *  -0.24504000  *
    34       C         -3.60660000  *  -4.38816000  *   3.00015000  *
    35       H         -2.70077000  *  -4.93065000  *   2.70708000  *
    36       H         -3.56476000  *  -4.10381000  *   4.05713000  *
    37       H         -4.50121000  *  -4.99078000  *   2.80071000  *
    38       H         -2.98950000  *  -2.60985000  *   2.33022000  *
    39       O         -3.76126000  *  -3.23104000  *   2.19791000  *

                             CARTESIAN COORDINATES

   1    C       -1.749280000     0.542990000    -2.886390000
   2    C       -0.945440000     0.642210000    -1.733580000
   3    C       -1.188810000    -0.198470000    -0.603750000
   4    C       -2.224470000    -1.151990000    -0.611790000
   5    C       -2.995400000    -1.231650000    -1.754230000
   6    N       -4.080230000    -2.054740000    -2.038140000
   7    C       -4.521830000    -1.769050000    -3.335520000
   8    C       -3.762630000    -0.756630000    -3.884220000
   9    C       -2.768920000    -0.379820000    -2.910360000
  10    H       -3.869150000    -0.312750000    -4.850700000
  11    H       -5.355670000    -2.310070000    -3.757510000
  12    H       -2.399510000    -1.793690000     0.247630000
  13    H       -1.557910000     1.192610000    -3.742640000
  14    N       -0.413350000    -0.101040000     0.541740000
  15    C        0.570200000     0.774850000     0.582610000
  16    C        0.883880000     1.645440000    -0.508710000
  17    H        1.712320000     2.343020000    -0.404920000
  18    H        1.162640000     0.819730000     1.509160000
  19    C        0.131520000     1.576220000    -1.646200000
  20    H        0.333580000     2.224500000    -2.503680000
  21    H       -4.390090000    -2.815340000    -1.443320000
  22    C       -0.855040000    -2.176040000     3.613380000
  23    H       -0.385670000    -3.004140000     3.070540000
  24    H       -0.098750000    -1.465850000     3.964690000
  25    H       -1.451670000    -2.548550000     4.454020000
  26    H       -1.304130000    -1.086820000     2.007220000
  27    O       -1.783490000    -1.511710000     2.773250000
  28    C       -5.612130000    -4.782400000    -0.212330000
  29    H       -5.618030000    -5.607610000     0.507910000
  30    H       -6.372400000    -4.037070000     0.045410000
  31    H       -5.769840000    -5.161840000    -1.229430000
  32    H       -4.089590000    -3.809090000     0.646450000
  33    O       -4.332090000    -4.182890000    -0.245040000
  34    C       -3.606600000    -4.388160000     3.000150000
  35    H       -2.700770000    -4.930650000     2.707080000
  36    H       -3.564760000    -4.103810000     4.057130000
  37    H       -4.501210000    -4.990780000     2.800710000
  38    H       -2.989500000    -2.609850000     2.330220000
  39    O       -3.761260000    -3.231040000     2.197910000


           Empirical Formula: C14 H20 N2 O3  =    39 atoms



      MOLECULAR POINT GROUP   :   C1  


                  EIGENVALUES  
 -37.64717 -36.09969 -30.40041 -29.72732 -29.21495 -28.71521 -28.40858 -27.73507
 -25.61101 -25.17338 -24.12433 -23.90874 -23.76644 -22.66479 -21.78224 -21.41072
 -20.17012 -18.65759 -18.04701 -17.98665 -17.54589 -17.26248 -17.17474 -16.17890
 -15.49746 -15.41694 -15.19775 -15.13110 -15.07580 -14.98592 -14.89593 -14.86418
 -14.77002 -14.69028 -14.38207 -14.23585 -13.93930 -13.68893 -12.79712 -12.70614
 -12.45757 -12.41083 -12.17831 -12.09354 -11.52525 -11.01205 -11.00466 -10.98832
 -10.61221 -10.58370  -9.31112  -8.56541  -1.18190  -0.39623   0.28038   1.16018
   1.51684   2.01465   2.30948   2.51689   2.78383   3.15332   3.19064   3.54118
   3.62543   3.95582   4.05866   4.18391   4.37172   4.79670   4.81475   4.91813
   5.00205   5.12470   5.30410   5.43901   5.49868   5.53901   5.56464   5.62491
   5.63940   5.67580   5.68419   5.74369   5.79407   5.86498   5.90023   6.06026
   6.12872   6.16225   6.23558   6.28115   6.34514   6.40531   6.67233   6.87657


              NET ATOMIC CHARGES AND DIPOLE CONTRIBUTIONS

  ATOM NO.   TYPE          CHARGE      No. of ELECS.   s-Pop       p-Pop       
    1          C          -0.105577        4.1056     1.08617     3.01941
    2          C          -0.138295        4.1383     1.06049     3.07781
    3          C           0.178712        3.8213     1.06037     2.76092
    4          C          -0.292210        4.2922     1.06969     3.22252
    5          C           0.150185        3.8498     1.06169     2.78812
    6          N          -0.402256        5.4023     1.52992     3.87234
    7          C           0.040686        3.9593     1.09807     2.86125
    8          C          -0.307018        4.3070     1.07459     3.23242
    9          C          -0.065477        4.0655     1.06106     3.00442
   10          H           0.177135        0.8229     0.82286
   11          H           0.183036        0.8170     0.81696
   12          H           0.181684        0.8183     0.81832
   13          H           0.178577        0.8214     0.82142
   14          N          -0.469095        5.4691     1.73562     3.73348
   15          C           0.113769        3.8862     1.10425     2.78198
   16          C          -0.275143        4.2751     1.08824     3.18690
   17          H           0.180787        0.8192     0.81921
   18          H           0.183941        0.8161     0.81606
   19          C          -0.047775        4.0478     1.09673     2.95105
   20          H           0.175746        0.8243     0.82425
   21          H           0.360938        0.6391     0.63906
   22          C          -0.137932        4.1379     1.08132     3.05662
   23          H           0.134325        0.8657     0.86568
   24          H           0.131844        0.8682     0.86816
   25          H           0.140403        0.8596     0.85960
   26          H           0.378811        0.6212     0.62119
   27          O          -0.636868        6.6369     1.84387     4.79300
   28          C          -0.137012        4.1370     1.07993     3.05708
   29          H           0.127187        0.8728     0.87281
   30          H           0.130800        0.8692     0.86920
   31          H           0.143234        0.8568     0.85677
   32          H           0.376011        0.6240     0.62399
   33          O          -0.651943        6.6519     1.84439     4.80756
   34          C          -0.139641        4.1396     1.08080     3.05884
   35          H           0.132131        0.8679     0.86787
   36          H           0.129523        0.8705     0.87048
   37          H           0.141706        0.8583     0.85829
   38          H           0.376732        0.6233     0.62327
   39          O          -0.641661        6.6417     1.84351     4.79815
 DIPOLE           X         Y         Z       TOTAL
 POINT-CHG.     1.107    -1.797     1.125     2.392
 HYBRID         0.347     0.571    -0.232     0.707
 SUM            1.454    -1.227     0.894     2.102


          ATOMIC ORBITAL ELECTRON POPULATIONS

     Atom    s        px        py        pz   
    1  C   1.08617   0.96869   1.01163   1.03910
    2  C   1.06049   1.03232   1.04108   1.00441
    3  C   1.06037   0.92787   0.95046   0.88259
    4  C   1.06969   1.04770   1.10213   1.07269
    5  C   1.06169   0.87991   0.92745   0.98076
    6  N   1.52992   1.31103   1.34836   1.21294
    7  C   1.09807   1.02345   1.00265   0.83516
    8  C   1.07459   1.05340   1.08758   1.09144
    9  C   1.06106   1.00938   1.01274   0.98230
   10  H   0.82286
   11  H   0.81696
   12  H   0.81832
   13  H   0.82142
   14  N   1.73562   1.14984   1.27505   1.30859
   15  C   1.10425   0.89517   0.86029   1.02652
   16  C   1.08824   1.09529   1.08313   1.00849
   17  H   0.81921
   18  H   0.81606
   19  C   1.09673   0.94120   0.97206   1.03779
   20  H   0.82425
   21  H   0.63906
   22  C   1.08132   0.99804   1.05863   0.99994
   23  H   0.86568
   24  H   0.86816
   25  H   0.85960
   26  H   0.62119
   27  O   1.84387   1.47854   1.77436   1.54010
   28  C   1.07993   0.83326   1.07143   1.15238
   29  H   0.87281
   30  H   0.86920
   31  H   0.85677
   32  H   0.62399
   33  O   1.84439   1.44447   1.82040   1.54269
   34  C   1.08080   1.14910   0.88192   1.02782
   35  H   0.86787
   36  H   0.87048
   37  H   0.85829
   38  H   0.62327
   39  O   1.84351   1.63213   1.44681   1.71921

          BONDING CONTRIBUTION OF EACH M.O.

  1.4477  1.3443  1.8655  1.2054  1.2064  1.1894  1.8089  1.8769  1.8924  1.9104
  1.6502  1.6452  1.6468  1.8813  1.9415  1.8966  1.9226  1.9747  1.5831  1.8881
  1.6541  1.7928  1.7914  1.9825  1.8213  1.8203  1.4884  1.6181  1.4501  1.9242
  1.5302  1.5700  1.5882  1.9119  1.7546  1.8869  1.8084  2.0078  1.6267  2.0087
  1.8033  1.6711  1.4366  1.7554  1.9055  0.6395  0.6496  0.6482  1.3444  1.7038
  1.9174  1.6416 -2.0198 -2.0577 -2.0586 -2.2205 -2.0606 -1.8838 -1.8422 -2.0528
 -1.8620 -1.9123 -1.8438 -1.9714 -1.9291 -2.0156 -2.0303 -1.9600 -1.9431 -1.9408
 -1.9946 -1.9470 -1.9847 -1.9974 -1.9084 -1.9221 -1.9522 -1.9260 -1.9732 -1.9738
 -1.9426 -1.9752 -1.9827 -1.9588 -1.9465 -1.9527 -1.9252 -1.9258 -1.8778 -1.9503
 -1.9158 -1.9300 -1.9383 -1.9085 -1.8237 -1.7925





            (VALENCIES)   BOND ORDERS

     1  C     (3.966)     9  C 1.478     2  C 1.319    13  H 0.953     4  C 0.110     7  C 0.042    16  C 0.029
                          5  C 0.010

     2  C     (3.987)     1  C 1.319     3  C 1.279    19  C 1.200    15  C 0.060     5  C 0.055     8  C 0.018
                         14  N 0.013     6  N 0.012

     3  C     (3.965)     4  C 1.332     2  C 1.279    14  N 1.164    16  C 0.058     9  C 0.057     6  N 0.016
                         18  H 0.014     7  C 0.012

     4  C     (3.946)     5  C 1.412     3  C 1.332    12  H 0.948     1  C 0.110     6  N 0.040    15  C 0.037
                          7  C 0.018     8  C 0.012

     5  C     (3.951)     4  C 1.412     9  C 1.188     6  N 1.157     2  C 0.055     7  C 0.037     8  C 0.023
                         14  N 0.014    16  C 0.013    21  H 0.013     1  C 0.010

     6  N     (3.319)     5  C 1.157     7  C 1.148    21  H 0.796     8  C 0.079     4  C 0.040     9  C 0.038
                          3  C 0.016     2  C 0.012    33  O 0.011

     7  C     (3.909)     8  C 1.667     6  N 1.148    11  H 0.950     1  C 0.042     5  C 0.037     4  C 0.018
                         21  H 0.015     3  C 0.012

     8  C     (3.936)     7  C 1.667     9  C 1.161    10  H 0.956     6  N 0.079     5  C 0.023     2  C 0.018
                          4  C 0.012

     9  C     (3.990)     1  C 1.478     5  C 1.188     8  C 1.161     3  C 0.057     6  N 0.038    19  C 0.019
                         15  C 0.016

    10  H     (0.969)     8  C 0.956

    11  H     (0.966)     7  C 0.950

    12  H     (0.967)     4  C 0.948

    13  H     (0.968)     1  C 0.953

    14  N     (2.976)    15  C 1.617     3  C 1.164    19  C 0.085    26  H 0.027    16  C 0.018     5  C 0.014
                          2  C 0.013

    15  C     (3.914)    14  N 1.617    16  C 1.207    18  H 0.944     2  C 0.060     4  C 0.037     9  C 0.016

    16  C     (3.961)    19  C 1.666    15  C 1.207    17  H 0.955     3  C 0.058     1  C 0.029    14  N 0.018
                          5  C 0.013

    17  H     (0.967)    16  C 0.955

    18  H     (0.966)    15  C 0.944     3  C 0.014

    19  C     (3.955)    16  C 1.666     2  C 1.200    20  H 0.955    14  N 0.085     9  C 0.019

    20  H     (0.969)    19  C 0.955

    21  H     (0.870)     6  N 0.796    33  O 0.027     7  C 0.015     5  C 0.013

    22  C     (3.861)    24  H 0.974    23  H 0.973    25  H 0.971    27  O 0.935

    23  H     (0.982)    22  C 0.973

    24  H     (0.983)    22  C 0.974

    25  H     (0.980)    22  C 0.971

    26  H     (0.857)    27  O 0.814    14  N 0.027

    27  O     (1.849)    22  C 0.935    26  H 0.814    38  H 0.047    39  O 0.019

    28  C     (3.864)    29  H 0.975    30  H 0.974    31  H 0.970    33  O 0.939

    29  H     (0.984)    28  C 0.975

    30  H     (0.983)    28  C 0.974

    31  H     (0.979)    28  C 0.970

    32  H     (0.859)    33  O 0.800    39  O 0.045

    33  O     (1.823)    28  C 0.939    32  H 0.800    21  H 0.027    39  O 0.018     6  N 0.011

    34  C     (3.864)    36  H 0.974    35  H 0.973    37  H 0.970    39  O 0.938

    35  H     (0.983)    34  C 0.973

    36  H     (0.983)    34  C 0.974

    37  H     (0.980)    34  C 0.970

    38  H     (0.858)    39  O 0.796    27  O 0.047

    39  O     (1.843)    34  C 0.938    38  H 0.796    32  H 0.045    27  O 0.019    33  O 0.018


 **********************
 *                    *
 * JOB ENDED NORMALLY *
 *                    *
 **********************



 TOTAL JOB TIME:             6.13 SECONDS

 == MOPAC DONE ==
