 *******************************************************************************
 **                                                                           **
 **                              MOPAC v22.1.0                                **
 **                                                                           **
 *******************************************************************************
 **          Digital Object Identifier (DOI): 10.5281/zenodo.6511958          **
 **    Visit the DOI location for information on how to cite this program.    **
 *******************************************************************************

                              PM7 CALCULATION RESULTS

 *******************************************************************************
 *  CALCULATION DONE:                                Sun Mar 24 02:03:38 2024  *
 *  PM7        - The PM7 Hamiltonian to be used
 *  SINGLET    - SPIN STATE DEFINED AS A SINGLET
 *
 *
 *
 *                 CHARGE ON SYSTEM = -1
 *
 *
 *
 *  EPS=78.4   - USE ANDREAS KLAMT'S COSMO IMPLICIT SOLVATION MODEL
 *  THREADS    - USE A MAXIMUM OF 40 THREADS
 *  T=         - A TIME OF 14.0 DAYS REQUESTED
 *  DUMP=N     - RESTART FILE WRITTEN EVERY 30.0 MINUTES REQUESTED
 *  ITRY=      - DO A MAXIMUM OF 15000 ITERATIONS FOR SCF
 *  AUX        - OUTPUT AUXILIARY INFORMATION
 *  PL         - MONITOR CONVERGENCE IN DENSITY MATRIX
 *******************************************************************************
PM7 CHARGE=-1 SINGLET AUX DUMP=30M ITRY=15000 eps=78.4 T=14D PL THREADS=40

 Mopac file generated by Gabedit
   ATOM   CHEMICAL          X               Y               Z
  NUMBER   SYMBOL      (ANGSTROMS)     (ANGSTROMS)     (ANGSTROMS)

     1       C         -0.78209000  *   1.19512000  *   0.01550000  *
     2       C          0.56095000  *   1.18953000  *   0.36472000  *
     3       C          1.30771000  *   0.00622000  *   0.29682000  *
     4       C          0.70075000  *  -1.17865000  *  -0.13325000  *
     5       C         -0.64275000  *  -1.18902000  *  -0.48866000  *
     6       C         -1.37580000  *  -0.00124000  *  -0.40566000  *
     7       H         -1.36903000  *   2.12116000  *   0.06421000  *
     8       H          1.03365000  *   2.12246000  *   0.69285000  *
     9       H          1.25912000  *  -2.11650000  *  -0.19045000  *
    10       C          2.75903000  *   0.03642000  *   0.69536000  *
    11       H          2.85399000  *   0.50297000  *   1.73405000  *
    12       C          3.42902000  *  -1.33350000  *   0.71146000  *
    13       H          4.48634000  *  -1.27880000  *   1.01678000  *
    14       H          3.40193000  *  -1.83507000  *  -0.26123000  *
    15       H          2.93723000  *  -2.00827000  *   1.43620000  *
    16       N          3.53388000  *   0.91186000  *  -0.24197000  *
    17       O          4.72531000  *   1.07563000  *  -0.03384000  *
    18       O          2.95537000  *   1.45178000  *  -1.17354000  *
    19       O          2.08889100  *   1.46017600  *   5.91941100  *
    20       H          2.40448100  *   0.66364600  *   6.15773100  *
    21       H         -1.10916000  *  -2.11684000  *  -0.83612000  *
    22       N         -2.77663000  *  -0.02825000  *  -0.74871000  *
    23       O         -3.29866000  *  -1.10009000  *  -1.03298000  *
    24       O         -3.41738000  *   1.01587000  *  -0.74524000  *
    25       H          1.68699500  *   0.26603700  *   3.87660800  *
    26       H          3.03001500  *   0.07220700  *   4.54277800  *
    27       O          2.60757500  *   0.10604700  *   3.66786800  *



          CARTESIAN COORDINATES 

    NO.       ATOM           X           Y           Z

     1         C         -0.7821      1.1951      0.0155
     2         C          0.5610      1.1895      0.3647
     3         C          1.3077      0.0062      0.2968
     4         C          0.7008     -1.1786     -0.1333
     5         C         -0.6428     -1.1890     -0.4887
     6         C         -1.3758     -0.0012     -0.4057
     7         H         -1.3690      2.1212      0.0642
     8         H          1.0336      2.1225      0.6929
     9         H          1.2591     -2.1165     -0.1905
    10         C          2.7590      0.0364      0.6954
    11         H          2.8540      0.5030      1.7341
    12         C          3.4290     -1.3335      0.7115
    13         H          4.4863     -1.2788      1.0168
    14         H          3.4019     -1.8351     -0.2612
    15         H          2.9372     -2.0083      1.4362
    16         N          3.5339      0.9119     -0.2420
    17         O          4.7253      1.0756     -0.0338
    18         O          2.9554      1.4518     -1.1735
    19         O          2.0889      1.4602      5.9194
    20         H          2.4045      0.6636      6.1577
    21         H         -1.1092     -2.1168     -0.8361
    22         N         -2.7766     -0.0283     -0.7487
    23         O         -3.2987     -1.1001     -1.0330
    24         O         -3.4174      1.0159     -0.7452
    25         H          1.6870      0.2660      3.8766
    26         H          3.0300      0.0722      4.5428
    27         O          2.6076      0.1060      3.6679

 General Reference for PM7:
 "Optimization of Parameters for Semiempirical Methods VI: More Modifications to the 
 NDDO Approximations and Re-optimization of Parameters", J. J. P. Stewart, J. Mol. Mod., 1:32, 19 (2013)
 https://link.springer.com/article/10.1007/s00894-012-1667-x

           Empirical Formula: C8 H11 N2 O6  =    27 atoms



      MOLECULAR POINT GROUP   :   C1  


 SINGLET STATE CALCULATION


      RHF CALCULATION, NO. OF DOUBLY OCCUPIED LEVELS = 45


          Geometry optimization using EF
 ITERATION   1 PLS= 0.100E+01 0.000E+00 ENERGY    13034.410403 DELTAE    0.0000000
 ITERATION   2 PLS= 0.123E+01 0.000E+00 ENERGY      216.681535 DELTAE    0.0000000
 ITERATION   3 PLS= 0.113E+00 0.000E+00 ENERGY       29.483550 DELTAE -187.1979853
 ITERATION   4 PLS= 0.738E-01 0.000E+00 ENERGY     -251.422697 DELTAE -280.9062468
 ITERATION   5 PLS= 0.309E-01 0.000E+00 ENERGY     -102.299867 DELTAE  149.1228308
 ITERATION   6 PLS= 0.167E-01 0.000E+00 ENERGY     -107.031854 DELTAE   -4.7319876
 ITERATION   7 PLS= 0.331E-01 0.000E+00 ENERGY     -137.665635 DELTAE  -30.6337811
 ITERATION   8 PLS= 0.234E-01 0.000E+00 ENERGY     -114.318694 DELTAE   23.3469409
 ITERATION   9 PLS= 0.829E-02 0.000E+00 ENERGY     -114.800637 DELTAE   -0.4819432
 ITERATION  10 PLS= 0.369E-02 0.000E+00 ENERGY     -115.047390 DELTAE   -0.2467528
 ITERATION  11 PLS= 0.759E-03 0.000E+00 ENERGY     -114.926074 DELTAE    0.1213167
 ITERATION  12 PLS= 0.332E-03 0.000E+00 ENERGY     -114.926562 DELTAE   -0.0004880
 ITERATION  13 PLS= 0.169E-03 0.000E+00 ENERGY     -114.926814 DELTAE   -0.0002522
 ITERATION  14 PLS= 0.691E-04 0.000E+00 ENERGY     -114.926697 DELTAE    0.0001170
 ITERATION   1 PLS= 0.429E-04 0.000E+00 ENERGY     -205.581053 DELTAE -305.5810529
 ITERATION   2 PLS= 0.384E-01 0.000E+00 ENERGY     -207.963455 DELTAE   -2.3824018
 ITERATION   3 PLS= 0.151E-01 0.000E+00 ENERGY     -208.376372 DELTAE   -0.4129169
 ITERATION   4 PLS= 0.720E-02 0.000E+00 ENERGY     -208.664920 DELTAE   -0.2885478
 ITERATION   5 PLS= 0.510E-03 0.000E+00 ENERGY     -208.525923 DELTAE    0.1389961
 ITERATION   6 PLS= 0.305E-03 0.000E+00 ENERGY     -208.526571 DELTAE   -0.0006479
 ITERATION   7 PLS= 0.202E-03 0.000E+00 ENERGY     -208.527530 DELTAE   -0.0009583
 ITERATION   8 PLS= 0.427E-04 0.000E+00 ENERGY     -208.526936 DELTAE    0.0005935

          DIAGONAL MATRIX USED AS START HESSIAN

 CYCLE:     1 TIME:   0.241 TIME LEFT:  2.00W  GRAD.:    19.552 HEAT: -208.5269
 ITERATION   1 PLS= 0.308E-04 0.000E+00 ENERGY     -206.119937 DELTAE -306.1199366
 ITERATION   2 PLS= 0.867E-02 0.000E+00 ENERGY     -207.372104 DELTAE   -1.2521677
 ITERATION   3 PLS= 0.343E-02 0.000E+00 ENERGY     -207.544206 DELTAE   -0.1721020
 ITERATION   4 PLS= 0.168E-02 0.000E+00 ENERGY     -207.638892 DELTAE   -0.0946858
 ITERATION   5 PLS= 0.359E-03 0.000E+00 ENERGY     -207.594774 DELTAE    0.0441184
 ITERATION   1 PLS= 0.232E-03 0.000E+00 ENERGY     -208.037416 DELTAE -308.0374156
 ITERATION   2 PLS= 0.399E-02 0.000E+00 ENERGY     -208.375462 DELTAE   -0.3380462
 ITERATION   3 PLS= 0.161E-02 0.000E+00 ENERGY     -208.422652 DELTAE   -0.0471903
 ITERATION   4 PLS= 0.803E-03 0.000E+00 ENERGY     -208.447613 DELTAE   -0.0249612
 ITERATION   5 PLS= 0.170E-03 0.000E+00 ENERGY     -208.436102 DELTAE    0.0115107
 ITERATION   1 PLS= 0.109E-03 0.000E+00 ENERGY     -208.490741 DELTAE -308.4907410
 ITERATION   2 PLS= 0.225E-02 0.000E+00 ENERGY     -208.572754 DELTAE   -0.0820134
 ITERATION   3 PLS= 0.921E-03 0.000E+00 ENERGY     -208.584505 DELTAE   -0.0117501
 ITERATION   4 PLS= 0.459E-03 0.000E+00 ENERGY     -208.591666 DELTAE   -0.0071610
 CYCLE:     2 TIME:   0.320 TIME LEFT:  2.00W  GRAD.:    15.325 HEAT: -208.5882
 ITERATION   1 PLS= 0.100E-03 0.000E+00 ENERGY     -208.572950 DELTAE -308.5729500
 ITERATION   2 PLS= 0.287E-02 0.000E+00 ENERGY     -208.648721 DELTAE   -0.0757707
 ITERATION   3 PLS= 0.117E-02 0.000E+00 ENERGY     -208.660481 DELTAE   -0.0117603
 ITERATION   4 PLS= 0.655E-03 0.000E+00 ENERGY     -208.667755 DELTAE   -0.0072741
 CYCLE:     3 TIME:   0.108 TIME LEFT:  2.00W  GRAD.:    14.499 HEAT: -208.6642
 ITERATION   1 PLS= 0.111E-03 0.000E+00 ENERGY     -208.857004 DELTAE -308.8570044
 ITERATION   2 PLS= 0.247E-02 0.000E+00 ENERGY     -208.951144 DELTAE   -0.0941392
 ITERATION   3 PLS= 0.942E-03 0.000E+00 ENERGY     -208.969919 DELTAE   -0.0187751
 ITERATION   4 PLS= 0.503E-03 0.000E+00 ENERGY     -208.981186 DELTAE   -0.0112674
 CYCLE:     4 TIME:   0.109 TIME LEFT:  2.00W  GRAD.:    16.178 HEAT: -208.9761
 ITERATION   1 PLS= 0.131E-03 0.000E+00 ENERGY     -209.054953 DELTAE -309.0549533
 ITERATION   2 PLS= 0.309E-02 0.000E+00 ENERGY     -209.210747 DELTAE   -0.1557935
 ITERATION   3 PLS= 0.174E-02 0.000E+00 ENERGY     -209.247017 DELTAE   -0.0362705
 ITERATION   4 PLS= 0.937E-03 0.000E+00 ENERGY     -209.273788 DELTAE   -0.0267705
 ITERATION   5 PLS= 0.117E-03 0.000E+00 ENERGY     -209.259491 DELTAE    0.0142966
 CYCLE:     5 TIME:   0.102 TIME LEFT:  2.00W  GRAD.:    14.085 HEAT: -209.2595
 ITERATION   1 PLS= 0.817E-04 0.000E+00 ENERGY     -208.879213 DELTAE -308.8792126
 ITERATION   2 PLS= 0.569E-02 0.000E+00 ENERGY     -209.188005 DELTAE   -0.3087927
 ITERATION   3 PLS= 0.321E-02 0.000E+00 ENERGY     -209.260450 DELTAE   -0.0724443
 ITERATION   4 PLS= 0.172E-02 0.000E+00 ENERGY     -209.311789 DELTAE   -0.0513399
 ITERATION   5 PLS= 0.110E-03 0.000E+00 ENERGY     -209.285115 DELTAE    0.0266743
 CYCLE:     6 TIME:   0.132 TIME LEFT:  2.00W  GRAD.:    16.851 HEAT: -209.2851
 ITERATION   1 PLS= 0.787E-04 0.000E+00 ENERGY     -208.928447 DELTAE -308.9284470
 ITERATION   2 PLS= 0.726E-02 0.000E+00 ENERGY     -209.237287 DELTAE   -0.3088397
 ITERATION   3 PLS= 0.401E-02 0.000E+00 ENERGY     -209.312997 DELTAE   -0.0757098
 ITERATION   4 PLS= 0.213E-02 0.000E+00 ENERGY     -209.368230 DELTAE   -0.0552334
 ITERATION   5 PLS= 0.670E-04 0.000E+00 ENERGY     -209.339416 DELTAE    0.0288140
 CYCLE:     7 TIME:   0.058 TIME LEFT:  2.00W  GRAD.:    13.160 HEAT: -209.3395
 ITERATION   1 PLS= 0.569E-04 0.000E+00 ENERGY     -209.361520 DELTAE -309.3615200
 ITERATION   2 PLS= 0.829E-02 0.000E+00 ENERGY     -209.657029 DELTAE   -0.2955094
 ITERATION   3 PLS= 0.454E-02 0.000E+00 ENERGY     -209.727796 DELTAE   -0.0707666
 ITERATION   4 PLS= 0.241E-02 0.000E+00 ENERGY     -209.777414 DELTAE   -0.0496180
 ITERATION   5 PLS= 0.170E-03 0.000E+00 ENERGY     -209.752565 DELTAE    0.0248487
 CYCLE:     8 TIME:   0.064 TIME LEFT:  2.00W  GRAD.:    12.224 HEAT: -209.7526
 ITERATION   1 PLS= 0.129E-03 0.000E+00 ENERGY     -209.286862 DELTAE -309.2868618
 ITERATION   2 PLS= 0.132E-01 0.000E+00 ENERGY     -209.867340 DELTAE   -0.5804783
 ITERATION   3 PLS= 0.725E-02 0.000E+00 ENERGY     -210.007726 DELTAE   -0.1403859
 ITERATION   4 PLS= 0.384E-02 0.000E+00 ENERGY     -210.107380 DELTAE   -0.0996540
 ITERATION   5 PLS= 0.878E-04 0.000E+00 ENERGY     -210.055812 DELTAE    0.0515686
 CYCLE:     9 TIME:   0.063 TIME LEFT:  2.00W  GRAD.:    14.571 HEAT: -210.0559
 ITERATION   1 PLS= 0.618E-04 0.000E+00 ENERGY     -208.978120 DELTAE -308.9781200
 ITERATION   2 PLS= 0.208E-01 0.000E+00 ENERGY     -210.169050 DELTAE   -1.1909299
 ITERATION   3 PLS= 0.114E-01 0.000E+00 ENERGY     -210.448992 DELTAE   -0.2799422
 ITERATION   4 PLS= 0.599E-02 0.000E+00 ENERGY     -210.645128 DELTAE   -0.1961359
 ITERATION   5 PLS= 0.148E-03 0.000E+00 ENERGY     -210.543930 DELTAE    0.1011983
 ITERATION   6 PLS= 0.114E-03 0.000E+00 ENERGY     -210.544056 DELTAE   -0.0001266
 CYCLE:    10 TIME:   0.056 TIME LEFT:  2.00W  GRAD.:    18.412 HEAT: -210.5443
 ITERATION   1 PLS= 0.885E-04 0.000E+00 ENERGY     -204.716577 DELTAE -304.7165772
 ITERATION   2 PLS= 0.471E-01 0.000E+00 ENERGY     -209.327439 DELTAE   -4.6108616
 ITERATION   3 PLS= 0.263E-01 0.000E+00 ENERGY     -210.387036 DELTAE   -1.0595976
 ITERATION   4 PLS= 0.140E-01 0.000E+00 ENERGY     -211.117937 DELTAE   -0.7309003
 ITERATION   5 PLS= 0.566E-03 0.000E+00 ENERGY     -210.742974 DELTAE    0.3749622
 ITERATION   6 PLS= 0.305E-03 0.000E+00 ENERGY     -210.743529 DELTAE   -0.0005544
 CYCLE:    11 TIME:   0.065 TIME LEFT:  2.00W  GRAD.:    43.060 HEAT: -210.7445
 ITERATION   1 PLS= 0.235E-03 0.000E+00 ENERGY     -210.087316 DELTAE -310.0873158
 ITERATION   2 PLS= 0.812E-02 0.000E+00 ENERGY     -210.870568 DELTAE   -0.7832525
 ITERATION   3 PLS= 0.436E-02 0.000E+00 ENERGY     -211.002622 DELTAE   -0.1320535
 ITERATION   4 PLS= 0.246E-02 0.000E+00 ENERGY     -211.089873 DELTAE   -0.0872511
 ITERATION   5 PLS= 0.513E-03 0.000E+00 ENERGY     -211.044782 DELTAE    0.0450904
 CYCLE:    12 TIME:   0.108 TIME LEFT:  2.00W  GRAD.:    24.406 HEAT: -211.0450
 ITERATION   1 PLS= 0.238E-03 0.000E+00 ENERGY     -209.842831 DELTAE -309.8428312
 ITERATION   2 PLS= 0.848E-02 0.000E+00 ENERGY     -210.595685 DELTAE   -0.7528535
 ITERATION   3 PLS= 0.403E-02 0.000E+00 ENERGY     -210.712596 DELTAE   -0.1169111
 ITERATION   4 PLS= 0.217E-02 0.000E+00 ENERGY     -210.788815 DELTAE   -0.0762193
 ITERATION   5 PLS= 0.361E-03 0.000E+00 ENERGY     -210.751607 DELTAE    0.0372086
 ITERATION   1 PLS= 0.291E-03 0.000E+00 ENERGY     -210.961904 DELTAE -310.9619037
 ITERATION   2 PLS= 0.487E-02 0.000E+00 ENERGY     -211.155194 DELTAE   -0.1932900
 ITERATION   3 PLS= 0.241E-02 0.000E+00 ENERGY     -211.184898 DELTAE   -0.0297044
 ITERATION   4 PLS= 0.121E-02 0.000E+00 ENERGY     -211.201980 DELTAE   -0.0170816
 CYCLE:    13 TIME:   0.151 TIME LEFT:  2.00W  GRAD.:    16.793 HEAT: -211.1933
 ITERATION   1 PLS= 0.125E-03 0.000E+00 ENERGY     -211.096757 DELTAE -311.0967574
 ITERATION   2 PLS= 0.391E-02 0.000E+00 ENERGY     -211.278320 DELTAE   -0.1815627
 ITERATION   3 PLS= 0.188E-02 0.000E+00 ENERGY     -211.310989 DELTAE   -0.0326686
 ITERATION   4 PLS= 0.903E-03 0.000E+00 ENERGY     -211.332400 DELTAE   -0.0214116
 ITERATION   5 PLS= 0.239E-03 0.000E+00 ENERGY     -211.322202 DELTAE    0.0101986
 CYCLE:    14 TIME:   0.096 TIME LEFT:  2.00W  GRAD.:    17.096 HEAT: -211.3224
 ITERATION   1 PLS= 0.168E-03 0.000E+00 ENERGY     -211.251318 DELTAE -311.2513177
 ITERATION   2 PLS= 0.850E-02 0.000E+00 ENERGY     -211.474538 DELTAE   -0.2232198
 ITERATION   3 PLS= 0.425E-02 0.000E+00 ENERGY     -211.518074 DELTAE   -0.0435363
 ITERATION   4 PLS= 0.210E-02 0.000E+00 ENERGY     -211.544474 DELTAE   -0.0264003
 ITERATION   5 PLS= 0.180E-03 0.000E+00 ENERGY     -211.532136 DELTAE    0.0123381
 CYCLE:    15 TIME:   0.061 TIME LEFT:  2.00W  GRAD.:    16.970 HEAT: -211.5323
 ITERATION   1 PLS= 0.146E-03 0.000E+00 ENERGY     -210.939500 DELTAE -310.9394999
 ITERATION   2 PLS= 0.147E-01 0.000E+00 ENERGY     -211.741717 DELTAE   -0.8022175
 ITERATION   3 PLS= 0.729E-02 0.000E+00 ENERGY     -211.898555 DELTAE   -0.1568374
 ITERATION   4 PLS= 0.357E-02 0.000E+00 ENERGY     -211.990136 DELTAE   -0.0915808
 ITERATION   5 PLS= 0.368E-03 0.000E+00 ENERGY     -211.946181 DELTAE    0.0439548
 CYCLE:    16 TIME:   0.063 TIME LEFT:  2.00W  GRAD.:    25.052 HEAT: -211.9467
 ITERATION   1 PLS= 0.266E-03 0.000E+00 ENERGY     -210.672387 DELTAE -310.6723871
 ITERATION   2 PLS= 0.180E-01 0.000E+00 ENERGY     -212.201881 DELTAE   -1.5294943
 ITERATION   3 PLS= 0.881E-02 0.000E+00 ENERGY     -212.518070 DELTAE   -0.3161881
 ITERATION   4 PLS= 0.425E-02 0.000E+00 ENERGY     -212.705697 DELTAE   -0.1876279
 ITERATION   5 PLS= 0.346E-03 0.000E+00 ENERGY     -212.611943 DELTAE    0.0937541
 CYCLE:    17 TIME:   0.086 TIME LEFT:  2.00W  GRAD.:    33.163 HEAT: -212.6124
 ITERATION   1 PLS= 0.255E-03 0.000E+00 ENERGY     -210.431974 DELTAE -310.4319737
 ITERATION   2 PLS= 0.239E-01 0.000E+00 ENERGY     -213.479708 DELTAE   -3.0477338
 ITERATION   3 PLS= 0.115E-01 0.000E+00 ENERGY     -214.083257 DELTAE   -0.6035491
 ITERATION   4 PLS= 0.544E-02 0.000E+00 ENERGY     -214.418473 DELTAE   -0.3352159
 ITERATION   5 PLS= 0.253E-03 0.000E+00 ENERGY     -214.251127 DELTAE    0.1673453
 ITERATION   6 PLS= 0.133E-03 0.000E+00 ENERGY     -214.251381 DELTAE   -0.0002537
 CYCLE:    18 TIME:   0.068 TIME LEFT:  2.00W  GRAD.:    40.697 HEAT: -214.2516
 ITERATION   1 PLS= 0.100E-03 0.000E+00 ENERGY     -208.974442 DELTAE -308.9744422
 ITERATION   2 PLS= 0.268E-01 0.000E+00 ENERGY     -214.879402 DELTAE   -5.9049603
 ITERATION   3 PLS= 0.124E-01 0.000E+00 ENERGY     -216.061909 DELTAE   -1.1825068
 ITERATION   4 PLS= 0.601E-02 0.000E+00 ENERGY     -216.701091 DELTAE   -0.6391813
 ITERATION   5 PLS= 0.519E-03 0.000E+00 ENERGY     -216.402152 DELTAE    0.2989384
 ITERATION   6 PLS= 0.398E-03 0.000E+00 ENERGY     -216.403804 DELTAE   -0.0016514
 CYCLE:    19 TIME:   0.080 TIME LEFT:  2.00W  GRAD.:    58.054 HEAT: -216.4077
 ITERATION   1 PLS= 0.302E-03 0.000E+00 ENERGY     -204.786301 DELTAE -304.7863007
 ITERATION   2 PLS= 0.320E-01 0.000E+00 ENERGY     -215.836083 DELTAE  -11.0497827
 ITERATION   3 PLS= 0.145E-01 0.000E+00 ENERGY     -217.905363 DELTAE   -2.0692797
 ITERATION   4 PLS= 0.630E-02 0.000E+00 ENERGY     -218.979907 DELTAE   -1.0745442
 ITERATION   5 PLS= 0.737E-03 0.000E+00 ENERGY     -218.481916 DELTAE    0.4979913
 ITERATION   6 PLS= 0.418E-03 0.000E+00 ENERGY     -218.483049 DELTAE   -0.0011329
 CYCLE:    20 TIME:   0.068 TIME LEFT:  2.00W  GRAD.:    77.739 HEAT: -218.4848
 ITERATION   1 PLS= 0.326E-03 0.000E+00 ENERGY     -180.542292 DELTAE -280.5422924
 ITERATION   2 PLS= 0.111E+00 0.000E+00 ENERGY     -201.754141 DELTAE  -21.2118481
 ITERATION   3 PLS= 0.476E-01 0.000E+00 ENERGY     -205.200095 DELTAE   -3.4459541
 ITERATION   4 PLS= 0.209E-01 0.000E+00 ENERGY     -206.721160 DELTAE   -1.5210655
 ITERATION   5 PLS= 0.171E-02 0.000E+00 ENERGY     -206.112125 DELTAE    0.6090355
 ITERATION   6 PLS= 0.115E-02 0.000E+00 ENERGY     -206.121611 DELTAE   -0.0094862
 ITERATION   7 PLS= 0.834E-03 0.000E+00 ENERGY     -206.140866 DELTAE   -0.0192557
 ITERATION   8 PLS= 0.261E-03 0.000E+00 ENERGY     -206.130865 DELTAE    0.0100014
 ITERATION   1 PLS= 0.193E-03 0.000E+00 ENERGY     -208.567174 DELTAE -308.5671737
 ITERATION   2 PLS= 0.597E-01 0.000E+00 ENERGY     -215.656992 DELTAE   -7.0898185
 ITERATION   3 PLS= 0.299E-01 0.000E+00 ENERGY     -216.904347 DELTAE   -1.2473553
 ITERATION   4 PLS= 0.143E-01 0.000E+00 ENERGY     -217.525171 DELTAE   -0.6208234
 ITERATION   5 PLS= 0.139E-02 0.000E+00 ENERGY     -217.247377 DELTAE    0.2777936
 ITERATION   6 PLS= 0.537E-03 0.000E+00 ENERGY     -217.250350 DELTAE   -0.0029728
 ITERATION   1 PLS= 0.388E-03 0.000E+00 ENERGY     -217.803959 DELTAE -317.8039592
 ITERATION   2 PLS= 0.291E-01 0.000E+00 ENERGY     -219.547648 DELTAE   -1.7436883
 ITERATION   3 PLS= 0.141E-01 0.000E+00 ENERGY     -219.834016 DELTAE   -0.2863686
 ITERATION   4 PLS= 0.671E-02 0.000E+00 ENERGY     -219.982377 DELTAE   -0.1483607
 ITERATION   5 PLS= 0.659E-03 0.000E+00 ENERGY     -219.917270 DELTAE    0.0651067
 CYCLE:    21 TIME:   0.223 TIME LEFT:  2.00W  GRAD.:    51.653 HEAT: -219.9185
 ITERATION   1 PLS= 0.467E-03 0.000E+00 ENERGY     -215.085905 DELTAE -315.0859047
 ITERATION   2 PLS= 0.197E-01 0.000E+00 ENERGY     -218.282686 DELTAE   -3.1967810
 ITERATION   3 PLS= 0.990E-02 0.000E+00 ENERGY     -218.768509 DELTAE   -0.4858230
 ITERATION   4 PLS= 0.481E-02 0.000E+00 ENERGY     -219.075335 DELTAE   -0.3068265
 ITERATION   5 PLS= 0.139E-02 0.000E+00 ENERGY     -218.927071 DELTAE    0.1482641
 ITERATION   6 PLS= 0.107E-02 0.000E+00 ENERGY     -218.930013 DELTAE   -0.0029417
 ITERATION   7 PLS= 0.815E-03 0.000E+00 ENERGY     -218.941780 DELTAE   -0.0117676
 ITERATION   1 PLS= 0.127E-03 0.000E+00 ENERGY     -219.728964 DELTAE -319.7289641
 ITERATION   2 PLS= 0.126E-01 0.000E+00 ENERGY     -220.489391 DELTAE   -0.7604273
 ITERATION   3 PLS= 0.607E-02 0.000E+00 ENERGY     -220.608877 DELTAE   -0.1194859
 ITERATION   4 PLS= 0.287E-02 0.000E+00 ENERGY     -220.677352 DELTAE   -0.0684745
 ITERATION   5 PLS= 0.480E-03 0.000E+00 ENERGY     -220.645699 DELTAE    0.0316523
 CYCLE:    22 TIME:   0.123 TIME LEFT:  2.00W  GRAD.:    31.390 HEAT: -220.6462
 ITERATION   1 PLS= 0.359E-03 0.000E+00 ENERGY     -220.507267 DELTAE -320.5072669
 ITERATION   2 PLS= 0.924E-02 0.000E+00 ENERGY     -221.026297 DELTAE   -0.5190298
 ITERATION   3 PLS= 0.446E-02 0.000E+00 ENERGY     -221.108361 DELTAE   -0.0820640
 ITERATION   4 PLS= 0.213E-02 0.000E+00 ENERGY     -221.149247 DELTAE   -0.0408866
 ITERATION   5 PLS= 0.205E-03 0.000E+00 ENERGY     -221.130842 DELTAE    0.0184050
 CYCLE:    23 TIME:   0.090 TIME LEFT:  2.00W  GRAD.:    31.755 HEAT: -221.1309
 ITERATION   1 PLS= 0.155E-03 0.000E+00 ENERGY     -219.759343 DELTAE -319.7593431
 ITERATION   2 PLS= 0.696E-02 0.000E+00 ENERGY     -220.817266 DELTAE   -1.0579227
 ITERATION   3 PLS= 0.297E-02 0.000E+00 ENERGY     -220.976472 DELTAE   -0.1592064
 ITERATION   4 PLS= 0.157E-02 0.000E+00 ENERGY     -221.066152 DELTAE   -0.0896801
 ITERATION   5 PLS= 0.569E-03 0.000E+00 ENERGY     -221.020535 DELTAE    0.0456172
 ITERATION   1 PLS= 0.431E-03 0.000E+00 ENERGY     -221.146684 DELTAE -321.1466838
 ITERATION   2 PLS= 0.322E-02 0.000E+00 ENERGY     -221.366037 DELTAE   -0.2193537
 ITERATION   3 PLS= 0.141E-02 0.000E+00 ENERGY     -221.403972 DELTAE   -0.0379342
 ITERATION   4 PLS= 0.667E-03 0.000E+00 ENERGY     -221.423096 DELTAE   -0.0191242
 CYCLE:    24 TIME:   0.159 TIME LEFT:  2.00W  GRAD.:    24.912 HEAT: -221.4142
 ITERATION   1 PLS= 0.154E-03 0.000E+00 ENERGY     -221.041838 DELTAE -321.0418378
 ITERATION   2 PLS= 0.451E-02 0.000E+00 ENERGY     -221.456385 DELTAE   -0.4145475
 ITERATION   3 PLS= 0.223E-02 0.000E+00 ENERGY     -221.533935 DELTAE   -0.0775501
 ITERATION   4 PLS= 0.114E-02 0.000E+00 ENERGY     -221.588084 DELTAE   -0.0541484
 ITERATION   5 PLS= 0.442E-03 0.000E+00 ENERGY     -221.558572 DELTAE    0.0295116
 CYCLE:    25 TIME:   0.081 TIME LEFT:  2.00W  GRAD.:    21.681 HEAT: -221.5589
 ITERATION   1 PLS= 0.340E-03 0.000E+00 ENERGY     -221.044163 DELTAE -321.0441634
 ITERATION   2 PLS= 0.419E-02 0.000E+00 ENERGY     -221.554866 DELTAE   -0.5107027
 ITERATION   3 PLS= 0.254E-02 0.000E+00 ENERGY     -221.647389 DELTAE   -0.0925232
 ITERATION   4 PLS= 0.152E-02 0.000E+00 ENERGY     -221.711171 DELTAE   -0.0637823
 ITERATION   5 PLS= 0.271E-03 0.000E+00 ENERGY     -221.678571 DELTAE    0.0326005
 CYCLE:    26 TIME:   0.066 TIME LEFT:  2.00W  GRAD.:    25.202 HEAT: -221.6790
 ITERATION   1 PLS= 0.195E-03 0.000E+00 ENERGY     -221.231871 DELTAE -321.2318709
 ITERATION   2 PLS= 0.466E-02 0.000E+00 ENERGY     -221.633965 DELTAE   -0.4020943
 ITERATION   3 PLS= 0.212E-02 0.000E+00 ENERGY     -221.709183 DELTAE   -0.0752182
 ITERATION   4 PLS= 0.106E-02 0.000E+00 ENERGY     -221.751706 DELTAE   -0.0425230
 ITERATION   5 PLS= 0.252E-03 0.000E+00 ENERGY     -221.731900 DELTAE    0.0198067
 CYCLE:    27 TIME:   0.098 TIME LEFT:  2.00W  GRAD.:    14.362 HEAT: -221.7321
 ITERATION   1 PLS= 0.190E-03 0.000E+00 ENERGY     -221.153601 DELTAE -321.1536011
 ITERATION   2 PLS= 0.437E-02 0.000E+00 ENERGY     -221.563021 DELTAE   -0.4094195
 ITERATION   3 PLS= 0.227E-02 0.000E+00 ENERGY     -221.636127 DELTAE   -0.0731061
 ITERATION   4 PLS= 0.116E-02 0.000E+00 ENERGY     -221.679866 DELTAE   -0.0437390
 ITERATION   5 PLS= 0.221E-03 0.000E+00 ENERGY     -221.657438 DELTAE    0.0224277
 ITERATION   1 PLS= 0.154E-03 0.000E+00 ENERGY     -221.628289 DELTAE -321.6282890
 ITERATION   2 PLS= 0.302E-02 0.000E+00 ENERGY     -221.740936 DELTAE   -0.1126471
 ITERATION   3 PLS= 0.148E-02 0.000E+00 ENERGY     -221.762460 DELTAE   -0.0215240
 ITERATION   4 PLS= 0.732E-03 0.000E+00 ENERGY     -221.773568 DELTAE   -0.0111080
 CYCLE:    28 TIME:   0.119 TIME LEFT:  2.00W  GRAD.:    15.605 HEAT: -221.7685
 ITERATION   1 PLS= 0.596E-04 0.000E+00 ENERGY     -221.720383 DELTAE -321.7203831
 ITERATION   2 PLS= 0.420E-02 0.000E+00 ENERGY     -221.812921 DELTAE   -0.0925383
 ITERATION   3 PLS= 0.207E-02 0.000E+00 ENERGY     -221.828992 DELTAE   -0.0160701
 ITERATION   4 PLS= 0.102E-02 0.000E+00 ENERGY     -221.837696 DELTAE   -0.0087041
 CYCLE:    29 TIME:   0.069 TIME LEFT:  2.00W  GRAD.:     8.716 HEAT: -221.8337
 ITERATION   1 PLS= 0.134E-03 0.000E+00 ENERGY     -221.660652 DELTAE -321.6606518
 ITERATION   2 PLS= 0.469E-02 0.000E+00 ENERGY     -221.808978 DELTAE   -0.1483261
 ITERATION   3 PLS= 0.220E-02 0.000E+00 ENERGY     -221.837001 DELTAE   -0.0280226
 ITERATION   4 PLS= 0.104E-02 0.000E+00 ENERGY     -221.852595 DELTAE   -0.0155945
 CYCLE:    30 TIME:   0.065 TIME LEFT:  2.00W  GRAD.:    12.134 HEAT: -221.8455
 ITERATION   1 PLS= 0.186E-03 0.000E+00 ENERGY     -221.603942 DELTAE -321.6039418
 ITERATION   2 PLS= 0.573E-02 0.000E+00 ENERGY     -221.784445 DELTAE   -0.1805036
 ITERATION   3 PLS= 0.247E-02 0.000E+00 ENERGY     -221.820020 DELTAE   -0.0355747
 ITERATION   4 PLS= 0.107E-02 0.000E+00 ENERGY     -221.839477 DELTAE   -0.0194571
 ITERATION   1 PLS= 0.110E-03 0.000E+00 ENERGY     -221.838860 DELTAE -321.8388599
 ITERATION   2 PLS= 0.282E-02 0.000E+00 ENERGY     -221.886303 DELTAE   -0.0474430
 ITERATION   3 PLS= 0.117E-02 0.000E+00 ENERGY     -221.895866 DELTAE   -0.0095626
 ITERATION   4 PLS= 0.504E-03 0.000E+00 ENERGY     -221.901056 DELTAE   -0.0051907
 CYCLE:    31 TIME:   0.105 TIME LEFT:  2.00W  GRAD.:     6.573 HEAT: -221.8987
 ITERATION   1 PLS= 0.840E-04 0.000E+00 ENERGY     -221.833631 DELTAE -321.8336309
 ITERATION   2 PLS= 0.167E-02 0.000E+00 ENERGY     -221.880780 DELTAE   -0.0471491
 ITERATION   3 PLS= 0.837E-03 0.000E+00 ENERGY     -221.888400 DELTAE   -0.0076204
 ITERATION   4 PLS= 0.417E-03 0.000E+00 ENERGY     -221.893304 DELTAE   -0.0049034
 ITERATION   1 PLS= 0.144E-03 0.000E+00 ENERGY     -221.905278 DELTAE -321.9052781
 ITERATION   2 PLS= 0.127E-02 0.000E+00 ENERGY     -221.916371 DELTAE   -0.0110926
 ITERATION   3 PLS= 0.623E-03 0.000E+00 ENERGY     -221.918367 DELTAE   -0.0019964
 ITERATION   4 PLS= 0.306E-03 0.000E+00 ENERGY     -221.919475 DELTAE   -0.0011081
 CYCLE:    32 TIME:   0.089 TIME LEFT:  2.00W  GRAD.:     4.734 HEAT: -221.9190
 ITERATION   1 PLS= 0.201E-04 0.000E+00 ENERGY     -221.880653 DELTAE -321.8806526
 ITERATION   2 PLS= 0.158E-02 0.000E+00 ENERGY     -221.898688 DELTAE   -0.0180351
 ITERATION   3 PLS= 0.683E-03 0.000E+00 ENERGY     -221.902452 DELTAE   -0.0037640
 ITERATION   4 PLS= 0.296E-03 0.000E+00 ENERGY     -221.904692 DELTAE   -0.0022400
 ITERATION   1 PLS= 0.831E-04 0.000E+00 ENERGY     -221.922464 DELTAE -321.9224636
 ITERATION   2 PLS= 0.887E-03 0.000E+00 ENERGY     -221.927292 DELTAE   -0.0048289
 ITERATION   3 PLS= 0.375E-03 0.000E+00 ENERGY     -221.928310 DELTAE   -0.0010179
 ITERATION   4 PLS= 0.166E-03 0.000E+00 ENERGY     -221.928870 DELTAE   -0.0005601
 CYCLE:    33 TIME:   0.112 TIME LEFT:  2.00W  GRAD.:     3.116 HEAT: -221.9286
 ITERATION   1 PLS= 0.164E-04 0.000E+00 ENERGY     -221.887722 DELTAE -321.8877223
 ITERATION   2 PLS= 0.633E-03 0.000E+00 ENERGY     -221.896280 DELTAE   -0.0085575
 ITERATION   3 PLS= 0.308E-03 0.000E+00 ENERGY     -221.897872 DELTAE   -0.0015922
 ITERATION   4 PLS= 0.171E-03 0.000E+00 ENERGY     -221.898856 DELTAE   -0.0009836
 ITERATION   1 PLS= 0.294E-04 0.000E+00 ENERGY     -221.894624 DELTAE -321.8946237
 ITERATION   2 PLS= 0.320E-03 0.000E+00 ENERGY     -221.896658 DELTAE   -0.0020338
 ITERATION   3 PLS= 0.152E-03 0.000E+00 ENERGY     -221.897075 DELTAE   -0.0004179
 ITERATION   4 PLS= 0.714E-04 0.000E+00 ENERGY     -221.897334 DELTAE   -0.0002589
 ITERATION   1 PLS= 0.121E-04 0.000E+00 ENERGY     -221.921218 DELTAE -321.9212175
 ITERATION   2 PLS= 0.162E-03 0.000E+00 ENERGY     -221.921748 DELTAE   -0.0005305
 ITERATION   3 PLS= 0.818E-04 0.000E+00 ENERGY     -221.921848 DELTAE   -0.0001002
 ITERATION   4 PLS= 0.463E-04 0.000E+00 ENERGY     -221.921913 DELTAE   -0.0000652
 CYCLE:    34 TIME:   0.127 TIME LEFT:  2.00W  GRAD.:     2.277 HEAT: -221.9219
 ITERATION   1 PLS= 0.743E-05 0.000E+00 ENERGY     -221.875204 DELTAE -321.8752043
 ITERATION   2 PLS= 0.297E-02 0.000E+00 ENERGY     -222.005976 DELTAE   -0.1307718
 ITERATION   3 PLS= 0.135E-02 0.000E+00 ENERGY     -222.036297 DELTAE   -0.0303205
 ITERATION   4 PLS= 0.615E-03 0.000E+00 ENERGY     -222.055452 DELTAE   -0.0191557
 ITERATION   5 PLS= 0.103E-03 0.000E+00 ENERGY     -222.046217 DELTAE    0.0092356
 CYCLE:    35 TIME:   0.064 TIME LEFT:  2.00W  GRAD.:     5.259 HEAT: -222.0462
 ITERATION   1 PLS= 0.669E-04 0.000E+00 ENERGY     -222.012726 DELTAE -322.0127257
 ITERATION   2 PLS= 0.126E-02 0.000E+00 ENERGY     -222.071784 DELTAE   -0.0590580
 ITERATION   3 PLS= 0.633E-03 0.000E+00 ENERGY     -222.085357 DELTAE   -0.0135732
 ITERATION   4 PLS= 0.311E-03 0.000E+00 ENERGY     -222.094687 DELTAE   -0.0093302
 CYCLE:    36 TIME:   0.100 TIME LEFT:  2.00W  GRAD.:     4.936 HEAT: -222.0898
 ITERATION   1 PLS= 0.500E-04 0.000E+00 ENERGY     -222.050185 DELTAE -322.0501854
 ITERATION   2 PLS= 0.141E-02 0.000E+00 ENERGY     -222.155694 DELTAE   -0.1055087
 ITERATION   3 PLS= 0.703E-03 0.000E+00 ENERGY     -222.180017 DELTAE   -0.0243231
 ITERATION   4 PLS= 0.351E-03 0.000E+00 ENERGY     -222.197401 DELTAE   -0.0173834
 CYCLE:    37 TIME:   0.054 TIME LEFT:  2.00W  GRAD.:     2.387 HEAT: -222.1879
 ITERATION   1 PLS= 0.707E-04 0.000E+00 ENERGY     -221.979448 DELTAE -321.9794482
 ITERATION   2 PLS= 0.295E-02 0.000E+00 ENERGY     -222.206820 DELTAE   -0.2273721
 ITERATION   3 PLS= 0.150E-02 0.000E+00 ENERGY     -222.260662 DELTAE   -0.0538415
 ITERATION   4 PLS= 0.755E-03 0.000E+00 ENERGY     -222.298789 DELTAE   -0.0381275
 ITERATION   5 PLS= 0.110E-03 0.000E+00 ENERGY     -222.278374 DELTAE    0.0204156
 ITERATION   6 PLS= 0.667E-04 0.000E+00 ENERGY     -222.278396 DELTAE   -0.0000220
 CYCLE:    38 TIME:   0.063 TIME LEFT:  2.00W  GRAD.:     4.179 HEAT: -222.2784
 ITERATION   1 PLS= 0.407E-04 0.000E+00 ENERGY     -221.602599 DELTAE -321.6025990
 ITERATION   2 PLS= 0.331E-02 0.000E+00 ENERGY     -222.064423 DELTAE   -0.4618245
 ITERATION   3 PLS= 0.194E-02 0.000E+00 ENERGY     -222.173556 DELTAE   -0.1091324
 ITERATION   4 PLS= 0.107E-02 0.000E+00 ENERGY     -222.255140 DELTAE   -0.0815846
 ITERATION   5 PLS= 0.171E-03 0.000E+00 ENERGY     -222.209842 DELTAE    0.0452980
 ITERATION   1 PLS= 0.125E-03 0.000E+00 ENERGY     -222.032001 DELTAE -322.0320006
 ITERATION   2 PLS= 0.210E-02 0.000E+00 ENERGY     -222.152554 DELTAE   -0.1205529
 ITERATION   3 PLS= 0.989E-03 0.000E+00 ENERGY     -222.181115 DELTAE   -0.0285615
 ITERATION   4 PLS= 0.484E-03 0.000E+00 ENERGY     -222.199773 DELTAE   -0.0186581
 ITERATION   5 PLS= 0.776E-04 0.000E+00 ENERGY     -222.190483 DELTAE    0.0092905
 ITERATION   1 PLS= 0.471E-04 0.000E+00 ENERGY     -222.124622 DELTAE -322.1246224
 ITERATION   2 PLS= 0.904E-03 0.000E+00 ENERGY     -222.154905 DELTAE   -0.0302830
 ITERATION   3 PLS= 0.425E-03 0.000E+00 ENERGY     -222.162092 DELTAE   -0.0071870
 ITERATION   4 PLS= 0.201E-03 0.000E+00 ENERGY     -222.167037 DELTAE   -0.0049451
 ITERATION   1 PLS= 0.430E-04 0.000E+00 ENERGY     -222.154050 DELTAE -322.1540505
 ITERATION   2 PLS= 0.458E-03 0.000E+00 ENERGY     -222.162045 DELTAE   -0.0079944
 ITERATION   3 PLS= 0.212E-03 0.000E+00 ENERGY     -222.163927 DELTAE   -0.0018826
 ITERATION   4 PLS= 0.983E-04 0.000E+00 ENERGY     -222.165290 DELTAE   -0.0013630
 ITERATION   1 PLS= 0.269E-04 0.000E+00 ENERGY     -222.162241 DELTAE -322.1622405
 ITERATION   2 PLS= 0.219E-03 0.000E+00 ENERGY     -222.164542 DELTAE   -0.0023016
 ITERATION   3 PLS= 0.141E-03 0.000E+00 ENERGY     -222.165054 DELTAE   -0.0005118
 ITERATION   4 PLS= 0.846E-04 0.000E+00 ENERGY     -222.165486 DELTAE   -0.0004325
 ITERATION   1 PLS= 0.279E-04 0.000E+00 ENERGY     -222.161596 DELTAE -322.1615965
 ITERATION   2 PLS= 0.242E-03 0.000E+00 ENERGY     -222.162382 DELTAE   -0.0007858
 ITERATION   3 PLS= 0.121E-03 0.000E+00 ENERGY     -222.162531 DELTAE   -0.0001491
 ITERATION   4 PLS= 0.770E-04 0.000E+00 ENERGY     -222.162680 DELTAE   -0.0001490
 ITERATION   1 PLS= 0.266E-04 0.000E+00 ENERGY     -222.277389 DELTAE -322.2773886
 ITERATION   2 PLS= 0.334E-03 0.000E+00 ENERGY     -222.277715 DELTAE   -0.0003269
 ITERATION   3 PLS= 0.113E-03 0.000E+00 ENERGY     -222.277764 DELTAE   -0.0000486
 ITERATION   4 PLS= 0.423E-04 0.000E+00 ENERGY     -222.277791 DELTAE   -0.0000272
 CYCLE:    39 TIME:   0.565 TIME LEFT:  2.00W  GRAD.:     3.359 HEAT: -222.2778
 ITERATION   1 PLS= 0.220E-04 0.000E+00 ENERGY     -218.197402 DELTAE -318.1974020
 ITERATION   2 PLS= 0.114E-01 0.000E+00 ENERGY     -221.104934 DELTAE   -2.9075322
 ITERATION   3 PLS= 0.647E-02 0.000E+00 ENERGY     -221.807794 DELTAE   -0.7028601
 ITERATION   4 PLS= 0.368E-02 0.000E+00 ENERGY     -222.365020 DELTAE   -0.5572256
 ITERATION   5 PLS= 0.315E-03 0.000E+00 ENERGY     -222.044357 DELTAE    0.3206624
 ITERATION   6 PLS= 0.225E-03 0.000E+00 ENERGY     -222.045176 DELTAE   -0.0008190
 ITERATION   1 PLS= 0.165E-03 0.000E+00 ENERGY     -221.348152 DELTAE -321.3481517
 ITERATION   2 PLS= 0.768E-02 0.000E+00 ENERGY     -222.050438 DELTAE   -0.7022865
 ITERATION   3 PLS= 0.342E-02 0.000E+00 ENERGY     -222.217413 DELTAE   -0.1669752
 ITERATION   4 PLS= 0.160E-02 0.000E+00 ENERGY     -222.321916 DELTAE   -0.1045021
 ITERATION   5 PLS= 0.212E-03 0.000E+00 ENERGY     -222.272631 DELTAE    0.0492849
 ITERATION   6 PLS= 0.130E-03 0.000E+00 ENERGY     -222.272713 DELTAE   -0.0000820
 ITERATION   1 PLS= 0.813E-04 0.000E+00 ENERGY     -221.874310 DELTAE -321.8743105
 ITERATION   2 PLS= 0.308E-02 0.000E+00 ENERGY     -222.062642 DELTAE   -0.1883316
 ITERATION   3 PLS= 0.144E-02 0.000E+00 ENERGY     -222.107732 DELTAE   -0.0450895
 ITERATION   4 PLS= 0.700E-03 0.000E+00 ENERGY     -222.137452 DELTAE   -0.0297207
 ITERATION   5 PLS= 0.101E-03 0.000E+00 ENERGY     -222.122722 DELTAE    0.0147301
 ITERATION   1 PLS= 0.628E-04 0.000E+00 ENERGY     -222.071408 DELTAE -322.0714084
 ITERATION   2 PLS= 0.124E-02 0.000E+00 ENERGY     -222.124150 DELTAE   -0.0527415
 ITERATION   3 PLS= 0.599E-03 0.000E+00 ENERGY     -222.136925 DELTAE   -0.0127750
 ITERATION   4 PLS= 0.298E-03 0.000E+00 ENERGY     -222.145853 DELTAE   -0.0089286
 ITERATION   5 PLS= 0.597E-04 0.000E+00 ENERGY     -222.141231 DELTAE    0.0046228
 ITERATION   1 PLS= 0.439E-04 0.000E+00 ENERGY     -222.077615 DELTAE -322.0776146
 ITERATION   2 PLS= 0.713E-03 0.000E+00 ENERGY     -222.092779 DELTAE   -0.0151640
 ITERATION   3 PLS= 0.368E-03 0.000E+00 ENERGY     -222.096461 DELTAE   -0.0036827
 ITERATION   4 PLS= 0.193E-03 0.000E+00 ENERGY     -222.099248 DELTAE   -0.0027871
 ITERATION   1 PLS= 0.374E-04 0.000E+00 ENERGY     -222.092512 DELTAE -322.0925120
 ITERATION   2 PLS= 0.414E-03 0.000E+00 ENERGY     -222.096402 DELTAE   -0.0038897
 ITERATION   3 PLS= 0.241E-03 0.000E+00 ENERGY     -222.097320 DELTAE   -0.0009182
 ITERATION   4 PLS= 0.136E-03 0.000E+00 ENERGY     -222.098101 DELTAE   -0.0007809
 ITERATION   1 PLS= 0.273E-04 0.000E+00 ENERGY     -222.163246 DELTAE -322.1632458
 ITERATION   2 PLS= 0.326E-03 0.000E+00 ENERGY     -222.164231 DELTAE   -0.0009849
 ITERATION   3 PLS= 0.100E-03 0.000E+00 ENERGY     -222.164427 DELTAE   -0.0001960
 ITERATION   4 PLS= 0.644E-04 0.000E+00 ENERGY     -222.164552 DELTAE   -0.0001258
 ITERATION   1 PLS= 0.225E-04 0.000E+00 ENERGY     -222.162587 DELTAE -322.1625866
 ITERATION   2 PLS= 0.207E-03 0.000E+00 ENERGY     -222.162827 DELTAE   -0.0002399
 ITERATION   3 PLS= 0.995E-04 0.000E+00 ENERGY     -222.162871 DELTAE   -0.0000448
 ITERATION   4 PLS= 0.612E-04 0.000E+00 ENERGY     -222.162910 DELTAE   -0.0000388
 ITERATION   1 PLS= 0.121E-04 0.000E+00 ENERGY     -222.161663 DELTAE -322.1616628
 ITERATION   2 PLS= 0.118E-03 0.000E+00 ENERGY     -222.161724 DELTAE   -0.0000616
 ITERATION   3 PLS= 0.516E-04 0.000E+00 ENERGY     -222.161735 DELTAE   -0.0000105
 ITERATION   4 PLS= 0.321E-04 0.000E+00 ENERGY     -222.161744 DELTAE   -0.0000088
 ITERATION   1 PLS= 0.681E-05 0.000E+00 ENERGY     -222.278511 DELTAE -322.2785109
 ITERATION   2 PLS= 0.311E-03 0.000E+00 ENERGY     -222.278626 DELTAE   -0.0001151
 ITERATION   3 PLS= 0.105E-03 0.000E+00 ENERGY     -222.278641 DELTAE   -0.0000150
 ITERATION   4 PLS= 0.361E-04 0.000E+00 ENERGY     -222.278646 DELTAE   -0.0000046
 CYCLE:    40 TIME:   0.776 TIME LEFT:  2.00W  GRAD.:     3.133 HEAT: -222.2786
 ITERATION   1 PLS= 0.487E-05 0.000E+00 ENERGY     -214.143279 DELTAE -314.1432790
 ITERATION   2 PLS= 0.185E-01 0.000E+00 ENERGY     -219.927556 DELTAE   -5.7842767
 ITERATION   3 PLS= 0.107E-01 0.000E+00 ENERGY     -221.325862 DELTAE   -1.3983065
 ITERATION   4 PLS= 0.643E-02 0.000E+00 ENERGY     -222.472443 DELTAE   -1.1465803
 ITERATION   5 PLS= 0.698E-03 0.000E+00 ENERGY     -221.797855 DELTAE    0.6745879
 ITERATION   6 PLS= 0.449E-03 0.000E+00 ENERGY     -221.799692 DELTAE   -0.0018376
 ITERATION   1 PLS= 0.235E-03 0.000E+00 ENERGY     -220.398994 DELTAE -320.3989941
 ITERATION   2 PLS= 0.130E-01 0.000E+00 ENERGY     -221.824211 DELTAE   -1.4252174
 ITERATION   3 PLS= 0.576E-02 0.000E+00 ENERGY     -222.159521 DELTAE   -0.3353100
 ITERATION   4 PLS= 0.269E-02 0.000E+00 ENERGY     -222.363384 DELTAE   -0.2038625
 ITERATION   5 PLS= 0.302E-03 0.000E+00 ENERGY     -222.270029 DELTAE    0.0933554
 ITERATION   6 PLS= 0.187E-03 0.000E+00 ENERGY     -222.270223 DELTAE   -0.0001941
 ITERATION   1 PLS= 0.117E-03 0.000E+00 ENERGY     -221.750386 DELTAE -321.7503857
 ITERATION   2 PLS= 0.486E-02 0.000E+00 ENERGY     -222.133674 DELTAE   -0.3832884
 ITERATION   3 PLS= 0.218E-02 0.000E+00 ENERGY     -222.225025 DELTAE   -0.0913513
 ITERATION   4 PLS= 0.102E-02 0.000E+00 ENERGY     -222.283125 DELTAE   -0.0580999
 ITERATION   5 PLS= 0.150E-03 0.000E+00 ENERGY     -222.255229 DELTAE    0.0278963
 ITERATION   1 PLS= 0.922E-04 0.000E+00 ENERGY     -221.989929 DELTAE -321.9899286
 ITERATION   2 PLS= 0.220E-02 0.000E+00 ENERGY     -222.098059 DELTAE   -0.1081306
 ITERATION   3 PLS= 0.105E-02 0.000E+00 ENERGY     -222.124123 DELTAE   -0.0260640
 ITERATION   4 PLS= 0.519E-03 0.000E+00 ENERGY     -222.141851 DELTAE   -0.0177280
 ITERATION   5 PLS= 0.736E-04 0.000E+00 ENERGY     -222.132831 DELTAE    0.0090200
 ITERATION   1 PLS= 0.509E-04 0.000E+00 ENERGY     -222.054532 DELTAE -322.0545324
 ITERATION   2 PLS= 0.102E-02 0.000E+00 ENERGY     -222.085467 DELTAE   -0.0309350
 ITERATION   3 PLS= 0.518E-03 0.000E+00 ENERGY     -222.092951 DELTAE   -0.0074834
 ITERATION   4 PLS= 0.270E-03 0.000E+00 ENERGY     -222.098473 DELTAE   -0.0055223
 ITERATION   1 PLS= 0.376E-04 0.000E+00 ENERGY     -222.091014 DELTAE -322.0910138
 ITERATION   2 PLS= 0.574E-03 0.000E+00 ENERGY     -222.098635 DELTAE   -0.0076217
 ITERATION   3 PLS= 0.339E-03 0.000E+00 ENERGY     -222.100411 DELTAE   -0.0017757
 ITERATION   4 PLS= 0.193E-03 0.000E+00 ENERGY     -222.101828 DELTAE   -0.0014168
 ITERATION   1 PLS= 0.256E-04 0.000E+00 ENERGY     -222.163689 DELTAE -322.1636887
 ITERATION   2 PLS= 0.426E-03 0.000E+00 ENERGY     -222.165493 DELTAE   -0.0018041
 ITERATION   3 PLS= 0.184E-03 0.000E+00 ENERGY     -222.165852 DELTAE   -0.0003589
 ITERATION   4 PLS= 0.113E-03 0.000E+00 ENERGY     -222.166088 DELTAE   -0.0002367
 ITERATION   1 PLS= 0.267E-04 0.000E+00 ENERGY     -222.163611 DELTAE -322.1636109
 ITERATION   2 PLS= 0.285E-03 0.000E+00 ENERGY     -222.164057 DELTAE   -0.0004460
 ITERATION   3 PLS= 0.139E-03 0.000E+00 ENERGY     -222.164138 DELTAE   -0.0000809
 ITERATION   4 PLS= 0.856E-04 0.000E+00 ENERGY     -222.164200 DELTAE   -0.0000626
 ITERATION   1 PLS= 0.172E-04 0.000E+00 ENERGY     -222.162705 DELTAE -322.1627049
 ITERATION   2 PLS= 0.164E-03 0.000E+00 ENERGY     -222.162821 DELTAE   -0.0001157
 ITERATION   3 PLS= 0.730E-04 0.000E+00 ENERGY     -222.162840 DELTAE   -0.0000190
 ITERATION   4 PLS= 0.453E-04 0.000E+00 ENERGY     -222.162854 DELTAE   -0.0000139
 ITERATION   1 PLS= 0.960E-05 0.000E+00 ENERGY     -222.161981 DELTAE -322.1619808
 ITERATION   2 PLS= 0.871E-04 0.000E+00 ENERGY     -222.162012 DELTAE   -0.0000309
 ITERATION   3 PLS= 0.377E-04 0.000E+00 ENERGY     -222.162017 DELTAE   -0.0000049
 ITERATION   4 PLS= 0.235E-04 0.000E+00 ENERGY     -222.162020 DELTAE   -0.0000036

     TRUST RADIUS NOW LESS THAN  0.00010 OPTIMIZATION TERMINATING
      THE GEOMETRY MAY NOT BE COMPLETELY OPTIMIZED
      (TO CONTINUE, ADD 'LET DDMIN=0.0' TO THE KEYWORD LINE)
 ITERATION   1 PLS= 0.506E-05 0.000E+00 ENERGY     -222.278489 DELTAE -322.2784888
 ITERATION   2 PLS= 0.310E-03 0.000E+00 ENERGY     -222.278623 DELTAE   -0.0001346
 ITERATION   3 PLS= 0.106E-03 0.000E+00 ENERGY     -222.278641 DELTAE   -0.0000171
 ITERATION   4 PLS= 0.375E-04 0.000E+00 ENERGY     -222.278646 DELTAE   -0.0000052

 -------------------------------------------------------------------------------
 PM7 CHARGE=-1 SINGLET AUX DUMP=30M ITRY=15000 eps=78.4 T=14D PL THREADS=40

 Mopac file generated by Gabedit


     GEOMETRY OPTIMISED USING EIGENVECTOR FOLLOWING (EF).     
     SCF FIELD WAS ACHIEVED                                   


                              PM7 CALCULATION
                                                       MOPAC v22.1.0 Linux
                                                       Sun Mar 24 02:03:44 2024




          FINAL HEAT OF FORMATION =       -222.27864 KCAL/MOL =    -930.01385 KJ/MOL
          VAN DER WAALS AREA      =        256.85 SQUARE ANGSTROMS



          DIELECTRIC ENERGY       =         -3.70748 EV
          COSMO AREA              =        256.85 SQUARE ANGSTROMS
          COSMO VOLUME            =        264.93 CUBIC ANGSTROMS

          GRADIENT NORM           =          3.13324          =       0.60299 PER ATOM
          IONIZATION POTENTIAL    =         10.529241 EV
          HOMO LUMO ENERGIES (EV) =        -10.529 -1.575
          NO. OF FILLED LEVELS    =         45
          MOLECULAR WEIGHT        =        231.1847         POINT GROUP:  C1  

          MOLECULAR DIMENSIONS (Angstroms)

            Atom       Atom       Distance
            O    23    H    20     9.53361
            O    24    H    14     6.33707
            H    21    O    18     4.54972


          SCF CALCULATIONS        =         80

          WALL-CLOCK TIME         =      5.987 SECONDS
          COMPUTATION TIME        =          5 MINUTES AND 24.901 SECONDS



       FINAL  POINT  AND  DERIVATIVES

   PARAMETER     ATOM    TYPE            VALUE        GRADIENT
      1          1  C    CARTESIAN X    -0.801627     -0.043073  KCAL/ANGSTROM
      2          1  C    CARTESIAN Y     1.170510      0.314069  KCAL/ANGSTROM
      3          1  C    CARTESIAN Z     0.019069     -0.125449  KCAL/ANGSTROM
      4          2  C    CARTESIAN X     0.540354     -0.290752  KCAL/ANGSTROM
      5          2  C    CARTESIAN Y     1.160327     -0.171608  KCAL/ANGSTROM
      6          2  C    CARTESIAN Z     0.377130     -0.331767  KCAL/ANGSTROM
      7          3  C    CARTESIAN X     1.293074      0.358824  KCAL/ANGSTROM
      8          3  C    CARTESIAN Y    -0.017883     -0.279566  KCAL/ANGSTROM
      9          3  C    CARTESIAN Z     0.287227      0.343852  KCAL/ANGSTROM
     10          4  C    CARTESIAN X     0.687310     -0.334560  KCAL/ANGSTROM
     11          4  C    CARTESIAN Y    -1.195978      0.135147  KCAL/ANGSTROM
     12          4  C    CARTESIAN Z    -0.151149     -0.015436  KCAL/ANGSTROM
     13          5  C    CARTESIAN X    -0.658685     -0.061737  KCAL/ANGSTROM
     14          5  C    CARTESIAN Y    -1.205980     -0.101461  KCAL/ANGSTROM
     15          5  C    CARTESIAN Z    -0.506778     -0.411630  KCAL/ANGSTROM
     16          6  C    CARTESIAN X    -1.393509     -0.002334  KCAL/ANGSTROM
     17          6  C    CARTESIAN Y    -0.019911     -0.324583  KCAL/ANGSTROM
     18          6  C    CARTESIAN Z    -0.421192      0.235484  KCAL/ANGSTROM
     19          7  H    CARTESIAN X    -1.387053      0.043361  KCAL/ANGSTROM
     20          7  H    CARTESIAN Y     2.095187     -0.113099  KCAL/ANGSTROM
     21          7  H    CARTESIAN Z     0.081864     -0.126936  KCAL/ANGSTROM
     22          8  H    CARTESIAN X     1.005414     -0.202463  KCAL/ANGSTROM
     23          8  H    CARTESIAN Y     2.088997      0.117049  KCAL/ANGSTROM
     24          8  H    CARTESIAN Z     0.724891     -0.016003  KCAL/ANGSTROM
     25          9  H    CARTESIAN X     1.252796     -0.412549  KCAL/ANGSTROM
     26          9  H    CARTESIAN Y    -2.129933     -0.235530  KCAL/ANGSTROM
     27          9  H    CARTESIAN Z    -0.224918      0.021721  KCAL/ANGSTROM
     28         10  C    CARTESIAN X     2.744519      0.123470  KCAL/ANGSTROM
     29         10  C    CARTESIAN Y     0.032047     -0.097108  KCAL/ANGSTROM
     30         10  C    CARTESIAN Z     0.695235      0.279467  KCAL/ANGSTROM
     31         11  H    CARTESIAN X     2.826472      0.697918  KCAL/ANGSTROM
     32         11  H    CARTESIAN Y     0.519682     -0.173603  KCAL/ANGSTROM
     33         11  H    CARTESIAN Z     1.732394     -0.308457  KCAL/ANGSTROM
     34         12  C    CARTESIAN X     3.446063      0.109547  KCAL/ANGSTROM
     35         12  C    CARTESIAN Y    -1.317704      0.543619  KCAL/ANGSTROM
     36         12  C    CARTESIAN Z     0.757728      0.190551  KCAL/ANGSTROM
     37         13  H    CARTESIAN X     4.493076      0.180853  KCAL/ANGSTROM
     38         13  H    CARTESIAN Y    -1.222533      0.246324  KCAL/ANGSTROM
     39         13  H    CARTESIAN Z     1.087495      0.027885  KCAL/ANGSTROM
     40         14  H    CARTESIAN X     3.460418     -0.075022  KCAL/ANGSTROM
     41         14  H    CARTESIAN Y    -1.844827     -0.152514  KCAL/ANGSTROM
     42         14  H    CARTESIAN Z    -0.206549     -0.128623  KCAL/ANGSTROM
     43         15  H    CARTESIAN X     2.948654     -0.343564  KCAL/ANGSTROM
     44         15  H    CARTESIAN Y    -1.980814      0.026561  KCAL/ANGSTROM
     45         15  H    CARTESIAN Z     1.485673      0.158563  KCAL/ANGSTROM
     46         16  N    CARTESIAN X     3.514991      0.097003  KCAL/ANGSTROM
     47         16  N    CARTESIAN Y     0.911323      0.191281  KCAL/ANGSTROM
     48         16  N    CARTESIAN Z    -0.244242      0.138301  KCAL/ANGSTROM
     49         17  O    CARTESIAN X     4.684493      0.065491  KCAL/ANGSTROM
     50         17  O    CARTESIAN Y     1.147559     -0.002272  KCAL/ANGSTROM
     51         17  O    CARTESIAN Z     0.018279      0.114662  KCAL/ANGSTROM
     52         18  O    CARTESIAN X     2.965211     -0.066629  KCAL/ANGSTROM
     53         18  O    CARTESIAN Y     1.370362      0.345632  KCAL/ANGSTROM
     54         18  O    CARTESIAN Z    -1.230994      0.265628  KCAL/ANGSTROM
     55         19  O    CARTESIAN X     2.542701      0.180301  KCAL/ANGSTROM
     56         19  O    CARTESIAN Y     1.265959      0.181608  KCAL/ANGSTROM
     57         19  O    CARTESIAN Z     5.954869      0.266863  KCAL/ANGSTROM
     58         20  H    CARTESIAN X     2.203812      0.124399  KCAL/ANGSTROM
     59         20  H    CARTESIAN Y     0.595502     -0.111508  KCAL/ANGSTROM
     60         20  H    CARTESIAN Z     6.487921      0.475734  KCAL/ANGSTROM
     61         21  H    CARTESIAN X    -1.131268     -0.123781  KCAL/ANGSTROM
     62         21  H    CARTESIAN Y    -2.133388      0.091036  KCAL/ANGSTROM
     63         21  H    CARTESIAN Z    -0.848329      0.163371  KCAL/ANGSTROM
     64         22  N    CARTESIAN X    -2.787091     -0.088994  KCAL/ANGSTROM
     65         22  N    CARTESIAN Y    -0.021615     -0.110794  KCAL/ANGSTROM
     66         22  N    CARTESIAN Z    -0.796345     -0.239816  KCAL/ANGSTROM
     67         23  O    CARTESIAN X    -3.325804     -0.266359  KCAL/ANGSTROM
     68         23  O    CARTESIAN Y    -1.080204     -0.120292  KCAL/ANGSTROM
     69         23  O    CARTESIAN Z    -1.095295     -0.092830  KCAL/ANGSTROM
     70         24  O    CARTESIAN X    -3.405245     -0.284702  KCAL/ANGSTROM
     71         24  O    CARTESIAN Y     1.035856      0.248944  KCAL/ANGSTROM
     72         24  O    CARTESIAN Z    -0.808573     -0.090226  KCAL/ANGSTROM
     73         25  H    CARTESIAN X     1.608523     -1.161003  KCAL/ANGSTROM
     74         25  H    CARTESIAN Y     0.090846      0.175630  KCAL/ANGSTROM
     75         25  H    CARTESIAN Z     3.545684     -0.506832  KCAL/ANGSTROM
     76         26  H    CARTESIAN X     2.527876     -0.067402  KCAL/ANGSTROM
     77         26  H    CARTESIAN Y     0.740381      0.280089  KCAL/ANGSTROM
     78         26  H    CARTESIAN Z     4.759826     -0.203840  KCAL/ANGSTROM
     79         27  O    CARTESIAN X     2.515777      1.844046  KCAL/ANGSTROM
     80         27  O    CARTESIAN Y     0.260727     -0.902284  KCAL/ANGSTROM
     81         27  O    CARTESIAN Z     3.710715     -0.081564  KCAL/ANGSTROM




   ATOM   CHEMICAL          X               Y               Z
  NUMBER   SYMBOL      (ANGSTROMS)     (ANGSTROMS)     (ANGSTROMS)

     1       C         -0.80162741  *   1.17050974  *   0.01906860  *
     2       C          0.54035383  *   1.16032669  *   0.37713026  *
     3       C          1.29307445  *  -0.01788260  *   0.28722742  *
     4       C          0.68730988  *  -1.19597806  *  -0.15114914  *
     5       C         -0.65868546  *  -1.20598042  *  -0.50677799  *
     6       C         -1.39350929  *  -0.01991116  *  -0.42119188  *
     7       H         -1.38705321  *   2.09518664  *   0.08186429  *
     8       H          1.00541407  *   2.08899718  *   0.72489054  *
     9       H          1.25279561  *  -2.12993332  *  -0.22491786  *
    10       C          2.74451947  *   0.03204750  *   0.69523481  *
    11       H          2.82647193  *   0.51968184  *   1.73239389  *
    12       C          3.44606344  *  -1.31770420  *   0.75772801  *
    13       H          4.49307578  *  -1.22253325  *   1.08749503  *
    14       H          3.46041770  *  -1.84482686  *  -0.20654917  *
    15       H          2.94865387  *  -1.98081432  *   1.48567271  *
    16       N          3.51499106  *   0.91132259  *  -0.24424191  *
    17       O          4.68449331  *   1.14755918  *   0.01827851  *
    18       O          2.96521084  *   1.37036168  *  -1.23099393  *
    19       O          2.54270061  *   1.26595926  *   5.95486858  *
    20       H          2.20381219  *   0.59550244  *   6.48792087  *
    21       H         -1.13126841  *  -2.13338784  *  -0.84832900  *
    22       N         -2.78709084  *  -0.02161535  *  -0.79634471  *
    23       O         -3.32580444  *  -1.08020359  *  -1.09529488  *
    24       O         -3.40524512  *   1.03585595  *  -0.80857295  *
    25       H          1.60852300  *   0.09084633  *   3.54568404  *
    26       H          2.52787628  *   0.74038052  *   4.75982648  *
    27       O          2.51577725  *   0.26072706  *   3.71071497  *

                             CARTESIAN COORDINATES

   1    C       -0.801627414     1.170509735     0.019068600
   2    C        0.540353832     1.160326690     0.377130259
   3    C        1.293074448    -0.017882600     0.287227424
   4    C        0.687309878    -1.195978065    -0.151149142
   5    C       -0.658685462    -1.205980415    -0.506777989
   6    C       -1.393509294    -0.019911161    -0.421191885
   7    H       -1.387053205     2.095186641     0.081864293
   8    H        1.005414069     2.088997182     0.724890544
   9    H        1.252795609    -2.129933321    -0.224917858
  10    C        2.744519472     0.032047497     0.695234812
  11    H        2.826471929     0.519681841     1.732393888
  12    C        3.446063437    -1.317704196     0.757728015
  13    H        4.493075780    -1.222533247     1.087495030
  14    H        3.460417704    -1.844826861    -0.206549169
  15    H        2.948653871    -1.980814325     1.485672709
  16    N        3.514991060     0.911322591    -0.244241910
  17    O        4.684493308     1.147559184     0.018278506
  18    O        2.965210836     1.370361679    -1.230993933
  19    O        2.542700615     1.265959255     5.954868579
  20    H        2.203812193     0.595502435     6.487920869
  21    H       -1.131268411    -2.133387844    -0.848329001
  22    N       -2.787090837    -0.021615347    -0.796344713
  23    O       -3.325804443    -1.080203586    -1.095294880
  24    O       -3.405245124     1.035855951    -0.808572949
  25    H        1.608522998     0.090846329     3.545684039
  26    H        2.527876276     0.740380522     4.759826476
  27    O        2.515777253     0.260727062     3.710714974


           Empirical Formula: C8 H11 N2 O6  =    27 atoms



      MOLECULAR POINT GROUP   :   C1  


                  EIGENVALUES  
 -37.48158 -37.43515 -31.62130 -30.88581 -30.81320 -29.37514 -27.32683 -27.03821
 -26.77272 -25.42027 -25.11455 -24.60181 -22.30938 -21.64465 -20.54679 -19.41341
 -18.57780 -18.40488 -18.28004 -17.62328 -17.56680 -16.49325 -16.13493 -16.03643
 -15.52360 -15.01305 -14.38444 -14.28394 -14.02100 -13.88584 -13.59931 -13.40298
 -12.81540 -12.47415 -11.97876 -11.95248 -11.91484 -11.85163 -11.69763 -11.56755
 -11.26795 -11.00491 -10.69519 -10.57314 -10.52924  -1.57472  -0.46889  -0.44859
  -0.01112   0.47208   0.55855   1.80156   2.58234   3.05020   3.28262   3.62515
   3.80789   4.00833   4.05025   4.21887   4.30568   4.40282   4.64894   4.71000
   4.99468   5.30728   5.35998   5.39430   5.58632   5.60836   5.66660   5.72853
   6.56261   7.05202   7.94712


              NET ATOMIC CHARGES AND DIPOLE CONTRIBUTIONS

  ATOM NO.   TYPE          CHARGE      No. of ELECS.   s-Pop       p-Pop       
    1          C          -0.067518        4.0675     1.09402     2.97349
    2          C          -0.162188        4.1622     1.08797     3.07422
    3          C           0.031494        3.9685     1.07735     2.89115
    4          C          -0.159741        4.1597     1.08715     3.07259
    5          C          -0.072847        4.0728     1.09513     2.97772
    6          C          -0.079222        4.0792     1.07183     3.00739
    7          H           0.196520        0.8035     0.80348
    8          H           0.193511        0.8065     0.80649
    9          H           0.187856        0.8121     0.81214
   10          C          -0.064833        4.0648     1.09905     2.96578
   11          H           0.254308        0.7457     0.74569
   12          C          -0.469618        4.4696     1.05777     3.41184
   13          H           0.182331        0.8177     0.81767
   14          H           0.172178        0.8278     0.82782
   15          H           0.189852        0.8101     0.81015
   16          N           0.627552        4.3724     1.47764     2.89480
   17          O          -0.454345        6.4543     1.93987     4.51448
   18          O          -0.449456        6.4495     1.93943     4.51002
   19          O          -1.131858        7.1319     1.86372     5.26814
   20          H           0.341558        0.6584     0.65844
   21          H           0.190525        0.8095     0.80947
   22          N           0.670377        4.3296     1.44888     2.88074
   23          O          -0.463035        6.4630     1.94098     4.52205
   24          O          -0.460543        6.4605     1.94099     4.51956
   25          H           0.347698        0.6523     0.65230
   26          H           0.437161        0.5628     0.56284
   27          O          -0.987717        6.9877     1.84932     5.13840
 DIPOLE           X         Y         Z       TOTAL
 POINT-CHG.    -5.849    -7.636   -15.053    17.864
 HYBRID        -0.809    -0.041    -0.587     1.000
 SUM           -6.658    -7.677   -15.640    18.651


          ATOMIC ORBITAL ELECTRON POPULATIONS

     Atom    s        px        py        pz   
    1  C   1.09402   1.01250   1.03638   0.92461
    2  C   1.08797   0.99447   1.06325   1.01649
    3  C   1.07735   0.95515   0.98478   0.95122
    4  C   1.08715   1.00779   1.06985   0.99495
    5  C   1.09513   0.99885   1.04223   0.93664
    6  C   1.07183   0.85279   1.02961   1.12500
    7  H   0.80348
    8  H   0.80649
    9  H   0.81214
   10  C   1.09905   0.93715   0.98741   1.04123
   11  H   0.74569
   12  C   1.05777   1.16580   1.03313   1.21292
   13  H   0.81767
   14  H   0.82782
   15  H   0.81015
   16  N   1.47764   0.97313   0.94943   0.97225
   17  O   1.93987   1.06932   1.66441   1.78075
   18  O   1.93943   1.69594   1.57255   1.24152
   19  O   1.86372   1.92512   1.66035   1.68267
   20  H   0.65844
   21  H   0.80947
   22  N   1.44888   1.01315   0.95045   0.91715
   23  O   1.94098   1.74735   1.22247   1.55224
   24  O   1.94099   1.69297   1.22221   1.60437
   25  H   0.65230
   26  H   0.56284
   27  O   1.84932   1.47938   1.93227   1.72674

 **********************
 *                    *
 * JOB ENDED NORMALLY *
 *                    *
 **********************



 TOTAL JOB TIME:             6.00 SECONDS

 == MOPAC DONE ==
