 *******************************************************************************
 **                                                                           **
 **                              MOPAC v22.0.6                                **
 **                                                                           **
 *******************************************************************************
 **          Digital Object Identifier (DOI): 10.5281/zenodo.6511958          **
 **    Visit the DOI location for information on how to cite this program.    **
 *******************************************************************************

                              PM7 CALCULATION RESULTS

 *******************************************************************************
 *  CALCULATION DONE:                                Tue Mar 26 11:40:17 2024  *
 *  PM7        - The PM7 Hamiltonian to be used
 *  SINGLET    - SPIN STATE DEFINED AS A SINGLET
 *
 *
 *
 *                 CHARGE ON SYSTEM = 0
 *
 *
 *
 *  EPS=78.4   - USE ANDREAS KLAMT'S COSMO IMPLICIT SOLVATION MODEL
 *  T=         - A TIME OF 14.0 DAYS REQUESTED
 *  DUMP=N     - RESTART FILE WRITTEN EVERY 30.0 MINUTES REQUESTED
 *  RELSCF     - DEFAULT SCF CRITERION MULTIPLIED BY 1.0000
 *              (DEFAULT SCF CRITERION = 0.00010)
 *  ITRY=      - DO A MAXIMUM OF 15000 ITERATIONS FOR SCF
 *  AUX        - OUTPUT AUXILIARY INFORMATION
 *  BONDS      - FINAL BOND-ORDER MATRIX TO BE PRINTED
 *******************************************************************************
PM7 BONDS AUX DUMP=30M ITRY=15000 T=14D CHARGE=0 SINGLET eps=78.4 RELSCF=1
 Title: ASE calculation

   ATOM   CHEMICAL          X               Y               Z
  NUMBER   SYMBOL      (ANGSTROMS)     (ANGSTROMS)     (ANGSTROMS)

     1       C         -1.15221000  *  -0.24103000  *   0.10912000  *
     2       H         -2.24064000  *  -0.16735000  *   0.17506000  *
     3       N         -1.55111000  *  -2.63050000  *   0.62327000  *
     4       O         -2.71940000  *  -2.35622000  *   0.84325000  *
     5       O         -1.17063000  *  -3.78668000  *   0.51242000  *
     6       H          0.68154000  *   0.75282000  *  -0.36611000  *
     7       C         -0.54992000  *  -1.55129000  *   0.50604000  *
     8       H          0.24954000  *  -1.87383000  *  -0.21400000  *
     9       H         -0.03153000  *  -1.45813000  *   1.50522000  *
    10       C         -0.39721000  *   0.78057000  *  -0.28981000  *
    11       H         -0.80484000  *   1.74149000  *  -0.57422000  *
    12       C          5.75176000  *  -2.96092000  *   0.89320000  *
    13       C          7.08124000  *  -3.13201000  *   0.48530000  *
    14       C          7.75401000  *  -2.02612000  *  -0.05890000  *
    15       C          7.03926000  *  -0.83944000  *  -0.24741000  *
    16       C          5.69890000  *  -0.77335000  *   0.14353000  *
    17       N          5.06814000  *  -1.81229000  *   0.72459000  *
    18       H          5.20488000  *  -3.78099000  *   1.38105000  *
    19       H          7.51744000  *   0.03155000  *  -0.69444000  *
    20       H          5.10074000  *   0.13601000  *  -0.00082000  *
    21       C          7.69067000  *  -4.47863000  *   0.61944000  *
    22       H          8.78849000  *  -4.45942000  *   0.66666000  *
    23       H          7.42233000  *  -5.11410000  *  -0.24369000  *
    24       H          7.34396000  *  -5.01017000  *   1.51988000  *
    25       C          9.19777000  *  -2.08971000  *  -0.40057000  *
    26       H          9.59717000  *  -1.13633000  *  -0.77738000  *
    27       H          9.41421000  *  -2.85166000  *  -1.16719000  *
    28       H          9.80353000  *  -2.35722000  *   0.48369000  *
    29       H          3.15839000  *  -3.25725000  *   0.91454000  *
    30       O          2.91309000  *  -3.70763000  *   0.09565000  *
    31       H          3.48266000  *  -3.29511000  *  -0.56449000  *



          CARTESIAN COORDINATES 

    NO.       ATOM           X           Y           Z

     1         C         -1.1522     -0.2410      0.1091
     2         H         -2.2406     -0.1673      0.1751
     3         N         -1.5511     -2.6305      0.6233
     4         O         -2.7194     -2.3562      0.8433
     5         O         -1.1706     -3.7867      0.5124
     6         H          0.6815      0.7528     -0.3661
     7         C         -0.5499     -1.5513      0.5060
     8         H          0.2495     -1.8738     -0.2140
     9         H         -0.0315     -1.4581      1.5052
    10         C         -0.3972      0.7806     -0.2898
    11         H         -0.8048      1.7415     -0.5742
    12         C          5.7518     -2.9609      0.8932
    13         C          7.0812     -3.1320      0.4853
    14         C          7.7540     -2.0261     -0.0589
    15         C          7.0393     -0.8394     -0.2474
    16         C          5.6989     -0.7733      0.1435
    17         N          5.0681     -1.8123      0.7246
    18         H          5.2049     -3.7810      1.3811
    19         H          7.5174      0.0316     -0.6944
    20         H          5.1007      0.1360     -0.0008
    21         C          7.6907     -4.4786      0.6194
    22         H          8.7885     -4.4594      0.6667
    23         H          7.4223     -5.1141     -0.2437
    24         H          7.3440     -5.0102      1.5199
    25         C          9.1978     -2.0897     -0.4006
    26         H          9.5972     -1.1363     -0.7774
    27         H          9.4142     -2.8517     -1.1672
    28         H          9.8035     -2.3572      0.4837
    29         H          3.1584     -3.2572      0.9145
    30         O          2.9131     -3.7076      0.0956
    31         H          3.4827     -3.2951     -0.5645

 General Reference for PM7:
 "Optimization of Parameters for Semiempirical Methods VI: More Modifications to the 
 NDDO Approximations and Re-optimization of Parameters", J. J. P. Stewart, J. Mol. Mod., 1:32, 19 (2013)
 https://link.springer.com/article/10.1007/s00894-012-1667-x

           Empirical Formula: C10 H16 N2 O3  =    31 atoms



      MOLECULAR POINT GROUP   :   C1  


 SINGLET STATE CALCULATION


      RHF CALCULATION, NO. OF DOUBLY OCCUPIED LEVELS = 42


          Geometry optimization using EF
  SCF CRITERION =    0.1000E-03

          DIAGONAL MATRIX USED AS START HESSIAN

 CYCLE:     1 TIME:   0.086 TIME LEFT:  2.00W  GRAD.:     4.332 HEAT: -65.79532
 CYCLE:     2 TIME:   0.285 TIME LEFT:  2.00W  GRAD.:     4.291 HEAT: -65.79589

     TRUST RADIUS NOW LESS THAN  0.00010 OPTIMIZATION TERMINATING
      THE GEOMETRY MAY NOT BE COMPLETELY OPTIMIZED
      (TO CONTINUE, ADD 'LET DDMIN=0.0' TO THE KEYWORD LINE)

 -------------------------------------------------------------------------------
 PM7 BONDS AUX DUMP=30M ITRY=15000 T=14D CHARGE=0 SINGLET eps=78.4 RELSCF=1
 Title: ASE calculation



     GEOMETRY OPTIMISED USING EIGENVECTOR FOLLOWING (EF).     
     SCF FIELD WAS ACHIEVED                                   


                              PM7 CALCULATION
                                                       MOPAC v22.0.6 Linux
                                                       Tue Mar 26 11:40:17 2024




          FINAL HEAT OF FORMATION =        -65.79589 KCAL/MOL =    -275.29001 KJ/MOL
          VAN DER WAALS AREA      =        290.66 SQUARE ANGSTROMS



          DIELECTRIC ENERGY       =         -0.85457 EV
          COSMO AREA              =        290.66 SQUARE ANGSTROMS
          COSMO VOLUME            =        290.88 CUBIC ANGSTROMS

          GRADIENT NORM           =          4.29147          =       0.77077 PER ATOM
          IONIZATION POTENTIAL    =          9.923770 EV
          HOMO LUMO ENERGIES (EV) =         -9.924 -0.469
          NO. OF FILLED LEVELS    =         42
          MOLECULAR WEIGHT        =        212.2480         POINT GROUP:  C1  

          MOLECULAR DIMENSIONS (Angstroms)

            Atom       Atom       Distance
            H    28    O     4    12.52814
            H    24    H    11     7.14085
            H     9    H    27     2.72305


          SCF CALCULATIONS        =         20

          WALL-CLOCK TIME         =      0.816 SECONDS
          COMPUTATION TIME        =          1 MINUTE AND 7.890 SECONDS



       FINAL  POINT  AND  DERIVATIVES

   PARAMETER     ATOM    TYPE            VALUE        GRADIENT
      1          1  C    CARTESIAN X    -1.152203     -0.215701  KCAL/ANGSTROM
      2          1  C    CARTESIAN Y    -0.241040      0.352833  KCAL/ANGSTROM
      3          1  C    CARTESIAN Z     0.109112      0.183016  KCAL/ANGSTROM
      4          2  H    CARTESIAN X    -2.240639     -0.044294  KCAL/ANGSTROM
      5          2  H    CARTESIAN Y    -0.167345     -0.117397  KCAL/ANGSTROM
      6          2  H    CARTESIAN Z     0.175064     -0.101986  KCAL/ANGSTROM
      7          3  N    CARTESIAN X    -1.551103     -0.193304  KCAL/ANGSTROM
      8          3  N    CARTESIAN Y    -2.630479     -0.429729  KCAL/ANGSTROM
      9          3  N    CARTESIAN Z     0.623260      0.209084  KCAL/ANGSTROM
     10          4  O    CARTESIAN X    -2.719431      0.775096  KCAL/ANGSTROM
     11          4  O    CARTESIAN Y    -2.356222      0.167189  KCAL/ANGSTROM
     12          4  O    CARTESIAN Z     0.843258     -0.231351  KCAL/ANGSTROM
     13          5  O    CARTESIAN X    -1.170598     -0.924757  KCAL/ANGSTROM
     14          5  O    CARTESIAN Y    -3.786679      0.040931  KCAL/ANGSTROM
     15          5  O    CARTESIAN Z     0.512412      0.135283  KCAL/ANGSTROM
     16          6  H    CARTESIAN X     0.681544     -0.114857  KCAL/ANGSTROM
     17          6  H    CARTESIAN Y     0.752815      0.170050  KCAL/ANGSTROM
     18          6  H    CARTESIAN Z    -0.366113      0.057915  KCAL/ANGSTROM
     19          7  C    CARTESIAN X    -0.549941      0.515996  KCAL/ANGSTROM
     20          7  C    CARTESIAN Y    -1.551272     -0.397362  KCAL/ANGSTROM
     21          7  C    CARTESIAN Z     0.506057     -0.488989  KCAL/ANGSTROM
     22          8  H    CARTESIAN X     0.249558     -0.489949  KCAL/ANGSTROM
     23          8  H    CARTESIAN Y    -1.873844      0.405739  KCAL/ANGSTROM
     24          8  H    CARTESIAN Z    -0.214000     -0.025380  KCAL/ANGSTROM
     25          9  H    CARTESIAN X    -0.031529     -0.046732  KCAL/ANGSTROM
     26          9  H    CARTESIAN Y    -1.458133      0.097035  KCAL/ANGSTROM
     27          9  H    CARTESIAN Z     1.505205      0.385083  KCAL/ANGSTROM
     28         10  C    CARTESIAN X    -0.397206     -0.135497  KCAL/ANGSTROM
     29         10  C    CARTESIAN Y     0.780565      0.230631  KCAL/ANGSTROM
     30         10  C    CARTESIAN Z    -0.289809     -0.056917  KCAL/ANGSTROM
     31         11  H    CARTESIAN X    -0.804837     -0.104788  KCAL/ANGSTROM
     32         11  H    CARTESIAN Y     1.741495     -0.104421  KCAL/ANGSTROM
     33         11  H    CARTESIAN Z    -0.574218     -0.063212  KCAL/ANGSTROM
     34         12  C    CARTESIAN X     5.751762     -0.093199  KCAL/ANGSTROM
     35         12  C    CARTESIAN Y    -2.960922      0.137524  KCAL/ANGSTROM
     36         12  C    CARTESIAN Z     0.893200     -0.094927  KCAL/ANGSTROM
     37         13  C    CARTESIAN X     7.081245     -0.152438  KCAL/ANGSTROM
     38         13  C    CARTESIAN Y    -3.132010      0.090412  KCAL/ANGSTROM
     39         13  C    CARTESIAN Z     0.485304     -0.220775  KCAL/ANGSTROM
     40         14  C    CARTESIAN X     7.754009     -0.020149  KCAL/ANGSTROM
     41         14  C    CARTESIAN Y    -2.026119      0.034625  KCAL/ANGSTROM
     42         14  C    CARTESIAN Z    -0.058897     -0.200383  KCAL/ANGSTROM
     43         15  C    CARTESIAN X     7.039264     -0.147686  KCAL/ANGSTROM
     44         15  C    CARTESIAN Y    -0.839437      0.010681  KCAL/ANGSTROM
     45         15  C    CARTESIAN Z    -0.247403     -0.281517  KCAL/ANGSTROM
     46         16  C    CARTESIAN X     5.698900     -0.031559  KCAL/ANGSTROM
     47         16  C    CARTESIAN Y    -0.773347      0.008707  KCAL/ANGSTROM
     48         16  C    CARTESIAN Z     0.143535     -0.231944  KCAL/ANGSTROM
     49         17  N    CARTESIAN X     5.068142     -0.091738  KCAL/ANGSTROM
     50         17  N    CARTESIAN Y    -1.812290      0.058642  KCAL/ANGSTROM
     51         17  N    CARTESIAN Z     0.724596     -0.261146  KCAL/ANGSTROM
     52         18  H    CARTESIAN X     5.204875      0.131236  KCAL/ANGSTROM
     53         18  H    CARTESIAN Y    -3.780996      0.191093  KCAL/ANGSTROM
     54         18  H    CARTESIAN Z     1.381043      0.147991  KCAL/ANGSTROM
     55         19  H    CARTESIAN X     7.517451     -0.310542  KCAL/ANGSTROM
     56         19  H    CARTESIAN Y     0.031550      0.010180  KCAL/ANGSTROM
     57         19  H    CARTESIAN Z    -0.694430     -0.298979  KCAL/ANGSTROM
     58         20  H    CARTESIAN X     5.100750     -0.271240  KCAL/ANGSTROM
     59         20  H    CARTESIAN Y     0.136013     -0.063224  KCAL/ANGSTROM
     60         20  H    CARTESIAN Z    -0.000818     -0.070265  KCAL/ANGSTROM
     61         21  C    CARTESIAN X     7.690686     -0.476632  KCAL/ANGSTROM
     62         21  C    CARTESIAN Y    -4.478631      0.098260  KCAL/ANGSTROM
     63         21  C    CARTESIAN Z     0.619444     -0.231303  KCAL/ANGSTROM
     64         22  H    CARTESIAN X     8.788509     -0.525081  KCAL/ANGSTROM
     65         22  H    CARTESIAN Y    -4.459411     -0.230478  KCAL/ANGSTROM
     66         22  H    CARTESIAN Z     0.666667     -0.238787  KCAL/ANGSTROM
     67         23  H    CARTESIAN X     7.422359     -0.808390  KCAL/ANGSTROM
     68         23  H    CARTESIAN Y    -5.114095     -0.111016  KCAL/ANGSTROM
     69         23  H    CARTESIAN Z    -0.243686     -0.137050  KCAL/ANGSTROM
     70         24  H    CARTESIAN X     7.343976     -0.455630  KCAL/ANGSTROM
     71         24  H    CARTESIAN Y    -5.010169     -0.003121  KCAL/ANGSTROM
     72         24  H    CARTESIAN Z     1.519881     -0.065384  KCAL/ANGSTROM
     73         25  C    CARTESIAN X     9.197763      0.155266  KCAL/ANGSTROM
     74         25  C    CARTESIAN Y    -2.089710      0.064281  KCAL/ANGSTROM
     75         25  C    CARTESIAN Z    -0.400578      0.098358  KCAL/ANGSTROM
     76         26  H    CARTESIAN X     9.597162      0.204742  KCAL/ANGSTROM
     77         26  H    CARTESIAN Y    -1.136332      0.085688  KCAL/ANGSTROM
     78         26  H    CARTESIAN Z    -0.777395      0.381301  KCAL/ANGSTROM
     79         27  H    CARTESIAN X     9.414184      0.711882  KCAL/ANGSTROM
     80         27  H    CARTESIAN Y    -2.851662      0.078937  KCAL/ANGSTROM
     81         27  H    CARTESIAN Z    -1.167199      0.213464  KCAL/ANGSTROM
     82         28  H    CARTESIAN X     9.803544     -0.389566  KCAL/ANGSTROM
     83         28  H    CARTESIAN Y    -2.357218     -0.033651  KCAL/ANGSTROM
     84         28  H    CARTESIAN Z     0.483672      0.442837  KCAL/ANGSTROM
     85         29  H    CARTESIAN X     3.158321      1.896998  KCAL/ANGSTROM
     86         29  H    CARTESIAN Y    -3.257193     -1.537343  KCAL/ANGSTROM
     87         29  H    CARTESIAN Z     0.914498      1.105399  KCAL/ANGSTROM
     88         30  O    CARTESIAN X     2.913083      0.152634  KCAL/ANGSTROM
     89         30  O    CARTESIAN Y    -3.707673      1.285874  KCAL/ANGSTROM
     90         30  O    CARTESIAN Z     0.095655     -0.222959  KCAL/ANGSTROM
     91         31  H    CARTESIAN X     3.482606      1.499907  KCAL/ANGSTROM
     92         31  H    CARTESIAN Y    -3.295087     -0.591530  KCAL/ANGSTROM
     93         31  H    CARTESIAN Z    -0.564497      0.163491  KCAL/ANGSTROM




   ATOM   CHEMICAL          X               Y               Z
  NUMBER   SYMBOL      (ANGSTROMS)     (ANGSTROMS)     (ANGSTROMS)

     1       C         -1.15220295  *  -0.24104012  *   0.10911180  *
     2       H         -2.24063887  *  -0.16734475  *   0.17506356  *
     3       N         -1.55110263  *  -2.63047950  *   0.62325995  *
     4       O         -2.71943137  *  -2.35622151  *   0.84325754  *
     5       O         -1.17059750  *  -3.78667942  *   0.51241249  *
     6       H          0.68154370  *   0.75281474  *  -0.36611264  *
     7       C         -0.54994094  *  -1.55127166  *   0.50605735  *
     8       H          0.24955772  *  -1.87384415  *  -0.21400007  *
     9       H         -0.03152867  *  -1.45813276  *   1.50520472  *
    10       C         -0.39720640  *   0.78056468  *  -0.28980909  *
    11       H         -0.80483662  *   1.74149497  *  -0.57421800  *
    12       C          5.75176154  *  -2.96092184  *   0.89319967  *
    13       C          7.08124469  *  -3.13201042  *   0.48530363  *
    14       C          7.75400925  *  -2.02611885  *  -0.05889677  *
    15       C          7.03926386  *  -0.83943747  *  -0.24740341  *
    16       C          5.69889979  *  -0.77334731  *   0.14353512  *
    17       N          5.06814227  *  -1.81228960  *   0.72459612  *
    18       H          5.20487495  *  -3.78099627  *   1.38104343  *
    19       H          7.51745081  *   0.03155048  *  -0.69443005  *
    20       H          5.10074953  *   0.13601307  *  -0.00081829  *
    21       C          7.69068574  *  -4.47863114  *   0.61944382  *
    22       H          8.78850855  *  -4.45941085  *   0.66666737  *
    23       H          7.42235862  *  -5.11409505  *  -0.24368622  *
    24       H          7.34397606  *  -5.01016914  *   1.51988100  *
    25       C          9.19776284  *  -2.08970967  *  -0.40057836  *
    26       H          9.59716218  *  -1.13633235  *  -0.77739544  *
    27       H          9.41418383  *  -2.85166202  *  -1.16719929  *
    28       H          9.80354370  *  -2.35721804  *   0.48367222  *
    29       H          3.15832134  *  -3.25719303  *   0.91449781  *
    30       O          2.91308287  *  -3.70767343  *   0.09565486  *
    31       H          3.48260559  *  -3.29508743  *  -0.56449695  *

                             CARTESIAN COORDINATES

   1    C       -1.152202952    -0.241040116     0.109111799
   2    H       -2.240638870    -0.167344755     0.175063565
   3    N       -1.551102634    -2.630479499     0.623259946
   4    O       -2.719431372    -2.356221507     0.843257540
   5    O       -1.170597505    -3.786679418     0.512412495
   6    H        0.681543696     0.752814737    -0.366112641
   7    C       -0.549940944    -1.551271658     0.506057349
   8    H        0.249557723    -1.873844155    -0.214000073
   9    H       -0.031528667    -1.458132762     1.505204720
  10    C       -0.397206398     0.780564684    -0.289809089
  11    H       -0.804836619     1.741494965    -0.574217998
  12    C        5.751761535    -2.960921842     0.893199665
  13    C        7.081244690    -3.132010418     0.485303632
  14    C        7.754009245    -2.026118850    -0.058896767
  15    C        7.039263864    -0.839437466    -0.247403412
  16    C        5.698899786    -0.773347315     0.143535118
  17    N        5.068142270    -1.812289596     0.724596117
  18    H        5.204874949    -3.780996269     1.381043425
  19    H        7.517450807     0.031550477    -0.694430049
  20    H        5.100749527     0.136013069    -0.000818291
  21    C        7.690685740    -4.478631145     0.619443821
  22    H        8.788508549    -4.459410848     0.666667367
  23    H        7.422358621    -5.114095048    -0.243686218
  24    H        7.343976064    -5.010169144     1.519881000
  25    C        9.197762842    -2.089709674    -0.400578359
  26    H        9.597162179    -1.136332351    -0.777395443
  27    H        9.414183832    -2.851662024    -1.167199292
  28    H        9.803543701    -2.357218037     0.483672219
  29    H        3.158321339    -3.257193028     0.914497807
  30    O        2.913082873    -3.707673433     0.095654864
  31    H        3.482605587    -3.295087426    -0.564496954


           Empirical Formula: C10 H16 N2 O3  =    31 atoms



      MOLECULAR POINT GROUP   :   C1  


                  EIGENVALUES  
 -37.50852 -36.11557 -30.90781 -29.60801 -29.16401 -29.03643 -27.29672 -26.48644
 -25.29803 -24.32699 -22.93230 -21.61867 -20.57376 -20.07278 -18.67786 -18.30555
 -17.94880 -17.52789 -17.23992 -17.09056 -15.72113 -15.52157 -15.36965 -14.96096
 -14.47494 -14.37245 -14.27203 -13.99133 -13.77095 -13.70122 -13.58211 -13.18446
 -12.56610 -12.32896 -12.17387 -12.04768 -11.94580 -11.72921 -10.75026 -10.71510
 -10.47979  -9.92377  -0.46938  -0.27917  -0.21870   0.31893   0.60683   2.14318
   3.10985   3.23555   3.75974   3.78126   3.86635   4.27598   4.35044   4.45096
   4.56664   4.60828   4.63953   5.06261   5.08081   5.15971   5.28521   5.52951
   5.54213   5.58635   5.59881   5.65969   5.71645   5.85936   6.06954   6.08866
   6.25550   6.65059   6.69606   6.88264


              NET ATOMIC CHARGES AND DIPOLE CONTRIBUTIONS

  ATOM NO.   TYPE          CHARGE      No. of ELECS.   s-Pop       p-Pop       
    1          C          -0.151851        4.1519     1.08808     3.06378
    2          H           0.177774        0.8222     0.82223
    3          N           0.667498        4.3325     1.45994     2.87256
    4          O          -0.458977        6.4590     1.93933     4.51965
    5          O          -0.466276        6.4663     1.94007     4.52621
    6          H           0.163430        0.8366     0.83657
    7          C          -0.244973        4.2450     1.09136     3.15362
    8          H           0.220105        0.7799     0.77989
    9          H           0.233108        0.7669     0.76689
   10          C          -0.299332        4.2993     1.10029     3.19904
   11          H           0.159481        0.8405     0.84052
   12          C           0.003718        3.9963     1.10155     2.89473
   13          C          -0.076575        4.0766     1.07301     3.00356
   14          C           0.088449        3.9116     1.07626     2.83529
   15          C          -0.271025        4.2710     1.09235     3.17868
   16          C           0.040888        3.9591     1.09783     2.86128
   17          N          -0.457716        5.4577     1.74150     3.71622
   18          H           0.189481        0.8105     0.81052
   19          H           0.183782        0.8162     0.81622
   20          H           0.184693        0.8153     0.81531
   21          C          -0.454387        4.4544     1.04738     3.40700
   22          H           0.170811        0.8292     0.82919
   23          H           0.175686        0.8243     0.82431
   24          H           0.170231        0.8298     0.82977
   25          C          -0.475112        4.4751     1.05070     3.42441
   26          H           0.170957        0.8290     0.82904
   27          H           0.180558        0.8194     0.81944
   28          H           0.180871        0.8191     0.81913
   29          H           0.368077        0.6319     0.63192
   30          O          -0.736347        6.7363     1.81721     4.91913
   31          H           0.362967        0.6370     0.63703
 DIPOLE           X         Y         Z       TOTAL
 POINT-CHG.     9.058     4.788    -0.962    10.291
 HYBRID         0.650    -0.272    -0.088     0.710
 SUM            9.708     4.516    -1.050    10.758


          ATOMIC ORBITAL ELECTRON POPULATIONS

     Atom    s        px        py        pz   
    1  C   1.08808   1.09561   0.95404   1.01413
    2  H   0.82223
    3  N   1.45994   0.98201   0.99202   0.89852
    4  O   1.93933   1.09558   1.87410   1.54997
    5  O   1.94007   1.81711   1.13143   1.57767
    6  H   0.83657
    7  C   1.09136   0.99998   0.93989   1.21374
    8  H   0.77989
    9  H   0.76689
   10  C   1.10029   1.12697   1.07427   0.99781
   11  H   0.84052
   12  C   1.10155   0.96595   0.96209   0.96669
   13  C   1.07301   0.99258   0.99187   1.01911
   14  C   1.07626   0.97132   0.96036   0.90362
   15  C   1.09235   1.02714   1.07458   1.07695
   16  C   1.09783   0.96815   0.98359   0.90954
   17  N   1.74150   1.41481   1.08962   1.21179
   18  H   0.81052
   19  H   0.81622
   20  H   0.81531
   21  C   1.04738   1.17369   1.03985   1.19346
   22  H   0.82919
   23  H   0.82431
   24  H   0.82977
   25  C   1.05070   1.02730   1.20526   1.19186
   26  H   0.82904
   27  H   0.81944
   28  H   0.81913
   29  H   0.63192
   30  O   1.81721   1.74942   1.74890   1.42081
   31  H   0.63703

          BONDING CONTRIBUTION OF EACH M.O.

  1.3358  1.3581  0.9790  1.8440  1.1853  1.7022  1.9273  1.3880  1.9222  1.9563
  1.1426  1.9557  1.9150  1.7356  1.5360  1.3225  1.5691  1.6860  2.0012  1.8145
  1.9168  1.9046  1.8539  1.9100  1.5191  1.7735  1.4243  1.8791  1.8667  1.8012
  1.8465  1.7944  1.9355  1.7556  0.2733  0.8640  0.2889  0.6954  1.9542  1.2776
  1.9194  2.0307 -2.3630 -1.9943 -1.9730 -2.0715 -2.0227 -2.0016 -1.9678 -1.9459
 -1.9731 -1.9907 -1.9386 -1.9346 -1.9887 -1.8896 -1.9391 -1.9313 -1.9936 -2.0080
 -1.9022 -1.8948 -1.9390 -1.9484 -1.9750 -1.9557 -1.9448 -1.9690 -1.9625 -1.9517
 -1.9707 -1.9561 -1.9498 -1.7315 -1.8936 -1.8893





            (VALENCIES)   BOND ORDERS

     1  C     (3.963)    10  C 1.989     7  C 1.005     2  H 0.952

     2  H     (0.968)     1  C 0.952

     3  N     (3.764)     4  O 1.443     5  O 1.434     7  C 0.866

     4  O     (1.827)     3  N 1.443     5  O 0.290     7  C 0.073

     5  O     (1.815)     3  N 1.434     4  O 0.290     7  C 0.070

     6  H     (0.973)    10  C 0.963

     7  C     (3.873)     1  C 1.005     8  H 0.927     9  H 0.908     3  N 0.866     4  O 0.073     5  O 0.070

     8  H     (0.952)     7  C 0.927

     9  H     (0.946)     7  C 0.908

    10  C     (3.949)     1  C 1.989     6  H 0.963    11  H 0.964

    11  H     (0.975)    10  C 0.964

    12  C     (3.938)    13  C 1.419    17  N 1.400    18  H 0.941    15  C 0.113    16  C 0.014    20  H 0.012

    13  C     (3.993)    12  C 1.419    14  C 1.394    21  C 1.018    16  C 0.115    17  N 0.015

    14  C     (3.980)    15  C 1.425    13  C 1.394    25  C 1.023    17  N 0.092

    15  C     (3.962)    14  C 1.425    16  C 1.424    19  H 0.953    12  C 0.113    17  N 0.015

    16  C     (3.934)    15  C 1.424    17  N 1.407    20  H 0.946    13  C 0.115    12  C 0.014    18  H 0.012

    17  N     (2.956)    16  C 1.407    12  C 1.400    14  C 0.092    13  C 0.015    15  C 0.015

    18  H     (0.964)    12  C 0.941    16  C 0.012

    19  H     (0.966)    15  C 0.953

    20  H     (0.966)    16  C 0.946    12  C 0.012

    21  C     (3.911)    13  C 1.018    22  H 0.958    24  H 0.958    23  H 0.948

    22  H     (0.971)    21  C 0.958

    23  H     (0.969)    21  C 0.948

    24  H     (0.971)    21  C 0.958

    25  C     (3.908)    14  C 1.023    26  H 0.961    27  H 0.948    28  H 0.946

    26  H     (0.971)    25  C 0.961

    27  H     (0.967)    25  C 0.948

    28  H     (0.967)    25  C 0.946

    29  H     (0.865)    30  O 0.858

    30  O     (1.727)    31  H 0.864    29  H 0.858

    31  H     (0.868)    30  O 0.864


 **********************
 *                    *
 * JOB ENDED NORMALLY *
 *                    *
 **********************



 TOTAL JOB TIME:             0.83 SECONDS

 == MOPAC DONE ==
