 *******************************************************************************
 **                                                                           **
 **                              MOPAC v22.0.6                                **
 **                                                                           **
 *******************************************************************************
 **          Digital Object Identifier (DOI): 10.5281/zenodo.6511958          **
 **    Visit the DOI location for information on how to cite this program.    **
 *******************************************************************************

                              PM7 CALCULATION RESULTS

 *******************************************************************************
 *  CALCULATION DONE:                                Sun Mar 24 12:26:13 2024  *
 *  PM7        - The PM7 Hamiltonian to be used
 *  SINGLET    - SPIN STATE DEFINED AS A SINGLET
 *
 *
 *
 *                 CHARGE ON SYSTEM = -1
 *
 *
 *
 *  EPS=78.4   - USE ANDREAS KLAMT'S COSMO IMPLICIT SOLVATION MODEL
 *  THREADS    - USE A MAXIMUM OF 30 THREADS
 *  T=         - A TIME OF 14.0 DAYS REQUESTED
 *  DUMP=N     - RESTART FILE WRITTEN EVERY 30.0 MINUTES REQUESTED
 *  RELSCF     - DEFAULT SCF CRITERION MULTIPLIED BY 1.0000
 *              (DEFAULT SCF CRITERION = 0.00010)
 *  ITRY=      - DO A MAXIMUM OF 15000 ITERATIONS FOR SCF
 *  AUX        - OUTPUT AUXILIARY INFORMATION
 *  BONDS      - FINAL BOND-ORDER MATRIX TO BE PRINTED
 *******************************************************************************
PM7 BONDS AUX DUMP=30M ITRY=15000 T=14D THREADS=30 CHARGE=-1 SINGLET eps=78.4 RELSCF=1
 Title: ASE calculation

   ATOM   CHEMICAL          X               Y               Z
  NUMBER   SYMBOL      (ANGSTROMS)     (ANGSTROMS)     (ANGSTROMS)

     1       C          0.43478305  *   1.33170996  *   0.42270801  *
     2       C          1.07046618  *   0.74955702  *  -0.67942298  *
     3       C          0.80128932  *  -0.58388188  *  -1.01528946  *
     4       C         -0.10225010  *  -1.31508754  *  -0.23094033  *
     5       C         -0.72344068  *  -0.70868496  *   0.86468959  *
     6       C         -0.47289051  *   0.62138741  *   1.21046382  *
     7       H          1.77749668  *   1.33714819  *  -1.28217944  *
     8       H         -0.33165088  *  -2.35891338  *  -0.48710503  *
     9       H         -0.97624545  *   1.08955821  *   2.06841721  *
    10       N         -1.66099435  *  -1.47602824  *   1.65469207  *
    11       O         -2.22049821  *  -0.93857775  *   2.60020058  *
    12       O         -1.87329785  *  -2.64370095  *   1.35742115  *
    13       C          1.43563308     -1.22108711     -2.15050530   
    14       H          3.59152106     -1.10760218  *  -1.92459591  *
    15       C          1.76381301  *  -2.67438287  *  -2.07932727  *
    16       H          2.55970648  *  -2.96854502  *  -2.78121438  *
    17       H          0.89632180  *  -3.30695882  *  -2.32639055  *
    18       H          2.09187884  *  -2.97071079  *  -1.07079429  *
    19       N          1.56985482  *  -0.56812080  *  -3.32350300  *
    20       O          2.07395849  *  -1.13008289  *  -4.32519790  *
    21       O          1.23291737  *   0.63431887  *  -3.44392583  *
    22       O          7.35621112  *  -0.70969715  *  -3.05730512  *
    23       H          7.93880728  *  -0.94117463  *  -2.32801766  *
    24       N          0.72768860  *   2.70946106  *   0.75574376  *
    25       O          0.17914900  *   3.21501050  *   1.72484414  *
    26       O          1.51669650  *   3.33309554  *   0.05959780  *
    27       H          5.09024058  *  -1.22013286  *  -0.99748570  *
    28       H          6.46371293  *  -0.83309432  *  -2.70261695  *
    29       O          4.95035729     -1.09360411     -1.93041806   



          CARTESIAN COORDINATES 

    NO.       ATOM           X           Y           Z

     1         C          0.4348      1.3317      0.4227
     2         C          1.0705      0.7496     -0.6794
     3         C          0.8013     -0.5839     -1.0153
     4         C         -0.1023     -1.3151     -0.2309
     5         C         -0.7234     -0.7087      0.8647
     6         C         -0.4729      0.6214      1.2105
     7         H          1.7775      1.3371     -1.2822
     8         H         -0.3317     -2.3589     -0.4871
     9         H         -0.9762      1.0896      2.0684
    10         N         -1.6610     -1.4760      1.6547
    11         O         -2.2205     -0.9386      2.6002
    12         O         -1.8733     -2.6437      1.3574
    13         C          1.4356     -1.2211     -2.1505
    14         H          3.5915     -1.1076     -1.9246
    15         C          1.7638     -2.6744     -2.0793
    16         H          2.5597     -2.9685     -2.7812
    17         H          0.8963     -3.3070     -2.3264
    18         H          2.0919     -2.9707     -1.0708
    19         N          1.5699     -0.5681     -3.3235
    20         O          2.0740     -1.1301     -4.3252
    21         O          1.2329      0.6343     -3.4439
    22         O          7.3562     -0.7097     -3.0573
    23         H          7.9388     -0.9412     -2.3280
    24         N          0.7277      2.7095      0.7557
    25         O          0.1791      3.2150      1.7248
    26         O          1.5167      3.3331      0.0596
    27         H          5.0902     -1.2201     -0.9975
    28         H          6.4637     -0.8331     -2.7026
    29         O          4.9504     -1.0936     -1.9304

 General Reference for PM7:
 "Optimization of Parameters for Semiempirical Methods VI: More Modifications to the 
 NDDO Approximations and Re-optimization of Parameters", J. J. P. Stewart, J. Mol. Mod., 1:32, 19 (2013)
 https://link.springer.com/article/10.1007/s00894-012-1667-x

           Empirical Formula: C8 H10 N3 O8  =    29 atoms



      MOLECULAR POINT GROUP   :   C1  


 SINGLET STATE CALCULATION


      RHF CALCULATION, NO. OF DOUBLY OCCUPIED LEVELS = 53


          Geometry optimization using EF
  SCF CRITERION =    0.1000E-03

          DIAGONAL MATRIX USED AS START HESSIAN

 CYCLE:     1 TIME:   0.367 TIME LEFT:  2.00W  GRAD.:     2.801 HEAT: -221.4934
 CYCLE:     2 TIME:   1.062 TIME LEFT:  2.00W  GRAD.:     2.271 HEAT: -221.4947
 CYCLE:     3 TIME:   0.434 TIME LEFT:  2.00W  GRAD.:     2.109 HEAT: -221.4951

     TRUST RADIUS NOW LESS THAN  0.00010 OPTIMIZATION TERMINATING
      THE GEOMETRY MAY NOT BE COMPLETELY OPTIMIZED
      (TO CONTINUE, ADD 'LET DDMIN=0.0' TO THE KEYWORD LINE)

 -------------------------------------------------------------------------------
 PM7 BONDS AUX DUMP=30M ITRY=15000 T=14D THREADS=30 CHARGE=-1 SINGLET eps=78.4 RELSCF=1
 Title: ASE calculation



     GEOMETRY OPTIMISED USING EIGENVECTOR FOLLOWING (EF).     
     SCF FIELD WAS ACHIEVED                                   


                              PM7 CALCULATION
                                                       MOPAC v22.0.6 Linux
                                                       Sun Mar 24 12:26:15 2024




          FINAL HEAT OF FORMATION =       -221.49512 KCAL/MOL =    -926.73557 KJ/MOL
          VAN DER WAALS AREA      =        289.59 SQUARE ANGSTROMS



          DIELECTRIC ENERGY       =         -3.21196 EV
          COSMO AREA              =        289.59 SQUARE ANGSTROMS
          COSMO VOLUME            =        299.07 CUBIC ANGSTROMS

          GRADIENT NORM           =          2.10943          =       0.39171 PER ATOM
          IONIZATION POTENTIAL    =          8.801396 EV
          HOMO LUMO ENERGIES (EV) =         -8.801 -1.719
          NO. OF FILLED LEVELS    =         53
          MOLECULAR WEIGHT        =        276.1823         POINT GROUP:  C1  

          MOLECULAR DIMENSIONS (Angstroms)

            Atom       Atom       Distance
            H    23    O    11    11.29150
            O    25    H    17     7.32327
            O    21    H    27     4.30295


          SCF CALCULATIONS        =         23

          WALL-CLOCK TIME         =      2.492 SECONDS
          COMPUTATION TIME        =          1 MINUTE AND 48.844 SECONDS



       FINAL  POINT  AND  DERIVATIVES

   PARAMETER     ATOM    TYPE            VALUE        GRADIENT
      1          1  C    CARTESIAN X     0.434766      0.089278  KCAL/ANGSTROM
      2          1  C    CARTESIAN Y     1.331712     -0.067159  KCAL/ANGSTROM
      3          1  C    CARTESIAN Z     0.422691      0.060042  KCAL/ANGSTROM
      4          2  C    CARTESIAN X     1.070450      0.084689  KCAL/ANGSTROM
      5          2  C    CARTESIAN Y     0.749574     -0.038763  KCAL/ANGSTROM
      6          2  C    CARTESIAN Z    -0.679418      0.005021  KCAL/ANGSTROM
      7          3  C    CARTESIAN X     0.801320     -0.122068  KCAL/ANGSTROM
      8          3  C    CARTESIAN Y    -0.583910      0.122495  KCAL/ANGSTROM
      9          3  C    CARTESIAN Z    -1.015323      0.102915  KCAL/ANGSTROM
     10          4  C    CARTESIAN X    -0.102258     -0.000772  KCAL/ANGSTROM
     11          4  C    CARTESIAN Y    -1.315087     -0.005758  KCAL/ANGSTROM
     12          4  C    CARTESIAN Z    -0.230912     -0.088151  KCAL/ANGSTROM
     13          5  C    CARTESIAN X    -0.723450      0.107242  KCAL/ANGSTROM
     14          5  C    CARTESIAN Y    -0.708661     -0.103008  KCAL/ANGSTROM
     15          5  C    CARTESIAN Z     0.864679     -0.012071  KCAL/ANGSTROM
     16          6  C    CARTESIAN X    -0.472905      0.076799  KCAL/ANGSTROM
     17          6  C    CARTESIAN Y     0.621399     -0.055302  KCAL/ANGSTROM
     18          6  C    CARTESIAN Z     1.210472     -0.038457  KCAL/ANGSTROM
     19          7  H    CARTESIAN X     1.777495      0.001842  KCAL/ANGSTROM
     20          7  H    CARTESIAN Y     1.337119      0.144590  KCAL/ANGSTROM
     21          7  H    CARTESIAN Z    -1.282162     -0.084914  KCAL/ANGSTROM
     22          8  H    CARTESIAN X    -0.331627     -0.126682  KCAL/ANGSTROM
     23          8  H    CARTESIAN Y    -2.358927      0.078317  KCAL/ANGSTROM
     24          8  H    CARTESIAN Z    -0.487077     -0.148385  KCAL/ANGSTROM
     25          9  H    CARTESIAN X    -0.976176     -0.370202  KCAL/ANGSTROM
     26          9  H    CARTESIAN Y     1.089580     -0.120701  KCAL/ANGSTROM
     27          9  H    CARTESIAN Z     2.068442     -0.138857  KCAL/ANGSTROM
     28         10  N    CARTESIAN X    -1.660998     -0.009208  KCAL/ANGSTROM
     29         10  N    CARTESIAN Y    -1.476016     -0.084257  KCAL/ANGSTROM
     30         10  N    CARTESIAN Z     1.654725     -0.142895  KCAL/ANGSTROM
     31         11  O    CARTESIAN X    -2.220500      0.001482  KCAL/ANGSTROM
     32         11  O    CARTESIAN Y    -0.938556     -0.101073  KCAL/ANGSTROM
     33         11  O    CARTESIAN Z     2.600232     -0.150134  KCAL/ANGSTROM
     34         12  O    CARTESIAN X    -1.873288     -0.053354  KCAL/ANGSTROM
     35         12  O    CARTESIAN Y    -2.643697     -0.043714  KCAL/ANGSTROM
     36         12  O    CARTESIAN Z     1.357444     -0.129489  KCAL/ANGSTROM
     37         14  H    CARTESIAN Y    -1.107601     -0.004442  KCAL/ANGSTROM
     38         14  H    CARTESIAN Z    -1.924633      0.186698  KCAL/ANGSTROM
     39         15  C    CARTESIAN X     1.763852     -0.206890  KCAL/ANGSTROM
     40         15  C    CARTESIAN Y    -2.674329     -0.228367  KCAL/ANGSTROM
     41         15  C    CARTESIAN Z    -2.079320     -0.031649  KCAL/ANGSTROM
     42         16  H    CARTESIAN X     2.559766     -0.320623  KCAL/ANGSTROM
     43         16  H    CARTESIAN Y    -2.968509     -0.191975  KCAL/ANGSTROM
     44         16  H    CARTESIAN Z    -2.781226      0.053167  KCAL/ANGSTROM
     45         17  H    CARTESIAN X     0.896266      0.287320  KCAL/ANGSTROM
     46         17  H    CARTESIAN Y    -3.306896     -0.343214  KCAL/ANGSTROM
     47         17  H    CARTESIAN Z    -2.326418      0.136375  KCAL/ANGSTROM
     48         18  H    CARTESIAN X     2.091938     -0.324291  KCAL/ANGSTROM
     49         18  H    CARTESIAN Y    -2.970723      0.062544  KCAL/ANGSTROM
     50         18  H    CARTESIAN Z    -1.070808      0.071610  KCAL/ANGSTROM
     51         19  N    CARTESIAN X     1.569943     -0.477683  KCAL/ANGSTROM
     52         19  N    CARTESIAN Y    -0.568277      0.571244  KCAL/ANGSTROM
     53         19  N    CARTESIAN Z    -3.323240     -0.986043  KCAL/ANGSTROM
     54         20  O    CARTESIAN X     2.073937      0.182482  KCAL/ANGSTROM
     55         20  O    CARTESIAN Y    -1.130166      0.357824  KCAL/ANGSTROM
     56         20  O    CARTESIAN Z    -4.325284      0.283775  KCAL/ANGSTROM
     57         21  O    CARTESIAN X     1.232916     -0.067844  KCAL/ANGSTROM
     58         21  O    CARTESIAN Y     0.634409     -0.237558  KCAL/ANGSTROM
     59         21  O    CARTESIAN Z    -3.443947      0.079043  KCAL/ANGSTROM
     60         22  O    CARTESIAN X     7.356092      0.576103  KCAL/ANGSTROM
     61         22  O    CARTESIAN Y    -0.709690     -0.047078  KCAL/ANGSTROM
     62         22  O    CARTESIAN Z    -3.057349      0.254572  KCAL/ANGSTROM
     63         23  H    CARTESIAN X     7.938734      0.410946  KCAL/ANGSTROM
     64         23  H    CARTESIAN Y    -0.941192      0.091675  KCAL/ANGSTROM
     65         23  H    CARTESIAN Z    -2.328036      0.098597  KCAL/ANGSTROM
     66         24  N    CARTESIAN X     0.727671      0.100553  KCAL/ANGSTROM
     67         24  N    CARTESIAN Y     2.709424      0.208690  KCAL/ANGSTROM
     68         24  N    CARTESIAN Z     0.755741      0.015728  KCAL/ANGSTROM
     69         25  O    CARTESIAN X     0.179144      0.019880  KCAL/ANGSTROM
     70         25  O    CARTESIAN Y     3.215006      0.032128  KCAL/ANGSTROM
     71         25  O    CARTESIAN Z     1.724846      0.004131  KCAL/ANGSTROM
     72         26  O    CARTESIAN X     1.516671      0.147796  KCAL/ANGSTROM
     73         26  O    CARTESIAN Y     3.333106     -0.050427  KCAL/ANGSTROM
     74         26  O    CARTESIAN Z     0.059620     -0.118699  KCAL/ANGSTROM
     75         27  H    CARTESIAN X     5.090168      0.407395  KCAL/ANGSTROM
     76         27  H    CARTESIAN Y    -1.220126     -0.046193  KCAL/ANGSTROM
     77         27  H    CARTESIAN Z    -0.997325     -0.773639  KCAL/ANGSTROM
     78         28  H    CARTESIAN X     6.463750     -0.154120  KCAL/ANGSTROM
     79         28  H    CARTESIAN Y    -0.833037     -0.295818  KCAL/ANGSTROM
     80         28  H    CARTESIAN Z    -2.702594     -0.137012  KCAL/ANGSTROM




   ATOM   CHEMICAL          X               Y               Z
  NUMBER   SYMBOL      (ANGSTROMS)     (ANGSTROMS)     (ANGSTROMS)

     1       C          0.43476639  *   1.33171199  *   0.42269149  *
     2       C          1.07044972  *   0.74957429  *  -0.67941761  *
     3       C          0.80131956  *  -0.58391005  *  -1.01532273  *
     4       C         -0.10225825  *  -1.31508739  *  -0.23091193  *
     5       C         -0.72345029  *  -0.70866077  *   0.86467903  *
     6       C         -0.47290520  *   0.62139926  *   1.21047233  *
     7       H          1.77749504  *   1.33711895  *  -1.28216190  *
     8       H         -0.33162746  *  -2.35892714  *  -0.48707687  *
     9       H         -0.97617648  *   1.08957994  *   2.06844151  *
    10       N         -1.66099780  *  -1.47601578  *   1.65472541  *
    11       O         -2.22049968  *  -0.93855635  *   2.60023210  *
    12       O         -1.87328818  *  -2.64369689  *   1.35744388  *
    13       C          1.43563308     -1.22108711     -2.15050530   
    14       H          3.59152106     -1.10760130  *  -1.92463313  *
    15       C          1.76385226  *  -2.67432861  *  -2.07932005  *
    16       H          2.55976602  *  -2.96850938  *  -2.78122579  *
    17       H          0.89626551  *  -3.30689586  *  -2.32641801  *
    18       H          2.09193773  *  -2.97072284  *  -1.07080815  *
    19       N          1.56994263  *  -0.56827721  *  -3.32324036  *
    20       O          2.07393738  *  -1.13016569  *  -4.32528392  *
    21       O          1.23291564  *   0.63440858  *  -3.44394729  *
    22       O          7.35609219  *  -0.70969021  *  -3.05734910  *
    23       H          7.93873413  *  -0.94119217  *  -2.32803564  *
    24       N          0.72767139  *   2.70942385  *   0.75574114  *
    25       O          0.17914414  *   3.21500572  *   1.72484555  *
    26       O          1.51667098  *   3.33310637  *   0.05961957  *
    27       H          5.09016846  *  -1.22012572  *  -0.99732530  *
    28       H          6.46375004  *  -0.83303718  *  -2.70259428  *
    29       O          4.95035729     -1.09360411     -1.93041806   

                             CARTESIAN COORDINATES

   1    C        0.434766388     1.331711994     0.422691493
   2    C        1.070449720     0.749574293    -0.679417614
   3    C        0.801319559    -0.583910045    -1.015322730
   4    C       -0.102258248    -1.315087387    -0.230911929
   5    C       -0.723450291    -0.708660769     0.864679026
   6    C       -0.472905202     0.621399259     1.210472330
   7    H        1.777495042     1.337118954    -1.282161898
   8    H       -0.331627464    -2.358927144    -0.487076867
   9    H       -0.976176476     1.089579945     2.068441508
  10    N       -1.660997797    -1.476015783     1.654725413
  11    O       -2.220499678    -0.938556354     2.600232098
  12    O       -1.873288176    -2.643696889     1.357443878
  13    C        1.435633080    -1.221087110    -2.150505300
  14    H        3.591521060    -1.107601298    -1.924633133
  15    C        1.763852258    -2.674328613    -2.079320045
  16    H        2.559766022    -2.968509383    -2.781225793
  17    H        0.896265510    -3.306895863    -2.326418009
  18    H        2.091937734    -2.970722836    -1.070808151
  19    N        1.569942635    -0.568277208    -3.323240363
  20    O        2.073937377    -1.130165687    -4.325283924
  21    O        1.232915639     0.634408582    -3.443947294
  22    O        7.356092185    -0.709690208    -3.057349100
  23    H        7.938734126    -0.941192169    -2.328035637
  24    N        0.727671389     2.709423850     0.755741141
  25    O        0.179144142     3.215005722     1.724845551
  26    O        1.516670976     3.333106368     0.059619572
  27    H        5.090168456    -1.220125717    -0.997325298
  28    H        6.463750038    -0.833037179    -2.702594281
  29    O        4.950357290    -1.093604110    -1.930418060


           Empirical Formula: C8 H10 N3 O8  =    29 atoms



      MOLECULAR POINT GROUP   :   C1  


                  EIGENVALUES  
 -37.62417 -37.56030 -36.28110 -31.86156 -31.00818 -30.92682 -29.16265 -28.78315
 -28.64326 -28.26746 -27.17973 -26.60117 -25.34022 -25.17037 -24.23463 -22.29957
 -21.54228 -20.42167 -19.27812 -18.68964 -18.07448 -17.84445 -17.73381 -17.66675
 -17.58156 -17.35805 -17.17858 -16.79842 -16.66157 -15.82280 -15.58064 -14.76988
 -14.53250 -14.14173 -13.95903 -13.73246 -13.52628 -13.29932 -13.03134 -12.33787
 -12.00339 -11.99396 -11.92525 -11.91721 -11.91005 -11.85341 -11.70795 -11.26191
 -11.16714 -11.12327 -10.97810 -10.88010  -8.80140  -1.71921  -1.42324  -0.21606
   0.23923   0.26507   0.40344   0.80718   1.45162   1.72750   1.90290   2.79279
   3.00998   3.40852   3.43240   3.66211   3.76570   3.99617   4.15355   4.36912
   4.47667   4.52403   4.59643   4.62172   5.20690   5.34813   5.40897   5.47881
   5.59928   5.66318   5.84500   6.04973   6.88331   6.91497


              NET ATOMIC CHARGES AND DIPOLE CONTRIBUTIONS

  ATOM NO.   TYPE          CHARGE      No. of ELECS.   s-Pop       p-Pop       
    1          C          -0.074725        4.0747     1.06669     3.00804
    2          C          -0.051268        4.0513     1.10161     2.94966
    3          C           0.059427        3.9406     1.05407     2.88650
    4          C          -0.055269        4.0553     1.10237     2.95290
    5          C          -0.077090        4.0771     1.06716     3.00993
    6          C          -0.040753        4.0408     1.09647     2.94428
    7          H           0.208427        0.7916     0.79157
    8          H           0.205091        0.7949     0.79491
    9          H           0.213598        0.7864     0.78640
   10          N           0.674375        4.3256     1.44641     2.87922
   11          O          -0.451894        6.4519     1.94084     4.51105
   12          O          -0.454699        6.4547     1.94087     4.51383
   13          C          -0.343894        4.3439     1.02863     3.31527
   14          H           0.477837        0.5222     0.52216
   15          C          -0.417414        4.4174     1.04334     3.37407
   16          H           0.164255        0.8357     0.83575
   17          H           0.160929        0.8391     0.83907
   18          H           0.163994        0.8360     0.83601
   19          N           0.700789        4.2992     1.42163     2.87758
   20          O          -0.665248        6.6652     1.94456     4.72069
   21          O          -0.663187        6.6632     1.94476     4.71843
   22          O          -0.770053        6.7701     1.81430     4.95575
   23          H           0.371019        0.6290     0.62898
   24          N           0.678342        4.3217     1.44539     2.87627
   25          O          -0.454095        6.4541     1.94085     4.51324
   26          O          -0.448157        6.4482     1.94076     4.50740
   27          H           0.352339        0.6477     0.64766
   28          H           0.382064        0.6179     0.61794
   29          O          -0.844743        6.8447     1.88031     4.96443
 DIPOLE           X         Y         Z       TOTAL
 POINT-CHG.    -3.129    -4.148    12.149    13.213
 HYBRID        -0.657     0.347     0.654     0.990
 SUM           -3.786    -3.800    12.803    13.881


          ATOMIC ORBITAL ELECTRON POPULATIONS

     Atom    s        px        py        pz   
    1  C   1.06669   1.08271   0.87268   1.05265
    2  C   1.10161   0.97964   1.01330   0.95672
    3  C   1.05407   0.95764   0.95623   0.97263
    4  C   1.10237   0.91935   1.09515   0.93839
    5  C   1.06716   1.02322   0.97074   1.01596
    6  C   1.09647   0.95018   0.96859   1.02552
    7  H   0.79157
    8  H   0.79491
    9  H   0.78640
   10  N   1.44641   0.95563   0.96722   0.95637
   11  O   1.94084   1.54752   1.70806   1.25547
   12  O   1.94087   1.70919   1.06537   1.73926
   13  C   1.02863   1.39593   1.00966   0.90968
   14  H   0.52216
   15  C   1.04334   1.18547   0.99987   1.18874
   16  H   0.83575
   17  H   0.83907
   18  H   0.83601
   19  N   1.42163   0.95077   0.94688   0.97993
   20  O   1.94456   1.62643   1.73201   1.36225
   21  O   1.94476   1.70391   1.09149   1.92302
   22  O   1.81430   1.42829   1.95503   1.57243
   23  H   0.62898
   24  N   1.44539   0.93117   1.00335   0.94175
   25  O   1.94085   1.53322   1.75447   1.22556
   26  O   1.94076   1.33826   1.67262   1.49651
   27  H   0.64766
   28  H   0.61794
   29  O   1.88031   1.51980   1.98943   1.45521

          BONDING CONTRIBUTION OF EACH M.O.

  1.3493  1.3473  1.4093  1.8657  1.0203  0.9881  1.1270  1.1824  1.5706  1.3782
  0.9154  1.2644  1.1473  1.3902  1.3060  1.5780  1.2803  1.2887  1.2870  1.2255
  1.1790  1.5798  1.6270  1.6259  1.5142  1.2564  1.8411  1.4884  1.8119  1.8343
  1.2126  1.0239  1.6014  1.8519  1.5705  1.8861  1.7377  1.4132  1.8658  0.0000
  0.8585  0.8589  0.3105  0.2835  0.0041  0.5948  0.6606  0.5951  1.1708  1.5315
  1.0939  0.5818  1.2592 -2.1105 -2.1459 -2.1931 -2.1339 -2.2593 -2.1063 -2.3952
 -1.9528 -1.7592 -2.0925 -1.9542 -1.9581 -1.9761 -1.9754 -1.9768 -2.0161 -2.0265
 -2.0026 -2.0052 -1.9720 -1.9549 -1.9508 -1.7375 -1.9185 -1.9345 -1.9445 -1.9471
 -1.9682 -1.9686 -1.9537 -1.7396 -1.8868 -1.7286





            (VALENCIES)   BOND ORDERS

     1  C     (3.938)     6  C 1.404     2  C 1.378    24  N 0.899     4  C 0.092    26  O 0.070    25  O 0.069

     2  C     (3.941)     3  C 1.399     1  C 1.378     7  H 0.940     5  C 0.092     4  C 0.031    25  O 0.017
                         13  C 0.013    19  N 0.011    26  O 0.011

     3  C     (3.992)     2  C 1.399     4  C 1.395    13  C 1.057     6  C 0.094    20  O 0.012

     4  C     (3.942)     3  C 1.395     5  C 1.383     8  H 0.942     1  C 0.092     2  C 0.031    11  O 0.018
                         19  N 0.013    13  C 0.013    12  O 0.011

     5  C     (3.936)     6  C 1.398     4  C 1.383    10  N 0.899     2  C 0.092    12  O 0.068    11  O 0.068

     6  C     (3.941)     1  C 1.404     5  C 1.398     9  H 0.938     3  C 0.094    26  O 0.018    12  O 0.018
                         25  O 0.012    11  O 0.012

     7  H     (0.957)     2  C 0.940

     8  H     (0.958)     4  C 0.942

     9  H     (0.954)     6  C 0.938

    10  N     (3.783)    11  O 1.429    12  O 1.426     5  C 0.899

    11  O     (1.824)    10  N 1.429    12  O 0.288     5  C 0.068     4  C 0.018     6  C 0.012

    12  O     (1.821)    10  N 1.426    11  O 0.288     5  C 0.068     6  C 0.018     4  C 0.011

    13  C     (3.727)    19  N 1.294     3  C 1.057    15  C 0.997    20  O 0.143    21  O 0.143    14  H 0.032
                          2  C 0.013     4  C 0.013

    14  H     (0.772)    29  O 0.714    13  C 0.032

    15  C     (3.915)    13  C 0.997    18  H 0.961    17  H 0.959    16  H 0.959    21  O 0.012

    16  H     (0.973)    15  C 0.959

    17  H     (0.974)    15  C 0.959

    18  H     (0.973)    15  C 0.961

    19  N     (3.811)    13  C 1.294    20  O 1.230    21  O 1.229     4  C 0.013     2  C 0.011

    20  O     (1.571)    19  N 1.230    21  O 0.167    13  C 0.143     3  C 0.012

    21  O     (1.574)    19  N 1.229    20  O 0.167    13  C 0.143    15  C 0.012

    22  O     (1.702)    23  H 0.861    28  H 0.822

    23  H     (0.862)    22  O 0.861

    24  N     (3.785)    26  O 1.428    25  O 1.428     1  C 0.899

    25  O     (1.823)    24  N 1.428    26  O 0.288     1  C 0.069     2  C 0.017     6  C 0.012

    26  O     (1.825)    24  N 1.428    25  O 0.288     1  C 0.070     6  C 0.018     2  C 0.011

    27  H     (0.876)    29  O 0.872

    28  H     (0.854)    22  O 0.822    29  O 0.030

    29  O     (1.641)    27  H 0.872    14  H 0.714    28  H 0.030


 **********************
 *                    *
 * JOB ENDED NORMALLY *
 *                    *
 **********************



 TOTAL JOB TIME:             2.50 SECONDS

 == MOPAC DONE ==
