 *******************************************************************************
 **                                                                           **
 **                              MOPAC v22.0.6                                **
 **                                                                           **
 *******************************************************************************
 **          Digital Object Identifier (DOI): 10.5281/zenodo.6511958          **
 **    Visit the DOI location for information on how to cite this program.    **
 *******************************************************************************

                              PM7 CALCULATION RESULTS

 *******************************************************************************
 *  CALCULATION DONE:                                Tue Mar 26 11:40:19 2024  *
 *  PM7        - The PM7 Hamiltonian to be used
 *  SINGLET    - SPIN STATE DEFINED AS A SINGLET
 *
 *
 *
 *                 CHARGE ON SYSTEM = 0
 *
 *
 *
 *  EPS=78.4   - USE ANDREAS KLAMT'S COSMO IMPLICIT SOLVATION MODEL
 *  SADDLE     - TRANSITION STATE TO BE OPTIMIZED
 *  T=         - A TIME OF 14.0 DAYS REQUESTED
 *  DUMP=N     - RESTART FILE WRITTEN EVERY 30.0 MINUTES REQUESTED
 *  RELSCF     - DEFAULT SCF CRITERION MULTIPLIED BY 1.0000
 *              (DEFAULT SCF CRITERION = 0.00010)
 *  ITRY=      - DO A MAXIMUM OF 15000 ITERATIONS FOR SCF
 *  AUX        - OUTPUT AUXILIARY INFORMATION
 *  BONDS      - FINAL BOND-ORDER MATRIX TO BE PRINTED
 *******************************************************************************
SADDLE PM7 BONDS AUX DUMP=30M ITRY=15000 T=14D CHARGE=0 SINGLET eps=78.4 RELSCF=1


   ATOM   CHEMICAL          X               Y               Z
  NUMBER   SYMBOL      (ANGSTROMS)     (ANGSTROMS)     (ANGSTROMS)

     1       C         -1.15220295  *  -0.24104012  *   0.10911180  *
     2       H         -2.24063887  *  -0.16734476  *   0.17506357  *
     3       N         -1.55110263  *  -2.63047950  *   0.62325995  *
     4       O         -2.71943137  *  -2.35622151  *   0.84325754  *
     5       O         -1.17059750  *  -3.78667942  *   0.51241249  *
     6       H          0.68154370  *   0.75281474  *  -0.36611264  *
     7       C         -0.54994094  *  -1.55127166  *   0.50605735  *
     8       H          0.24955772  *  -1.87384416  *  -0.21400007  *
     9       H         -0.03152867  *  -1.45813276  *   1.50520472  *
    10       C         -0.39720640  *   0.78056468  *  -0.28980909  *
    11       H         -0.80483662  *   1.74149497  *  -0.57421800  *
    12       C          5.75176153  *  -2.96092184  *   0.89319967  *
    13       C          7.08124469  *  -3.13201042  *   0.48530363  *
    14       C          7.75400924  *  -2.02611885  *  -0.05889677  *
    15       C          7.03926386  *  -0.83943747  *  -0.24740341  *
    16       C          5.69889979  *  -0.77334731  *   0.14353512  *
    17       N          5.06814227  *  -1.81228960  *   0.72459612  *
    18       H          5.20487495  *  -3.78099627  *   1.38104343  *
    19       H          7.51745081  *   0.03155048  *  -0.69443005  *
    20       H          5.10074953  *   0.13601307  *  -0.00081829  *
    21       C          7.69068574  *  -4.47863114  *   0.61944382  *
    22       H          8.78850855  *  -4.45941085  *   0.66666737  *
    23       H          7.42235862  *  -5.11409505  *  -0.24368622  *
    24       H          7.34397606  *  -5.01016914  *   1.51988100  *
    25       C          9.19776284  *  -2.08970967  *  -0.40057836  *
    26       H          9.59716218  *  -1.13633235  *  -0.77739544  *
    27       H          9.41418383  *  -2.85166202  *  -1.16719929  *
    28       H          9.80354370  *  -2.35721804  *   0.48367222  *
    29       H          3.15832134  *  -3.25719303  *   0.91449781  *
    30       O          2.91308287  *  -3.70767343  *   0.09565486  *
    31       H          3.48260559  *  -3.29508743  *  -0.56449695  *



          CARTESIAN COORDINATES 

    NO.       ATOM           X           Y           Z

     1         C         -1.1522     -0.2410      0.1091
     2         H         -2.2406     -0.1673      0.1751
     3         N         -1.5511     -2.6305      0.6233
     4         O         -2.7194     -2.3562      0.8433
     5         O         -1.1706     -3.7867      0.5124
     6         H          0.6815      0.7528     -0.3661
     7         C         -0.5499     -1.5513      0.5061
     8         H          0.2496     -1.8738     -0.2140
     9         H         -0.0315     -1.4581      1.5052
    10         C         -0.3972      0.7806     -0.2898
    11         H         -0.8048      1.7415     -0.5742
    12         C          5.7518     -2.9609      0.8932
    13         C          7.0812     -3.1320      0.4853
    14         C          7.7540     -2.0261     -0.0589
    15         C          7.0393     -0.8394     -0.2474
    16         C          5.6989     -0.7733      0.1435
    17         N          5.0681     -1.8123      0.7246
    18         H          5.2049     -3.7810      1.3810
    19         H          7.5175      0.0316     -0.6944
    20         H          5.1007      0.1360     -0.0008
    21         C          7.6907     -4.4786      0.6194
    22         H          8.7885     -4.4594      0.6667
    23         H          7.4224     -5.1141     -0.2437
    24         H          7.3440     -5.0102      1.5199
    25         C          9.1978     -2.0897     -0.4006
    26         H          9.5972     -1.1363     -0.7774
    27         H          9.4142     -2.8517     -1.1672
    28         H          9.8035     -2.3572      0.4837
    29         H          3.1583     -3.2572      0.9145
    30         O          2.9131     -3.7077      0.0957
    31         H          3.4826     -3.2951     -0.5645

 General Reference for PM7:
 "Optimization of Parameters for Semiempirical Methods VI: More Modifications to the 
 NDDO Approximations and Re-optimization of Parameters", J. J. P. Stewart, J. Mol. Mod., 1:32, 19 (2013)
 https://link.springer.com/article/10.1007/s00894-012-1667-x

           Empirical Formula: C10 H16 N2 O3  =    31 atoms



      MOLECULAR POINT GROUP   :   C1  


 SINGLET STATE CALCULATION


      RHF CALCULATION, NO. OF DOUBLY OCCUPIED LEVELS = 42



  CARTESIAN GEOMETRY OF FIRST SYSTEM


   1    C          0.28171      -0.74025      -0.64714
   2    H         -0.10231      -1.23979      -1.54369
   3    N          0.34400      -2.89634       0.46394
   4    O         -0.01715      -3.50086      -0.58042
   5    O          0.54613      -3.60365       1.49197
   6    H          0.91008       1.11242       0.20838
   7    C          0.50149      -1.57573       0.50765
   8    H          3.39305      -1.49021      -0.29224
   9    H          0.82592      -1.11973       1.43768
  10    C          0.52588       0.57631      -0.64191
  11    H          0.37554       1.21234      -1.49623
  12    C          6.95295       0.62175      -0.10066
  13    C          7.95269       1.55047      -0.38255
  14    C          7.58945       2.79988      -0.92562
  15    C          6.23104       3.08631      -1.09593
  16    C          5.26773       2.13044      -0.79230
  17    N          5.64076       0.91229      -0.31905
  18    H          7.18734      -0.38070       0.30295
  19    H          5.91574       4.06370      -1.47915
  20    H          4.18814       2.31990      -0.93077
  21    C          9.36675       1.19375      -0.11876
  22    H          9.89486       1.98011       0.44862
  23    H          9.93237       1.05571      -1.05717
  24    H          9.48223       0.26276       0.45939
  25    C          8.62047       3.77743      -1.33489
  26    H          8.20608       4.72387      -1.71532
  27    H          9.26065       3.36781      -2.13972
  28    H          9.30547       4.03921      -0.50838
  29    H          4.91801       0.16028      -0.14662
  30    O          4.35471      -1.42176      -0.28753
  31    H          4.62421      -1.76056      -1.16150


  CARTESIAN GEOMETRY OF SECOND SYSTEM


   1    C         -0.32220      -0.99586      -0.39072
   2    H         -1.23480      -1.58524      -0.27130
   3    N          0.80332      -3.09956       0.27302
   4    O         -0.29237      -3.56553       0.53937
   5    O          1.80231      -3.80048       0.20521
   6    H          0.53852       0.86013      -1.01578
   7    C          0.95144      -1.64816       0.04442
   8    H          1.77702      -1.47963      -0.69838
   9    H          1.31874      -1.18769       1.00815
  10    C         -0.33859       0.24075      -0.88405
  11    H         -1.24541       0.74010      -1.19829
  12    C          6.83447       1.03917       0.17321
  13    C          7.99487       1.66985      -0.29464
  14    C          7.86069       2.91331      -0.93306
  15    C          6.57367       3.41542      -1.14768
  16    C          5.46765       2.69331      -0.69045
  17    N          5.59540       1.53115      -0.02115
  18    H          6.89647       0.09464       0.73322
  19    H          6.42656       4.36236      -1.66612
  20    H          4.44114       3.04783      -0.85215
  21    C          9.29364       0.97308      -0.11995
  22    H         10.15886       1.65061      -0.13208
  23    H          9.45388       0.24095      -0.93182
  24    H          9.34561       0.40953       0.82516
  25    C          9.04820       3.70315      -1.34679
  26    H          8.78926       4.67373      -1.79553
  27    H          9.67250       3.16839      -2.08123
  28    H          9.70134       3.92015      -0.48264
  29    H          4.94287      -0.75121       0.34797
  30    O          5.01056      -1.31881      -0.43102
  31    H          5.21040      -0.69822      -1.14187


   "DISTANCE":     5.109634


  REACTION COORDINATE VECTOR


   1    C          0.60391       0.25561      -0.25642
   2    H          1.13249       0.34545      -1.27240
   3    N         -0.45932       0.20322       0.19092
   4    O          0.27522       0.06467      -1.11980
   5    O         -1.25618       0.19683       1.28676
   6    H          0.37156       0.25229       1.22416
   7    C         -0.44995       0.07244       0.46323
   8    H          1.61603      -0.01058       0.40613
   9    H         -0.49281       0.06796       0.42953
  10    C          0.86447       0.33556       0.24213
  11    H          1.62095       0.47225      -0.29793
  12    C          0.11848      -0.41742      -0.27387
  13    C         -0.04218      -0.11938      -0.08790
  14    C         -0.27124      -0.11342       0.00744
  15    C         -0.34263      -0.32911       0.05176
  16    C         -0.19992      -0.56286      -0.10185
  17    N          0.04536      -0.61886      -0.29790
  18    H          0.29088      -0.47533      -0.43027
  19    H         -0.51082      -0.29866       0.18697
  20    H         -0.25300      -0.72793      -0.07862
  21    C          0.07311       0.22067       0.00119
  22    H         -0.26400       0.32950       0.58070
  23    H          0.47849       0.81475      -0.12535
  24    H          0.13663      -0.14677      -0.36578
  25    C         -0.42774       0.07428       0.01191
  26    H         -0.58317       0.05014       0.08021
  27    H         -0.41186       0.19942      -0.05849
  28    H         -0.39588       0.11907      -0.02574
  29    H         -0.02485       0.91149      -0.49459
  30    O         -0.65585      -0.10295       0.14349
  31    H         -0.58618      -1.06233      -0.01963
 *+*+*+*+*+*+*+*+*+*+*+*+*+*+*+*+*+*+*+*+*+*+*+*+*+*+*+*+*+*+*+*+*+*+*+*+*+*+*+*+
            BAR SHORTENED BY       0.000 PERCENT
 GRADIENT CRITERION IN FLEPO =     1.000
  SCF CRITERION =    0.1000E-03
 

                    SINCE COS WAS JUST RESET,THE SEARCH IS BEING ENDED


          FOR POINT    1 SECOND STRUCTURE
 DISTANCE A - B      5.109634
 HEAT              -69.972317
 GRADIENT NORM       3.467628
 DIRECTION COSINE    0.000012
* ===============================
* Input file for Mopac
* ===============================
 PM7 BONDS AUX DUMP=30M ITRY=15000 T=14D CHARGE=0 SINGLET eps=78.4 RELSCF=1


  C     0.00000000 +0    0.0000000 +0    0.0000000 +0     0     0     0
  H     1.09581684 +1    0.0000000 +0    0.0000000 +0     1     0     0
  N     2.42633445 +1   88.7719985 +1    0.0000000 +0     1     2     0
  O     1.25959692 +1   92.2600518 +1    3.8186457 +1     3     1     2
  O     1.26411110 +1  150.8938693 +1 -175.8609042 +1     3     1     2
  H     2.13521836 +1  145.7390246 +1  177.4632590 +1     1     2     3
  C     1.33068464 +1   30.2527456 +1 -175.6416642 +1     3     1     2
  H     3.00137494 +1   97.6744998 +1  -89.1657184 +1     7     3     1
  H     1.08542345 +1  118.7145880 +1 -178.6767292 +1     7     3     1
  C     1.07611736 +1   31.3586578 +1    0.7783022 +1     6     1     2
  H     1.07563620 +1  112.5125403 +1 -178.9566712 +1    10     6     1
  C     4.14366575 +1  146.0868767 +1 -154.2891135 +1     8     7     3
  C     1.39336808 +1  161.2240592 +1  -83.1033024 +1    12     8     7
  C     1.40992945 +1  118.9286346 +1   29.3826953 +1    13    12     8
  C     1.39868499 +1  118.5927960 +1    3.2951134 +1    14    13    12
  C     1.39062550 +1  120.3596065 +1   -2.9566492 +1    15    14    13
  N     1.35904571 +1  120.1321060 +1    0.4214677 +1    16    15    14
  H     1.10577780 +1   74.7476719 +1  123.7979208 +1    12     8     7
  H     1.09615743 +1  120.2992690 +1  177.6189307 +1    15    14    13
  H     1.10479695 +1  122.1185749 +1 -179.0175125 +1    16    15    14
  C     1.48202533 +1  119.2191992 +1 -149.9239917 +1    13    12     8
  H     1.10417488 +1  112.1102005 +1 -130.9711582 +1    21    13    12
  H     1.10435040 +1  111.5635362 +1  109.9294464 +1    21    13    12
  H     1.10196514 +1  113.3738947 +1  -10.4979704 +1    21    13    12
  C     1.47854682 +1  120.8538357 +1 -175.3923922 +1    14    13    12
  H     1.10098991 +1  113.6742918 +1 -178.2983790 +1    25    14    13
  H     1.10696668 +1  111.0920874 +1   61.5627219 +1    25    14    13
  H     1.10492393 +1  112.4510634 +1  -56.8600449 +1    25    14    13
  H     1.05717175 +1  120.4469445 +1 -175.9750596 +1    17    16    15
  O     0.96411012 +1  164.0886508 +1 -102.8106192 +1     8     7     3
  H     0.97531714 +1  104.2747080 +1  166.1890652 +1    30     8     7

 TIME=     0.48
  REACTANTS AND PRODUCTS SWAPPED AROUND
 *+*+*+*+*+*+*+*+*+*+*+*+*+*+*+*+*+*+*+*+*+*+*+*+*+*+*+*+*+*+*+*+*+*+*+*+*+*+*+*+
            BAR SHORTENED BY       1.000 PERCENT
 GRADIENT CRITERION IN FLEPO =     1.000
           THERE HAVE BEEN 3 ATTEMPTS TO REDUCE THE GRADIENT.
           DURING THESE ATTEMPTS THE ENERGY DROPPED BY LESS THAN 0.3 KCAL/MOLE
           FURTHER CALCULATION IS NOT JUSTIFIED AT THIS TIME.
           TO CONTINUE, START AGAIN WITH THE WORD "PRECISE"


          FOR POINT    2 FIRST  STRUCTURE
 DISTANCE A - B      5.058537
 HEAT              -65.923535
 GRADIENT NORM       7.140558
 DIRECTION COSINE   -0.033902
* ===============================
* Input file for Mopac
* ===============================
 PM7 BONDS AUX DUMP=30M ITRY=15000 T=14D CHARGE=0 SINGLET eps=78.4 RELSCF=1


  C     0.00000000 +0    0.0000000 +0    0.0000000 +0     0     0     0
  H     1.09338444 +1    0.0000000 +0    0.0000000 +0     1     0     0
  N     2.47435799 +1   83.7590627 +1    0.0000000 +0     1     2     0
  O     1.22107702 +1   88.7680423 +1   -8.7320990 +1     3     1     2
  O     1.22252017 +1  147.5851451 +1  151.7833629 +1     3     1     2
  H     2.13853548 +1  146.8077521 +1  174.0258248 +1     1     2     3
  C     1.47610867 +1   33.8431440 +1 -168.0193040 +1     3     1     2
  H     1.12389217 +1  108.7926350 +1 -124.5812021 +1     7     3     1
  H     1.12873550 +1  107.5431279 +1  121.8819011 +1     7     3     1
  C     1.08185185 +1   30.9151992 +1   -0.7599355 +1     6     1     2
  H     1.08188475 +1  112.3960332 +1  179.8898126 +1    10     6     1
  C     5.70598676 +1  128.4509636 +1 -113.8885989 +1     8     7     3
  C     1.40105154 +1  151.8737660 +1 -160.8550870 +1    12     8     7
  C     1.40434960 +1  118.0927329 +1   64.3271123 +1    13    12     8
  C     1.39921768 +1  118.4052450 +1   -3.9902532 +1    14    13    12
  C     1.39585540 +1  119.4696016 +1    1.8563395 +1    15    14    13
  N     1.34572087 +1  122.3643999 +1    1.1869371 +1    16    15    14
  H     1.09910576 +1   75.2324106 +1   70.2247862 +1    12     8     7
  H     1.08961951 +1  120.4258200 +1 -178.2799794 +1    15    14    13
  H     1.09844256 +1  121.5054537 +1 -179.1216165 +1    16    15    14
  C     1.48427658 +1  118.3811659 +1 -114.1457570 +1    13    12     8
  H     1.09905516 +1  113.5339430 +1 -156.7883633 +1    21    13    12
  H     1.10483591 +1  110.5647245 +1   83.5159042 +1    21    13    12
  H     1.10148706 +1  112.5392878 +1  -35.5931592 +1    21    13    12
  C     1.48394103 +1  121.4878055 +1  174.6951637 +1    14    13    12
  H     1.09980918 +1  113.4039051 +1 -177.8341838 +1    25    14    13
  H     1.10371783 +1  112.1187386 +1   61.0920046 +1    25    14    13
  H     1.10555422 +1  111.2662508 +1  -57.7930410 +1    25    14    13
  H     2.28046284 +1  100.0942157 +1   -1.5707459 +1    18    12     8
  O     0.96585917 +1  100.1144683 +1   96.5888381 +1    29    18    12
  H     0.96595334 +1  103.2400909 +1  -71.2173943 +1    30    29    18

 TIME=     1.48
  REACTANTS AND PRODUCTS SWAPPED AROUND
 *+*+*+*+*+*+*+*+*+*+*+*+*+*+*+*+*+*+*+*+*+*+*+*+*+*+*+*+*+*+*+*+*+*+*+*+*+*+*+*+
            BAR SHORTENED BY       1.000 PERCENT
 GRADIENT CRITERION IN FLEPO =     4.141


          FOR POINT    3 SECOND STRUCTURE
 DISTANCE A - B      5.007952
 HEAT              -69.943135
 GRADIENT NORM      10.930636
 DIRECTION COSINE   -0.191391
* ===============================
* Input file for Mopac
* ===============================
 PM7 BONDS AUX DUMP=30M ITRY=15000 T=14D CHARGE=0 SINGLET eps=78.4 RELSCF=1


  C     0.00000000 +0    0.0000000 +0    0.0000000 +0     0     0     0
  H     1.09931414 +1    0.0000000 +0    0.0000000 +0     1     0     0
  N     2.42391038 +1   88.3272452 +1    0.0000000 +0     1     2     0
  O     1.25917757 +1   92.4260633 +1    3.7516408 +1     3     1     2
  O     1.26604877 +1  151.1335944 +1 -175.9393036 +1     3     1     2
  H     2.13540472 +1  145.9957426 +1  177.4098204 +1     1     2     3
  C     1.32967392 +1   30.3306051 +1 -175.7050625 +1     3     1     2
  H     2.99575530 +1   97.7160958 +1  -89.5137403 +1     7     3     1
  H     1.08979257 +1  118.9724376 +1 -178.2625932 +1     7     3     1
  C     1.07663949 +1   31.2397806 +1    1.3205324 +1     6     1     2
  H     1.07858764 +1  112.3330318 +1 -178.3020467 +1    10     6     1
  C     4.14861439 +1  145.8222079 +1 -153.7587846 +1     8     7     3
  C     1.39288252 +1  161.0420935 +1  -85.0054407 +1    12     8     7
  C     1.40836643 +1  118.9411952 +1   30.7128441 +1    13    12     8
  C     1.39876399 +1  118.5549401 +1    3.1529061 +1    14    13    12
  C     1.39082290 +1  120.3697407 +1   -2.9097449 +1    15    14    13
  N     1.35894807 +1  120.2563367 +1    0.3176605 +1    16    15    14
  H     1.10311320 +1   74.6466766 +1  122.8863331 +1    12     8     7
  H     1.09773257 +1  120.0693377 +1  177.9940682 +1    15    14    13
  H     1.10546182 +1  121.7606909 +1 -179.1962695 +1    16    15    14
  C     1.48244275 +1  119.1022810 +1 -148.5962534 +1    13    12     8
  H     1.10211043 +1  112.1400037 +1 -131.4799397 +1    21    13    12
  H     1.10298977 +1  111.4196715 +1  109.6522396 +1    21    13    12
  H     1.10221041 +1  113.3249147 +1  -10.7732070 +1    21    13    12
  C     1.48078999 +1  120.7702303 +1 -175.6304866 +1    14    13    12
  H     1.09937933 +1  113.7056863 +1 -178.2061003 +1    25    14    13
  H     1.10959455 +1  111.1307382 +1   61.4825923 +1    25    14    13
  H     1.10561291 +1  112.5546143 +1  -57.1733244 +1    25    14    13
  H     1.05940867 +1  121.0415745 +1 -176.0045511 +1    17    16    15
  O     0.96266243 +1  163.1673316 +1 -102.5935166 +1     8     7     3
  H     0.97428484 +1  104.2156461 +1  166.9357046 +1    30     8     7

 *+*+*+*+*+*+*+*+*+*+*+*+*+*+*+*+*+*+*+*+*+*+*+*+*+*+*+*+*+*+*+*+*+*+*+*+*+*+*+*+
            BAR SHORTENED BY       1.000 PERCENT
 GRADIENT CRITERION IN FLEPO =     7.931


          FOR POINT    4 SECOND STRUCTURE
 DISTANCE A - B      4.957872
 HEAT              -69.761293
 GRADIENT NORM      16.899271
 DIRECTION COSINE   -0.032818
* ===============================
* Input file for Mopac
* ===============================
 PM7 BONDS AUX DUMP=30M ITRY=15000 T=14D CHARGE=0 SINGLET eps=78.4 RELSCF=1


  C     0.00000000 +0    0.0000000 +0    0.0000000 +0     0     0     0
  H     1.09258195 +1    0.0000000 +0    0.0000000 +0     1     0     0
  N     2.42078058 +1   88.1169547 +1    0.0000000 +0     1     2     0
  O     1.25803112 +1   92.5240877 +1    3.7035367 +1     3     1     2
  O     1.26253356 +1  151.5224348 +1 -175.8642336 +1     3     1     2
  H     2.13537440 +1  146.0607913 +1  177.4005325 +1     1     2     3
  C     1.33062526 +1   30.3772841 +1 -175.7554186 +1     3     1     2
  H     2.98139456 +1   97.7599963 +1  -89.9634057 +1     7     3     1
  H     1.08538599 +1  118.8040009 +1 -178.7133948 +1     7     3     1
  C     1.07359775 +1   31.2924641 +1    1.4106569 +1     6     1     2
  H     1.07353074 +1  112.2784146 +1 -178.1615452 +1    10     6     1
  C     4.15684976 +1  145.6941162 +1 -153.2489188 +1     8     7     3
  C     1.39305396 +1  161.0493298 +1  -86.5966926 +1    12     8     7
  C     1.41222386 +1  118.8227882 +1   31.7827161 +1    13    12     8
  C     1.39893560 +1  118.4761321 +1    3.0738324 +1    14    13    12
  C     1.39403133 +1  120.4295221 +1   -2.7628781 +1    15    14    13
  N     1.36127621 +1  120.2435273 +1    0.0553482 +1    16    15    14
  H     1.10571642 +1   74.5898281 +1  122.3557761 +1    12     8     7
  H     1.09489478 +1  120.1131303 +1  178.0509132 +1    15    14    13
  H     1.10231295 +1  121.7055018 +1 -179.1950269 +1    16    15    14
  C     1.47865239 +1  119.2470127 +1 -147.3956062 +1    13    12     8
  H     1.10468198 +1  112.1208550 +1 -131.8098040 +1    21    13    12
  H     1.10366708 +1  111.6125086 +1  109.5383718 +1    21    13    12
  H     1.10247981 +1  113.3727773 +1  -11.1696715 +1    21    13    12
  C     1.47815502 +1  120.7704028 +1 -175.7569483 +1    14    13    12
  H     1.09522653 +1  114.6427329 +1 -178.0687618 +1    25    14    13
  H     1.10622674 +1  111.3781581 +1   61.4676264 +1    25    14    13
  H     1.10546117 +1  112.5150463 +1  -57.0957211 +1    25    14    13
  H     1.06281626 +1  121.4976981 +1 -175.3869520 +1    17    16    15
  O     0.97512285 +1  162.6191915 +1 -102.1613745 +1     8     7     3
  H     0.97493093 +1  104.1315659 +1  167.1631278 +1    30     8     7

 TIME=     0.53
  REACTANTS AND PRODUCTS SWAPPED AROUND
 *+*+*+*+*+*+*+*+*+*+*+*+*+*+*+*+*+*+*+*+*+*+*+*+*+*+*+*+*+*+*+*+*+*+*+*+*+*+*+*+
            BAR SHORTENED BY       1.000 PERCENT
 GRADIENT CRITERION IN FLEPO =    10.000


          FOR POINT    5 FIRST  STRUCTURE
 DISTANCE A - B      4.908294
 HEAT              -65.844994
 GRADIENT NORM      11.440847
 DIRECTION COSINE   -0.141810
* ===============================
* Input file for Mopac
* ===============================
 PM7 BONDS AUX DUMP=30M ITRY=15000 T=14D CHARGE=0 SINGLET eps=78.4 RELSCF=1


  C     0.00000000 +0    0.0000000 +0    0.0000000 +0     0     0     0
  H     1.09341569 +1    0.0000000 +0    0.0000000 +0     1     0     0
  N     2.47064895 +1   83.6343370 +1    0.0000000 +0     1     2     0
  O     1.22093119 +1   89.0546572 +1   -8.8444412 +1     3     1     2
  O     1.22234833 +1  147.9379119 +1  151.9297063 +1     3     1     2
  H     2.13761480 +1  146.8973614 +1  174.0445252 +1     1     2     3
  C     1.47438392 +1   33.8767133 +1 -168.3715826 +1     3     1     2
  H     1.12568571 +1  108.6207510 +1 -124.7991753 +1     7     3     1
  H     1.12958714 +1  107.4934150 +1  121.6896614 +1     7     3     1
  C     1.08181487 +1   30.8252068 +1   -0.8227179 +1     6     1     2
  H     1.07670461 +1  111.8905298 +1  179.8620737 +1    10     6     1
  C     5.69579898 +1  128.8959796 +1 -114.2723428 +1     8     7     3
  C     1.40096001 +1  152.2991555 +1 -159.9041106 +1    12     8     7
  C     1.40297407 +1  118.0066381 +1   63.8129807 +1    13    12     8
  C     1.39793356 +1  118.5532014 +1   -3.6811198 +1    14    13    12
  C     1.39818832 +1  119.4023066 +1    1.8262945 +1    15    14    13
  N     1.34603002 +1   47.4886639 +1  -77.8073774 +1    12     8     7
  H     1.10243615 +1   75.3034705 +1   70.9070187 +1    12     8     7
  H     1.08829935 +1  120.7283207 +1 -178.3181820 +1    15    14    13
  H     1.09743348 +1  121.7031891 +1 -178.9317553 +1    16    15    14
  C     1.48399650 +1  118.4366414 +1 -114.4678248 +1    13    12     8
  H     1.10303638 +1  113.4706440 +1 -156.6197994 +1    21    13    12
  H     1.10296665 +1  110.5735816 +1   83.7586398 +1    21    13    12
  H     1.10257414 +1  112.7312949 +1  -35.4090045 +1    21    13    12
  C     1.48520513 +1  121.3926744 +1  175.1431081 +1    14    13    12
  H     1.10039871 +1  113.1664997 +1 -178.1070916 +1    25    14    13
  H     1.10382383 +1  112.1708182 +1   61.3074181 +1    25    14    13
  H     1.10304361 +1  111.2964856 +1  -58.0734883 +1    25    14    13
  H     2.28020502 +1   99.5158648 +1   -1.7708554 +1    18    12     8
  O     0.96656100 +1  100.2024915 +1   97.7819783 +1    29    18    12
  H     0.96170345 +1  102.8964904 +1  -72.2439681 +1    30    29    18

 TIME=     0.35
  REACTANTS AND PRODUCTS SWAPPED AROUND
 *+*+*+*+*+*+*+*+*+*+*+*+*+*+*+*+*+*+*+*+*+*+*+*+*+*+*+*+*+*+*+*+*+*+*+*+*+*+*+*+
            BAR SHORTENED BY       1.000 PERCENT
 GRADIENT CRITERION IN FLEPO =     8.441


          FOR POINT    6 SECOND STRUCTURE
 DISTANCE A - B      4.859211
 HEAT              -69.876029
 GRADIENT NORM      21.506225
 DIRECTION COSINE   -0.272780
* ===============================
* Input file for Mopac
* ===============================
 PM7 BONDS AUX DUMP=30M ITRY=15000 T=14D CHARGE=0 SINGLET eps=78.4 RELSCF=1


  C     0.00000000 +0    0.0000000 +0    0.0000000 +0     0     0     0
  H     1.09229047 +1    0.0000000 +0    0.0000000 +0     1     0     0
  N     2.41972505 +1   87.9079481 +1    0.0000000 +0     1     2     0
  O     1.25952103 +1   92.5551820 +1    3.1835583 +1     3     1     2
  O     1.26722473 +1  151.6697608 +1 -176.0310244 +1     3     1     2
  H     2.13513037 +1  146.0976959 +1  176.0059136 +1     1     2     3
  C     1.33011908 +1   30.5707477 +1 -176.7765972 +1     3     1     2
  H     2.98825020 +1   97.9144125 +1  -90.2456970 +1     7     3     1
  H     1.08807416 +1  119.2785901 +1 -179.1522416 +1     7     3     1
  C     1.06900806 +1   31.1551679 +1    2.1382765 +1     6     1     2
  H     1.07897679 +1  112.2140932 +1 -178.9419380 +1    10     6     1
  C     4.15621728 +1  145.0182773 +1 -151.4836766 +1     8     7     3
  C     1.39318583 +1  160.4479002 +1  -90.0193304 +1    12     8     7
  C     1.41031296 +1  118.9581034 +1   33.2610014 +1    13    12     8
  C     1.39672329 +1  118.3860387 +1    2.9516763 +1    14    13    12
  C     1.39374233 +1  120.5347344 +1   -2.7358238 +1    15    14    13
  N     1.36062760 +1   43.1603391 +1  -45.3959292 +1    12     8     7
  H     1.10380186 +1   74.8639917 +1  119.5301799 +1    12     8     7
  H     1.09648569 +1  119.8283811 +1  178.1639546 +1    15    14    13
  H     1.10284091 +1  121.8222797 +1  179.9878494 +1    16    15    14
  C     1.48120546 +1  119.0686567 +1 -146.0035540 +1    13    12     8
  H     1.11254929 +1  113.0495883 +1 -132.3817726 +1    21    13    12
  H     1.10342467 +1  111.2030201 +1  108.8885732 +1    21    13    12
  H     1.10331581 +1  113.1394847 +1  -11.3889988 +1    21    13    12
  C     1.48387506 +1  120.5425541 +1 -175.9059463 +1    14    13    12
  H     1.10287724 +1  113.7820143 +1 -178.1947977 +1    25    14    13
  H     1.10367850 +1  111.1903964 +1   61.8095478 +1    25    14    13
  H     1.10109399 +1  112.0984201 +1  -56.9394391 +1    25    14    13
  H     1.05827890 +1  118.3568242 +1   11.2154672 +1    17    12     8
  O     0.96923869 +1  159.3531360 +1 -100.5494817 +1     8     7     3
  H     0.97212383 +1  102.5651241 +1  167.1036909 +1    30     8     7

 TIME=     0.21
  REACTANTS AND PRODUCTS SWAPPED AROUND
 *+*+*+*+*+*+*+*+*+*+*+*+*+*+*+*+*+*+*+*+*+*+*+*+*+*+*+*+*+*+*+*+*+*+*+*+*+*+*+*+
            BAR SHORTENED BY       1.000 PERCENT
 GRADIENT CRITERION IN FLEPO =    10.000


          FOR POINT    7 FIRST  STRUCTURE
 DISTANCE A - B      4.810619
 HEAT              -65.877615
 GRADIENT NORM      22.793342
 DIRECTION COSINE   -0.289946
* ===============================
* Input file for Mopac
* ===============================
 PM7 BONDS AUX DUMP=30M ITRY=15000 T=14D CHARGE=0 SINGLET eps=78.4 RELSCF=1


  C     0.00000000 +0    0.0000000 +0    0.0000000 +0     0     0     0
  H     1.09812001 +1    0.0000000 +0    0.0000000 +0     1     0     0
  N     2.47169426 +1   83.5284562 +1    0.0000000 +0     1     2     0
  O     1.22255426 +1   89.1348366 +1   -8.1494944 +1     3     1     2
  O     1.22259770 +1  147.9658544 +1  152.0820242 +1     3     1     2
  H     2.14121279 +1  147.2785896 +1  175.8922079 +1     1     2     3
  C     1.47350310 +1   33.9977104 +1 -167.7725460 +1     3     1     2
  H     1.12360501 +1  108.6607683 +1 -124.4255038 +1     7     3     1
  H     1.12851895 +1  107.5169218 +1  121.8376717 +1     7     3     1
  C     1.08950001 +1   30.6755771 +1   -2.0886499 +1     6     1     2
  H     1.08435154 +1  112.0016054 +1 -179.6886198 +1    10     6     1
  C     5.68984420 +1  129.2298311 +1 -114.4686632 +1     8     7     3
  C     1.40153150 +1  152.3252516 +1 -159.2421619 +1    12     8     7
  C     1.40280303 +1  118.1051530 +1   63.4591986 +1    13    12     8
  C     1.39700736 +1  118.4017643 +1   -3.6808584 +1    14    13    12
  C     1.40171359 +1  119.3908650 +1    1.5245741 +1    15    14    13
  N     1.34356486 +1   46.9340212 +1  -77.8546968 +1    12     8     7
  H     1.10148633 +1   75.1740989 +1   71.5875062 +1    12     8     7
  H     1.09094453 +1  120.7814645 +1 -178.4643788 +1    15    14    13
  H     1.09904121 +1  121.5990310 +1 -179.8874983 +1    16    15    14
  C     1.48722959 +1  118.4670879 +1 -114.9851627 +1    13    12     8
  H     1.10100778 +1  113.2785707 +1 -155.4774616 +1    21    13    12
  H     1.10450247 +1  111.1209117 +1   84.7253349 +1    21    13    12
  H     1.10198482 +1  112.5779153 +1  -34.7785790 +1    21    13    12
  C     1.48615107 +1  121.5195714 +1  175.4113427 +1    14    13    12
  H     1.09766331 +1  113.1797835 +1 -177.8758624 +1    25    14    13
  H     1.10046601 +1  112.2399525 +1   60.7766265 +1    25    14    13
  H     1.09889332 +1  111.3465690 +1  -58.3083533 +1    25    14    13
  H     2.28087213 +1   99.1947584 +1   -1.9740503 +1    18    12     8
  O     0.96638858 +1  100.3113268 +1   99.4166111 +1    29    18    12
  H     0.96530039 +1  102.5726636 +1  -73.2069951 +1    30    29    18

 TIME=     0.30
  REACTANTS AND PRODUCTS SWAPPED AROUND
 *+*+*+*+*+*+*+*+*+*+*+*+*+*+*+*+*+*+*+*+*+*+*+*+*+*+*+*+*+*+*+*+*+*+*+*+*+*+*+*+
            BAR SHORTENED BY       1.000 PERCENT
 GRADIENT CRITERION IN FLEPO =    10.000


          FOR POINT    8 SECOND STRUCTURE
 DISTANCE A - B      4.762513
 HEAT              -69.936726
 GRADIENT NORM      14.660385
 DIRECTION COSINE   -0.298317
* ===============================
* Input file for Mopac
* ===============================
 PM7 BONDS AUX DUMP=30M ITRY=15000 T=14D CHARGE=0 SINGLET eps=78.4 RELSCF=1


  C     0.00000000 +0    0.0000000 +0    0.0000000 +0     0     0     0
  H     1.09539677 +1    0.0000000 +0    0.0000000 +0     1     0     0
  N     2.41898635 +1   87.7575411 +1    0.0000000 +0     1     2     0
  O     1.26056139 +1   92.5240846 +1    3.3541506 +1     3     1     2
  O     1.26536531 +1  151.6053438 +1 -176.1009424 +1     3     1     2
  H     2.13525322 +1  146.0767151 +1  176.6477701 +1     1     2     3
  C     1.33195156 +1   30.5577513 +1 -176.4167554 +1     3     1     2
  H     2.97751634 +1   98.0489410 +1  -90.7680932 +1     7     3     1
  H     1.09357821 +1  118.9737668 +1 -177.2301675 +1     7     3     1
  C     1.07336360 +1   31.2102070 +1    1.6824807 +1     6     1     2
  H     1.07538807 +1  112.3001675 +1 -179.3159157 +1    10     6     1
  C     4.15939905 +1  145.1055432 +1 -151.4549897 +1     8     7     3
  C     1.39095352 +1  160.5233328 +1  -90.7247089 +1    12     8     7
  C     1.41111871 +1  118.9068584 +1   33.7479956 +1    13    12     8
  C     1.39835391 +1  118.3366120 +1    2.9123428 +1    14    13    12
  C     1.39407495 +1  120.4444146 +1   -2.5188473 +1    15    14    13
  N     1.36054505 +1  120.3630719 +1    0.0376722 +1    16    15    14
  H     1.10560871 +1   74.9896290 +1  119.4226482 +1    12     8     7
  H     1.09539386 +1  119.8463492 +1  177.8254401 +1    15    14    13
  H     1.10519110 +1  121.3962607 +1 -179.5558233 +1    16    15    14
  C     1.48349241 +1  119.2140369 +1 -145.1742190 +1    13    12     8
  H     1.10303570 +1  112.8207346 +1 -132.5681527 +1    21    13    12
  H     1.10364085 +1  111.1897359 +1  108.1885801 +1    21    13    12
  H     1.10320554 +1  112.9383139 +1  -11.9766324 +1    21    13    12
  C     1.48052996 +1  120.6688669 +1 -176.0286630 +1    14    13    12
  H     1.09901316 +1  114.0003504 +1 -177.9093736 +1    25    14    13
  H     1.10695130 +1  111.2163585 +1   61.8084406 +1    25    14    13
  H     1.10658712 +1  112.1301023 +1  -56.6034340 +1    25    14    13
  H     1.06160381 +1  121.4447625 +1 -174.9596131 +1    17    16    15
  O     0.96656981 +1  159.7760921 +1 -100.8294384 +1     8     7     3
  H     0.97606800 +1  103.6427376 +1  167.7393178 +1    30     8     7

 TIME=     0.30
  REACTANTS AND PRODUCTS SWAPPED AROUND
 *+*+*+*+*+*+*+*+*+*+*+*+*+*+*+*+*+*+*+*+*+*+*+*+*+*+*+*+*+*+*+*+*+*+*+*+*+*+*+*+
            BAR SHORTENED BY       1.000 PERCENT
 GRADIENT CRITERION IN FLEPO =    10.000


          FOR POINT    9 FIRST  STRUCTURE
 DISTANCE A - B      4.714887
 HEAT              -65.981071
 GRADIENT NORM      17.711492
 DIRECTION COSINE   -0.189851
* ===============================
* Input file for Mopac
* ===============================
 PM7 BONDS AUX DUMP=30M ITRY=15000 T=14D CHARGE=0 SINGLET eps=78.4 RELSCF=1


  C     0.00000000 +0    0.0000000 +0    0.0000000 +0     0     0     0
  H     1.09284715 +1    0.0000000 +0    0.0000000 +0     1     0     0
  N     2.46569425 +1   83.5014982 +1    0.0000000 +0     1     2     0
  O     1.21861328 +1   89.3529280 +1   -8.2506671 +1     3     1     2
  O     1.22250284 +1  148.2984485 +1  152.1513277 +1     3     1     2
  H     2.13780545 +1  147.1626761 +1  175.5349949 +1     1     2     3
  C     1.47281308 +1   34.0409702 +1 -168.3342081 +1     3     1     2
  H     1.12897259 +1  108.4873492 +1 -124.7997025 +1     7     3     1
  H     1.12983707 +1  107.5458645 +1  121.6569645 +1     7     3     1
  C     1.08041033 +1   30.8322042 +1   -1.9911710 +1     6     1     2
  H     1.08103267 +1  111.9164150 +1  179.9453546 +1    10     6     1
  C     5.68059471 +1  129.6417570 +1 -114.8386141 +1     8     7     3
  C     1.40139614 +1  152.4075474 +1 -158.3538494 +1    12     8     7
  C     1.40639212 +1  118.1413031 +1   63.1123610 +1    13    12     8
  C     1.39819482 +1  118.2108920 +1   -3.5203938 +1    14    13    12
  C     1.39638419 +1  119.6511647 +1    1.3582243 +1    15    14    13
  N     1.34690070 +1  122.4026228 +1    1.4103965 +1    16    15    14
  H     1.10840924 +1   75.0332331 +1   72.6774411 +1    12     8     7
  H     1.08924527 +1  120.6216054 +1 -178.6089674 +1    15    14    13
  H     1.09787792 +1  121.7657317 +1 -179.6176836 +1    16    15    14
  C     1.48283800 +1  118.4830305 +1 -115.3518909 +1    13    12     8
  H     1.10122752 +1  113.2289162 +1 -155.0691656 +1    21    13    12
  H     1.10452365 +1  111.0652245 +1   85.2044910 +1    21    13    12
  H     1.10084112 +1  112.7123783 +1  -34.2361414 +1    21    13    12
  C     1.48221705 +1  121.5119948 +1  175.5413542 +1    14    13    12
  H     1.10112946 +1  113.2003517 +1 -177.8350628 +1    25    14    13
  H     1.10638453 +1  112.0830102 +1   60.9442537 +1    25    14    13
  H     1.10446891 +1  111.4011438 +1  -58.3544188 +1    25    14    13
  H     2.27796225 +1   98.7093142 +1   -2.2264839 +1    18    12     8
  O     0.96669301 +1  100.3829803 +1  100.9022433 +1    29    18    12
  H     0.96361685 +1  102.2813302 +1  -74.1031417 +1    30    29    18

 TIME=     0.24
  REACTANTS AND PRODUCTS SWAPPED AROUND
 *+*+*+*+*+*+*+*+*+*+*+*+*+*+*+*+*+*+*+*+*+*+*+*+*+*+*+*+*+*+*+*+*+*+*+*+*+*+*+*+
            BAR SHORTENED BY       1.000 PERCENT
 GRADIENT CRITERION IN FLEPO =    10.000


          FOR POINT   10 SECOND STRUCTURE
 DISTANCE A - B      4.667739
 HEAT              -69.888567
 GRADIENT NORM      19.042334
 DIRECTION COSINE   -0.138337
* ===============================
* Input file for Mopac
* ===============================
 PM7 BONDS AUX DUMP=30M ITRY=15000 T=14D CHARGE=0 SINGLET eps=78.4 RELSCF=1


  C     0.00000000 +0    0.0000000 +0    0.0000000 +0     0     0     0
  H     1.09489581 +1    0.0000000 +0    0.0000000 +0     1     0     0
  N     2.41539111 +1   87.6613903 +1    0.0000000 +0     1     2     0
  O     1.25952604 +1   92.6475075 +1    3.2383323 +1     3     1     2
  O     1.26324232 +1  151.8438507 +1 -176.1493196 +1     3     1     2
  H     2.13529372 +1  145.9948490 +1  176.5796672 +1     1     2     3
  C     1.33001692 +1   30.6161038 +1 -176.6299062 +1     3     1     2
  H     2.96216168 +1   98.2336590 +1  -91.3713084 +1     7     3     1
  H     1.08750995 +1  119.0500627 +1 -177.9544986 +1     7     3     1
  C     1.07426341 +1   31.3085269 +1    2.0008309 +1     6     1     2
  H     1.07350468 +1  112.3477338 +1 -178.8983154 +1    10     6     1
  C     4.16711884 +1  145.1716636 +1 -151.1351262 +1     8     7     3
  C     1.39371218 +1  160.3210771 +1  -91.3347171 +1    12     8     7
  C     1.40841114 +1  119.0343999 +1   33.9645830 +1    13    12     8
  C     1.39685048 +1  118.2623583 +1    2.9915652 +1    14    13    12
  C     1.39319714 +1  120.6654111 +1   -2.7645682 +1    15    14    13
  N     1.35928073 +1  120.2958093 +1    0.2556181 +1    16    15    14
  H     1.10287566 +1   74.9322054 +1  118.8199244 +1    12     8     7
  H     1.09913229 +1  119.8412740 +1  177.8969217 +1    15    14    13
  H     1.10414044 +1  121.5736347 +1 -179.5997280 +1    16    15    14
  C     1.48139577 +1  118.8881877 +1 -145.0087949 +1    13    12     8
  H     1.09296266 +1  112.7800212 +1 -134.2044029 +1    21    13    12
  H     1.10493034 +1  110.9712968 +1  108.0692613 +1    21    13    12
  H     1.10207098 +1  113.2345756 +1  -12.1112771 +1    21    13    12
  C     1.47818551 +1  120.6906249 +1 -176.3094814 +1    14    13    12
  H     1.10221298 +1  114.1070987 +1 -177.9053774 +1    25    14    13
  H     1.10879728 +1  111.1140792 +1   61.8327839 +1    25    14    13
  H     1.10491317 +1  112.3324766 +1  -56.3467493 +1    25    14    13
  H     1.06543310 +1  122.0032484 +1 -175.0389460 +1    17    16    15
  O     0.97715724 +1  159.7068673 +1 -100.5600574 +1     8     7     3
  H     0.97625817 +1  103.9052208 +1  167.9495565 +1    30     8     7

 TIME=     0.24
  REACTANTS AND PRODUCTS SWAPPED AROUND
 *+*+*+*+*+*+*+*+*+*+*+*+*+*+*+*+*+*+*+*+*+*+*+*+*+*+*+*+*+*+*+*+*+*+*+*+*+*+*+*+
            BAR SHORTENED BY       1.000 PERCENT
 GRADIENT CRITERION IN FLEPO =    10.000


          FOR POINT   11 FIRST  STRUCTURE
 DISTANCE A - B      4.621061
 HEAT              -66.141062
 GRADIENT NORM      20.375930
 DIRECTION COSINE   -0.129046
* ===============================
* Input file for Mopac
* ===============================
 PM7 BONDS AUX DUMP=30M ITRY=15000 T=14D CHARGE=0 SINGLET eps=78.4 RELSCF=1


  C     0.00000000 +0    0.0000000 +0    0.0000000 +0     0     0     0
  H     1.09484456 +1    0.0000000 +0    0.0000000 +0     1     0     0
  N     2.47342099 +1   83.2010470 +1    0.0000000 +0     1     2     0
  O     1.22046365 +1   89.1968886 +1   -8.2024796 +1     3     1     2
  O     1.22627306 +1  148.1483749 +1  152.2537261 +1     3     1     2
  H     2.13823086 +1  147.7841165 +1  175.5850103 +1     1     2     3
  C     1.47352662 +1   34.1045433 +1 -168.7950848 +1     3     1     2
  H     1.12050340 +1  108.7552332 +1 -124.7661271 +1     7     3     1
  H     1.12925143 +1  107.6236683 +1  121.2700615 +1     7     3     1
  C     1.08632374 +1   30.8747242 +1   -1.8984351 +1     6     1     2
  H     1.08627867 +1  112.3160359 +1 -179.8999738 +1    10     6     1
  C     5.67276087 +1  130.0598656 +1 -114.8409597 +1     8     7     3
  C     1.40101287 +1  152.8615633 +1 -157.2213916 +1    12     8     7
  C     1.40640517 +1  118.3507675 +1   61.7597918 +1    13    12     8
  C     1.39815161 +1  118.1890156 +1   -2.9920394 +1    14    13    12
  C     1.39554997 +1  119.6573624 +1    1.3642677 +1    15    14    13
  N     1.34746959 +1  122.3501622 +1    1.2195338 +1    16    15    14
  H     1.09641341 +1   75.1994316 +1   72.3644605 +1    12     8     7
  H     1.09164865 +1  120.6885879 +1 -178.6128474 +1    15    14    13
  H     1.09728872 +1  121.9715255 +1 -179.0239809 +1    16    15    14
  C     1.48245234 +1  118.4937038 +1 -116.3889828 +1    13    12     8
  H     1.10232388 +1  113.3795679 +1 -154.3033279 +1    21    13    12
  H     1.10212924 +1  110.9391881 +1   85.3222348 +1    21    13    12
  H     1.10419144 +1  112.4922851 +1  -33.8163947 +1    21    13    12
  C     1.48317715 +1  121.5588772 +1  176.0856567 +1    14    13    12
  H     1.10298397 +1  112.9930312 +1 -178.1163509 +1    25    14    13
  H     1.10285241 +1  112.0858471 +1   60.9598010 +1    25    14    13
  H     1.10575010 +1  111.3740584 +1  -58.3302231 +1    25    14    13
  H     2.28177648 +1   98.4158942 +1   -2.3100838 +1    18    12     8
  O     0.96628015 +1  100.5875510 +1  101.4575734 +1    29    18    12
  H     0.96392683 +1  102.5871104 +1  -74.9913309 +1    30    29    18

 TIME=     0.38
  REACTANTS AND PRODUCTS SWAPPED AROUND
 *+*+*+*+*+*+*+*+*+*+*+*+*+*+*+*+*+*+*+*+*+*+*+*+*+*+*+*+*+*+*+*+*+*+*+*+*+*+*+*+
            BAR SHORTENED BY       1.000 PERCENT
 GRADIENT CRITERION IN FLEPO =    10.000


          FOR POINT   12 SECOND STRUCTURE
 DISTANCE A - B      4.574851
 HEAT              -69.779860
 GRADIENT NORM      25.207400
 DIRECTION COSINE   -0.106559
* ===============================
* Input file for Mopac
* ===============================
 PM7 BONDS AUX DUMP=30M ITRY=15000 T=14D CHARGE=0 SINGLET eps=78.4 RELSCF=1


  C     0.00000000 +0    0.0000000 +0    0.0000000 +0     0     0     0
  H     1.09969299 +1    0.0000000 +0    0.0000000 +0     1     0     0
  N     2.42141272 +1   87.4697357 +1    0.0000000 +0     1     2     0
  O     1.25628336 +1   92.5358802 +1    2.9320249 +1     3     1     2
  O     1.26293530 +1  151.8608034 +1 -176.2033025 +1     3     1     2
  H     2.12961853 +1  145.8272596 +1  176.1908252 +1     1     2     3
  C     1.33389417 +1   30.5652932 +1 -176.9307108 +1     3     1     2
  H     2.94962933 +1   98.3669369 +1  -91.9750281 +1     7     3     1
  H     1.08766646 +1  119.0426557 +1 -178.1198831 +1     7     3     1
  C     1.06648278 +1   31.1321413 +1    2.3723407 +1     6     1     2
  H     1.07387796 +1  111.9207700 +1 -178.9009385 +1    10     6     1
  C     4.17240302 +1  145.1858415 +1 -150.7491053 +1     8     7     3
  C     1.39213686 +1  160.2021818 +1  -92.5995345 +1    12     8     7
  C     1.41031068 +1  119.1328520 +1   35.0185709 +1    13    12     8
  C     1.40002221 +1  118.1359224 +1    2.5774315 +1    14    13    12
  C     1.39249921 +1  120.4904855 +1   -2.3394145 +1    15    14    13
  N     1.36028523 +1   43.2171737 +1  -46.6079959 +1    12     8     7
  H     1.10906205 +1   75.0701636 +1  117.6601069 +1    12     8     7
  H     1.09564770 +1  119.7532829 +1  178.1535803 +1    15    14    13
  H     1.10324354 +1  121.3602733 +1 -179.7067986 +1    16    15    14
  C     1.48023981 +1  118.9670690 +1 -143.9716564 +1    13    12     8
  H     1.09993956 +1  112.7442445 +1 -134.1149457 +1    21    13    12
  H     1.10416865 +1  110.9503357 +1  107.7744911 +1    21    13    12
  H     1.10235629 +1  113.2333000 +1  -12.7240415 +1    21    13    12
  C     1.48051055 +1  120.8183714 +1 -176.3942487 +1    14    13    12
  H     1.10032847 +1  113.9396287 +1 -178.1063601 +1    25    14    13
  H     1.10767867 +1  111.0236932 +1   61.4640073 +1    25    14    13
  H     1.10549684 +1  111.9989759 +1  -56.5078167 +1    25    14    13
  H     1.05308851 +1  118.4254065 +1   12.1519446 +1    17    12     8
  O     0.98513598 +1  159.6105463 +1 -100.0214669 +1     8     7     3
  H     0.97034605 +1  104.3608868 +1  169.4814532 +1    30     8     7

 TIME=     0.25
  REACTANTS AND PRODUCTS SWAPPED AROUND
 *+*+*+*+*+*+*+*+*+*+*+*+*+*+*+*+*+*+*+*+*+*+*+*+*+*+*+*+*+*+*+*+*+*+*+*+*+*+*+*+
            BAR SHORTENED BY       1.000 PERCENT
 GRADIENT CRITERION IN FLEPO =    10.000


          FOR POINT   13 FIRST  STRUCTURE
 DISTANCE A - B      4.529102
 HEAT              -66.389954
 GRADIENT NORM      17.119442
 DIRECTION COSINE   -0.147479
* ===============================
* Input file for Mopac
* ===============================
 PM7 BONDS AUX DUMP=30M ITRY=15000 T=14D CHARGE=0 SINGLET eps=78.4 RELSCF=1


  C     0.00000000 +0    0.0000000 +0    0.0000000 +0     0     0     0
  H     1.09321420 +1    0.0000000 +0    0.0000000 +0     1     0     0
  N     2.48329154 +1   83.2619511 +1    0.0000000 +0     1     2     0
  O     1.21718771 +1   88.6358872 +1   -8.5384910 +1     3     1     2
  O     1.22332030 +1  147.6453875 +1  153.5136767 +1     3     1     2
  H     2.13670304 +1  147.4326472 +1  175.1554967 +1     1     2     3
  C     1.48673553 +1   33.7657906 +1 -169.0229183 +1     3     1     2
  H     1.12469789 +1  108.4373215 +1 -124.8093778 +1     7     3     1
  H     1.12726034 +1  107.6200443 +1  121.6240749 +1     7     3     1
  C     1.08396592 +1   31.0022943 +1   -1.6129764 +1     6     1     2
  H     1.08013333 +1  112.2499256 +1  179.7774416 +1    10     6     1
  C     5.66455423 +1  130.4722362 +1 -115.0718105 +1     8     7     3
  C     1.40167648 +1  152.9324186 +1 -156.8108866 +1    12     8     7
  C     1.40558833 +1  118.2180929 +1   61.7462201 +1    13    12     8
  C     1.39749066 +1  118.3325734 +1   -3.0427198 +1    14    13    12
  C     1.39571687 +1  119.5849038 +1    1.3582269 +1    15    14    13
  N     1.34808769 +1   46.9082244 +1  -77.1763973 +1    12     8     7
  H     1.09682648 +1   75.1214991 +1   73.1612375 +1    12     8     7
  H     1.09047257 +1  120.6579116 +1 -178.6062980 +1    15    14    13
  H     1.09865959 +1  121.8237284 +1 -178.9926841 +1    16    15    14
  C     1.47998079 +1  118.6976169 +1 -116.7924926 +1    13    12     8
  H     1.10121718 +1  113.4601886 +1 -154.1412638 +1    21    13    12
  H     1.10476162 +1  110.7792321 +1   86.0556439 +1    21    13    12
  H     1.10405865 +1  112.6075884 +1  -32.8765687 +1    21    13    12
  C     1.48151227 +1  121.5462737 +1  176.0830837 +1    14    13    12
  H     1.10218094 +1  113.0806233 +1 -178.2185457 +1    25    14    13
  H     1.09630374 +1  111.8001346 +1   61.2540515 +1    25    14    13
  H     1.10177394 +1  111.6262612 +1  -58.1808710 +1    25    14    13
  H     2.28465321 +1   98.0904479 +1   -2.5325920 +1    18    12     8
  O     0.96589727 +1  100.6308642 +1  102.8300516 +1    29    18    12
  H     0.96084700 +1  102.7555602 +1  -76.1982615 +1    30    29    18

 TIME=     0.38
  REACTANTS AND PRODUCTS SWAPPED AROUND
 *+*+*+*+*+*+*+*+*+*+*+*+*+*+*+*+*+*+*+*+*+*+*+*+*+*+*+*+*+*+*+*+*+*+*+*+*+*+*+*+
            BAR SHORTENED BY       1.000 PERCENT
 GRADIENT CRITERION IN FLEPO =    10.000


          FOR POINT   14 SECOND STRUCTURE
 DISTANCE A - B      4.483811
 HEAT              -69.686542
 GRADIENT NORM      26.721505
 DIRECTION COSINE    0.180272
* ===============================
* Input file for Mopac
* ===============================
 PM7 BONDS AUX DUMP=30M ITRY=15000 T=14D CHARGE=0 SINGLET eps=78.4 RELSCF=1


  C     0.00000000 +0    0.0000000 +0    0.0000000 +0     0     0     0
  H     1.09698143 +1    0.0000000 +0    0.0000000 +0     1     0     0
  N     2.41845619 +1   87.2829008 +1    0.0000000 +0     1     2     0
  O     1.25768986 +1   92.5564062 +1    3.1469130 +1     3     1     2
  O     1.26246340 +1  152.1609285 +1 -176.0030088 +1     3     1     2
  H     2.13340392 +1  146.0508892 +1  176.6303179 +1     1     2     3
  C     1.33118218 +1   30.6301086 +1 -176.7165632 +1     3     1     2
  H     2.94205780 +1   98.5438362 +1  -92.5026117 +1     7     3     1
  H     1.10100816 +1  118.9153167 +1 -176.3747041 +1     7     3     1
  C     1.06991106 +1   31.1951112 +1    2.1345932 +1     6     1     2
  H     1.07348875 +1  112.1067949 +1 -178.4885070 +1    10     6     1
  C     4.17403955 +1  145.2681208 +1 -150.3789027 +1     8     7     3
  C     1.39298826 +1  159.9549568 +1  -92.8347934 +1    12     8     7
  C     1.40982445 +1  119.4140930 +1   34.8127598 +1    13    12     8
  C     1.39645982 +1  118.1424850 +1    2.8542908 +1    14    13    12
  C     1.39423444 +1  120.3904239 +1   -2.7822172 +1    15    14    13
  N     1.35545498 +1  120.5022014 +1    0.3967013 +1    16    15    14
  H     1.10454500 +1   75.0029402 +1  117.2055834 +1    12     8     7
  H     1.09576151 +1  119.9720920 +1  178.2541105 +1    15    14    13
  H     1.10511653 +1  121.3785147 +1 -179.7722223 +1    16    15    14
  C     1.48272561 +1  118.7020276 +1 -143.8032495 +1    13    12     8
  H     1.10320316 +1  112.5396544 +1 -134.2491719 +1    21    13    12
  H     1.10496162 +1  110.9694407 +1  107.2340903 +1    21    13    12
  H     1.10202624 +1  113.3659583 +1  -13.3810753 +1    21    13    12
  C     1.47933503 +1  120.7445305 +1 -176.4878112 +1    14    13    12
  H     1.09989659 +1  113.9053067 +1 -178.1177561 +1    25    14    13
  H     1.11218957 +1  111.3106586 +1   61.3686194 +1    25    14    13
  H     1.10728601 +1  112.6558629 +1  -56.9162717 +1    25    14    13
  H     1.06724317 +1  121.9001887 +1 -175.2010696 +1    17    16    15
  O     0.98622819 +1  159.4717428 +1  -99.8957131 +1     8     7     3
  H     0.97404237 +1  104.5320938 +1  169.7264954 +1    30     8     7

 *+*+*+*+*+*+*+*+*+*+*+*+*+*+*+*+*+*+*+*+*+*+*+*+*+*+*+*+*+*+*+*+*+*+*+*+*+*+*+*+
            BAR SHORTENED BY       1.000 PERCENT
 GRADIENT CRITERION IN FLEPO =    10.000


          FOR POINT   15 SECOND STRUCTURE
 DISTANCE A - B      4.438973
 HEAT              -69.288397
 GRADIENT NORM      24.529267
 DIRECTION COSINE    0.437940
* ===============================
* Input file for Mopac
* ===============================
 PM7 BONDS AUX DUMP=30M ITRY=15000 T=14D CHARGE=0 SINGLET eps=78.4 RELSCF=1


  C     0.00000000 +0    0.0000000 +0    0.0000000 +0     0     0     0
  H     1.10729158 +1    0.0000000 +0    0.0000000 +0     1     0     0
  N     2.41417172 +1   86.2548911 +1    0.0000000 +0     1     2     0
  O     1.25895865 +1   92.5202330 +1    3.1455313 +1     3     1     2
  O     1.26449297 +1  152.2635568 +1 -175.9530428 +1     3     1     2
  H     2.13498125 +1  146.8664799 +1  176.2643754 +1     1     2     3
  C     1.33252568 +1   30.9770174 +1 -176.9938739 +1     3     1     2
  H     2.94171789 +1   98.7963132 +1  -93.1627248 +1     7     3     1
  H     1.08571772 +1  119.2562885 +1 -177.6008066 +1     7     3     1
  C     1.06900977 +1   31.0745403 +1    2.3034108 +1     6     1     2
  H     1.07403191 +1  112.1242824 +1 -178.6231620 +1    10     6     1
  C     4.17032748 +1  145.0281167 +1 -149.9028119 +1     8     7     3
  C     1.39348637 +1  159.2045640 +1  -96.2127406 +1    12     8     7
  C     1.40816620 +1  119.5422850 +1   38.0720636 +1    13    12     8
  C     1.39995235 +1  118.1385493 +1    1.3818622 +1    14    13    12
  C     1.39287328 +1  120.4148019 +1   -2.1476733 +1    15    14    13
  N     1.35948354 +1  120.6097519 +1    0.0668391 +1    16    15    14
  H     1.10168883 +1   74.7798882 +1  116.7828466 +1    12     8     7
  H     1.10066514 +1  119.7314985 +1  178.7794981 +1    15    14    13
  H     1.10490685 +1  121.1745297 +1  179.9613644 +1    16    15    14
  C     1.48099365 +1  118.7108951 +1 -141.6013241 +1    13    12     8
  H     1.10467664 +1  113.0507563 +1 -133.8565596 +1    21    13    12
  H     1.10461891 +1  110.7941349 +1  107.3928065 +1    21    13    12
  H     1.10207357 +1  113.1529560 +1  -12.7157927 +1    21    13    12
  C     1.48121694 +1  120.8516953 +1 -177.0996673 +1    14    13    12
  H     1.10411176 +1  114.0186972 +1 -179.0090459 +1    25    14    13
  H     1.10678244 +1  111.4681485 +1   60.9883888 +1    25    14    13
  H     1.10592965 +1  112.4063946 +1  -56.9982802 +1    25    14    13
  H     1.06144297 +1  122.3105093 +1 -176.0228164 +1    17    16    15
  O     0.97082720 +1  158.9912563 +1  -99.6294138 +1     8     7     3
  H     0.97563389 +1  104.5386907 +1  169.5875776 +1    30     8     7

 *+*+*+*+*+*+*+*+*+*+*+*+*+*+*+*+*+*+*+*+*+*+*+*+*+*+*+*+*+*+*+*+*+*+*+*+*+*+*+*+
            BAR SHORTENED BY       1.000 PERCENT
 GRADIENT CRITERION IN FLEPO =    10.000


          FOR POINT   16 SECOND STRUCTURE
 DISTANCE A - B      4.394583
 HEAT              -69.550267
 GRADIENT NORM      22.118821
 DIRECTION COSINE    0.310222
* ===============================
* Input file for Mopac
* ===============================
 PM7 BONDS AUX DUMP=30M ITRY=15000 T=14D CHARGE=0 SINGLET eps=78.4 RELSCF=1


  C     0.00000000 +0    0.0000000 +0    0.0000000 +0     0     0     0
  H     1.10209058 +1    0.0000000 +0    0.0000000 +0     1     0     0
  N     2.41170565 +1   87.3292889 +1    0.0000000 +0     1     2     0
  O     1.26055702 +1   92.0614454 +1    5.3369827 +1     3     1     2
  O     1.26694985 +1  152.2720949 +1 -173.8734338 +1     3     1     2
  H     2.14499166 +1  146.1475222 +1  179.6629410 +1     1     2     3
  C     1.33145929 +1   30.7762700 +1 -175.4830756 +1     3     1     2
  H     2.93171887 +1   99.3415705 +1  -94.7456008 +1     7     3     1
  H     1.09498700 +1  118.9873902 +1 -179.0327028 +1     7     3     1
  C     1.07789893 +1   30.9973491 +1   -1.9672995 +1     6     1     2
  H     1.07522234 +1  111.8811436 +1 -178.9759484 +1    10     6     1
  C     4.16465811 +1  145.2477483 +1 -149.5733188 +1     8     7     3
  C     1.39279715 +1  159.5663962 +1  -95.9769927 +1    12     8     7
  C     1.40932086 +1  119.4076249 +1   37.7117120 +1    13    12     8
  C     1.39932712 +1  118.0464154 +1    2.0218888 +1    14    13    12
  C     1.39149584 +1  120.4988313 +1   -2.4236406 +1    15    14    13
  N     1.35872937 +1  120.5086234 +1    0.2007113 +1    16    15    14
  H     1.10665813 +1   75.3040435 +1  116.7585625 +1    12     8     7
  H     1.09863777 +1  119.7226433 +1  178.5219935 +1    15    14    13
  H     1.10558186 +1  121.2940233 +1 -179.8530361 +1    16    15    14
  C     1.48337342 +1  118.6786104 +1 -141.1023040 +1    13    12     8
  H     1.10571424 +1  112.5329729 +1 -134.6885306 +1    21    13    12
  H     1.11100134 +1  111.0814811 +1  105.9067286 +1    21    13    12
  H     1.09973601 +1  113.4076793 +1  -13.7997499 +1    21    13    12
  C     1.47806598 +1  120.7933168 +1 -176.6681248 +1    14    13    12
  H     1.09973613 +1  114.1365285 +1 -178.3137705 +1    25    14    13
  H     1.09920696 +1  111.3157845 +1   60.3675794 +1    25    14    13
  H     1.11014939 +1  112.3399098 +1  -57.2678171 +1    25    14    13
  H     1.06106042 +1  120.7029910 +1 -177.0631957 +1    17    16    15
  O     0.95767172 +1  159.2427918 +1 -100.4281315 +1     8     7     3
  H     0.97442529 +1  104.5208400 +1  170.2824449 +1    30     8     7

 TIME=     0.76
  REACTANTS AND PRODUCTS SWAPPED AROUND
 *+*+*+*+*+*+*+*+*+*+*+*+*+*+*+*+*+*+*+*+*+*+*+*+*+*+*+*+*+*+*+*+*+*+*+*+*+*+*+*+
            BAR SHORTENED BY       0.000 PERCENT
 GRADIENT CRITERION IN FLEPO =    10.000


          FOR POINT   17 FIRST  STRUCTURE
 DISTANCE A - B      4.394583
 HEAT              -66.467581
 GRADIENT NORM      11.539030
 DIRECTION COSINE    0.171159
* ===============================
* Input file for Mopac
* ===============================
 PM7 BONDS AUX DUMP=30M ITRY=15000 T=14D CHARGE=0 SINGLET eps=78.4 RELSCF=1


  C     0.00000000 +0    0.0000000 +0    0.0000000 +0     0     0     0
  H     1.09317592 +1    0.0000000 +0    0.0000000 +0     1     0     0
  N     2.48152211 +1   83.3798694 +1    0.0000000 +0     1     2     0
  O     1.21895204 +1   88.6830683 +1   -8.6104540 +1     3     1     2
  O     1.22366819 +1  147.6976999 +1  153.3772593 +1     3     1     2
  H     2.13654659 +1  147.2884529 +1  175.0344176 +1     1     2     3
  C     1.48235438 +1   33.7847596 +1 -168.8964555 +1     3     1     2
  H     1.11842024 +1  108.5129696 +1 -124.9149580 +1     7     3     1
  H     1.12457196 +1  107.6258602 +1  122.0210031 +1     7     3     1
  C     1.08340480 +1   31.0218219 +1   -1.4466754 +1     6     1     2
  H     1.08089177 +1  112.2707539 +1  179.7891077 +1    10     6     1
  C     5.66499434 +1  130.9018963 +1 -115.0597638 +1     8     7     3
  C     1.40151763 +1  153.0503394 +1 -156.7747691 +1    12     8     7
  C     1.40481659 +1  118.1364057 +1   61.6902645 +1    13    12     8
  C     1.39577563 +1  118.4871526 +1   -3.0576801 +1    14    13    12
  C     1.39639015 +1  119.5019826 +1    1.3871895 +1    15    14    13
  N     1.34766662 +1   46.9148096 +1  -77.3022198 +1    12     8     7
  H     1.09766490 +1   74.8835875 +1   73.0812200 +1    12     8     7
  H     1.08989364 +1  120.6874524 +1 -178.6046541 +1    15    14    13
  H     1.09819698 +1  121.7436360 +1 -179.0279767 +1    16    15    14
  C     1.48157665 +1  118.6670146 +1 -116.8608214 +1    13    12     8
  H     1.10074088 +1  113.3833858 +1 -154.1584281 +1    21    13    12
  H     1.10491338 +1  110.8603759 +1   86.2136232 +1    21    13    12
  H     1.10272452 +1  112.6338027 +1  -32.9175935 +1    21    13    12
  C     1.48388059 +1  121.4451808 +1  176.0977976 +1    14    13    12
  H     1.10123485 +1  113.0907026 +1 -178.2411244 +1    25    14    13
  H     1.09901706 +1  111.7984347 +1   61.1885013 +1    25    14    13
  H     1.10265417 +1  111.6302059 +1  -58.1672182 +1    25    14    13
  H     2.28259764 +1   98.2708470 +1   -2.4246476 +1    18    12     8
  O     0.96576765 +1  100.7297947 +1  102.7843759 +1    29    18    12
  H     0.96317026 +1  102.7423102 +1  -76.0081303 +1    30    29    18

 TIME=     0.24
  REACTANTS AND PRODUCTS SWAPPED AROUND
 *+*+*+*+*+*+*+*+*+*+*+*+*+*+*+*+*+*+*+*+*+*+*+*+*+*+*+*+*+*+*+*+*+*+*+*+*+*+*+*+
            BAR SHORTENED BY       1.000 PERCENT
 GRADIENT CRITERION IN FLEPO =     8.539


          FOR POINT   18 SECOND STRUCTURE
 DISTANCE A - B      4.350637
 HEAT              -69.673114
 GRADIENT NORM      17.399395
 DIRECTION COSINE   -0.054824
* ===============================
* Input file for Mopac
* ===============================
 PM7 BONDS AUX DUMP=30M ITRY=15000 T=14D CHARGE=0 SINGLET eps=78.4 RELSCF=1


  C     0.00000000 +0    0.0000000 +0    0.0000000 +0     0     0     0
  H     1.09581684 +1    0.0000000 +0    0.0000000 +0     1     0     0
  N     2.41297244 +1   87.2749695 +1    0.0000000 +0     1     2     0
  O     1.25932091 +1   92.0592975 +1    5.1905167 +1     3     1     2
  O     1.26908349 +1  151.8503143 +1 -173.7876175 +1     3     1     2
  H     2.13625900 +1  146.0271841 +1  178.9606605 +1     1     2     3
  C     1.33165654 +1   30.8445033 +1 -175.6637059 +1     3     1     2
  H     2.91592354 +1   99.4223278 +1  -95.3556183 +1     7     3     1
  H     1.08573213 +1  119.0366062 +1 -179.8917958 +1     7     3     1
  C     1.07063424 +1   31.0540435 +1   -1.0523394 +1     6     1     2
  H     1.07606062 +1  111.8712461 +1 -178.9058217 +1    10     6     1
  C     4.17281560 +1  145.2252666 +1 -149.2976637 +1     8     7     3
  C     1.39384340 +1  159.7030872 +1  -96.5162558 +1    12     8     7
  C     1.40644718 +1  119.1795122 +1   37.7501177 +1    13    12     8
  C     1.39897693 +1  118.3858703 +1    2.2821588 +1    14    13    12
  C     1.39262725 +1  120.3003997 +1   -2.4945388 +1    15    14    13
  N     1.35980148 +1  120.6087475 +1    0.2830851 +1    16    15    14
  H     1.10563610 +1   75.1166831 +1  115.9582055 +1    12     8     7
  H     1.09642012 +1  120.0460550 +1  178.3378230 +1    15    14    13
  H     1.10448979 +1  121.3500868 +1 -179.6242553 +1    16    15    14
  C     1.48203064 +1  118.8540277 +1 -140.7160112 +1    13    12     8
  H     1.10254020 +1  112.5565123 +1 -135.0052157 +1    21    13    12
  H     1.10617240 +1  111.1842551 +1  105.1661913 +1    21    13    12
  H     1.10224857 +1  113.2273775 +1  -14.3082900 +1    21    13    12
  C     1.48155358 +1  120.7780337 +1 -176.8279205 +1    14    13    12
  H     1.10294281 +1  114.1107557 +1 -178.6699343 +1    25    14    13
  H     1.10721321 +1  111.0529502 +1   60.7345431 +1    25    14    13
  H     1.10527417 +1  112.4270976 +1  -56.8975171 +1    25    14    13
  H     1.05933332 +1  121.2587008 +1 -176.4487831 +1    17    16    15
  O     0.96916533 +1  158.9609154 +1 -100.8836556 +1     8     7     3
  H     0.97480096 +1  104.2665429 +1  170.6531088 +1    30     8     7

 TIME=     0.21
  REACTANTS AND PRODUCTS SWAPPED AROUND
 *+*+*+*+*+*+*+*+*+*+*+*+*+*+*+*+*+*+*+*+*+*+*+*+*+*+*+*+*+*+*+*+*+*+*+*+*+*+*+*+
            BAR SHORTENED BY       1.000 PERCENT
 GRADIENT CRITERION IN FLEPO =    10.000


          FOR POINT   19 FIRST  STRUCTURE
 DISTANCE A - B      4.307131
 HEAT              -66.442305
 GRADIENT NORM      10.834974
 DIRECTION COSINE   -0.105419
* ===============================
* Input file for Mopac
* ===============================
 PM7 BONDS AUX DUMP=30M ITRY=15000 T=14D CHARGE=0 SINGLET eps=78.4 RELSCF=1


  C     0.00000000 +0    0.0000000 +0    0.0000000 +0     0     0     0
  H     1.09308907 +1    0.0000000 +0    0.0000000 +0     1     0     0
  N     2.47814370 +1   83.4073877 +1    0.0000000 +0     1     2     0
  O     1.21982817 +1   88.8515679 +1   -8.3746334 +1     3     1     2
  O     1.22388133 +1  148.0365843 +1  153.3693472 +1     3     1     2
  H     2.13889228 +1  147.2507282 +1  175.5730774 +1     1     2     3
  C     1.47498590 +1   33.8034622 +1 -169.0371929 +1     3     1     2
  H     1.12354519 +1  108.6663726 +1 -125.0294162 +1     7     3     1
  H     1.12904660 +1  107.7751804 +1  121.9032576 +1     7     3     1
  C     1.08536243 +1   30.9050943 +1   -1.7407477 +1     6     1     2
  H     1.08092255 +1  112.0773296 +1  179.9296187 +1    10     6     1
  C     5.65259993 +1  131.4024643 +1 -115.1375860 +1     8     7     3
  C     1.40114559 +1  153.4110540 +1 -156.4152002 +1    12     8     7
  C     1.40357364 +1  118.0849600 +1   61.4328611 +1    13    12     8
  C     1.39761371 +1  118.4643181 +1   -2.8329874 +1    14    13    12
  C     1.39753938 +1  119.4614594 +1    1.4081777 +1    15    14    13
  N     1.34457573 +1   46.9494124 +1  -76.9603136 +1    12     8     7
  H     1.10199879 +1   75.0375220 +1   73.4531600 +1    12     8     7
  H     1.08915604 +1  120.8030771 +1 -178.6200897 +1    15    14    13
  H     1.09731579 +1  121.7215300 +1 -178.9933975 +1    16    15    14
  C     1.48394197 +1  118.7681762 +1 -116.9499254 +1    13    12     8
  H     1.10394480 +1  113.0188831 +1 -153.9402655 +1    21    13    12
  H     1.10312493 +1  110.8267767 +1   86.5274525 +1    21    13    12
  H     1.10094913 +1  112.7025536 +1  -32.9948988 +1    21    13    12
  C     1.48399041 +1  121.5778400 +1  176.4219754 +1    14    13    12
  H     1.10334432 +1  112.7735047 +1 -178.4662188 +1    25    14    13
  H     1.10267088 +1  111.7770086 +1   60.9937055 +1    25    14    13
  H     1.10338163 +1  111.5238498 +1  -58.3779704 +1    25    14    13
  H     2.28331152 +1   97.6619397 +1   -2.6189986 +1    18    12     8
  O     0.96696653 +1  100.8675263 +1  103.8638223 +1    29    18    12
  H     0.96424977 +1  102.5601048 +1  -76.5074761 +1    30    29    18

 TIME=     0.21
  REACTANTS AND PRODUCTS SWAPPED AROUND
 *+*+*+*+*+*+*+*+*+*+*+*+*+*+*+*+*+*+*+*+*+*+*+*+*+*+*+*+*+*+*+*+*+*+*+*+*+*+*+*+
            BAR SHORTENED BY       1.000 PERCENT
 GRADIENT CRITERION IN FLEPO =     7.835


          FOR POINT   20 SECOND STRUCTURE
 DISTANCE A - B      4.264060
 HEAT              -69.639515
 GRADIENT NORM      17.310350
 DIRECTION COSINE   -0.123093
* ===============================
* Input file for Mopac
* ===============================
 PM7 BONDS AUX DUMP=30M ITRY=15000 T=14D CHARGE=0 SINGLET eps=78.4 RELSCF=1


  C     0.00000000 +0    0.0000000 +0    0.0000000 +0     0     0     0
  H     1.09392469 +1    0.0000000 +0    0.0000000 +0     1     0     0
  N     2.41300248 +1   87.2035770 +1    0.0000000 +0     1     2     0
  O     1.25923413 +1   92.0625134 +1    4.6807543 +1     3     1     2
  O     1.26380324 +1  151.5974452 +1 -173.7063905 +1     3     1     2
  H     2.13689973 +1  146.0863013 +1  177.8090282 +1     1     2     3
  C     1.33041480 +1   30.8360005 +1 -176.2935683 +1     3     1     2
  H     2.90497975 +1   99.4838636 +1  -96.1870602 +1     7     3     1
  H     1.08796701 +1  119.0977200 +1  179.9754134 +1     7     3     1
  C     1.07256903 +1   31.0421844 +1   -0.3333358 +1     6     1     2
  H     1.07542543 +1  112.0160490 +1 -179.3643236 +1    10     6     1
  C     4.17818026 +1  145.2361958 +1 -148.9243861 +1     8     7     3
  C     1.39427315 +1  159.5833558 +1  -97.7730682 +1    12     8     7
  C     1.40979493 +1  119.1672870 +1   38.7604513 +1    13    12     8
  C     1.39838524 +1  118.2445278 +1    1.9289020 +1    14    13    12
  C     1.39339771 +1  120.4900612 +1   -2.1803282 +1    15    14    13
  N     1.35418432 +1  120.3337339 +1    0.2369886 +1    16    15    14
  H     1.10268956 +1   74.7859207 +1  115.6091643 +1    12     8     7
  H     1.09542459 +1  119.7066382 +1  178.1231031 +1    15    14    13
  H     1.10337672 +1  121.3859102 +1 -179.6737672 +1    16    15    14
  C     1.48237537 +1  118.6720375 +1 -139.7000172 +1    13    12     8
  H     1.10620317 +1  112.3074708 +1 -135.5657333 +1    21    13    12
  H     1.10302376 +1  110.9516793 +1  105.4772496 +1    21    13    12
  H     1.09951490 +1  113.4098407 +1  -14.8323843 +1    21    13    12
  C     1.48262055 +1  120.6200093 +1 -177.0220057 +1    14    13    12
  H     1.10215217 +1  113.6371657 +1 -178.4822275 +1    25    14    13
  H     1.10859310 +1  111.1914982 +1   61.3003814 +1    25    14    13
  H     1.10285191 +1  112.2192773 +1  -57.2231021 +1    25    14    13
  H     1.06162163 +1  121.5577563 +1 -175.4846268 +1    17    16    15
  O     0.97518318 +1  158.9209908 +1 -101.1538269 +1     8     7     3
  H     0.97432690 +1  104.1096499 +1  171.1218354 +1    30     8     7

 TIME=     0.33
  REACTANTS AND PRODUCTS SWAPPED AROUND
 *+*+*+*+*+*+*+*+*+*+*+*+*+*+*+*+*+*+*+*+*+*+*+*+*+*+*+*+*+*+*+*+*+*+*+*+*+*+*+*+
            BAR SHORTENED BY       1.000 PERCENT
 GRADIENT CRITERION IN FLEPO =    10.000


          FOR POINT   21 FIRST  STRUCTURE
 DISTANCE A - B      4.221419
 HEAT              -66.428148
 GRADIENT NORM      14.121019
 DIRECTION COSINE    0.164430
* ===============================
* Input file for Mopac
* ===============================
 PM7 BONDS AUX DUMP=30M ITRY=15000 T=14D CHARGE=0 SINGLET eps=78.4 RELSCF=1


  C     0.00000000 +0    0.0000000 +0    0.0000000 +0     0     0     0
  H     1.09300338 +1    0.0000000 +0    0.0000000 +0     1     0     0
  N     2.47292095 +1   83.4958152 +1    0.0000000 +0     1     2     0
  O     1.21869154 +1   88.8876842 +1   -8.0125531 +1     3     1     2
  O     1.22286400 +1  148.4091618 +1  153.4594663 +1     3     1     2
  H     2.13989590 +1  147.0727627 +1  175.4134700 +1     1     2     3
  C     1.47424058 +1   33.7902013 +1 -169.4145274 +1     3     1     2
  H     1.12703268 +1  108.4459102 +1 -125.2540099 +1     7     3     1
  H     1.13214028 +1  107.5166534 +1  121.7450369 +1     7     3     1
  C     1.08205000 +1   30.9382190 +1   -1.8053970 +1     6     1     2
  H     1.08157226 +1  112.0054029 +1  179.6333645 +1    10     6     1
  C     5.64552779 +1  131.6620468 +1 -115.4358674 +1     8     7     3
  C     1.40141403 +1  153.3300625 +1 -155.7892697 +1    12     8     7
  C     1.40357754 +1  117.9980267 +1   61.5087144 +1    13    12     8
  C     1.39803176 +1  118.5702860 +1   -3.0837028 +1    14    13    12
  C     1.39864583 +1  119.4869202 +1    1.3441771 +1    15    14    13
  N     1.34714640 +1   46.7046119 +1  -76.6740850 +1    12     8     7
  H     1.10045987 +1   74.9834334 +1   74.2033390 +1    12     8     7
  H     1.08861598 +1  120.7588230 +1 -178.5589897 +1    15    14    13
  H     1.09761416 +1  121.6213949 +1 -179.0793092 +1    16    15    14
  C     1.48311567 +1  118.8295951 +1 -117.3643415 +1    13    12     8
  H     1.09834493 +1  113.2246490 +1 -153.2590540 +1    21    13    12
  H     1.10446025 +1  110.6090325 +1   87.0776792 +1    21    13    12
  H     1.10278318 +1  112.8679492 +1  -32.0549097 +1    21    13    12
  C     1.48050385 +1  121.7472908 +1  176.4085869 +1    14    13    12
  H     1.09651924 +1  113.5535862 +1 -178.5140763 +1    25    14    13
  H     1.10618478 +1  111.9331493 +1   60.4957743 +1    25    14    13
  H     1.10769132 +1  111.5799314 +1  -58.2878385 +1    25    14    13
  H     2.28411935 +1   97.3627117 +1   -2.7359394 +1    18    12     8
  O     0.96728644 +1  101.0251285 +1  104.9129358 +1    29    18    12
  H     0.96377310 +1  102.3824148 +1  -76.9395348 +1    30    29    18

 TIME=     0.24
  REACTANTS AND PRODUCTS SWAPPED AROUND
 *+*+*+*+*+*+*+*+*+*+*+*+*+*+*+*+*+*+*+*+*+*+*+*+*+*+*+*+*+*+*+*+*+*+*+*+*+*+*+*+
            BAR SHORTENED BY       1.000 PERCENT
 GRADIENT CRITERION IN FLEPO =    10.000


          FOR POINT   22 SECOND STRUCTURE
 DISTANCE A - B      4.179205
 HEAT              -69.568901
 GRADIENT NORM      15.112116
 DIRECTION COSINE   -0.174960
* ===============================
* Input file for Mopac
* ===============================
 PM7 BONDS AUX DUMP=30M ITRY=15000 T=14D CHARGE=0 SINGLET eps=78.4 RELSCF=1


  C     0.00000000 +0    0.0000000 +0    0.0000000 +0     0     0     0
  H     1.09581512 +1    0.0000000 +0    0.0000000 +0     1     0     0
  N     2.41099480 +1   87.0442016 +1    0.0000000 +0     1     2     0
  O     1.25771064 +1   92.1791305 +1    4.6414045 +1     3     1     2
  O     1.26268665 +1  151.7927941 +1 -173.8795313 +1     3     1     2
  H     2.13114318 +1  145.8083384 +1  177.6319610 +1     1     2     3
  C     1.33104220 +1   30.8652189 +1 -176.0060646 +1     3     1     2
  H     2.90306505 +1   99.5671775 +1  -96.6058452 +1     7     3     1
  H     1.08710860 +1  119.1200967 +1 -179.8426643 +1     7     3     1
  C     1.06607864 +1   31.0858861 +1    0.6590502 +1     6     1     2
  H     1.07718540 +1  111.8909433 +1 -178.5710253 +1    10     6     1
  C     4.17390754 +1  145.3422262 +1 -148.7814681 +1     8     7     3
  C     1.39230437 +1  159.6340283 +1  -98.4043024 +1    12     8     7
  C     1.41064263 +1  119.1677175 +1   39.1874949 +1    13    12     8
  C     1.39737886 +1  118.1942189 +1    2.0297252 +1    14    13    12
  C     1.39374236 +1  120.5877050 +1   -2.3697427 +1    15    14    13
  N     1.35920955 +1  120.2634709 +1    0.5193551 +1    16    15    14
  H     1.10385833 +1   74.5334667 +1  115.2418719 +1    12     8     7
  H     1.09707020 +1  119.8163483 +1  178.3271984 +1    15    14    13
  H     1.10658108 +1  121.4804296 +1 -179.5362813 +1    16    15    14
  C     1.48135646 +1  118.8038634 +1 -139.2564988 +1    13    12     8
  H     1.10209051 +1  112.7166316 +1 -135.9401187 +1    21    13    12
  H     1.10473044 +1  110.9649696 +1  104.9951013 +1    21    13    12
  H     1.10235112 +1  113.1682520 +1  -14.9673786 +1    21    13    12
  C     1.47956601 +1  120.7222948 +1 -176.9937679 +1    14    13    12
  H     1.10047497 +1  113.9088658 +1 -178.5337035 +1    25    14    13
  H     1.11130905 +1  111.2874691 +1   60.7224592 +1    25    14    13
  H     1.10590500 +1  112.1145221 +1  -57.1479299 +1    25    14    13
  H     1.05002114 +1  121.1876170 +1 -176.4447347 +1    17    16    15
  O     0.96653251 +1  158.9986795 +1 -100.4014150 +1     8     7     3
  H     0.97348444 +1  104.4826987 +1  170.9713384 +1    30     8     7

 TIME=     0.21
  REACTANTS AND PRODUCTS SWAPPED AROUND
 *+*+*+*+*+*+*+*+*+*+*+*+*+*+*+*+*+*+*+*+*+*+*+*+*+*+*+*+*+*+*+*+*+*+*+*+*+*+*+*+
            BAR SHORTENED BY       1.000 PERCENT
 GRADIENT CRITERION IN FLEPO =    10.000


          FOR POINT   23 FIRST  STRUCTURE
 DISTANCE A - B      4.137413
 HEAT              -66.386475
 GRADIENT NORM      17.250603
 DIRECTION COSINE   -0.187067
* ===============================
* Input file for Mopac
* ===============================
 PM7 BONDS AUX DUMP=30M ITRY=15000 T=14D CHARGE=0 SINGLET eps=78.4 RELSCF=1


  C     0.00000000 +0    0.0000000 +0    0.0000000 +0     0     0     0
  H     1.09438786 +1    0.0000000 +0    0.0000000 +0     1     0     0
  N     2.47149769 +1   83.3870302 +1    0.0000000 +0     1     2     0
  O     1.21925839 +1   89.0536087 +1   -7.9473181 +1     3     1     2
  O     1.22271150 +1  148.7197135 +1  153.6644723 +1     3     1     2
  H     2.13756413 +1  147.1341070 +1  175.5221346 +1     1     2     3
  C     1.47333956 +1   33.7912759 +1 -169.5820595 +1     3     1     2
  H     1.12935302 +1  108.2587398 +1 -125.2859455 +1     7     3     1
  H     1.12871623 +1  107.4764643 +1  121.7723158 +1     7     3     1
  C     1.08204175 +1   30.7879964 +1   -1.8192732 +1     6     1     2
  H     1.07078993 +1  111.2007818 +1  179.9198342 +1    10     6     1
  C     5.63776366 +1  131.9166948 +1 -115.7312199 +1     8     7     3
  C     1.40037150 +1  153.5332052 +1 -154.5496547 +1    12     8     7
  C     1.40342199 +1  118.1620418 +1   60.3603617 +1    13    12     8
  C     1.39696511 +1  118.5137283 +1   -2.3875900 +1    14    13    12
  C     1.39625377 +1  119.4812345 +1    0.9072685 +1    15    14    13
  N     1.34845760 +1  122.3496381 +1    1.1249848 +1    16    15    14
  H     1.09654257 +1   74.9705862 +1   74.8984722 +1    12     8     7
  H     1.08897456 +1  120.7169346 +1 -178.8471852 +1    15    14    13
  H     1.09956198 +1  121.6495022 +1 -178.6773075 +1    16    15    14
  C     1.48640484 +1  118.6320949 +1 -117.9164900 +1    13    12     8
  H     1.10046568 +1  113.0667746 +1 -153.3183754 +1    21    13    12
  H     1.10324342 +1  110.6004873 +1   87.2787537 +1    21    13    12
  H     1.09837813 +1  112.7217037 +1  -32.2606697 +1    21    13    12
  C     1.48332577 +1  121.5925267 +1  176.6550176 +1    14    13    12
  H     1.10087878 +1  113.2551095 +1 -178.2148757 +1    25    14    13
  H     1.10070666 +1  111.9460163 +1   60.9087255 +1    25    14    13
  H     1.10389640 +1  111.5497324 +1  -58.1065019 +1    25    14    13
  H     2.28391332 +1   97.0698692 +1   -2.9263829 +1    18    12     8
  O     0.96706073 +1  101.0746870 +1  105.8748401 +1    29    18    12
  H     0.96404027 +1  102.4352729 +1  -77.2077864 +1    30    29    18

 TIME=     0.24
  REACTANTS AND PRODUCTS SWAPPED AROUND
 *+*+*+*+*+*+*+*+*+*+*+*+*+*+*+*+*+*+*+*+*+*+*+*+*+*+*+*+*+*+*+*+*+*+*+*+*+*+*+*+
            BAR SHORTENED BY       1.000 PERCENT
 GRADIENT CRITERION IN FLEPO =    10.000


          FOR POINT   24 SECOND STRUCTURE
 DISTANCE A - B      4.096039
 HEAT              -69.501609
 GRADIENT NORM      22.262324
 DIRECTION COSINE   -0.209845
* ===============================
* Input file for Mopac
* ===============================
 PM7 BONDS AUX DUMP=30M ITRY=15000 T=14D CHARGE=0 SINGLET eps=78.4 RELSCF=1


  C     0.00000000 +0    0.0000000 +0    0.0000000 +0     0     0     0
  H     1.09605658 +1    0.0000000 +0    0.0000000 +0     1     0     0
  N     2.40895612 +1   87.0468238 +1    0.0000000 +0     1     2     0
  O     1.25809185 +1   92.2113879 +1    4.5015531 +1     3     1     2
  O     1.26174619 +1  152.1200438 +1 -174.0097083 +1     3     1     2
  H     2.13483605 +1  145.8380672 +1  177.5700252 +1     1     2     3
  C     1.32931676 +1   30.9196716 +1 -176.0908463 +1     3     1     2
  H     2.88815585 +1   99.6870890 +1  -97.1471243 +1     7     3     1
  H     1.08591994 +1  119.0846403 +1  179.8597257 +1     7     3     1
  C     1.07032933 +1   31.1575519 +1    0.8867662 +1     6     1     2
  H     1.07424619 +1  112.0604522 +1 -178.3605996 +1    10     6     1
  C     4.18231054 +1  145.3931763 +1 -148.5687553 +1     8     7     3
  C     1.39253670 +1  159.7386203 +1  -99.1769886 +1    12     8     7
  C     1.40904477 +1  119.0124413 +1   39.6225429 +1    13    12     8
  C     1.39914287 +1  118.3188479 +1    2.1041261 +1    14    13    12
  C     1.38817763 +1  120.6414525 +1   -2.1731321 +1    15    14    13
  N     1.36113110 +1   44.0464517 +1  -47.7106396 +1    12     8     7
  H     1.10514194 +1   74.6360747 +1  115.1435481 +1    12     8     7
  H     1.09733354 +1  119.8838168 +1  178.2966387 +1    15    14    13
  H     1.10224152 +1  122.0361821 +1 -179.4624300 +1    16    15    14
  C     1.47896995 +1  118.8636243 +1 -138.4710936 +1    13    12     8
  H     1.10321497 +1  112.6130770 +1 -136.5057121 +1    21    13    12
  H     1.10759398 +1  111.1191959 +1  104.7904872 +1    21    13    12
  H     1.10159107 +1  113.4108116 +1  -15.5289514 +1    21    13    12
  C     1.48010492 +1  120.7610054 +1 -176.9314771 +1    14    13    12
  H     1.09443342 +1  113.7875807 +1 -178.6215783 +1    25    14    13
  H     1.10509307 +1  111.4188370 +1   60.9067031 +1    25    14    13
  H     1.10816282 +1  112.0095910 +1  -57.2713848 +1    25    14    13
  H     1.06066873 +1  118.2381353 +1   14.3480347 +1    17    12     8
  O     0.97758940 +1  159.1041497 +1 -100.5258126 +1     8     7     3
  H     0.97409064 +1  104.4035722 +1  171.3382743 +1    30     8     7

 TIME=     0.25
  REACTANTS AND PRODUCTS SWAPPED AROUND
 *+*+*+*+*+*+*+*+*+*+*+*+*+*+*+*+*+*+*+*+*+*+*+*+*+*+*+*+*+*+*+*+*+*+*+*+*+*+*+*+
            BAR SHORTENED BY       1.000 PERCENT
 GRADIENT CRITERION IN FLEPO =    10.000


          FOR POINT   25 FIRST  STRUCTURE
 DISTANCE A - B      4.055078
 HEAT              -66.332092
 GRADIENT NORM      21.551041
 DIRECTION COSINE   -0.133259
* ===============================
* Input file for Mopac
* ===============================
 PM7 BONDS AUX DUMP=30M ITRY=15000 T=14D CHARGE=0 SINGLET eps=78.4 RELSCF=1


  C     0.00000000 +0    0.0000000 +0    0.0000000 +0     0     0     0
  H     1.09236091 +1    0.0000000 +0    0.0000000 +0     1     0     0
  N     2.47277432 +1   83.3771996 +1    0.0000000 +0     1     2     0
  O     1.21754007 +1   88.9122632 +1   -6.3867281 +1     3     1     2
  O     1.22302153 +1  148.9106894 +1  154.0906318 +1     3     1     2
  H     2.13783206 +1  147.4148349 +1  177.7631606 +1     1     2     3
  C     1.47268568 +1   33.9316708 +1 -168.6294331 +1     3     1     2
  H     1.13063463 +1  108.3522752 +1 -124.8222209 +1     7     3     1
  H     1.13043066 +1  107.5467570 +1  122.1983579 +1     7     3     1
[...]
          IONIZATION POTENTIAL    =          9.365616 EV
          HOMO LUMO ENERGIES (EV) =         -9.366 -0.577
          NO. OF FILLED LEVELS    =         42
          MOLECULAR WEIGHT        =        212.2480         POINT GROUP:  C1  

          MOLECULAR DIMENSIONS (Angstroms)

            Atom       Atom       Distance
            H    28    O     4    11.76266
            H    24    H    11     7.15926
            H     9    H    27     3.50042


          SCF CALCULATIONS        =          1

          WALL-CLOCK TIME         =          2 MINUTES AND 1.059 SECONDS
          COMPUTATION TIME        =          2 HOURS 32 MINUTES AND 44.792 SECONDS



       FINAL  POINT  AND  DERIVATIVES

   PARAMETER     ATOM    TYPE            VALUE        GRADIENT
      1          1  C    CARTESIAN X     0.007069     -2.308125  KCAL/ANGSTROM
      2          1  C    CARTESIAN Y    -0.958069     -2.211012  KCAL/ANGSTROM
      3          1  C    CARTESIAN Z    -0.653857     -0.374391  KCAL/ANGSTROM
      4          2  H    CARTESIAN X    -0.822018      0.231332  KCAL/ANGSTROM
      5          2  H    CARTESIAN Y    -1.599955      0.468817  KCAL/ANGSTROM
      6          2  H    CARTESIAN Z    -0.972540      0.746523  KCAL/ANGSTROM
      7          3  N    CARTESIAN X     1.004762     -1.959441  KCAL/ANGSTROM
      8          3  N    CARTESIAN Y    -2.995096     -0.484333  KCAL/ANGSTROM
      9          3  N    CARTESIAN Z     0.192469      1.222050  KCAL/ANGSTROM
     10          4  O    CARTESIAN X     0.201499     -2.815573  KCAL/ANGSTROM
     11          4  O    CARTESIAN Y    -3.644132     -0.548167  KCAL/ANGSTROM
     12          4  O    CARTESIAN Z    -0.492441      0.262089  KCAL/ANGSTROM
     13          5  O    CARTESIAN X     1.772392     -1.301452  KCAL/ANGSTROM
     14          5  O    CARTESIAN Y    -3.610624     -1.041944  KCAL/ANGSTROM
     15          5  O    CARTESIAN Z     0.945322     -1.283296  KCAL/ANGSTROM
     16          6  H    CARTESIAN X     0.802502      0.004252  KCAL/ANGSTROM
     17          6  H    CARTESIAN Y     1.024345     -0.515282  KCAL/ANGSTROM
     18          6  H    CARTESIAN Z    -0.686171     -0.703630  KCAL/ANGSTROM
     19          7  C    CARTESIAN X     1.061688     -5.520958  KCAL/ANGSTROM
     20          7  C    CARTESIAN Y    -1.610547     -2.794991  KCAL/ANGSTROM
     21          7  C    CARTESIAN Z     0.113319      1.830112  KCAL/ANGSTROM
     22          8  H    CARTESIAN X     2.419438      0.361682  KCAL/ANGSTROM
     23          8  H    CARTESIAN Y    -1.097358      0.597897  KCAL/ANGSTROM
     24          8  H    CARTESIAN Z    -0.292763     -1.408754  KCAL/ANGSTROM
     25          9  H    CARTESIAN X     1.454150      0.045073  KCAL/ANGSTROM
     26          9  H    CARTESIAN Y    -1.089782     -0.911903  KCAL/ANGSTROM
     27          9  H    CARTESIAN Z     1.003558     -1.290769  KCAL/ANGSTROM
     28         10  C    CARTESIAN X     0.011800     -0.503208  KCAL/ANGSTROM
     29         10  C    CARTESIAN Y     0.342981     -1.882910  KCAL/ANGSTROM
     30         10  C    CARTESIAN Z    -0.951201      0.418829  KCAL/ANGSTROM
     31         11  H    CARTESIAN X    -0.786603     -0.955153  KCAL/ANGSTROM
     32         11  H    CARTESIAN Y     0.828085      0.098342  KCAL/ANGSTROM
     33         11  H    CARTESIAN Z    -1.491705      0.092716  KCAL/ANGSTROM
     34         12  C    CARTESIAN X     6.650058      1.598284  KCAL/ANGSTROM
     35         12  C    CARTESIAN Y     0.568095      0.508316  KCAL/ANGSTROM
     36         12  C    CARTESIAN Z    -0.211277     -0.200453  KCAL/ANGSTROM
     37         13  C    CARTESIAN X     7.757592     -1.316215  KCAL/ANGSTROM
     38         13  C    CARTESIAN Y     1.385129      0.082376  KCAL/ANGSTROM
     39         13  C    CARTESIAN Z    -0.471700      0.494357  KCAL/ANGSTROM
     40         14  C    CARTESIAN X     7.540157      1.788741  KCAL/ANGSTROM
     41         14  C    CARTESIAN Y     2.657020      0.521599  KCAL/ANGSTROM
     42         14  C    CARTESIAN Z    -1.031429     -0.777140  KCAL/ANGSTROM
     43         15  C    CARTESIAN X     6.220700      1.083203  KCAL/ANGSTROM
     44         15  C    CARTESIAN Y     3.070505     -0.828927  KCAL/ANGSTROM
     45         15  C    CARTESIAN Z    -1.234337      1.723077  KCAL/ANGSTROM
     46         16  C    CARTESIAN X     5.166377      1.197754  KCAL/ANGSTROM
     47         16  C    CARTESIAN Y     2.200994      0.671132  KCAL/ANGSTROM
     48         16  C    CARTESIAN Z    -0.952368     -0.526531  KCAL/ANGSTROM
     49         17  N    CARTESIAN X     5.380180      0.371364  KCAL/ANGSTROM
     50         17  N    CARTESIAN Y     0.958132     -1.848890  KCAL/ANGSTROM
     51         17  N    CARTESIAN Z    -0.467828      0.791313  KCAL/ANGSTROM
     52         18  H    CARTESIAN X     6.776094      0.365157  KCAL/ANGSTROM
     53         18  H    CARTESIAN Y    -0.438230      0.296115  KCAL/ANGSTROM
     54         18  H    CARTESIAN Z     0.216756      0.597501  KCAL/ANGSTROM
     55         19  H    CARTESIAN X     6.007553     -0.198642  KCAL/ANGSTROM
     56         19  H    CARTESIAN Y     4.067198      0.734198  KCAL/ANGSTROM
     57         19  H    CARTESIAN Z    -1.628994     -0.100235  KCAL/ANGSTROM
     58         20  H    CARTESIAN X     4.117118     -1.202971  KCAL/ANGSTROM
     59         20  H    CARTESIAN Y     2.496110      0.712462  KCAL/ANGSTROM
     60         20  H    CARTESIAN Z    -1.117253      0.143572  KCAL/ANGSTROM
     61         21  C    CARTESIAN X     9.130137      1.389134  KCAL/ANGSTROM
     62         21  C    CARTESIAN Y     0.891659     -0.863014  KCAL/ANGSTROM
     63         21  C    CARTESIAN Z    -0.185779      1.178381  KCAL/ANGSTROM
     64         22  H    CARTESIAN X     9.820724      0.935699  KCAL/ANGSTROM
     65         22  H    CARTESIAN Y     1.701822      0.970044  KCAL/ANGSTROM
     66         22  H    CARTESIAN Z     0.106784     -0.327479  KCAL/ANGSTROM
     67         23  H    CARTESIAN X     9.576518      0.276281  KCAL/ANGSTROM
     68         23  H    CARTESIAN Y     0.417227     -0.001100  KCAL/ANGSTROM
     69         23  H    CARTESIAN Z    -1.077958     -0.253206  KCAL/ANGSTROM
     70         24  H    CARTESIAN X     9.158895      0.245242  KCAL/ANGSTROM
     71         24  H    CARTESIAN Y     0.147705      1.173722  KCAL/ANGSTROM
     72         24  H    CARTESIAN Z     0.621637     -0.689999  KCAL/ANGSTROM
     73         25  C    CARTESIAN X     8.668856      0.430129  KCAL/ANGSTROM
     74         25  C    CARTESIAN Y     3.539059      0.604113  KCAL/ANGSTROM
     75         25  C    CARTESIAN Z    -1.417811      1.183704  KCAL/ANGSTROM
     76         26  H    CARTESIAN X     8.340527     -0.724444  KCAL/ANGSTROM
     77         26  H    CARTESIAN Y     4.483901      0.778523  KCAL/ANGSTROM
     78         26  H    CARTESIAN Z    -1.881127     -0.493418  KCAL/ANGSTROM
     79         27  H    CARTESIAN X     9.338283      1.100382  KCAL/ANGSTROM
     80         27  H    CARTESIAN Y     3.039686     -1.132233  KCAL/ANGSTROM
     81         27  H    CARTESIAN Z    -2.145596     -1.073080  KCAL/ANGSTROM
     82         28  H    CARTESIAN X     9.301382      0.220184  KCAL/ANGSTROM
     83         28  H    CARTESIAN Y     3.808944     -0.292882  KCAL/ANGSTROM
     84         28  H    CARTESIAN Z    -0.555280     -0.475046  KCAL/ANGSTROM
     85         29  H    CARTESIAN X     4.231039      3.548684  KCAL/ANGSTROM
     86         29  H    CARTESIAN Y     0.008409      3.532665  KCAL/ANGSTROM
     87         29  H    CARTESIAN Z    -0.360239     -0.312919  KCAL/ANGSTROM
     88         30  O    CARTESIAN X     3.633166      4.876125  KCAL/ANGSTROM
     89         30  O    CARTESIAN Y    -0.943695      2.426504  KCAL/ANGSTROM
     90         30  O    CARTESIAN Z    -0.330097     -3.737115  KCAL/ANGSTROM
     91         31  H    CARTESIAN X     3.917318     -1.264173  KCAL/ANGSTROM
     92         31  H    CARTESIAN Y    -1.429596      1.180873  KCAL/ANGSTROM
     93         31  H    CARTESIAN Z    -1.116176      3.343433  KCAL/ANGSTROM




   ATOM   CHEMICAL          X               Y               Z
  NUMBER   SYMBOL      (ANGSTROMS)     (ANGSTROMS)     (ANGSTROMS)

     1       C          0.00706926  *  -0.95806924  *  -0.65385699  *
     2       H         -0.82201750  *  -1.59995510  *  -0.97254028  *
     3       N          1.00476174  *  -2.99509621  *   0.19246852  *
     4       O          0.20149872  *  -3.64413187  *  -0.49244148  *
     5       O          1.77239154  *  -3.61062381  *   0.94532185  *
     6       H          0.80250167  *   1.02434514  *  -0.68617140  *
     7       C          1.06168761  *  -1.61054673  *   0.11331850  *
     8       H          2.41943780  *  -1.09735753  *  -0.29276326  *
     9       H          1.45415007  *  -1.08978161  *   1.00355758  *
    10       C          0.01179981  *   0.34298086  *  -0.95120147  *
    11       H         -0.78660313  *   0.82808513  *  -1.49170453  *
    12       C          6.65005839  *   0.56809497  *  -0.21127652  *
    13       C          7.75759161  *   1.38512890  *  -0.47170036  *
    14       C          7.54015690  *   2.65701984  *  -1.03142944  *
    15       C          6.22069975  *   3.07050531  *  -1.23433692  *
    16       C          5.16637677  *   2.20099416  *  -0.95236825  *
    17       N          5.38017994  *   0.95813199  *  -0.46782752  *
    18       H          6.77609358  *  -0.43822964  *   0.21675637  *
    19       H          6.00755289  *   4.06719780  *  -1.62899403  *
    20       H          4.11711846  *   2.49610988  *  -1.11725313  *
    21       C          9.13013729  *   0.89165876  *  -0.18577880  *
    22       H          9.82072386  *   1.70182159  *   0.10678365  *
    23       H          9.57651833  *   0.41722720  *  -1.07795832  *
    24       H          9.15889457  *   0.14770482  *   0.62163711  *
    25       C          8.66885636  *   3.53905883  *  -1.41781066  *
    26       H          8.34052694  *   4.48390115  *  -1.88112682  *
    27       H          9.33828295  *   3.03968594  *  -2.14559613  *
    28       H          9.30138186  *   3.80894424  *  -0.55528031  *
    29       H          4.23103869  *   0.00840922  *  -0.36023886  *
    30       O          3.63316619  *  -0.94369500  *  -0.33009689  *
    31       H          3.91731827  *  -1.42959574  *  -1.11617593  *

                             CARTESIAN COORDINATES

   1    C        0.007069264    -0.958069236    -0.653856988
   2    H       -0.822017503    -1.599955103    -0.972540279
   3    N        1.004761739    -2.995096210     0.192468525
   4    O        0.201498725    -3.644131872    -0.492441478
   5    O        1.772391542    -3.610623814     0.945321847
   6    H        0.802501670     1.024345143    -0.686171395
   7    C        1.061687607    -1.610546725     0.113318501
   8    H        2.419437802    -1.097357526    -0.292763256
   9    H        1.454150072    -1.089781609     1.003557576
  10    C        0.011799814     0.342980860    -0.951201471
  11    H       -0.786603135     0.828085134    -1.491704534
  12    C        6.650058386     0.568094965    -0.211276524
  13    C        7.757591613     1.385128900    -0.471700364
  14    C        7.540156897     2.657019845    -1.031429441
  15    C        6.220699752     3.070505313    -1.234336924
  16    C        5.166376771     2.200994156    -0.952368255
  17    N        5.380179938     0.958131993    -0.467827521
  18    H        6.776093583    -0.438229640     0.216756370
  19    H        6.007552887     4.067197802    -1.628994030
  20    H        4.117118464     2.496109878    -1.117253131
  21    C        9.130137290     0.891658757    -0.185778797
  22    H        9.820723859     1.701821588     0.106783646
  23    H        9.576518330     0.417227205    -1.077958322
  24    H        9.158894568     0.147704819     0.621637111
  25    C        8.668856365     3.539058828    -1.417810655
  26    H        8.340526941     4.483901151    -1.881126816
  27    H        9.338282952     3.039685937    -2.145596127
  28    H        9.301381863     3.808944240    -0.555280309
  29    H        4.231038689     0.008409225    -0.360238861
  30    O        3.633166188    -0.943695002    -0.330096888
  31    H        3.917318269    -1.429595736    -1.116175933


           Empirical Formula: C10 H16 N2 O3  =    31 atoms



      MOLECULAR POINT GROUP   :   C1  


                  EIGENVALUES  
 -36.78130 -36.73949 -29.96939 -29.64641 -29.29991 -28.09030 -27.48145 -26.08634
 -25.52603 -24.64588 -22.01238 -21.82481 -20.85993 -19.99196 -18.73470 -18.32554
 -17.68042 -17.52492 -17.23036 -17.00167 -16.48385 -15.87291 -15.72868 -14.81565
 -14.65084 -14.41131 -14.14328 -14.06851 -13.94882 -13.81709 -13.61147 -13.26822
 -12.48032 -12.41667 -11.78458 -11.64115 -11.44535 -11.40866 -11.32031 -10.72927
 -10.16475  -9.36562  -0.57739  -0.47142  -0.00319   0.95164   1.32613   1.85777
   2.04982   3.07926   3.56047   3.63985   3.87901   4.13000   4.31643   4.43038
   4.73849   4.77329   4.84256   5.11692   5.17986   5.39800   5.44077   5.44605
   5.55882   5.56678   5.61344   5.63849   5.77397   5.82709   5.90093   6.05503
   6.33597   6.59741   6.64417   6.80158


              NET ATOMIC CHARGES AND DIPOLE CONTRIBUTIONS

  ATOM NO.   TYPE          CHARGE      No. of ELECS.   s-Pop       p-Pop       
    1          C          -0.060841        4.0608     1.08077     2.98007
    2          H           0.161636        0.8384     0.83836
    3          N           0.744470        4.2555     1.42816     2.82737
    4          O          -0.576530        6.5765     1.94208     4.63445
    5          O          -0.586074        6.5861     1.94211     4.64397
    6          H           0.152057        0.8479     0.84794
    7          C          -0.537375        4.5374     1.07537     3.46200
    8          H           0.451260        0.5487     0.54874
    9          H           0.227722        0.7723     0.77228
   10          C          -0.394257        4.3943     1.09002     3.30424
   11          H           0.151026        0.8490     0.84897
   12          C           0.027700        3.9723     1.10126     2.87104
   13          C          -0.071762        4.0718     1.07413     2.99763
   14          C           0.103199        3.8968     1.07968     2.81712
   15          C          -0.262937        4.2629     1.09219     3.17075
   16          C           0.049432        3.9506     1.09934     2.85123
   17          N          -0.412410        5.4124     1.67640     3.73601
   18          H           0.201227        0.7988     0.79877
   19          H           0.191019        0.8090     0.80898
   20          H           0.198622        0.8014     0.80138
   21          C          -0.454689        4.4547     1.04789     3.40680
   22          H           0.174303        0.8257     0.82570
   23          H           0.178581        0.8214     0.82142
   24          H           0.172164        0.8278     0.82784
   25          C          -0.476887        4.4769     1.05172     3.42517
   26          H           0.174535        0.8255     0.82547
   27          H           0.184555        0.8154     0.81544
   28          H           0.184879        0.8151     0.81512
   29          H           0.459617        0.5404     0.54038
   30          O          -0.752490        6.7525     1.80266     4.94983
   31          H           0.398249        0.6018     0.60175
 DIPOLE           X         Y         Z       TOTAL
 POINT-CHG.    13.589    13.602    -3.630    19.566
 HYBRID         0.253    -0.198     0.003     0.321
 SUM           13.841    13.404    -3.627    19.606


          ATOMIC ORBITAL ELECTRON POPULATIONS

     Atom    s        px        py        pz   
    1  C   1.08077   1.00896   1.01353   0.95758
    2  H   0.83836
    3  N   1.42816   0.91163   1.00827   0.90746
    4  O   1.94208   1.41843   1.70950   1.50653
    5  O   1.94211   1.45686   1.73984   1.44726
    6  H   0.84794
    7  C   1.07537   1.30215   0.86060   1.29926
    8  H   0.54874
    9  H   0.77228
   10  C   1.09002   1.14918   1.04680   1.10826
   11  H   0.84897
   12  C   1.10126   0.86542   1.05627   0.94935
   13  C   1.07413   0.99497   0.98694   1.01572
   14  C   1.07968   0.97494   0.95585   0.88633
   15  C   1.09219   0.99491   1.10396   1.07188
   16  C   1.09934   1.07429   0.87102   0.90591
   17  N   1.67640   1.26696   1.22351   1.24554
   18  H   0.79877
   19  H   0.80898
   20  H   0.80138
   21  C   1.04789   1.03416   1.18286   1.18978
   22  H   0.82570
   23  H   0.82142
   24  H   0.82784
   25  C   1.05172   1.09866   1.13688   1.18964
   26  H   0.82547
   27  H   0.81544
   28  H   0.81512
   29  H   0.54038
   30  O   1.80266   1.64978   1.65105   1.64900
   31  H   0.60175

          BONDING CONTRIBUTION OF EACH M.O.

  1.3591  1.3830  1.7762  0.9907  1.2029  1.5973  1.9294  1.3654  1.9220  1.9621
  1.2288  1.9585  1.9082  1.7078  1.5601  1.6051  1.2806  2.0196  1.5021  1.5333
  1.5342  1.9071  1.9307  1.7549  2.0130  1.9254  1.6398  1.7050  1.8747  1.8531
  1.1236  1.5574  2.0095  1.8203  1.5144  0.6859  0.7614  0.3908  1.2357  1.9327
  2.0412  1.3861 -1.9986 -1.9585 -2.3180 -1.9996 -2.1274 -1.9830 -1.9009 -1.8860
 -1.9539 -1.9385 -1.9541 -2.0062 -2.0317 -1.9932 -1.9229 -1.9674 -1.8978 -1.9410
 -1.8614 -1.9457 -1.8408 -1.9153 -1.9551 -1.9470 -1.9403 -1.9547 -1.8784 -1.9415
 -1.9884 -1.7309 -1.9786 -1.8919 -1.9537 -1.8870





            (VALENCIES)   BOND ORDERS

     1  C     (3.967)    10  C 1.947     7  C 1.043     2  H 0.957

     2  H     (0.974)     1  C 0.957

     3  N     (3.794)     4  O 1.342     5  O 1.334     7  C 1.076    10  C 0.014

     4  O     (1.697)     3  N 1.342     5  O 0.219     7  C 0.104

     5  O     (1.686)     3  N 1.334     4  O 0.219     7  C 0.101

     6  H     (0.977)    10  C 0.967

     7  C     (3.657)     3  N 1.076     1  C 1.043     9  H 0.888     8  H 0.335     4  O 0.104     5  O 0.101
                         30  O 0.052    10  C 0.027

     8  H     (0.796)    30  O 0.396     7  C 0.335     9  H 0.027

     9  H     (0.948)     7  C 0.888     8  H 0.027

    10  C     (3.945)     1  C 1.947     6  H 0.967    11  H 0.967     7  C 0.027     3  N 0.014

    11  H     (0.977)    10  C 0.967

    12  C     (3.924)    13  C 1.434    17  N 1.361    18  H 0.940    15  C 0.106    16  C 0.022    14  C 0.013
                         20  H 0.011

    13  C     (3.993)    12  C 1.434    14  C 1.383    21  C 1.018    16  C 0.109    17  N 0.011

    14  C     (3.975)    15  C 1.420    13  C 1.383    25  C 1.026    17  N 0.092    12  C 0.013

    15  C     (3.961)    16  C 1.437    14  C 1.420    19  H 0.950    12  C 0.106    17  N 0.012

    16  C     (3.923)    15  C 1.437    17  N 1.374    20  H 0.941    13  C 0.109    12  C 0.022    18  H 0.011

    17  N     (3.153)    16  C 1.374    12  C 1.361    29  H 0.221    14  C 0.092    30  O 0.049    15  C 0.012
                         13  C 0.011

    18  H     (0.960)    12  C 0.940    16  C 0.011

    19  H     (0.964)    15  C 0.950

    20  H     (0.961)    16  C 0.941    12  C 0.011

    21  C     (3.908)    13  C 1.018    24  H 0.959    22  H 0.955    23  H 0.947

    22  H     (0.970)    21  C 0.955

    23  H     (0.968)    21  C 0.947

    24  H     (0.970)    21  C 0.959

    25  C     (3.905)    14  C 1.026    26  H 0.960    27  H 0.945    28  H 0.944

    26  H     (0.970)    25  C 0.960

    27  H     (0.966)    25  C 0.945

    28  H     (0.966)    25  C 0.944

    29  H     (0.789)    30  O 0.542    17  N 0.221

    30  O     (1.907)    31  H 0.830    29  H 0.542     8  H 0.396     7  C 0.052    17  N 0.049

    31  H     (0.841)    30  O 0.830


 **********************
 *                    *
 * JOB ENDED NORMALLY *
 *                    *
 **********************



 TOTAL JOB TIME:           121.07 SECONDS

 == MOPAC DONE ==
