 *******************************************************************************
 **                                                                           **
 **                              MOPAC v22.0.6                                **
 **                                                                           **
 *******************************************************************************
 **          Digital Object Identifier (DOI): 10.5281/zenodo.6511958          **
 **    Visit the DOI location for information on how to cite this program.    **
 *******************************************************************************

                              PM7 CALCULATION RESULTS

 *******************************************************************************
 *  CALCULATION DONE:                                Sat Mar 23 14:13:36 2024  *
 *  PM7        - The PM7 Hamiltonian to be used
 *  SINGLET    - SPIN STATE DEFINED AS A SINGLET
 *
 *
 *
 *                 CHARGE ON SYSTEM = -1
 *
 *
 *
 *  EPS=78.4   - USE ANDREAS KLAMT'S COSMO IMPLICIT SOLVATION MODEL
 *  T=         - A TIME OF 14.0 DAYS REQUESTED
 *  DUMP=N     - RESTART FILE WRITTEN EVERY 30.0 MINUTES REQUESTED
 *  RELSCF     - DEFAULT SCF CRITERION MULTIPLIED BY 1.0000
 *              (DEFAULT SCF CRITERION = 0.00010)
 *  ITRY=      - DO A MAXIMUM OF 15000 ITERATIONS FOR SCF
 *  AUX        - OUTPUT AUXILIARY INFORMATION
 *  BONDS      - FINAL BOND-ORDER MATRIX TO BE PRINTED
 *******************************************************************************
PM7 BONDS AUX DUMP=30M ITRY=15000 T=14D CHARGE=-1 SINGLET eps=78.4 RELSCF=1
 Title: ASE calculation

   ATOM   CHEMICAL          X               Y               Z
  NUMBER   SYMBOL      (ANGSTROMS)     (ANGSTROMS)     (ANGSTROMS)

     1       C         -1.35547505     -0.51118033      0.38378888   
     2       H          0.61519365     -1.18922151  *  -0.08252648  *
     3       H         -1.06953293  *  -0.32147942  *   1.40109324  *
     4       H         -1.57788098  *  -1.53300205  *   0.13688108  *
     5       N         -1.52063472  *   0.46560580  *  -0.48579338  *
     6       O         -1.31413674  *   1.67124075  *  -0.17508151  *
     7       O         -1.88350249  *   0.24033662  *  -1.67541602  *
     8       C          3.78453533  *   0.06090367  *  -1.97529142  *
     9       O          2.96813947  *   0.64202673  *  -1.08342817  *
    10       O          3.65586863  *  -1.11721329  *  -2.24753358  *
    11       C          4.78337429  *   1.00293223  *  -2.51862945  *
    12       H          4.87074305  *   0.92274888  *  -3.61334043  *
    13       H          5.78819751  *   0.79139412  *  -2.10673491  *
    14       H          4.55897032  *   2.05720618  *  -2.27876929  *
    15       H          2.31258546  *  -0.03073711  *  -0.63725533  *
    16       O          1.60475706     -1.28756359     -0.04914615   
    17       H          1.79744610  *  -1.92789065  *  -0.75684922  *



          CARTESIAN COORDINATES 

    NO.       ATOM           X           Y           Z

     1         C         -1.3555     -0.5112      0.3838
     2         H          0.6152     -1.1892     -0.0825
     3         H         -1.0695     -0.3215      1.4011
     4         H         -1.5779     -1.5330      0.1369
     5         N         -1.5206      0.4656     -0.4858
     6         O         -1.3141      1.6712     -0.1751
     7         O         -1.8835      0.2403     -1.6754
     8         C          3.7845      0.0609     -1.9753
     9         O          2.9681      0.6420     -1.0834
    10         O          3.6559     -1.1172     -2.2475
    11         C          4.7834      1.0029     -2.5186
    12         H          4.8707      0.9227     -3.6133
    13         H          5.7882      0.7914     -2.1067
    14         H          4.5590      2.0572     -2.2788
    15         H          2.3126     -0.0307     -0.6373
    16         O          1.6048     -1.2876     -0.0491
    17         H          1.7974     -1.9279     -0.7568

 General Reference for PM7:
 "Optimization of Parameters for Semiempirical Methods VI: More Modifications to the 
 NDDO Approximations and Re-optimization of Parameters", J. J. P. Stewart, J. Mol. Mod., 1:32, 19 (2013)
 https://link.springer.com/article/10.1007/s00894-012-1667-x

           Empirical Formula: C3 H8 N O5  =    17 atoms



      MOLECULAR POINT GROUP   :   C1  


 SINGLET STATE CALCULATION


      RHF CALCULATION, NO. OF DOUBLY OCCUPIED LEVELS = 28


          Geometry optimization using EF
  SCF CRITERION =    0.1000E-03

          DIAGONAL MATRIX USED AS START HESSIAN

 CYCLE:     1 TIME:   0.047 TIME LEFT:  2.00W  GRAD.:     5.648 HEAT: -301.8792

     TRUST RADIUS NOW LESS THAN  0.00010 OPTIMIZATION TERMINATING
      THE GEOMETRY MAY NOT BE COMPLETELY OPTIMIZED
      (TO CONTINUE, ADD 'LET DDMIN=0.0' TO THE KEYWORD LINE)

 -------------------------------------------------------------------------------
 PM7 BONDS AUX DUMP=30M ITRY=15000 T=14D CHARGE=-1 SINGLET eps=78.4 RELSCF=1
 Title: ASE calculation



     GEOMETRY OPTIMISED USING EIGENVECTOR FOLLOWING (EF).     
     SCF FIELD WAS ACHIEVED                                   


                              PM7 CALCULATION
                                                       MOPAC v22.0.6 Linux
                                                       Sat Mar 23 14:13:37 2024




          FINAL HEAT OF FORMATION =       -301.87924 KCAL/MOL =   -1263.06274 KJ/MOL
          VAN DER WAALS AREA      =        182.13 SQUARE ANGSTROMS



          DIELECTRIC ENERGY       =         -3.45282 EV
          COSMO AREA              =        182.13 SQUARE ANGSTROMS
          COSMO VOLUME            =        166.62 CUBIC ANGSTROMS

          GRADIENT NORM           =          5.64806          =       1.36986 PER ATOM
          IONIZATION POTENTIAL    =          9.244441 EV
          HOMO LUMO ENERGIES (EV) =         -9.244  0.848
          NO. OF FILLED LEVELS    =         28
          MOLECULAR WEIGHT        =        138.0999         POINT GROUP:  C1  

          MOLECULAR DIMENSIONS (Angstroms)

            Atom       Atom       Distance
            H    13    H     4     8.04337
            H    17    O     6     4.36879
            H     3    O     7     3.12958


          SCF CALCULATIONS        =         11

          WALL-CLOCK TIME         =      0.172 SECONDS
          COMPUTATION TIME        =     11.685 SECONDS



       FINAL  POINT  AND  DERIVATIVES

   PARAMETER     ATOM    TYPE            VALUE        GRADIENT
      1          2  H    CARTESIAN Y    -1.189222     -1.315766  KCAL/ANGSTROM
      2          2  H    CARTESIAN Z    -0.082526     -0.018196  KCAL/ANGSTROM
      3          3  H    CARTESIAN X    -1.069533     -0.283068  KCAL/ANGSTROM
      4          3  H    CARTESIAN Y    -0.321479      0.032979  KCAL/ANGSTROM
      5          3  H    CARTESIAN Z     1.401093      0.174490  KCAL/ANGSTROM
      6          4  H    CARTESIAN X    -1.577881     -0.309986  KCAL/ANGSTROM
      7          4  H    CARTESIAN Y    -1.533002     -0.190231  KCAL/ANGSTROM
      8          4  H    CARTESIAN Z     0.136881     -0.025179  KCAL/ANGSTROM
      9          5  N    CARTESIAN X    -1.520635      0.058558  KCAL/ANGSTROM
     10          5  N    CARTESIAN Y     0.465606      2.395931  KCAL/ANGSTROM
     11          5  N    CARTESIAN Z    -0.485793     -0.279732  KCAL/ANGSTROM
     12          6  O    CARTESIAN X    -1.314137     -0.553279  KCAL/ANGSTROM
     13          6  O    CARTESIAN Y     1.671241     -1.594883  KCAL/ANGSTROM
     14          6  O    CARTESIAN Z    -0.175082     -0.265241  KCAL/ANGSTROM
     15          7  O    CARTESIAN X    -1.883502     -0.144938  KCAL/ANGSTROM
     16          7  O    CARTESIAN Y     0.240337      0.045231  KCAL/ANGSTROM
     17          7  O    CARTESIAN Z    -1.675416      0.049685  KCAL/ANGSTROM
     18          8  C    CARTESIAN X     3.784535      1.052276  KCAL/ANGSTROM
     19          8  C    CARTESIAN Y     0.060904     -1.442915  KCAL/ANGSTROM
     20          8  C    CARTESIAN Z    -1.975291     -1.722125  KCAL/ANGSTROM
     21          9  O    CARTESIAN X     2.968139     -0.528044  KCAL/ANGSTROM
     22          9  O    CARTESIAN Y     0.642027      1.308957  KCAL/ANGSTROM
     23          9  O    CARTESIAN Z    -1.083428      0.707270  KCAL/ANGSTROM
     24         10  O    CARTESIAN X     3.655869      0.176134  KCAL/ANGSTROM
     25         10  O    CARTESIAN Y    -1.117213      0.378317  KCAL/ANGSTROM
     26         10  O    CARTESIAN Z    -2.247534      0.132744  KCAL/ANGSTROM
     27         11  C    CARTESIAN X     4.783374     -0.806498  KCAL/ANGSTROM
     28         11  C    CARTESIAN Y     1.002932     -1.012471  KCAL/ANGSTROM
     29         11  C    CARTESIAN Z    -2.518629     -0.758425  KCAL/ANGSTROM
     30         12  H    CARTESIAN X     4.870743     -0.348514  KCAL/ANGSTROM
     31         12  H    CARTESIAN Y     0.922749      0.011936  KCAL/ANGSTROM
     32         12  H    CARTESIAN Z    -3.613340      1.475489  KCAL/ANGSTROM
     33         13  H    CARTESIAN X     5.788198      0.014957  KCAL/ANGSTROM
     34         13  H    CARTESIAN Y     0.791394     -0.212371  KCAL/ANGSTROM
     35         13  H    CARTESIAN Z    -2.106735      0.506250  KCAL/ANGSTROM
     36         14  H    CARTESIAN X     4.558970     -0.491929  KCAL/ANGSTROM
     37         14  H    CARTESIAN Y     2.057206     -0.063622  KCAL/ANGSTROM
     38         14  H    CARTESIAN Z    -2.278769      0.486990  KCAL/ANGSTROM
     39         15  H    CARTESIAN X     2.312585     -1.483982  KCAL/ANGSTROM
     40         15  H    CARTESIAN Y    -0.030737     -1.455843  KCAL/ANGSTROM
     41         15  H    CARTESIAN Z    -0.637255      0.630300  KCAL/ANGSTROM
     42         17  H    CARTESIAN X     1.797446     -1.415953  KCAL/ANGSTROM
     43         17  H    CARTESIAN Y    -1.927891      0.403625  KCAL/ANGSTROM
     44         17  H    CARTESIAN Z    -0.756849      0.310429  KCAL/ANGSTROM




   ATOM   CHEMICAL          X               Y               Z
  NUMBER   SYMBOL      (ANGSTROMS)     (ANGSTROMS)     (ANGSTROMS)

     1       C         -1.35547505     -0.51118033      0.38378888   
     2       H          0.61519365     -1.18922151  *  -0.08252648  *
     3       H         -1.06953293  *  -0.32147942  *   1.40109324  *
     4       H         -1.57788098  *  -1.53300205  *   0.13688108  *
     5       N         -1.52063472  *   0.46560580  *  -0.48579338  *
     6       O         -1.31413674  *   1.67124075  *  -0.17508151  *
     7       O         -1.88350249  *   0.24033662  *  -1.67541602  *
     8       C          3.78453533  *   0.06090367  *  -1.97529142  *
     9       O          2.96813947  *   0.64202673  *  -1.08342817  *
    10       O          3.65586863  *  -1.11721329  *  -2.24753358  *
    11       C          4.78337429  *   1.00293223  *  -2.51862945  *
    12       H          4.87074305  *   0.92274888  *  -3.61334043  *
    13       H          5.78819751  *   0.79139412  *  -2.10673491  *
    14       H          4.55897032  *   2.05720618  *  -2.27876929  *
    15       H          2.31258546  *  -0.03073711  *  -0.63725533  *
    16       O          1.60475706     -1.28756359     -0.04914615   
    17       H          1.79744610  *  -1.92789065  *  -0.75684922  *

                             CARTESIAN COORDINATES

   1    C       -1.355475050    -0.511180330     0.383788880
   2    H        0.615193650    -1.189221510    -0.082526480
   3    H       -1.069532930    -0.321479420     1.401093240
   4    H       -1.577880980    -1.533002050     0.136881080
   5    N       -1.520634720     0.465605800    -0.485793380
   6    O       -1.314136740     1.671240750    -0.175081510
   7    O       -1.883502490     0.240336620    -1.675416020
   8    C        3.784535330     0.060903670    -1.975291420
   9    O        2.968139470     0.642026730    -1.083428170
  10    O        3.655868630    -1.117213290    -2.247533580
  11    C        4.783374290     1.002932230    -2.518629450
  12    H        4.870743050     0.922748880    -3.613340430
  13    H        5.788197510     0.791394120    -2.106734910
  14    H        4.558970320     2.057206180    -2.278769290
  15    H        2.312585460    -0.030737110    -0.637255330
  16    O        1.604757060    -1.287563590    -0.049146150
  17    H        1.797446100    -1.927890650    -0.756849220


           Empirical Formula: C3 H8 N O5  =    17 atoms



      MOLECULAR POINT GROUP   :   C1  


                  EIGENVALUES  
 -35.80941 -31.46671 -29.87138 -29.26309 -27.94167 -26.63187 -26.15934 -20.87680
 -20.70219 -17.98565 -17.69288 -17.42604 -16.94895 -16.30443 -16.16310 -15.98723
 -15.00296 -14.14075 -13.68042 -13.55680 -13.49831 -12.44631 -12.30909 -11.57478
 -11.04683 -10.89771 -10.72346  -9.24444   0.84771   1.21396   2.09113   2.20977
   3.45004   3.79310   4.54272   4.90785   5.19655   5.32257   5.88258   6.03107
   6.07986   6.50426   6.56034   6.81056


              NET ATOMIC CHARGES AND DIPOLE CONTRIBUTIONS

  ATOM NO.   TYPE          CHARGE      No. of ELECS.   s-Pop       p-Pop       
    1          C          -0.635125        4.6351     1.06973     3.56539
    2          H           0.380727        0.6193     0.61927
    3          H           0.185946        0.8141     0.81405
    4          H           0.186732        0.8133     0.81327
    5          N           0.742764        4.2572     1.40542     2.85181
    6          O          -0.729983        6.7300     1.94521     4.78477
    7          O          -0.732887        6.7329     1.94577     4.78711
    8          C           0.749295        3.2507     1.10178     2.14892
    9          O          -0.621597        6.6216     1.84735     4.77425
   10          O          -0.659956        6.6600     1.87618     4.78377
   11          C          -0.540608        4.5406     1.06078     3.47983
   12          H           0.200487        0.7995     0.79951
   13          H           0.202750        0.7972     0.79725
   14          H           0.202867        0.7971     0.79713
   15          H           0.405302        0.5947     0.59470
   16          O          -0.719866        6.7199     1.82120     4.89867
   17          H           0.383155        0.6168     0.61685
 DIPOLE           X         Y         Z       TOTAL
 POINT-CHG.    12.161    -3.077    -0.737    12.566
 HYBRID        -0.607    -0.070    -0.292     0.677
 SUM           11.554    -3.147    -1.029    12.019


          ATOMIC ORBITAL ELECTRON POPULATIONS

     Atom    s        px        py        pz   
    1  C   1.06973   1.44297   1.03425   1.08818
    2  H   0.61927
    3  H   0.81405
    4  H   0.81327
    5  N   1.40542   0.94548   0.95582   0.95051
    6  O   1.94521   1.76934   1.14458   1.87085
    7  O   1.94577   1.72281   1.91137   1.15293
    8  C   1.10178   0.71655   0.76873   0.66365
    9  O   1.84735   1.58826   1.57883   1.60716
   10  O   1.87618   1.76166   1.32375   1.69836
   11  C   1.06078   1.13113   1.15307   1.19563
   12  H   0.79951
   13  H   0.79725
   14  H   0.79713
   15  H   0.59470
   16  O   1.82120   1.47219   1.73383   1.69265
   17  H   0.61685

          BONDING CONTRIBUTION OF EACH M.O.

  1.4323  1.3287  1.0367  1.0134  0.9326  1.7855  1.2143  1.0677  1.4982  1.5099
  1.1693  1.1118  1.6197  1.2100  1.5178  1.2203  0.8585  1.2358  1.4400  1.5099
  1.8634  0.3890  0.5571  0.5940  0.4356  0.4063  0.2376  0.8932 -1.7998 -2.5142
 -2.0951 -2.1584 -1.9471 -1.8233 -1.8608 -1.9183 -1.9223 -1.9057 -1.7781 -1.8314
 -1.7673 -1.8671 -1.9619 -1.9376





            (VALENCIES)   BOND ORDERS

     1  C     (3.677)     5  N 1.444     3  H 0.951     4  H 0.949     6  O 0.154     7  O 0.153     2  H 0.019

     2  H     (0.855)    16  O 0.826     1  C 0.019

     3  H     (0.965)     1  C 0.951     7  O 0.010

     4  H     (0.965)     1  C 0.949     6  O 0.010

     5  N     (3.821)     1  C 1.444     6  O 1.187     7  O 1.182

     6  O     (1.500)     5  N 1.187     1  C 0.154     7  O 0.146     4  H 0.010

     7  O     (1.494)     5  N 1.182     1  C 0.153     6  O 0.146     3  H 0.010

     8  C     (3.702)    10  O 1.635     9  O 1.049    11  C 0.991    13  H 0.011

     9  O     (1.986)     8  C 1.049    15  H 0.718    10  O 0.144    16  O 0.035    11  C 0.025

    10  O     (1.850)     8  C 1.635     9  O 0.144    11  C 0.046

    11  C     (3.888)     8  C 0.991    14  H 0.944    12  H 0.938    13  H 0.930    10  O 0.046     9  O 0.025
                         15  H 0.013

    12  H     (0.960)    11  C 0.938

    13  H     (0.959)    11  C 0.930     8  C 0.011

    14  H     (0.959)    11  C 0.944

    15  H     (0.836)     9  O 0.718    16  O 0.093    11  C 0.013

    16  O     (1.818)    17  H 0.847     2  H 0.826    15  H 0.093     9  O 0.035

    17  H     (0.853)    16  O 0.847


 **********************
 *                    *
 * JOB ENDED NORMALLY *
 *                    *
 **********************



 TOTAL JOB TIME:             0.18 SECONDS

 == MOPAC DONE ==
