 *******************************************************************************
 **                                                                           **
 **                              MOPAC v22.0.6                                **
 **                                                                           **
 *******************************************************************************
 **          Digital Object Identifier (DOI): 10.5281/zenodo.6511958          **
 **    Visit the DOI location for information on how to cite this program.    **
 *******************************************************************************

                              PM7 CALCULATION RESULTS

 *******************************************************************************
 *  CALCULATION DONE:                                Sat Mar 23 14:13:38 2024  *
 *  PM7        - The PM7 Hamiltonian to be used
 *  SINGLET    - SPIN STATE DEFINED AS A SINGLET
 *
 *
 *
 *                 CHARGE ON SYSTEM = -1
 *
 *
 *
 *  EPS=78.4   - USE ANDREAS KLAMT'S COSMO IMPLICIT SOLVATION MODEL
 *  LET        - OVERRIDE SOME SAFETY CHECKS
 *  T=         - A TIME OF 14.0 DAYS REQUESTED
 *  DUMP=N     - RESTART FILE WRITTEN EVERY 30.0 MINUTES REQUESTED
 *  RELSCF     - DEFAULT SCF CRITERION MULTIPLIED BY 1.0000
 *              (DEFAULT SCF CRITERION = 0.00010)
 *  ITRY=      - DO A MAXIMUM OF 15000 ITERATIONS FOR SCF
 *  AUX        - OUTPUT AUXILIARY INFORMATION
 *  ISOTOPE    - SAVE THE FORCE MATRIX FOR USE LATER
 *  BONDS      - FINAL BOND-ORDER MATRIX TO BE PRINTED
 *  LARGE      - EXPANDED OUTPUT TO BE PRINTED
 *  THERMO     - THERMODYNAMIC QUANTITIES TO BE CALCULATED
 *******************************************************************************
PM7 AUX LARGE THERMO(298,298) LET ISOTOPE BONDS DUMP=30M ITRY=15000 T=14D CHARGE=-1 SINGLET eps=78.4 RELSCF=1
 Title: ASE calculation

   ATOM   CHEMICAL          X               Y               Z
  NUMBER   SYMBOL      (ANGSTROMS)     (ANGSTROMS)     (ANGSTROMS)

     1       C         -1.35547505  *  -0.51118033  *   0.38378888  *
     2       D          0.61519365  *  -1.18922151  *  -0.08252648  *
     3       H         -1.06953293  *  -0.32147942  *   1.40109324  *
     4       H         -1.57788098  *  -1.53300205  *   0.13688108  *
     5       N         -1.52063472  *   0.46560580  *  -0.48579338  *
     6       O         -1.31413674  *   1.67124075  *  -0.17508151  *
     7       O         -1.88350249  *   0.24033662  *  -1.67541602  *
     8       C          3.78453533  *   0.06090367  *  -1.97529142  *
     9       O          2.96813947  *   0.64202673  *  -1.08342817  *
    10       O          3.65586863  *  -1.11721329  *  -2.24753358  *
    11       C          4.78337429  *   1.00293223  *  -2.51862945  *
    12       H          4.87074305  *   0.92274888  *  -3.61334043  *
    13       H          5.78819751  *   0.79139412  *  -2.10673491  *
    14       H          4.55897032  *   2.05720618  *  -2.27876929  *
    15       H          2.31258546  *  -0.03073711  *  -0.63725533  *
    16       O          1.60475706  *  -1.28756359  *  -0.04914615  *
    17       H          1.79744610  *  -1.92789065  *  -0.75684922  *


                                Isotopes Used

              Atom:    2  H  Default mass  1.0079,  mass used:  2.0140 amu


          CARTESIAN COORDINATES 

    NO.       ATOM           X           Y           Z

     1         C         -1.3555     -0.5112      0.3838
     2         H          0.6152     -1.1892     -0.0825
     3         H         -1.0695     -0.3215      1.4011
     4         H         -1.5779     -1.5330      0.1369
     5         N         -1.5206      0.4656     -0.4858
     6         O         -1.3141      1.6712     -0.1751
     7         O         -1.8835      0.2403     -1.6754
     8         C          3.7845      0.0609     -1.9753
     9         O          2.9681      0.6420     -1.0834
    10         O          3.6559     -1.1172     -2.2475
    11         C          4.7834      1.0029     -2.5186
    12         H          4.8707      0.9227     -3.6133
    13         H          5.7882      0.7914     -2.1067
    14         H          4.5590      2.0572     -2.2788
    15         H          2.3126     -0.0307     -0.6373
    16         O          1.6048     -1.2876     -0.0491
    17         H          1.7974     -1.9279     -0.7568

 General Reference for PM7:
 "Optimization of Parameters for Semiempirical Methods VI: More Modifications to the 
 NDDO Approximations and Re-optimization of Parameters", J. J. P. Stewart, J. Mol. Mod., 1:32, 19 (2013)
 https://link.springer.com/article/10.1007/s00894-012-1667-x

           Empirical Formula: C3 H8 N O5  =    17 atoms



      MOLECULAR POINT GROUP   :   C1  


 SINGLET STATE CALCULATION


      RHF CALCULATION, NO. OF DOUBLY OCCUPIED LEVELS = 28

  SCF CRITERION =    0.1000E-03


          HEAT OF FORMATION =    -301.879239 KCALS/MOLE


          CARTESIAN COORDINATE DERIVATIVES

   NUMBER  ATOM         X            Y            Z

     1       C      2.231543     0.872106    -0.688664
     2       H     -9.259695    -3.199886     3.966636
     3       H     -0.286205     0.118602     0.074788
     4       H     -0.273027    -0.117944     0.246729
     5       N     -0.654007    -0.003025    -2.287873
     6       O     -0.119253    -0.862632     1.484912
     7       O     -0.019192     0.320336     0.023360
     8       C      1.848788    -1.660534     0.619240
     9       O     -1.132587     0.730508    -0.925901
    10       O     -0.052672     0.351968    -0.384105
    11       C     -0.182795    -1.119175     1.039179
    12       H     -0.633229     1.301921     0.438161
    13       H     -0.048123     0.430340     0.336006
    14       H     -0.542252     0.319264     0.287608
    15       H     -1.027491    -0.086123     1.905036
    16       O     11.595939     2.645469    -6.128495
    17       H     -1.445497    -0.040848    -0.006557

 DIPOLE           X         Y         Z       TOTAL
 POINT-CHG.     0.523     4.858     7.178     8.683
 HYBRID        -0.474    -0.459     0.152     0.677
 SUM            0.050     4.399     7.331     8.549


          GRADIENT NORM =  18.10126



 ** GRADIENT IS VERY LARGE, BUT SINCE "LET" IS USED, CALCULATION WILL CONTINUE


                              **** WARNING ****

           GRADIENT IS VERY LARGE FOR A THERMO CALCULATION
           RESULTS ARE LIKELY TO BE INACCURATE IF THERE ARE
           ANY LOW-LYING VIBRATIONS (LESS THAN ABOUT 400CM-1)
           GRADIENT NORM SHOULD BE LESS THAN ABOUT 1.0 FOR THERMO
           TO GIVE ACCURATE RESULTS


          TIME FOR SCF CALCULATION =    0.04

          TIME FOR DERIVATIVES     =    0.02

          MOLECULAR WEIGHT =  139.11



          ROTATIONAL CONSTANTS IN CM(-1)

          A =    0.08289528   B =    0.01663417   C =    0.01548784



           PRINCIPAL MOMENTS OF INERTIA IN UNITS OF 10**(-40)*GRAM-CM**2

          A =      337.6881   B =     1682.8467   C =     1807.4014


          ORIENTATION OF MOLECULE IN FORCE CALCULATION

    NO.       ATOM         X         Y         Z

     1          C      -2.4617    0.5473    1.5876
     2          H      -0.3261    0.5473    1.5876
     3          H      -2.4802    1.6208    1.5876
     4          H      -2.2886    0.0765    2.5378
     5          N      -2.7344   -0.1529    0.5045
     6          O      -2.9944    0.4052   -0.5971
     7          O      -2.7379   -1.4168    0.5152
     8          C       2.6149   -0.1306   -0.8784
     9          O       1.4823    0.5803   -0.9854
    10          O       2.9296   -0.6256    0.1867
    11          C       3.3561   -0.2002   -2.1536
    12          H       3.7012   -1.2226   -2.3728
    13          H       4.2606    0.4360   -2.1178
    14          H       2.7619    0.1434   -3.0186
    15          H       0.9935    0.7012   -0.0755
    16          O       0.6110    0.8413    1.4280
    17          H       1.1466    0.1180    1.7994


    FIRST DERIVATIVES WILL BE USED IN THE CALCULATION OF SECOND DERIVATIVES

          ESTIMATED TIME TO COMPLETE CALCULATION =        6.77 SECONDS

    FOR POINT-GROUP C1   THERE ARE   1 UNIQUE SYMMETRY FUNCTIONS.

 STEP:   1 TIME =     0.04 SECS, INTEGRAL =      0.04 TIME LEFT:1209599.90
 STEP:   2 TIME =     0.02 SECS, INTEGRAL =      0.05 TIME LEFT:1209599.88
 STEP:   3 TIME =     0.02 SECS, INTEGRAL =      0.07 TIME LEFT:1209599.86
 STEP:   4 TIME =     0.02 SECS, INTEGRAL =      0.09 TIME LEFT:1209599.84
 STEP:   5 TIME =     0.02 SECS, INTEGRAL =      0.11 TIME LEFT:1209599.82
 STEP:   6 TIME =     0.02 SECS, INTEGRAL =      0.13 TIME LEFT:1209599.80
 STEP:   7 TIME =     0.02 SECS, INTEGRAL =      0.15 TIME LEFT:1209599.78
 STEP:   8 TIME =     0.02 SECS, INTEGRAL =      0.17 TIME LEFT:1209599.76
 STEP:   9 TIME =     0.02 SECS, INTEGRAL =      0.19 TIME LEFT:1209599.74
 STEP:  10 TIME =     0.02 SECS, INTEGRAL =      0.21 TIME LEFT:1209599.72
 STEP:  11 TIME =     0.02 SECS, INTEGRAL =      0.23 TIME LEFT:1209599.70
 STEP:  12 TIME =     0.02 SECS, INTEGRAL =      0.25 TIME LEFT:1209599.68
 STEP:  13 TIME =     0.02 SECS, INTEGRAL =      0.27 TIME LEFT:1209599.66
 STEP:  14 TIME =     0.02 SECS, INTEGRAL =      0.29 TIME LEFT:1209599.64
 STEP:  15 TIME =     0.02 SECS, INTEGRAL =      0.31 TIME LEFT:1209599.62
 STEP:  16 TIME =     0.02 SECS, INTEGRAL =      0.33 TIME LEFT:1209599.61
 STEP:  17 TIME =     0.02 SECS, INTEGRAL =      0.35 TIME LEFT:1209599.59
 STEP:  18 TIME =     0.02 SECS, INTEGRAL =      0.37 TIME LEFT:1209599.57
 STEP:  19 TIME =     0.02 SECS, INTEGRAL =      0.39 TIME LEFT:1209599.55
 STEP:  20 TIME =     0.02 SECS, INTEGRAL =      0.41 TIME LEFT:1209599.53
 STEP:  21 TIME =     0.02 SECS, INTEGRAL =      0.43 TIME LEFT:1209599.51
 STEP:  22 TIME =     0.02 SECS, INTEGRAL =      0.45 TIME LEFT:1209599.49
 STEP:  23 TIME =     0.02 SECS, INTEGRAL =      0.46 TIME LEFT:1209599.47
 STEP:  24 TIME =     0.02 SECS, INTEGRAL =      0.48 TIME LEFT:1209599.45
 STEP:  25 TIME =     0.02 SECS, INTEGRAL =      0.50 TIME LEFT:1209599.43
 STEP:  26 TIME =     0.02 SECS, INTEGRAL =      0.53 TIME LEFT:1209599.41
 STEP:  27 TIME =     0.02 SECS, INTEGRAL =      0.55 TIME LEFT:1209599.39
 STEP:  28 TIME =     0.02 SECS, INTEGRAL =      0.57 TIME LEFT:1209599.37
 STEP:  29 TIME =     0.02 SECS, INTEGRAL =      0.59 TIME LEFT:1209599.35
 STEP:  30 TIME =     0.02 SECS, INTEGRAL =      0.61 TIME LEFT:1209599.33
 STEP:  31 TIME =     0.04 SECS, INTEGRAL =      0.64 TIME LEFT:1209599.29
 STEP:  32 TIME =     0.04 SECS, INTEGRAL =      0.68 TIME LEFT:1209599.26
 STEP:  33 TIME =     0.03 SECS, INTEGRAL =      0.70 TIME LEFT:1209599.23
 STEP:  34 TIME =     0.02 SECS, INTEGRAL =      0.73 TIME LEFT:1209599.21
 STEP:  35 TIME =     0.02 SECS, INTEGRAL =      0.75 TIME LEFT:1209599.19
 STEP:  36 TIME =     0.02 SECS, INTEGRAL =      0.77 TIME LEFT:1209599.17
 STEP:  37 TIME =     0.02 SECS, INTEGRAL =      0.79 TIME LEFT:1209599.15
 STEP:  38 TIME =     0.02 SECS, INTEGRAL =      0.80 TIME LEFT:1209599.13
 STEP:  39 TIME =     0.02 SECS, INTEGRAL =      0.82 TIME LEFT:1209599.11
 STEP:  40 TIME =     0.02 SECS, INTEGRAL =      0.84 TIME LEFT:1209599.09
 STEP:  41 TIME =     0.02 SECS, INTEGRAL =      0.87 TIME LEFT:1209599.07
 STEP:  42 TIME =     0.02 SECS, INTEGRAL =      0.89 TIME LEFT:1209599.05
 STEP:  43 TIME =     0.02 SECS, INTEGRAL =      0.91 TIME LEFT:1209599.03
 STEP:  44 TIME =     0.02 SECS, INTEGRAL =      0.93 TIME LEFT:1209599.01
 STEP:  45 TIME =     0.02 SECS, INTEGRAL =      0.95 TIME LEFT:1209598.99
 STEP:  46 TIME =     0.02 SECS, INTEGRAL =      0.96 TIME LEFT:1209598.97
 STEP:  47 TIME =     0.02 SECS, INTEGRAL =      0.99 TIME LEFT:1209598.95
 STEP:  48 TIME =     0.02 SECS, INTEGRAL =      1.00 TIME LEFT:1209598.93
 STEP:  49 TIME =     0.02 SECS, INTEGRAL =      1.03 TIME LEFT:1209598.91
 STEP:  50 TIME =     0.02 SECS, INTEGRAL =      1.05 TIME LEFT:1209598.89
 STEP:  51 TIME =     0.02 SECS, INTEGRAL =      1.07 TIME LEFT:1209598.87

(To convert to Hartree/Bohr^2, multiply by (10^(-21) x N x a0^2)/(4.184 x 627.51) =  0.0642)


           FORCE MATRIX IN MILLIDYNES/ANGSTROM


                  C  1       H  2       H  3       H  4       N  5       O  6
 ------------------------------------------------------------------------------
     C    1  14.604814
     H    2   0.220931   3.942300
     H    3   3.417112   0.059362   4.304104
     H    4   3.418390   0.068494   0.429768   4.297284
     N    5   7.698865   0.355250   1.075269   1.068805  19.820923
     O    6   2.006117   0.131288   0.110034   0.168643   7.400022  10.083767
     O    7   1.997961   0.125537   0.169951   0.111749   7.317934   2.127762
     C    8   0.039670   0.055794   0.005637   0.007468   0.038808   0.013777
     O    9   0.053142   0.089195   0.007962   0.007772   0.043825   0.015857
     O   10   0.014788   0.019733   0.002303   0.003365   0.011330   0.005109
     C   11   0.004028   0.013503   0.001147   0.001549   0.006582   0.003098
     H   12   0.002131   0.001088   0.000507   0.000499   0.003478   0.001616
     H   13   0.002104   0.000489   0.000717   0.000535   0.002949   0.001491
     H   14   0.002501   0.002627   0.000497   0.000737   0.004212   0.002485
     H   15   0.075066   0.216946   0.010652   0.009309   0.063006   0.023024
     O   16   0.297308   3.554432   0.030037   0.026471   0.209156   0.079696
     H   17   0.064892   0.718182   0.012111   0.012564   0.073594   0.031309


                  O  7       C  8       O  9       O 10       C 11       H 12
 ------------------------------------------------------------------------------
     O    7  10.017650
     C    8   0.013388  17.630015
     O    9   0.014868   4.854907   8.838121
     O   10   0.003242  10.854936   2.105586  13.094549
     C   11   0.002868   3.701008   1.199594   1.170277  11.367262
     H   12   0.002022   0.798087   0.073629   0.060091   3.284811   4.126173
     H   13   0.001518   0.823322   0.047695   0.068093   3.230495   0.445135
     H   14   0.001827   0.789692   0.030606   0.065857   3.287322   0.435924
     H   15   0.023030   1.461348   2.698856   0.249117   0.174330   0.024201
     O   16   0.087811   0.325169   0.788514   0.094716   0.072951   0.009728
     H   17   0.034743   0.171106   0.098029   0.106316   0.032167   0.004674


                  H 13       H 14       H 15       O 16       H 17
 ------------------------------------------------------------------
     H   13   4.078602
     H   14   0.438228   4.125150
     H   15   0.020629   0.026073   3.176092
     O   16   0.007788   0.012431   0.467943   6.244800
     H   17   0.005763   0.004296   0.233652   3.864978   4.238316


          HEAT OF FORMATION =    -301.879239 KCALS/MOLE


          TRIVIAL VIBRATIONS, SHOULD BE ZERO

  24.6631=TX  -6.3007=TY   8.1043=TZ -17.1026=RX  46.0034=RY  44.6151=RZ


      MOLECULAR POINT GROUP   :   C1  


           EIGENVECTORS  


   Root No.       1         2         3         4         5         6         7         8

                 1 A       2 A       3 A       4 A       5 A       6 A       7 A       8 A   

                  -0.1      -0.0      -0.0      -0.0      -0.0       0.0       0.0       0.0
  
           1   -0.0464    0.0372   -0.0002   -0.0205    0.0518   -0.1549    0.1473    0.0203
           2    0.0031    0.0371    0.0605    0.1658   -0.1226    0.0595    0.0038   -0.0521
           3    0.0023   -0.0593   -0.0387   -0.1495   -0.1205    0.0897   -0.1199    0.0042
           4   -0.0101    0.1136    0.0586   -0.0262    0.0824   -0.0912    0.0888    0.0278
           5   -0.0360    0.2632    0.1155   -0.1218    0.3166    0.1510   -0.1628    0.2216
           6    0.0857    0.4794    0.3653    0.0258    0.2619    0.0127    0.0539    0.0027
           7   -0.0040   -0.1780    0.1710   -0.1174   -0.0192   -0.3260    0.3767    0.2034
           8    0.0045    0.0315    0.0622    0.1630   -0.1239    0.0571    0.0073   -0.0481
           9    0.0696   -0.0185   -0.1842   -0.3268   -0.0283    0.1489   -0.1609   -0.0316
          10   -0.0791    0.3180   -0.3019    0.1117    0.0594   -0.1669    0.1633   -0.0149
          11   -0.0633    0.0322    0.1541    0.3412   -0.1975    0.0375   -0.0006   -0.0528
          12   -0.0255   -0.1117    0.0623   -0.0846   -0.1590    0.0800   -0.1242    0.0097
          13   -0.0480   -0.0284    0.1801   -0.0569    0.1126    0.0575   -0.1319   -0.1449
          14    0.0838    0.0251   -0.0386   -0.0452   -0.0430    0.0781    0.0194   -0.0426
          15   -0.0485   -0.0330   -0.0193   -0.0039   -0.1865    0.0248   -0.0601    0.0404
          16   -0.0039   -0.4029    0.5860   -0.2346    0.0926    0.0913   -0.1673   -0.0994
          17    0.1653    0.0150   -0.1414   -0.2598    0.0382    0.1031    0.0296   -0.0390
          18   -0.0178    0.0476   -0.1677   -0.0717   -0.1410    0.0286   -0.0461    0.0318
          19   -0.0900    0.2305   -0.0702    0.0790    0.1606    0.2315   -0.3648   -0.3431
          20    0.0823    0.0241   -0.0365   -0.0428   -0.0442    0.0771    0.0205   -0.0428
          21   -0.1302   -0.0858    0.1555    0.2043   -0.2909   -0.0433   -0.0168    0.0805
          22    0.1305   -0.0801   -0.1037    0.0972   -0.0372    0.0762   -0.0305   -0.0036
          23    0.0492   -0.0260   -0.0004   -0.0329   -0.0407   -0.1443    0.0261   -0.2086
          24    0.0321   -0.0125   -0.0241    0.0129    0.0468   -0.0591    0.0430   -0.0437
          25   -0.1604   -0.1418   -0.1574    0.1006    0.0249    0.0835   -0.0259   -0.0561
          26   -0.4191   -0.1367   -0.0869   -0.0024    0.0788   -0.1144    0.0368   -0.2846
          27   -0.0097   -0.1140   -0.0415    0.1779    0.1718    0.0217    0.0654   -0.0305
          28    0.5228   -0.1259   -0.0966    0.1983    0.0153    0.0777   -0.0190   -0.0200
          29    0.4881    0.0196    0.0104   -0.1284   -0.1123   -0.2626    0.0275   -0.3290
          30    0.1141    0.0245   -0.0194   -0.0643   -0.0053   -0.1185    0.0411   -0.1023
          31   -0.0069    0.0349   -0.0622   -0.0274   -0.1672    0.0630   -0.0517    0.0824
          32    0.0049    0.0168    0.0646    0.0737   -0.0657    0.0036    0.0195    0.0598
          33   -0.0484    0.0541   -0.0021   -0.0677   -0.0302   -0.0767    0.0325   -0.0133
          34   -0.0689    0.0756   -0.0270   -0.1216   -0.2176    0.4267    0.2788    0.1238
          35   -0.0160    0.0284    0.0815    0.0756   -0.0756    0.1138    0.0929    0.1207
          36   -0.0524    0.0604   -0.0288   -0.2255   -0.0607   -0.0062    0.2169   -0.2148
          37    0.0252    0.0214   -0.0774    0.0215   -0.1460   -0.1634   -0.2592    0.0629
          38   -0.0349    0.0323    0.0848    0.0032   -0.0912    0.3326    0.3250    0.0777
          39   -0.1229    0.1482    0.0502   -0.0690   -0.1234   -0.1565   -0.1217    0.1938
          40   -0.0677    0.1059   -0.0413   -0.0818   -0.2431   -0.0812   -0.1917    0.1357
          41    0.0146    0.0257    0.0800    0.2179   -0.0534   -0.2690   -0.3303    0.2329
          42    0.0019    0.0082   -0.0103    0.0284    0.0278   -0.0864   -0.0110    0.0194
          43   -0.0743   -0.1775   -0.1566    0.1469    0.0917    0.0951   -0.0048   -0.0221
          44   -0.3176   -0.1215   -0.1033   -0.0914    0.0897   -0.1516    0.0255   -0.2351
          45    0.0180   -0.1369   -0.0412    0.2074    0.1976    0.0206    0.0834   -0.0256
          46   -0.0203    0.1271    0.0694    0.0054    0.0988   -0.0410    0.0678    0.0129
          47   -0.0403   -0.0624   -0.0995   -0.1443    0.2351   -0.0120   -0.0762    0.2520
          48    0.0141   -0.0343    0.0438    0.1736    0.1990    0.0094    0.0896   -0.0560
          49    0.0015    0.0705    0.0295   -0.0740    0.0403   -0.1780    0.1242    0.0349
          50    0.0314   -0.2045   -0.2070   -0.1712    0.2115   -0.0595   -0.0642    0.3700
          51    0.1176   -0.2163   -0.0998    0.2326    0.2407    0.1103    0.0348    0.1352


   Root No.       9        10        11        12        13        14        15        16

                 9 A      10 A      11 A      12 A      13 A      14 A      15 A      16 A   

                   0.0       0.1       0.2       0.2       0.3       0.4       0.5       0.6
  
           1   -0.1156   -0.2567    0.1001   -0.0673    0.0073    0.0103   -0.0091   -0.0358
           2   -0.0817    0.0205    0.0019   -0.0089    0.0149    0.0011   -0.0016    0.1964
           3    0.0401    0.0067   -0.0007   -0.0030   -0.0128   -0.0016    0.0010   -0.1160
           4   -0.0263    0.2381   -0.2579    0.2682   -0.0308   -0.1146   -0.0213    0.0109
           5    0.4394   -0.3774   -0.1377    0.1433   -0.0546   -0.1172   -0.0772    0.0226
           6    0.2290    0.3676    0.3691   -0.3110    0.0520    0.0794    0.0738    0.0070
           7    0.0257   -0.2624    0.2096   -0.1586   -0.5011   -0.0012    0.0190    0.1235
           8   -0.0791    0.0212    0.0047   -0.0109    0.0052    0.0007   -0.0016    0.1716
           9    0.0129    0.0009   -0.0084    0.0107    0.1224   -0.0076   -0.0046    0.4657
          10   -0.1746   -0.3206    0.1209   -0.0591    0.5727    0.0128    0.0278   -0.0999
          11   -0.0877    0.0326   -0.0133   -0.0020   -0.0175    0.0074   -0.0021   -0.3593
          12    0.0468    0.0203   -0.0083   -0.0046   -0.1301    0.0020   -0.0059   -0.3459
          13   -0.2053   -0.1414    0.0605   -0.0505   -0.0184    0.0079    0.0059   -0.0182
          14   -0.0691    0.0178    0.0152   -0.0139    0.0151   -0.0042   -0.0017    0.1585
          15    0.0562   -0.0110   -0.0007   -0.0015   -0.0052   -0.0006   -0.0010   -0.0945
          16   -0.1075   -0.0867    0.0074   -0.0026    0.3991    0.0021    0.0074   -0.0796
          17   -0.0585    0.0052    0.0237   -0.0167   -0.0052   -0.0038   -0.0034   -0.3048
          18    0.0365   -0.0357    0.0190   -0.0167   -0.1118    0.0022   -0.0031   -0.2863
          19   -0.3875   -0.0862    0.0594   -0.0693   -0.4345    0.0129    0.0057    0.0985
          20   -0.0684    0.0107    0.0146   -0.0148    0.0141   -0.0016   -0.0027    0.1358
          21    0.0814   -0.0179   -0.0090    0.0051    0.1154    0.0022   -0.0001    0.3832
          22    0.1682    0.0464   -0.0195   -0.1560    0.0142   -0.1597    0.0172   -0.0157
          23    0.0910    0.0116    0.0973    0.0659    0.0036   -0.0522   -0.2122   -0.0063
          24   -0.0370   -0.0416   -0.1440   -0.1375    0.0038   -0.1644    0.0415   -0.0050
          25    0.2312    0.1029    0.0163   -0.2112    0.0209   -0.2246    0.0324    0.0230
          26    0.1982    0.1213    0.1766   -0.0079    0.0156   -0.1387   -0.1564    0.0394
          27   -0.0009   -0.0391   -0.1268   -0.1378    0.0042    0.1127   -0.2417    0.0193
          28    0.1641   -0.0214   -0.1027   -0.1592    0.0049    0.1538    0.0213    0.0278
          29    0.0827   -0.0415    0.0588    0.1677   -0.0112    0.0907    0.1449    0.0277
          30   -0.0376   -0.0517   -0.1392   -0.0865   -0.0010   -0.1770    0.1862    0.0014
          31    0.1018    0.0465    0.0721   -0.0087    0.0093   -0.0607   -0.0138   -0.0189
          32   -0.0311   -0.0228   -0.0056    0.0044    0.0010   -0.0472   -0.1388   -0.0176
          33   -0.0681   -0.0412   -0.0873   -0.0412    0.0001   -0.1061    0.0228   -0.0059
          34    0.0227    0.0340    0.0474    0.0229    0.0029    0.0813    0.1541   -0.0037
          35   -0.0724   -0.0327   -0.0527   -0.0202   -0.0017   -0.0277    0.0243   -0.0031
          36   -0.0128   -0.0187    0.0528    0.0960    0.0011   -0.0207   -0.3965   -0.0393
          37    0.1484    0.0562    0.1218    0.0116    0.0129   -0.0669   -0.1270   -0.0409
          38   -0.0928   -0.0360   -0.0747   -0.0223   -0.0043   -0.0277    0.0235    0.0111
          39   -0.1663   -0.0642   -0.0678    0.1086   -0.0145    0.2822    0.2322    0.0875
          40    0.0807    0.0524    0.2042    0.1874    0.0025    0.2932   -0.1754    0.0011
          41   -0.0556   -0.0368   -0.0655   -0.0378   -0.0009   -0.0973    0.0011   -0.0258
          42   -0.0633   -0.0509   -0.1949   -0.1831    0.0038   -0.3442    0.1727   -0.0213
          43    0.1988    0.0551   -0.0782    0.0108   -0.0097    0.2146    0.1739    0.0077
          44    0.1564    0.0452   -0.0722    0.0183   -0.0118    0.2385    0.4771   -0.0053
          45   -0.0244   -0.0785   -0.1581   -0.0100   -0.0108    0.3535   -0.3870    0.0435
          46    0.0717    0.0607   -0.3081    0.3954   -0.0553   -0.1521   -0.0379    0.0143
          47    0.0027   -0.0220   -0.1326   -0.0680   -0.0041    0.1817   -0.0233   -0.0497
          48    0.0234    0.0412    0.0361    0.1922   -0.0075    0.2744    0.1689   -0.1131
          49   -0.1964    0.4831   -0.2533    0.0461    0.0031   -0.0092   -0.0804    0.0058
          50   -0.2739    0.2831    0.1615   -0.1762    0.0417   -0.0026   -0.0499    0.0088
          51   -0.1159    0.0138    0.4681    0.5202   -0.0093   -0.2864    0.1408    0.0198


   Root No.      17        18        19        20        21        22        23        24

                17 A      18 A      19 A      20 A      21 A      22 A      23 A      24 A   

                   0.6       0.8       0.9       1.0       1.2       1.3       1.3       1.4
  
           1   -0.0145   -0.0109   -0.0049    0.0065    0.0018   -0.0393   -0.1994    0.7125
           2    0.0402   -0.0023    0.0027   -0.0005   -0.0013   -0.0899    0.0015    0.0009
           3   -0.0230    0.0034    0.0011   -0.0008   -0.0017   -0.1340    0.0447   -0.1547
           4   -0.0365    0.0251    0.0062    0.0332   -0.0110    0.0030   -0.0191   -0.0519
           5   -0.0936   -0.0055   -0.0081   -0.0001    0.0158    0.0046   -0.0113   -0.0215
           6   -0.0573    0.0602   -0.1089   -0.0153   -0.0293    0.0052    0.0171    0.0242
           7    0.0358    0.0023    0.0120   -0.0052    0.0038    0.1371    0.0888   -0.3084
           8    0.0345   -0.0016    0.0018   -0.0009   -0.0017   -0.1275    0.0083   -0.0224
           9    0.0846   -0.0054    0.0052    0.0008    0.0072    0.5941   -0.0301    0.0836
          10   -0.0080    0.0062    0.0088   -0.0044    0.0036    0.0454    0.0927   -0.3158
          11   -0.0640    0.0023    0.0005    0.0014    0.0088    0.6031   -0.0104    0.0200
          12   -0.0694    0.0020   -0.0024    0.0019    0.0027    0.1459   -0.0142    0.0435
          13   -0.0059    0.0028   -0.0064    0.0020   -0.0023   -0.0406   -0.0799    0.3137
          14    0.0293   -0.0013   -0.0005   -0.0016   -0.0028   -0.0901    0.0008   -0.0002
          15   -0.0186    0.0014    0.0034    0.0014   -0.0000   -0.1379    0.0206   -0.0728
          16   -0.0182    0.0040    0.0007   -0.0018    0.0010   -0.0417    0.0520   -0.1846
          17   -0.0591   -0.0006   -0.0044   -0.0031   -0.0054   -0.1974    0.0027   -0.0044
          18   -0.0557    0.0008   -0.0012    0.0012   -0.0024   -0.2061   -0.0125    0.0529
          19    0.0320   -0.0012    0.0105   -0.0002    0.0024   -0.0577    0.0584   -0.2060
          20    0.0270   -0.0032    0.0009   -0.0017   -0.0026   -0.1033   -0.0024    0.0121
          21    0.0717   -0.0012    0.0043    0.0033   -0.0011   -0.2666   -0.0120    0.0554
          22    0.0691    0.0472    0.1151   -0.0593   -0.0895    0.0012    0.0436    0.0187
          23    0.0273   -0.0985    0.0180    0.0524   -0.1644    0.0032    0.0469    0.0098
          24    0.0206    0.0476    0.0608   -0.0470   -0.0580   -0.0009   -0.2006   -0.0595
          25   -0.1473    0.0066    0.2384   -0.0576    0.1319   -0.0028    0.0365    0.0213
          26   -0.2387   -0.2321    0.2441    0.0440    0.2086   -0.0036    0.0354    0.0089
          27   -0.0989   -0.0716    0.0386    0.0521    0.0347   -0.0026   -0.2454   -0.0878
          28   -0.1386    0.2471    0.2180    0.4166    0.0773   -0.0033   -0.1042   -0.0236
          29   -0.1403   -0.2236   -0.0591   -0.2038    0.1352    0.0003    0.0957    0.0264
          30   -0.0125   -0.0810   -0.0221   -0.3278    0.0351   -0.0010   -0.1461   -0.0428
          31    0.0934   -0.0115   -0.0066   -0.1138   -0.1842    0.0017    0.0264    0.0222
          32    0.0906    0.0338   -0.0048    0.1028   -0.3021    0.0043    0.0498    0.0079
          33    0.0299    0.0104   -0.0022   -0.0793   -0.0888    0.0001   -0.1148   -0.0324
          34    0.0221   -0.3855   -0.2723    0.2245    0.3838   -0.0052   -0.0990   -0.0308
          35    0.0113   -0.1822   -0.0765    0.1511   -0.2131    0.0022   -0.0926   -0.0383
          36    0.2307    0.4162   -0.0866    0.2678    0.1786    0.0014    0.2968    0.0750
          37    0.2050   -0.2228   -0.1547    0.1769   -0.3786    0.0046    0.0361    0.0109
          38   -0.0543    0.3254    0.2058   -0.3351   -0.1085    0.0013    0.0605    0.0335
          39   -0.4612   -0.0416    0.2943    0.2287   -0.1021    0.0045    0.3247    0.0837
          40    0.0046    0.2026    0.1069   -0.3428    0.1052   -0.0054   -0.3863   -0.1028
          41    0.1387    0.1794   -0.1938    0.0078    0.5487   -0.0070    0.0703    0.0212
          42    0.1029   -0.0671   -0.1454    0.0367    0.0290    0.0001    0.1188    0.0441
          43   -0.0096    0.1030   -0.2948   -0.3064   -0.0629    0.0064    0.5114    0.1360
          44    0.0635    0.3223   -0.2611    0.2243   -0.1441   -0.0004   -0.3176   -0.0804
          45   -0.1968   -0.1568   -0.3553   -0.1454   -0.0505    0.0020   -0.0376   -0.0295
          46   -0.0523    0.0133    0.0064    0.0319   -0.0036   -0.0002   -0.0387   -0.0088
          47    0.2565   -0.1255    0.1840   -0.0229    0.0327    0.0007    0.0459    0.0096
          48    0.5717   -0.2173    0.4054   -0.0251    0.0796   -0.0033    0.0599    0.0333
          49   -0.0308   -0.0284    0.0167   -0.0003    0.0214   -0.0032   -0.0191   -0.0026
          50   -0.0688    0.0131   -0.0494   -0.0140   -0.0037   -0.0004    0.0165    0.0168
          51   -0.1186    0.1000   -0.0890    0.0469   -0.0329   -0.0008   -0.0693   -0.0161


   Root No.      25        26        27        28        29        30        31        32

                25 A      26 A      27 A      28 A      29 A      30 A      31 A      32 A   

                   2.0       2.0       3.0       3.1       3.3       3.6       3.8       5.7
  
           1    0.0044   -0.0128    0.0403   -0.0045   -0.0465   -0.0125   -0.4326   -0.0166
           2   -0.0003   -0.0002   -0.1736   -0.0011   -0.1343   -0.0021   -0.0128   -0.0023
           3    0.0002    0.0025    0.1105   -0.0022   -0.2036   -0.0005    0.0815   -0.0015
           4   -0.4691   -0.1475   -0.0024   -0.0002   -0.0015   -0.0085    0.0275   -0.0956
           5    0.3528    0.0969    0.0014   -0.0003    0.0052    0.0042    0.0170   -0.0307
           6   -0.1401   -0.0429   -0.0015    0.0040    0.0013    0.0019   -0.0285    0.0150
           7    0.0124    0.0075   -0.0355    0.0013    0.0158    0.0004    0.0616    0.0026
           8    0.0041    0.0016   -0.4176   -0.0041   -0.4544   -0.0082   -0.0241    0.0079
           9    0.0008   -0.0014   -0.1722    0.0014    0.0578   -0.0000   -0.0129    0.0007
          10    0.0122    0.0080    0.0893    0.0006   -0.0701   -0.0006    0.0672    0.0035
          11   -0.0053   -0.0005   -0.0355    0.0046    0.2472    0.0031    0.0082   -0.0024
          12    0.0016    0.0001    0.4613   -0.0065   -0.3603   -0.0053    0.0049    0.0071
          13   -0.0164   -0.0209   -0.0657    0.0128   -0.0770    0.0219    0.7846    0.0114
          14   -0.0028   -0.0014    0.3196   -0.0027   -0.0740    0.0012   -0.0050   -0.0063
          15   -0.0021    0.0010   -0.1853   -0.0034   -0.1212   -0.0079   -0.2012   -0.0122
          16    0.0069    0.0080   -0.0976   -0.0021    0.0477   -0.0077   -0.2481   -0.0049
          17   -0.0033   -0.0019   -0.0662    0.0061    0.4735    0.0086    0.0337    0.0077
          18   -0.0000   -0.0025   -0.4288    0.0051    0.1352    0.0028    0.0474   -0.0015
          19    0.0056    0.0095    0.0665   -0.0012    0.1329   -0.0068   -0.2479   -0.0032
          20   -0.0005   -0.0001    0.3723   -0.0033   -0.0590    0.0007   -0.0025   -0.0040
          21   -0.0078   -0.0036    0.2169    0.0079    0.4898    0.0086    0.0918    0.0063
          22    0.0261   -0.0971   -0.0017   -0.2292   -0.0028    0.4052   -0.0098    0.2587
          23   -0.0464    0.0970   -0.0006    0.0865   -0.0109    0.6936   -0.0194   -0.0715
          24    0.0543   -0.2027   -0.0000    0.0479   -0.0028    0.1960   -0.0066   -0.2988
          25    0.0244   -0.1655    0.0003   -0.1669    0.0050   -0.1306   -0.0061    0.3397
          26   -0.0434    0.0858    0.0008    0.1826    0.0005   -0.1731    0.0098   -0.2033
          27    0.0010   -0.0124   -0.0016   -0.1950    0.0037   -0.0442    0.0290   -0.0825
          28   -0.0232    0.0956    0.0014    0.2456   -0.0017   -0.1083    0.0027   -0.1701
          29   -0.0188    0.0295   -0.0003   -0.0789    0.0026   -0.2007    0.0089    0.1378
          30    0.0816   -0.3177   -0.0006   -0.1991    0.0039   -0.0818    0.0008   -0.1215
          31   -0.0830    0.3050   -0.0007   -0.1454    0.0026   -0.0559    0.0051    0.1455
          32    0.0666   -0.1827    0.0005   -0.0041    0.0019   -0.0933    0.0016   -0.0220
          33   -0.0117    0.0343    0.0015    0.3335   -0.0042   -0.0200   -0.0031   -0.1974
          34   -0.0099    0.0066   -0.0008   -0.0616   -0.0019    0.1468    0.0025   -0.1508
          35    0.1225   -0.3988    0.0026    0.3189   -0.0019   -0.1630   -0.0082    0.3601
          36    0.0524   -0.1650   -0.0002   -0.0578    0.0017   -0.1203    0.0002    0.1305
          37   -0.0023    0.0779   -0.0005   -0.2399    0.0081   -0.3042    0.0186   -0.3222
          38   -0.0799    0.2917   -0.0008   -0.1914    0.0043   -0.1301    0.0105   -0.2060
          39    0.0025   -0.0197   -0.0009   -0.1365    0.0003    0.1218   -0.0037    0.0396
          40    0.0004   -0.0100    0.0013    0.3117   -0.0045    0.0201   -0.0019    0.1353
          41   -0.0014   -0.0190   -0.0007   -0.1624    0.0027    0.0605   -0.0004   -0.0903
          42   -0.1404    0.4780    0.0012    0.3536   -0.0043   -0.0453   -0.0023    0.2755
          43    0.0874   -0.2058    0.0021    0.2977   -0.0029    0.0369   -0.0025   -0.2270
          44    0.0084    0.0944   -0.0015   -0.1585    0.0021    0.0136   -0.0017    0.0931
          45   -0.0808    0.1612   -0.0010   -0.1194    0.0017   -0.0025   -0.0049    0.1949
          46   -0.1506   -0.0370    0.0039   -0.0060   -0.0052   -0.0038   -0.0392    0.0381
          47   -0.4049   -0.0958    0.0003   -0.0073   -0.0055   -0.0176   -0.0113    0.1047
          48    0.1725    0.0780    0.0004   -0.0055    0.0010   -0.0119    0.0058   -0.0002
          49    0.5746    0.1785   -0.0003   -0.0128    0.0020    0.0077    0.0183    0.0557
          50    0.0527    0.0036   -0.0005    0.0154   -0.0002    0.0028   -0.0044   -0.0724
          51    0.0160    0.0129    0.0003   -0.0279    0.0000    0.0086    0.0017    0.0461


   Root No.      33        34        35        36        37        38        39        40

                33 A      34 A      35 A      36 A      37 A      38 A      39 A      40 A   

                   6.0       6.4       7.2       8.6       8.8       9.1      10.2      10.3
  
           1   -0.0192    0.0328   -0.0134   -0.0010   -0.0414    0.0007   -0.0032   -0.0896
           2   -0.1539   -0.0092    0.0043    0.0001    0.0002    0.0006   -0.0062    0.7039
           3   -0.2496   -0.0186    0.0061    0.0007    0.0168   -0.0004    0.0045   -0.4305
           4   -0.0157    0.3428   -0.4102   -0.0171   -0.3547   -0.0203    0.0083    0.0002
           5   -0.0067    0.1150   -0.1440   -0.0061   -0.1121   -0.0071    0.0041   -0.0009
           6    0.0056   -0.0599    0.0735    0.0028    0.0542    0.0034   -0.0020    0.0001
           7    0.0028   -0.0062    0.0038    0.0004    0.0064   -0.0002   -0.0001    0.0128
           8    0.4698    0.0198   -0.0040   -0.0002   -0.0030   -0.0002    0.0032   -0.3714
           9    0.0592    0.0035    0.0006    0.0000   -0.0021    0.0001   -0.0005    0.0271
          10    0.0788   -0.0032    0.0028    0.0002    0.0058   -0.0001   -0.0005    0.0553
          11   -0.1522   -0.0082    0.0021    0.0003    0.0040   -0.0000    0.0016   -0.1864
          12    0.4410    0.0201   -0.0040   -0.0004   -0.0090    0.0001   -0.0033    0.3156
          13   -0.0828   -0.0237    0.0034    0.0003    0.0198   -0.0011    0.0022    0.0040
          14   -0.1929    0.0011   -0.0073   -0.0004   -0.0068   -0.0002    0.0005   -0.0585
          15   -0.2980    0.0025   -0.0067   -0.0006   -0.0218    0.0000   -0.0021    0.0385
          16   -0.0416    0.0029    0.0009    0.0002   -0.0034    0.0004   -0.0012    0.0300
          17    0.3571    0.0152   -0.0015   -0.0004   -0.0081    0.0002   -0.0005    0.0160
          18   -0.1879   -0.0135    0.0059    0.0005    0.0141    0.0001   -0.0002    0.1158
          19    0.0561    0.0069   -0.0012   -0.0001   -0.0069    0.0003   -0.0011   -0.0161
          20   -0.3287   -0.0197    0.0082    0.0006    0.0106   -0.0001    0.0015   -0.1039
          21    0.2338    0.0059    0.0004   -0.0001    0.0015   -0.0001    0.0003   -0.0656
          22   -0.0072    0.0517   -0.0448   -0.0888    0.0109   -0.0260    0.0580    0.0016
          23    0.0026    0.0096    0.0434   -0.1128   -0.0029    0.0417    0.0329   -0.0003
          24    0.0133   -0.1796   -0.0675   -0.0190    0.0033   -0.0443   -0.2363   -0.0023
          25   -0.0038   -0.0384   -0.0455   -0.0107   -0.0054   -0.0812    0.3729    0.0027
          26    0.0073   -0.1154   -0.0653    0.0329    0.0023    0.0068   -0.2202   -0.0015
          27   -0.0208    0.5983    0.4552    0.0392    0.0109    0.1729   -0.0541   -0.0009
          28    0.0086   -0.1559   -0.0822    0.0229   -0.0058   -0.0007   -0.0829   -0.0005
          29   -0.0084    0.1366    0.0757    0.0319    0.0021    0.0281    0.1221    0.0012
          30    0.0077   -0.1390   -0.0824    0.0110    0.0073   -0.1020   -0.2570   -0.0022
          31   -0.0020   -0.0352   -0.1137    0.4598   -0.0051    0.5081   -0.3713   -0.0035
          32   -0.0005    0.0410    0.0531    0.6191   -0.0158   -0.4960    0.0834    0.0009
          33    0.0072   -0.0907   -0.0156    0.1880   -0.0335    0.3698    0.6626    0.0058
          34    0.0031   -0.0088    0.0297    0.0704   -0.0039   -0.1183    0.0590    0.0008
          35   -0.0079    0.0190   -0.0680   -0.2958    0.0133    0.3051   -0.1454   -0.0016
          36   -0.0033    0.0118   -0.0199   -0.0662    0.0049    0.0426   -0.0590   -0.0005
          37    0.0074   -0.0423    0.0464   -0.3830    0.0053   -0.0867    0.0998    0.0009
          38    0.0048   -0.0282    0.0263   -0.2824    0.0046   -0.0243    0.0594    0.0004
          39   -0.0008    0.0114   -0.0009   -0.0229    0.0020   -0.0179   -0.0233   -0.0004
          40   -0.0060    0.0886    0.0490   -0.0885    0.0080   -0.2360   -0.0589   -0.0002
          41    0.0044   -0.0573   -0.0297    0.0070   -0.0043    0.1452    0.0369   -0.0001
          42   -0.0116    0.1668    0.0768   -0.1049    0.0127   -0.3192   -0.1284   -0.0009
          43    0.0004    0.1174    0.1459    0.0157   -0.0176    0.0371   -0.0720   -0.0007
          44   -0.0017    0.0026   -0.0269   -0.0004    0.0062   -0.0047    0.0290    0.0005
          45    0.0066   -0.3104   -0.3124   -0.0216    0.0009   -0.0895    0.0701    0.0010
          46    0.0196   -0.1806    0.2453    0.0248    0.6853    0.0189    0.0052    0.0040
          47    0.0130   -0.3301    0.3997    0.0000   -0.2819    0.0126   -0.0272   -0.0024
          48   -0.0044    0.0986   -0.2542   -0.0022    0.1420   -0.0202    0.0359    0.0006
          49    0.0015   -0.1488    0.1839   -0.0057   -0.2972    0.0051   -0.0142   -0.0015
          50   -0.0061    0.2082   -0.2661    0.0066    0.3914   -0.0075    0.0248    0.0041
          51    0.0019   -0.1072    0.1451   -0.0043   -0.2043    0.0047   -0.0071   -0.0011


   Root No.      41        42        43        44        45

                41 A      42 A      43 A      44 A      45 A   

                  13.2      14.5      19.0      22.5      24.9
  
           1    0.0050   -0.1186    0.0009   -0.0936    0.0019
           2    0.0002   -0.3230   -0.0493   -0.2827    0.0015
           3    0.0021   -0.5077    0.0087   -0.4400    0.0027
           4   -0.0146    0.0111   -0.0001   -0.0247    0.0002
           5   -0.0055    0.0015   -0.0000   -0.0034   -0.0000
           6    0.0038    0.0001   -0.0001   -0.0004    0.0002
           7   -0.0001    0.0012   -0.0045   -0.0032    0.0004
           8   -0.0003    0.1243   -0.0077    0.0120   -0.0000
           9    0.0001    0.0190   -0.0202   -0.0051   -0.0001
          10   -0.0004    0.0215    0.0035   -0.0014    0.0006
          11    0.0002   -0.0386    0.0143   -0.0104    0.0003
          12   -0.0006    0.1191    0.0177    0.0085    0.0004
          13   -0.0019   -0.0259   -0.0877    0.1600   -0.0010
          14    0.0008   -0.0801    0.6738    0.4068   -0.0014
          15    0.0031   -0.1071   -0.3941    0.6627   -0.0044
          16    0.0000    0.1117    0.0874   -0.0460    0.0010
          17    0.0027   -0.2224   -0.1973    0.0703   -0.0014
          18   -0.0049    0.4687    0.3804   -0.1995    0.0022
          19    0.0010    0.0053    0.0001   -0.0055    0.0009
          20   -0.0042    0.5398   -0.4337   -0.1962    0.0002
          21    0.0006    0.0078    0.0073   -0.0260    0.0009
          22    0.6658    0.0050    0.0003   -0.0019    0.1215
          23   -0.3456   -0.0024   -0.0001   -0.0010   -0.2741
          24   -0.2144   -0.0015   -0.0015    0.0045    0.6758
          25   -0.4889   -0.0042   -0.0002    0.0020    0.0110
          26    0.3020    0.0023    0.0004   -0.0010    0.0064
          27   -0.0078    0.0009    0.0003   -0.0019   -0.0298
          28   -0.0088   -0.0002    0.0004   -0.0009   -0.1775
          29    0.0005   -0.0000   -0.0005    0.0019    0.2774
          30    0.0286    0.0004    0.0014   -0.0037   -0.5813
          31   -0.1330   -0.0008   -0.0001    0.0004    0.0166
          32    0.0384    0.0002    0.0003    0.0001    0.0026
          33    0.1864    0.0011   -0.0000   -0.0003   -0.0620
          34   -0.0081   -0.0000   -0.0001   -0.0001    0.0058
          35   -0.0012   -0.0000    0.0002    0.0000   -0.0064
          36    0.0156    0.0002    0.0001    0.0001   -0.0006
          37   -0.0075   -0.0001    0.0000    0.0000    0.0122
          38   -0.0062   -0.0000   -0.0000    0.0002    0.0034
          39    0.0118    0.0002    0.0001   -0.0001   -0.0020
          40    0.0065    0.0000   -0.0001   -0.0001    0.0050
          41   -0.0036    0.0000    0.0000   -0.0002    0.0010
          42   -0.0141   -0.0001   -0.0001    0.0000   -0.0197
          43   -0.0349    0.0007   -0.0003   -0.0016    0.0022
          44    0.0198    0.0002   -0.0004   -0.0000   -0.0065
          45    0.0266   -0.0011   -0.0001    0.0028    0.0297
          46    0.0132   -0.0080   -0.0006    0.0183   -0.0003
          47    0.0165   -0.0001    0.0052    0.0017    0.0026
          48   -0.0449   -0.0011   -0.0005    0.0008   -0.0073
          49    0.0066    0.0013    0.0009   -0.0019   -0.0004
          50   -0.0145   -0.0016   -0.0052    0.0020   -0.0055
          51    0.0077    0.0012    0.0007   -0.0024   -0.0047


          FORCE CONSTANTS IN MILLIDYNES/ANGSTROM (= 10**5 DYNES/CM)

  -0.05909  -0.02363  -0.01816  -0.01369  -0.00202   0.00571   0.00681   0.01315
   0.02410   0.06219   0.15853   0.20089   0.28856   0.40716   0.46680   0.62223
   0.63821   0.83763   0.86698   1.04005   1.23390   1.27434   1.33339   1.37455
   1.98714   2.03778   3.00702   3.06768   3.26709   3.56931   3.79473   5.71933
   5.97562   6.37710   7.23810   8.56810   8.76560   9.14969  10.15505  10.33725
  13.24812  14.47138  19.04120  22.47846  24.87915


           ASSOCIATED EIGENVECTORS




    ROOT NO.    1           2           3           4           5           6

            -0.05909    -0.02363    -0.01816    -0.01369    -0.00202     0.00571
  
         1  -0.04635     0.03721    -0.00016    -0.02050     0.05183    -0.15488
         2   0.00308     0.03706     0.06049     0.16579    -0.12255     0.05950
         3   0.00234    -0.05929    -0.03871    -0.14950    -0.12048     0.08966
         4  -0.01010     0.11359     0.05861    -0.02616     0.08242    -0.09116
         5  -0.03601     0.26320     0.11545    -0.12181     0.31658     0.15098
         6   0.08570     0.47942     0.36528     0.02576     0.26185     0.01266
         7  -0.00404    -0.17802     0.17095    -0.11740    -0.01919    -0.32596
         8   0.00450     0.03154     0.06221     0.16299    -0.12392     0.05711
         9   0.06956    -0.01849    -0.18421    -0.32676    -0.02832     0.14895
        10  -0.07911     0.31802    -0.30193     0.11165     0.05938    -0.16689
        11  -0.06329     0.03218     0.15415     0.34120    -0.19754     0.03748
        12  -0.02551    -0.11173     0.06233    -0.08456    -0.15896     0.07999
        13  -0.04802    -0.02843     0.18007    -0.05692     0.11257     0.05746
        14   0.08379     0.02509    -0.03856    -0.04520    -0.04296     0.07815
        15  -0.04849    -0.03298    -0.01929    -0.00386    -0.18648     0.02480
        16  -0.00395    -0.40286     0.58601    -0.23465     0.09258     0.09134
        17   0.16529     0.01499    -0.14145    -0.25984     0.03819     0.10310
        18  -0.01782     0.04756    -0.16770    -0.07168    -0.14097     0.02864
        19  -0.08997     0.23045    -0.07019     0.07896     0.16056     0.23146
        20   0.08232     0.02406    -0.03652    -0.04279    -0.04415     0.07708
        21  -0.13018    -0.08577     0.15548     0.20430    -0.29085    -0.04325
        22   0.13053    -0.08011    -0.10374     0.09721    -0.03722     0.07625
        23   0.04916    -0.02596    -0.00038    -0.03294    -0.04072    -0.14432
        24   0.03214    -0.01253    -0.02410     0.01288     0.04680    -0.05912
        25  -0.16044    -0.14182    -0.15739     0.10059     0.02489     0.08349
        26  -0.41907    -0.13667    -0.08686    -0.00242     0.07880    -0.11440
        27  -0.00969    -0.11402    -0.04154     0.17791     0.17179     0.02173
        28   0.52277    -0.12592    -0.09658     0.19830     0.01525     0.07767
        29   0.48809     0.01961     0.01039    -0.12844    -0.11231    -0.26260
        30   0.11408     0.02447    -0.01937    -0.06430    -0.00532    -0.11851
        31  -0.00690     0.03492    -0.06216    -0.02740    -0.16718     0.06299
        32   0.00493     0.01684     0.06459     0.07367    -0.06567     0.00364
        33  -0.04845     0.05409    -0.00209    -0.06772    -0.03016    -0.07674
        34  -0.06894     0.07564    -0.02704    -0.12162    -0.21756     0.42670
        35  -0.01596     0.02842     0.08150     0.07564    -0.07557     0.11381
        36  -0.05240     0.06044    -0.02883    -0.22548    -0.06066    -0.00625
        37   0.02516     0.02135    -0.07739     0.02147    -0.14599    -0.16344
        38  -0.03493     0.03227     0.08477     0.00323    -0.09116     0.33258
        39  -0.12290     0.14817     0.05024    -0.06897    -0.12336    -0.15649
        40  -0.06766     0.10586    -0.04134    -0.08181    -0.24307    -0.08124
        41   0.01461     0.02573     0.08001     0.21787    -0.05339    -0.26898
        42   0.00193     0.00817    -0.01030     0.02841     0.02783    -0.08638
        43  -0.07425    -0.17753    -0.15660     0.14690     0.09169     0.09514
        44  -0.31762    -0.12149    -0.10329    -0.09143     0.08974    -0.15157
        45   0.01803    -0.13690    -0.04124     0.20735     0.19759     0.02056
        46  -0.02026     0.12710     0.06940     0.00538     0.09876    -0.04095
        47  -0.04026    -0.06239    -0.09947    -0.14432     0.23513    -0.01201
        48   0.01409    -0.03431     0.04382     0.17361     0.19899     0.00943
        49   0.00154     0.07053     0.02947    -0.07402     0.04027    -0.17799
        50   0.03139    -0.20448    -0.20701    -0.17121     0.21152    -0.05954
        51   0.11756    -0.21629    -0.09976     0.23261     0.24072     0.11032




    ROOT NO.    7           8           9          10          11          12

             0.00681     0.01315     0.02410     0.06219     0.15853     0.20089
  
         1   0.14729     0.02030    -0.11556    -0.25668     0.10011    -0.06728
         2   0.00381    -0.05212    -0.08168     0.02053     0.00194    -0.00895
         3  -0.11986     0.00416     0.04008     0.00669    -0.00073    -0.00304
         4   0.08885     0.02785    -0.02634     0.23812    -0.25794     0.26824
         5  -0.16275     0.22162     0.43935    -0.37740    -0.13775     0.14331
         6   0.05391     0.00269     0.22896     0.36755     0.36910    -0.31102
         7   0.37672     0.20335     0.02571    -0.26240     0.20964    -0.15857
         8   0.00728    -0.04808    -0.07910     0.02123     0.00466    -0.01092
         9  -0.16087    -0.03157     0.01285     0.00093    -0.00841     0.01073
        10   0.16330    -0.01491    -0.17460    -0.32061     0.12091    -0.05906
        11  -0.00059    -0.05280    -0.08773     0.03260    -0.01332    -0.00200
        12  -0.12422     0.00969     0.04677     0.02032    -0.00832    -0.00465
        13  -0.13190    -0.14491    -0.20530    -0.14140     0.06050    -0.05047
        14   0.01936    -0.04263    -0.06911     0.01777     0.01515    -0.01389
        15  -0.06013     0.04044     0.05624    -0.01101    -0.00071    -0.00151
        16  -0.16728    -0.09937    -0.10752    -0.08672     0.00739    -0.00259
        17   0.02965    -0.03898    -0.05851     0.00520     0.02370    -0.01668
        18  -0.04609     0.03184     0.03653    -0.03566     0.01904    -0.01667
        19  -0.36483    -0.34307    -0.38748    -0.08616     0.05944    -0.06934
        20   0.02051    -0.04280    -0.06836     0.01074     0.01463    -0.01475
        21  -0.01680     0.08052     0.08139    -0.01786    -0.00896     0.00510
        22  -0.03051    -0.00361     0.16823     0.04643    -0.01953    -0.15596
        23   0.02614    -0.20863     0.09099     0.01155     0.09731     0.06594
        24   0.04304    -0.04366    -0.03702    -0.04164    -0.14396    -0.13747
        25  -0.02592    -0.05610     0.23117     0.10285     0.01628    -0.21119
        26   0.03678    -0.28457     0.19822     0.12132     0.17665    -0.00786
        27   0.06538    -0.03048    -0.00088    -0.03908    -0.12679    -0.13780
        28  -0.01903    -0.01999     0.16405    -0.02142    -0.10271    -0.15924
        29   0.02751    -0.32897     0.08273    -0.04146     0.05881     0.16766
        30   0.04112    -0.10229    -0.03762    -0.05168    -0.13916    -0.08647
        31  -0.05175     0.08243     0.10176     0.04653     0.07209    -0.00871
        32   0.01945     0.05981    -0.03112    -0.02281    -0.00564     0.00435
        33   0.03246    -0.01333    -0.06810    -0.04121    -0.08732    -0.04119
        34   0.27878     0.12381     0.02273     0.03398     0.04737     0.02286
        35   0.09295     0.12065    -0.07245    -0.03274    -0.05273    -0.02022
        36   0.21695    -0.21478    -0.01278    -0.01872     0.05282     0.09598
        37  -0.25923     0.06287     0.14838     0.05624     0.12184     0.01156
        38   0.32504     0.07767    -0.09283    -0.03602    -0.07470    -0.02230
        39  -0.12165     0.19382    -0.16631    -0.06415    -0.06782     0.10865
        40  -0.19171     0.13565     0.08072     0.05241     0.20424     0.18741
        41  -0.33026     0.23292    -0.05556    -0.03680    -0.06546    -0.03778
        42  -0.01097     0.01937    -0.06329    -0.05094    -0.19486    -0.18306
        43  -0.00476    -0.02214     0.19876     0.05507    -0.07825     0.01083
        44   0.02552    -0.23509     0.15639     0.04522    -0.07221     0.01835
        45   0.08338    -0.02562    -0.02441    -0.07855    -0.15807    -0.01003
        46   0.06782     0.01292     0.07169     0.06071    -0.30814     0.39543
        47  -0.07622     0.25204     0.00266    -0.02205    -0.13257    -0.06802
        48   0.08960    -0.05597     0.02344     0.04118     0.03609     0.19225
        49   0.12417     0.03489    -0.19639     0.48306    -0.25327     0.04607
        50  -0.06415     0.36995    -0.27391     0.28313     0.16152    -0.17624
        51   0.03475     0.13516    -0.11586     0.01384     0.46806     0.52022




    ROOT NO.   13          14          15          16          17          18

             0.28856     0.40716     0.46680     0.62223     0.63821     0.83763
  
         1   0.00728     0.01032    -0.00910    -0.03575    -0.01451    -0.01086
         2   0.01494     0.00112    -0.00162     0.19636     0.04025    -0.00225
         3  -0.01279    -0.00161     0.00097    -0.11599    -0.02301     0.00340
         4  -0.03079    -0.11458    -0.02129     0.01091    -0.03652     0.02508
         5  -0.05460    -0.11720    -0.07722     0.02260    -0.09362    -0.00553
         6   0.05201     0.07943     0.07378     0.00699    -0.05727     0.06016
         7  -0.50113    -0.00116     0.01904     0.12353     0.03576     0.00234
         8   0.00524     0.00074    -0.00164     0.17157     0.03451    -0.00163
         9   0.12237    -0.00759    -0.00462     0.46573     0.08464    -0.00543
        10   0.57266     0.01277     0.02783    -0.09986    -0.00799     0.00618
        11  -0.01748     0.00744    -0.00211    -0.35926    -0.06395     0.00231
        12  -0.13007     0.00201    -0.00592    -0.34591    -0.06944     0.00201
        13  -0.01843     0.00793     0.00595    -0.01824    -0.00595     0.00276
        14   0.01508    -0.00419    -0.00167     0.15851     0.02928    -0.00135
        15  -0.00516    -0.00059    -0.00098    -0.09454    -0.01865     0.00137
        16   0.39914     0.00213     0.00743    -0.07965    -0.01821     0.00397
        17  -0.00519    -0.00378    -0.00338    -0.30479    -0.05913    -0.00060
        18  -0.11184     0.00219    -0.00307    -0.28633    -0.05574     0.00079
        19  -0.43446     0.01291     0.00572     0.09850     0.03197    -0.00117
        20   0.01405    -0.00164    -0.00272     0.13576     0.02705    -0.00316
        21   0.11545     0.00221    -0.00007     0.38322     0.07170    -0.00119
        22   0.01415    -0.15969     0.01717    -0.01565     0.06907     0.04718
        23   0.00363    -0.05222    -0.21220    -0.00635     0.02733    -0.09851
        24   0.00381    -0.16444     0.04154    -0.00497     0.02057     0.04765
        25   0.02086    -0.22458     0.03243     0.02303    -0.14735     0.00663
        26   0.01555    -0.13868    -0.15640     0.03944    -0.23871    -0.23209
        27   0.00424     0.11268    -0.24175     0.01927    -0.09885    -0.07163
        28   0.00494     0.15378     0.02132     0.02784    -0.13863     0.24713
        29  -0.01115     0.09073     0.14492     0.02775    -0.14034    -0.22358
        30  -0.00102    -0.17704     0.18621     0.00145    -0.01255    -0.08099
        31   0.00931    -0.06071    -0.01379    -0.01893     0.09344    -0.01151
        32   0.00095    -0.04723    -0.13881    -0.01761     0.09057     0.03383
        33   0.00014    -0.10611     0.02278    -0.00591     0.02992     0.01042
        34   0.00289     0.08128     0.15409    -0.00367     0.02205    -0.38545
        35  -0.00173    -0.02770     0.02427    -0.00306     0.01127    -0.18219
        36   0.00110    -0.02069    -0.39650    -0.03931     0.23065     0.41624
        37   0.01291    -0.06686    -0.12697    -0.04092     0.20502    -0.22276
        38  -0.00427    -0.02768     0.02355     0.01110    -0.05428     0.32543
        39  -0.01446     0.28220     0.23217     0.08755    -0.46121    -0.04159
        40   0.00252     0.29320    -0.17543     0.00111     0.00457     0.20257
        41  -0.00086    -0.09732     0.00111    -0.02584     0.13865     0.17943
        42   0.00382    -0.34421     0.17271    -0.02133     0.10292    -0.06710
        43  -0.00969     0.21460     0.17387     0.00766    -0.00963     0.10300
        44  -0.01183     0.23854     0.47708    -0.00534     0.06346     0.32228
        45  -0.01079     0.35353    -0.38698     0.04347    -0.19679    -0.15679
        46  -0.05527    -0.15211    -0.03786     0.01427    -0.05232     0.01330
        47  -0.00408     0.18165    -0.02331    -0.04969     0.25650    -0.12548
        48  -0.00753     0.27445     0.16888    -0.11313     0.57167    -0.21733
        49   0.00314    -0.00924    -0.08040     0.00583    -0.03078    -0.02839
        50   0.04175    -0.00259    -0.04986     0.00884    -0.06883     0.01309
        51  -0.00927    -0.28642     0.14082     0.01976    -0.11857     0.10001




    ROOT NO.   19          20          21          22          23          24

             0.86698     1.04005     1.23390     1.27434     1.33339     1.37455
  
         1  -0.00494     0.00647     0.00181    -0.03930    -0.19942     0.71246
         2   0.00269    -0.00052    -0.00129    -0.08990     0.00155     0.00090
         3   0.00113    -0.00080    -0.00173    -0.13400     0.04469    -0.15475
         4   0.00624     0.03321    -0.01096     0.00299    -0.01913    -0.05190
         5  -0.00815    -0.00014     0.01583     0.00459    -0.01125    -0.02149
         6  -0.10889    -0.01534    -0.02926     0.00522     0.01709     0.02424
         7   0.01198    -0.00515     0.00382     0.13706     0.08878    -0.30840
         8   0.00178    -0.00092    -0.00169    -0.12753     0.00827    -0.02235
         9   0.00516     0.00080     0.00718     0.59411    -0.03008     0.08362
        10   0.00878    -0.00435     0.00355     0.04537     0.09265    -0.31578
        11   0.00052     0.00145     0.00882     0.60306    -0.01036     0.01999
        12  -0.00242     0.00191     0.00269     0.14586    -0.01423     0.04353
        13  -0.00643     0.00197    -0.00234    -0.04057    -0.07989     0.31374
        14  -0.00047    -0.00158    -0.00283    -0.09006     0.00084    -0.00025
        15   0.00343     0.00137    -0.00001    -0.13792     0.02064    -0.07281
        16   0.00070    -0.00183     0.00100    -0.04173     0.05195    -0.18459
        17  -0.00440    -0.00312    -0.00544    -0.19739     0.00266    -0.00436
        18  -0.00119     0.00117    -0.00240    -0.20608    -0.01251     0.05286
        19   0.01052    -0.00022     0.00239    -0.05772     0.05844    -0.20605
        20   0.00089    -0.00167    -0.00263    -0.10333    -0.00242     0.01214
        21   0.00431     0.00334    -0.00112    -0.26658    -0.01199     0.05544
        22   0.11513    -0.05929    -0.08951     0.00120     0.04358     0.01871
        23   0.01798     0.05237    -0.16435     0.00323     0.04689     0.00982
        24   0.06076    -0.04699    -0.05798    -0.00087    -0.20059    -0.05951
        25   0.23841    -0.05757     0.13188    -0.00284     0.03647     0.02132
        26   0.24407     0.04402     0.20857    -0.00357     0.03536     0.00894
        27   0.03858     0.05214     0.03474    -0.00264    -0.24543    -0.08783
        28   0.21804     0.41663     0.07726    -0.00329    -0.10418    -0.02357
        29  -0.05911    -0.20380     0.13521     0.00028     0.09573     0.02643
        30  -0.02215    -0.32778     0.03509    -0.00104    -0.14612    -0.04283
        31  -0.00664    -0.11378    -0.18420     0.00172     0.02638     0.02216
        32  -0.00481     0.10284    -0.30213     0.00425     0.04977     0.00785
        33  -0.00217    -0.07934    -0.08883     0.00007    -0.11483    -0.03239
        34  -0.27233     0.22454     0.38382    -0.00517    -0.09903    -0.03077
        35  -0.07647     0.15106    -0.21313     0.00222    -0.09260    -0.03831
        36  -0.08656     0.26780     0.17862     0.00139     0.29684     0.07497
        37  -0.15466     0.17694    -0.37863     0.00461     0.03609     0.01092
        38   0.20582    -0.33515    -0.10850     0.00128     0.06047     0.03346
        39   0.29432     0.22871    -0.10212     0.00454     0.32475     0.08367
        40   0.10693    -0.34283     0.10521    -0.00541    -0.38627    -0.10285
        41  -0.19381     0.00776     0.54873    -0.00702     0.07025     0.02116
        42  -0.14537     0.03665     0.02901     0.00007     0.11875     0.04411
        43  -0.29484    -0.30636    -0.06291     0.00640     0.51139     0.13596
        44  -0.26114     0.22432    -0.14413    -0.00045    -0.31757    -0.08035
        45  -0.35534    -0.14543    -0.05048     0.00197    -0.03765    -0.02953
        46   0.00640     0.03194    -0.00363    -0.00017    -0.03873    -0.00879
        47   0.18399    -0.02290     0.03269     0.00074     0.04589     0.00962
        48   0.40537    -0.02506     0.07955    -0.00332     0.05994     0.03329
        49   0.01671    -0.00032     0.02144    -0.00315    -0.01909    -0.00257
        50  -0.04939    -0.01401    -0.00372    -0.00041     0.01652     0.01680
        51  -0.08899     0.04685    -0.03294    -0.00079    -0.06926    -0.01607




    ROOT NO.   25          26          27          28          29          30

             1.98714     2.03778     3.00702     3.06768     3.26709     3.56931
  
         1   0.00436    -0.01279     0.04027    -0.00447    -0.04650    -0.01247
         2  -0.00034    -0.00020    -0.17360    -0.00107    -0.13431    -0.00214
         3   0.00023     0.00245     0.11046    -0.00220    -0.20363    -0.00050
         4  -0.46913    -0.14752    -0.00239    -0.00020    -0.00153    -0.00845
         5   0.35280     0.09689     0.00138    -0.00028     0.00524     0.00419
         6  -0.14010    -0.04285    -0.00147     0.00403     0.00134     0.00192
         7   0.01243     0.00748    -0.03552     0.00131     0.01580     0.00044
         8   0.00406     0.00160    -0.41761    -0.00410    -0.45441    -0.00818
         9   0.00080    -0.00142    -0.17223     0.00136     0.05777    -0.00002
        10   0.01225     0.00801     0.08927     0.00062    -0.07010    -0.00063
        11  -0.00527    -0.00049    -0.03553     0.00462     0.24718     0.00305
        12   0.00156     0.00014     0.46126    -0.00647    -0.36029    -0.00530
        13  -0.01637    -0.02086    -0.06568     0.01280    -0.07697     0.02186
        14  -0.00277    -0.00142     0.31957    -0.00274    -0.07397     0.00124
        15  -0.00207     0.00101    -0.18534    -0.00338    -0.12125    -0.00787
        16   0.00694     0.00799    -0.09757    -0.00209     0.04771    -0.00767
        17  -0.00328    -0.00192    -0.06619     0.00613     0.47352     0.00861
        18  -0.00001    -0.00255    -0.42882     0.00508     0.13518     0.00276
        19   0.00557     0.00946     0.06648    -0.00121     0.13289    -0.00681
        20  -0.00052    -0.00014     0.37231    -0.00335    -0.05896     0.00074
        21  -0.00783    -0.00363     0.21695     0.00788     0.48985     0.00856
        22   0.02612    -0.09712    -0.00170    -0.22918    -0.00277     0.40520
        23  -0.04639     0.09699    -0.00065     0.08654    -0.01094     0.69362
        24   0.05433    -0.20273    -0.00001     0.04785    -0.00282     0.19604
        25   0.02444    -0.16551     0.00030    -0.16692     0.00498    -0.13062
        26  -0.04342     0.08578     0.00075     0.18257     0.00054    -0.17314
        27   0.00097    -0.01239    -0.00159    -0.19498     0.00367    -0.04418
        28  -0.02324     0.09563     0.00142     0.24560    -0.00167    -0.10833
        29  -0.01879     0.02947    -0.00032    -0.07887     0.00262    -0.20071
        30   0.08157    -0.31773    -0.00055    -0.19909     0.00388    -0.08177
        31  -0.08299     0.30501    -0.00066    -0.14539     0.00256    -0.05592
        32   0.06660    -0.18266     0.00054    -0.00406     0.00189    -0.09333
        33  -0.01173     0.03429     0.00152     0.33349    -0.00418    -0.02001
        34  -0.00986     0.00663    -0.00077    -0.06160    -0.00190     0.14677
        35   0.12247    -0.39879     0.00256     0.31886    -0.00187    -0.16298
        36   0.05238    -0.16501    -0.00021    -0.05781     0.00174    -0.12030
        37  -0.00231     0.07790    -0.00051    -0.23988     0.00811    -0.30423
        38  -0.07994     0.29169    -0.00081    -0.19143     0.00429    -0.13014
        39   0.00248    -0.01971    -0.00091    -0.13649     0.00031     0.12183
        40   0.00042    -0.00998     0.00134     0.31173    -0.00452     0.02012
        41  -0.00140    -0.01896    -0.00065    -0.16240     0.00267     0.06046
        42  -0.14038     0.47803     0.00120     0.35359    -0.00434    -0.04529
        43   0.08739    -0.20579     0.00209     0.29766    -0.00294     0.03689
        44   0.00845     0.09436    -0.00155    -0.15853     0.00215     0.01356
        45  -0.08080     0.16123    -0.00099    -0.11943     0.00172    -0.00250
        46  -0.15057    -0.03703     0.00392    -0.00595    -0.00518    -0.00380
        47  -0.40492    -0.09581     0.00028    -0.00731    -0.00546    -0.01762
        48   0.17254     0.07798     0.00044    -0.00551     0.00105    -0.01194
        49   0.57456     0.17848    -0.00029    -0.01284     0.00203     0.00766
        50   0.05267     0.00361    -0.00049     0.01543    -0.00017     0.00278
        51   0.01604     0.01290     0.00030    -0.02791     0.00002     0.00857




    ROOT NO.   31          32          33          34          35          36

             3.79473     5.71933     5.97562     6.37710     7.23810     8.56810
  
         1  -0.43256    -0.01663    -0.01918     0.03283    -0.01344    -0.00099
         2  -0.01280    -0.00231    -0.15394    -0.00921     0.00426     0.00013
         3   0.08155    -0.00148    -0.24956    -0.01856     0.00614     0.00069
         4   0.02747    -0.09556    -0.01570     0.34277    -0.41024    -0.01710
         5   0.01703    -0.03072    -0.00672     0.11500    -0.14402    -0.00610
         6  -0.02853     0.01498     0.00560    -0.05995     0.07350     0.00282
         7   0.06162     0.00255     0.00277    -0.00618     0.00379     0.00043
         8  -0.02413     0.00794     0.46975     0.01978    -0.00405    -0.00024
         9  -0.01290     0.00068     0.05921     0.00351     0.00056     0.00003
        10   0.06719     0.00354     0.07883    -0.00316     0.00278     0.00023
        11   0.00820    -0.00240    -0.15217    -0.00821     0.00211     0.00026
        12   0.00489     0.00711     0.44102     0.02010    -0.00404    -0.00038
        13   0.78456     0.01137    -0.08283    -0.02374     0.00337     0.00032
        14  -0.00504    -0.00634    -0.19288     0.00108    -0.00730    -0.00044
        15  -0.20118    -0.01219    -0.29796     0.00247    -0.00666    -0.00061
        16  -0.24805    -0.00491    -0.04162     0.00294     0.00093     0.00020
        17   0.03375     0.00769     0.35707     0.01520    -0.00146    -0.00036
        18   0.04737    -0.00154    -0.18792    -0.01351     0.00588     0.00046
        19  -0.24788    -0.00316     0.05609     0.00693    -0.00120    -0.00009
        20  -0.00245    -0.00400    -0.32874    -0.01970     0.00820     0.00064
        21   0.09181     0.00627     0.23381     0.00586     0.00043    -0.00009
        22  -0.00981     0.25866    -0.00716     0.05165    -0.04484    -0.08877
        23  -0.01943    -0.07147     0.00261     0.00965     0.04338    -0.11282
        24  -0.00656    -0.29876     0.01327    -0.17958    -0.06750    -0.01900
        25  -0.00612     0.33971    -0.00381    -0.03843    -0.04553    -0.01067
        26   0.00977    -0.20329     0.00734    -0.11541    -0.06532     0.03291
        27   0.02896    -0.08252    -0.02076     0.59826     0.45521     0.03918
        28   0.00273    -0.17012     0.00865    -0.15595    -0.08215     0.02291
        29   0.00891     0.13776    -0.00837     0.13655     0.07573     0.03194
        30   0.00079    -0.12151     0.00770    -0.13901    -0.08237     0.01097
        31   0.00507     0.14547    -0.00202    -0.03522    -0.11366     0.45984
        32   0.00164    -0.02199    -0.00046     0.04097     0.05307     0.61913
        33  -0.00308    -0.19740     0.00715    -0.09065    -0.01561     0.18805
        34   0.00248    -0.15083     0.00311    -0.00877     0.02970     0.07035
        35  -0.00820     0.36005    -0.00792     0.01897    -0.06798    -0.29583
        36   0.00024     0.13049    -0.00326     0.01177    -0.01988    -0.06618
        37   0.01858    -0.32221     0.00744    -0.04228     0.04641    -0.38299
        38   0.01048    -0.20602     0.00485    -0.02820     0.02628    -0.28245
        39  -0.00371     0.03958    -0.00080     0.01141    -0.00087    -0.02289
        40  -0.00194     0.13535    -0.00601     0.08863     0.04902    -0.08853
        41  -0.00041    -0.09032     0.00440    -0.05725    -0.02968     0.00697
        42  -0.00229     0.27550    -0.01162     0.16679     0.07677    -0.10491
        43  -0.00246    -0.22700     0.00036     0.11741     0.14586     0.01575
        44  -0.00166     0.09314    -0.00168     0.00261    -0.02685    -0.00035
        45  -0.00488     0.19488     0.00663    -0.31038    -0.31239    -0.02158
        46  -0.03915     0.03807     0.01961    -0.18059     0.24533     0.02481
        47  -0.01128     0.10473     0.01296    -0.33007     0.39974     0.00005
        48   0.00577    -0.00021    -0.00444     0.09862    -0.25422    -0.00223
        49   0.01827     0.05571     0.00147    -0.14884     0.18386    -0.00571
        50  -0.00435    -0.07245    -0.00610     0.20823    -0.26613     0.00656
        51   0.00173     0.04610     0.00195    -0.10718     0.14507    -0.00434




    ROOT NO.   37          38          39          40          41          42

             8.76560     9.14969    10.15505    10.33725    13.24812    14.47138
  
         1  -0.04140     0.00070    -0.00320    -0.08964     0.00500    -0.11863
         2   0.00022     0.00057    -0.00621     0.70388     0.00019    -0.32299
         3   0.01682    -0.00041     0.00453    -0.43050     0.00213    -0.50773
         4  -0.35474    -0.02025     0.00827     0.00021    -0.01459     0.01111
         5  -0.11206    -0.00715     0.00411    -0.00093    -0.00552     0.00150
         6   0.05421     0.00343    -0.00200     0.00009     0.00381     0.00015
         7   0.00638    -0.00019    -0.00008     0.01275    -0.00011     0.00116
         8  -0.00296    -0.00019     0.00320    -0.37139    -0.00030     0.12425
         9  -0.00212     0.00013    -0.00049     0.02715     0.00014     0.01900
        10   0.00578    -0.00014    -0.00054     0.05526    -0.00044     0.02150
        11   0.00400    -0.00001     0.00164    -0.18639     0.00018    -0.03856
        12  -0.00897     0.00007    -0.00326     0.31557    -0.00058     0.11915
        13   0.01977    -0.00105     0.00219     0.00395    -0.00186    -0.02591
        14  -0.00683    -0.00018     0.00047    -0.05848     0.00081    -0.08013
        15  -0.02180     0.00000    -0.00214     0.03853     0.00315    -0.10709
        16  -0.00343     0.00043    -0.00124     0.03005     0.00004     0.11174
        17  -0.00809     0.00016    -0.00052     0.01598     0.00267    -0.22236
        18   0.01410     0.00007    -0.00021     0.11577    -0.00488     0.46866
        19  -0.00690     0.00026    -0.00108    -0.01613     0.00096     0.00530
        20   0.01064    -0.00011     0.00151    -0.10395    -0.00423     0.53980
        21   0.00151    -0.00013     0.00035    -0.06565     0.00058     0.00781
        22   0.01089    -0.02601     0.05804     0.00162     0.66581     0.00504
        23  -0.00287     0.04166     0.03293    -0.00032    -0.34558    -0.00238
        24   0.00333    -0.04432    -0.23627    -0.00231    -0.21436    -0.00154
        25  -0.00541    -0.08121     0.37294     0.00266    -0.48887    -0.00422
        26   0.00228     0.00684    -0.22025    -0.00150     0.30198     0.00234
        27   0.01094     0.17287    -0.05414    -0.00095    -0.00784     0.00094
        28  -0.00577    -0.00074    -0.08293    -0.00049    -0.00876    -0.00018
        29   0.00210     0.02811     0.12210     0.00122     0.00048    -0.00004
        30   0.00733    -0.10197    -0.25700    -0.00222     0.02865     0.00043
        31  -0.00511     0.50814    -0.37129    -0.00352    -0.13303    -0.00079
        32  -0.01578    -0.49602     0.08344     0.00091     0.03842     0.00017
        33  -0.03350     0.36979     0.66258     0.00581     0.18644     0.00108
        34  -0.00387    -0.11834     0.05903     0.00076    -0.00810    -0.00004
        35   0.01331     0.30511    -0.14536    -0.00162    -0.00119    -0.00000
        36   0.00491     0.04257    -0.05905    -0.00047     0.01561     0.00017
        37   0.00532    -0.08674     0.09985     0.00092    -0.00752    -0.00009
        38   0.00457    -0.02433     0.05942     0.00042    -0.00618    -0.00004
        39   0.00196    -0.01786    -0.02334    -0.00037     0.01184     0.00017
        40   0.00803    -0.23596    -0.05894    -0.00019     0.00650     0.00005
        41  -0.00427     0.14521     0.03688    -0.00006    -0.00356     0.00002
        42   0.01269    -0.31920    -0.12844    -0.00094    -0.01406    -0.00008
        43  -0.01761     0.03710    -0.07199    -0.00074    -0.03487     0.00068
        44   0.00624    -0.00470     0.02901     0.00049     0.01978     0.00017
        45   0.00092    -0.08952     0.07011     0.00099     0.02663    -0.00115
        46   0.68527     0.01892     0.00519     0.00400     0.01324    -0.00801
        47  -0.28188     0.01255    -0.02722    -0.00240     0.01652    -0.00014
        48   0.14200    -0.02022     0.03590     0.00058    -0.04490    -0.00111
        49  -0.29719     0.00508    -0.01424    -0.00147     0.00658     0.00129
        50   0.39140    -0.00751     0.02483     0.00414    -0.01447    -0.00162
        51  -0.20434     0.00471    -0.00711    -0.00107     0.00767     0.00116




    ROOT NO.   43          44          45

            19.04120    22.47846    24.87915
  
         1   0.00094    -0.09357     0.00193
         2  -0.04927    -0.28274     0.00146
         3   0.00872    -0.44001     0.00266
         4  -0.00008    -0.02468     0.00016
         5  -0.00003    -0.00344    -0.00003
         6  -0.00013    -0.00040     0.00023
         7  -0.00446    -0.00320     0.00039
         8  -0.00773     0.01202    -0.00003
         9  -0.02017    -0.00513    -0.00013
        10   0.00345    -0.00141     0.00057
        11   0.01431    -0.01040     0.00030
        12   0.01768     0.00853     0.00036
        13  -0.08774     0.15996    -0.00101
        14   0.67376     0.40681    -0.00143
        15  -0.39412     0.66268    -0.00440
        16   0.08743    -0.04598     0.00104
        17  -0.19728     0.07034    -0.00139
        18   0.38039    -0.19951     0.00216
        19   0.00012    -0.00550     0.00091
        20  -0.43373    -0.19621     0.00021
        21   0.00725    -0.02598     0.00089
        22   0.00033    -0.00185     0.12149
        23  -0.00012    -0.00102    -0.27414
        24  -0.00154     0.00450     0.67582
        25  -0.00021     0.00197     0.01102
        26   0.00040    -0.00103     0.00636
        27   0.00025    -0.00191    -0.02980
        28   0.00041    -0.00086    -0.17754
        29  -0.00048     0.00192     0.27743
        30   0.00136    -0.00365    -0.58134
        31  -0.00009     0.00038     0.01657
        32   0.00035     0.00012     0.00260
        33  -0.00001    -0.00028    -0.06202
        34  -0.00009    -0.00006     0.00578
        35   0.00020     0.00001    -0.00642
        36   0.00009     0.00009    -0.00055
        37   0.00002     0.00003     0.01220
        38  -0.00002     0.00018     0.00336
        39   0.00009    -0.00007    -0.00201
        40  -0.00012    -0.00008     0.00499
        41   0.00003    -0.00023     0.00101
        42  -0.00007     0.00001    -0.01969
        43  -0.00026    -0.00159     0.00216
        44  -0.00039    -0.00002    -0.00645
        45  -0.00008     0.00277     0.02973
        46  -0.00060     0.01831    -0.00026
        47   0.00520     0.00168     0.00263
        48  -0.00047     0.00081    -0.00727
        49   0.00092    -0.00187    -0.00037
        50  -0.00519     0.00202    -0.00547
        51   0.00075    -0.00245    -0.00466

          ZERO POINT ENERGY      66.844 KCAL/MOL

         NOTE: SYSTEM IS NOT A GROUND STATE, THEREFORE ZERO POINT
         ENERGY IS NOT MEANINGFULL. ZERO POINT ENERGY PRINTED
         DOES NOT INCLUDE THE  6 IMAGINARY FREQUENCIES


           FREQUENCIES, REDUCED MASSES AND VIBRATIONAL DIPOLES



   I         1         2         3         4         5         6
 FREQ(I) -132.2181  -90.2310  -82.4723  -67.3985  -48.3288  -21.5686

 MASS(I)   1.02898   3.43237   3.82014   1.75086   3.27511   1.82278

 DIPX(I)  -0.20061  -0.03956  -0.25735   0.58027  -0.74261  -0.06152
 DIPY(I)   0.22290  -0.29842  -0.31950  -0.38315  -0.13713   0.04769
 DIPZ(I)   0.20908   0.63538   0.46898  -0.04223  -0.05363   0.28046

 DIPT(I)   0.36557   0.70309   0.62310   0.69663   0.75706   0.29106


   I         7         8         9        10        11        12
 FREQ(I)   56.6438   74.3085   85.1321  207.9866  237.8873  269.6745

 MASS(I)   2.36122   0.31606   1.64552   1.49495   1.95760   3.55463

 DIPX(I)   0.39679   0.01265   0.15078  -1.27617   0.97369  -0.02736
 DIPY(I)   0.47986  -0.05701  -0.14716   0.11072  -0.16339  -0.40271
 DIPZ(I)   0.82197   0.00326   0.06246  -0.28823   0.50494  -1.28349

 DIPT(I)   1.03119   0.05849   0.21976   1.31299   1.10893   1.34546


   I        13        14        15        16        17        18
 FREQ(I)  411.2028  477.2947  504.2305  528.5120  541.1901  566.2856

 MASS(I)   1.97230   0.73799   1.73386   4.08484   0.45778   2.76768

 DIPX(I)  -0.59499  -0.08169   0.07493   0.46268  -0.04152   0.46381
 DIPY(I)   0.25272   0.21092  -0.38271   0.03414   0.07155  -0.38750
 DIPZ(I)   1.51798   1.21378   0.22518  -0.02514  -0.12484  -1.04281

 DIPT(I)   1.64989   1.23468   0.45032   0.46462   0.14976   1.20529


   I        19        20        21        22        23        24
 FREQ(I)  644.1365  657.1271  834.8106  890.5634  995.3622 1028.7175

 MASS(I)   7.36874   4.57752   0.79010   1.02320   1.76498   1.13443

 DIPX(I)   1.51922  -0.09049   0.56591   2.00845   0.02989   0.51252
 DIPY(I)  -0.03678  -0.65568   1.21165  -0.00822   0.03438   1.05934
 DIPZ(I)  -0.36905  -1.08827   0.80860  -0.32943   0.04247   0.24630

 DIPT(I)   1.56384   1.27375   1.56275   2.03530   0.06228   1.20231


   I        25        26        27        28        29        30
 FREQ(I) 1045.7705 1076.0339 1199.6597 1210.7166 1214.4395 1215.4986

 MASS(I)   2.06192   1.26577   0.42227   0.37915   3.17103   0.60220

 DIPX(I)  -0.61930  -0.03924  -0.96370   0.66316  -0.65281   0.75108
 DIPY(I)  -0.20337  -0.00850   0.52185   0.66734  -1.18013   0.44402
 DIPZ(I)  -0.38464   0.03874  -0.17410  -0.00103  -1.30261  -0.77009

 DIPT(I)   0.75686   0.05580   1.10967   0.94082   1.87501   1.16375


   I        31        32        33        34        35        36
 FREQ(I) 1275.7107 1329.7102 1363.4321 1366.7834 1499.3289 1675.5166

 MASS(I)   1.66715   0.52967   1.85711   0.50542   6.48090   6.27354

 DIPX(I)   2.08247  -0.27610   2.12310   0.39902  -1.12436   3.16771
 DIPY(I)  -1.18818  -0.15375  -1.16581  -0.17728   7.47204   5.22934
 DIPZ(I)   0.08100   1.18709  -0.92849  -0.07317  -4.58375   7.81669

 DIPT(I)   2.39896   1.22844   2.59398   0.44272   8.83778   9.92376


   I        37        38        39        40        41        42
 FREQ(I) 1786.7564 1917.3825 2304.3666 2627.4971 2643.8062 2710.0464

 MASS(I)   6.17291   1.60775   0.84292   0.52934   0.49154   0.51475

[...]
 EFFECTIVE MASS     32.6028
 FORCE CONSTANT      0.0381

 VIBRATION         11   11A           ATOM PAIR      ENERGY CONTRIBUTION    RADIAL
 FREQUENCY           237.89         O 16 -- H 17         +29.0% (183.8%)      4.3%
 TRANSITION DIPOLE   1.1089         H 15 -- O 16         +23.6% (165.8%)     46.9%
 TRAVEL (Ang.)       0.3805         H  2 -- O 16         +16.6% (138.9%)     22.4%
 REDUCED MASS        1.9576         C  8 -- C 11          +6.0% ( 83.6%)      0.1%
 EFFECTIVE MASS     29.2062
 FORCE CONSTANT      0.0653

 VIBRATION         12   12A           ATOM PAIR      ENERGY CONTRIBUTION    RADIAL
 FREQUENCY           269.67         C  8 -- C 11         +17.8% (137.2%)      0.1%
 TRANSITION DIPOLE   1.3455         H  2 -- O 16         +16.5% (131.9%)      1.0%
 TRAVEL (Ang.)       0.2652         C  8 -- O  9         +11.8% (111.8%)      9.5%
 REDUCED MASS        3.5546         O 16 -- H 17         +11.0% (107.8%)      5.1%
 EFFECTIVE MASS     22.0473
 FORCE CONSTANT      0.1523

 VIBRATION         13   13A           ATOM PAIR      ENERGY CONTRIBUTION    RADIAL
 FREQUENCY           411.20         C  8 -- C 11         +24.1% (138.0%)      0.0%
 TRANSITION DIPOLE   1.6499         C  8 -- O  9         +20.3% (126.8%)      0.0%
 TRAVEL (Ang.)       0.2883         C  8 -- O 10          +9.6% ( 86.9%)      0.4%
 REDUCED MASS        1.9723         H 15 -- O 16          +9.4% ( 86.1%)     97.8%
 EFFECTIVE MASS     22.4344
 FORCE CONSTANT      0.1965

 VIBRATION         14   14A           ATOM PAIR      ENERGY CONTRIBUTION    RADIAL
 FREQUENCY           477.29         O 16 -- H 17         +39.5% ( 94.0%)      1.6%
 TRANSITION DIPOLE   1.2347         O  9 -- H 15         +13.4% ( 54.8%)      5.6%
 TRAVEL (Ang.)       0.4375         H 15 -- O 16         +12.9% ( 53.7%)     87.7%
 REDUCED MASS        0.7380         C  8 -- O 10          +7.7% ( 41.5%)      0.0%
 EFFECTIVE MASS      4.9213
 FORCE CONSTANT      0.0991

 VIBRATION         15   15A           ATOM PAIR      ENERGY CONTRIBUTION    RADIAL
 FREQUENCY           504.23         C  1 -- N  5         +27.9% (120.3%)      0.0%
 TRANSITION DIPOLE   0.4503         C  1 -- H  4         +16.7% ( 93.0%)     46.5%
 TRAVEL (Ang.)       0.2777         C  1 -- H  3         +16.6% ( 93.0%)     44.1%
 REDUCED MASS        1.7339         O  6 -- O  7         +14.7% ( 87.3%)      0.0%
 EFFECTIVE MASS     15.5899         N  5 -- O  6         +12.1% ( 79.4%)      0.0%
 FORCE CONSTANT      0.2597         N  5 -- O  7         +12.0% ( 78.9%)      0.0%

 VIBRATION         16   16A           ATOM PAIR      ENERGY CONTRIBUTION    RADIAL
 FREQUENCY           528.51         C  8 -- O 10         +25.8% ( 97.5%)      0.0%
 TRANSITION DIPOLE   0.4646         C  8 -- O  9         +25.1% ( 96.1%)      0.0%
 TRAVEL (Ang.)       0.1767         C  8 -- C 11         +21.4% ( 88.7%)      0.0%
 REDUCED MASS        4.0848         C 11 -- H 13         +14.2% ( 72.3%)      1.7%
 EFFECTIVE MASS     12.2661
 FORCE CONSTANT      0.6723

 VIBRATION         17   17A           ATOM PAIR      ENERGY CONTRIBUTION    RADIAL
 FREQUENCY           541.19         C  1 -- H  3         +47.3% ( 86.6%)      0.5%
 TRANSITION DIPOLE   0.1498         C  1 -- H  4         +42.9% ( 82.5%)      0.8%
 TRAVEL (Ang.)       0.5217         C  1 -- N  5          +4.1% ( 25.4%)      0.0%
 REDUCED MASS        0.4578         O  6 -- O  7          +1.9% ( 17.2%)      0.0%
 EFFECTIVE MASS      1.9819
 FORCE CONSTANT      0.0790

 VIBRATION         18   18A           ATOM PAIR      ENERGY CONTRIBUTION    RADIAL
 FREQUENCY           566.29         C  8 -- O  9         +23.6% ( 97.7%)      1.3%
 TRANSITION DIPOLE   1.2053         C  8 -- C 11         +14.5% ( 76.7%)      8.5%
 TRAVEL (Ang.)       0.2074         C  8 -- O 10         +13.7% ( 74.4%)      0.0%
 REDUCED MASS        2.7677         C 11 -- H 12         +10.3% ( 64.5%)     29.8%
 EFFECTIVE MASS     16.4011
 FORCE CONSTANT      0.5229

 VIBRATION         19   19A           ATOM PAIR      ENERGY CONTRIBUTION    RADIAL
 FREQUENCY           644.14         N  5 -- O  7         +32.4% ( 83.5%)      0.0%
 TRANSITION DIPOLE   1.5638         N  5 -- O  6         +32.2% ( 83.3%)      0.0%
 TRAVEL (Ang.)       0.1192         C  1 -- N  5         +31.4% ( 82.2%)      0.0%
 REDUCED MASS        7.3687         C  1 -- H  4          +1.9% ( 20.1%)      0.3%
 EFFECTIVE MASS     13.1685
 FORCE CONSTANT      1.8014

 VIBRATION         20   20A           ATOM PAIR      ENERGY CONTRIBUTION    RADIAL
 FREQUENCY           657.13         O  6 -- O  7         +20.7% ( 88.2%)    100.0%
 TRANSITION DIPOLE   1.2738         N  5 -- O  7         +19.4% ( 85.4%)      0.4%
 TRAVEL (Ang.)       0.1497         N  5 -- O  6         +19.0% ( 84.4%)      0.4%
 REDUCED MASS        4.5775         C  1 -- H  4         +14.0% ( 72.4%)     28.9%
 EFFECTIVE MASS     15.9454         C  1 -- H  3         +13.9% ( 72.3%)     29.6%
 FORCE CONSTANT      1.1646         C  1 -- N  5         +13.0% ( 69.7%)     69.2%

 VIBRATION         21   21A           ATOM PAIR      ENERGY CONTRIBUTION    RADIAL
 FREQUENCY           834.81         O  9 -- H 15         +49.6% ( 92.3%)      0.0%
 TRANSITION DIPOLE   1.5628         H 15 -- O 16         +46.6% ( 89.5%)      4.1%
 TRAVEL (Ang.)       0.3197         O 16 -- H 17          +1.1% ( 13.8%)      0.4%
 REDUCED MASS        0.7901         C  8 -- O  9          +0.8% ( 11.6%)      0.7%
 EFFECTIVE MASS      1.6588
 FORCE CONSTANT      0.3244

 VIBRATION         22   22A           ATOM PAIR      ENERGY CONTRIBUTION    RADIAL
 FREQUENCY           890.56         C  1 -- H  4         +43.7% ( 67.4%)      0.0%
 TRANSITION DIPOLE   2.0353         C  1 -- H  3         +38.5% ( 63.3%)      0.0%
 TRAVEL (Ang.)       0.2720         C  1 -- N  5         +12.0% ( 35.4%)      0.2%
 REDUCED MASS        1.0232         N  5 -- O  7          +2.0% ( 14.5%)      0.7%
 EFFECTIVE MASS      3.3444
 FORCE CONSTANT      0.4781

 VIBRATION         23   23A           ATOM PAIR      ENERGY CONTRIBUTION    RADIAL
 FREQUENCY           995.36         C 11 -- H 14         +24.3% ( 69.2%)      6.6%
 TRANSITION DIPOLE   0.0623         C 11 -- H 12         +22.1% ( 66.0%)     23.9%
 TRAVEL (Ang.)       0.1959         C 11 -- H 13         +15.2% ( 54.6%)     10.3%
 REDUCED MASS        1.7650         C  8 -- O  9         +13.8% ( 52.2%)     98.9%
 EFFECTIVE MASS      8.1736         C  8 -- C 11         +12.8% ( 50.2%)     58.4%
 FORCE CONSTANT      1.0303         O  9 -- H 15         +10.2% ( 44.8%)     19.1%

 VIBRATION         24   24A           ATOM PAIR      ENERGY CONTRIBUTION    RADIAL
 FREQUENCY          1028.72         C 11 -- H 12         +27.9% ( 68.1%)      8.0%
 TRANSITION DIPOLE   1.2023         C 11 -- H 13         +26.4% ( 66.2%)     28.0%
 TRAVEL (Ang.)       0.2404         C  8 -- C 11         +19.5% ( 56.9%)      9.5%
 REDUCED MASS        1.1344         C 11 -- H 14         +15.2% ( 50.2%)      1.0%
 EFFECTIVE MASS      5.5177
 FORCE CONSTANT      0.7073

 VIBRATION         25   25A           ATOM PAIR      ENERGY CONTRIBUTION    RADIAL
 FREQUENCY          1045.77         C  8 -- C 11         +23.6% ( 70.5%)     69.6%
 TRANSITION DIPOLE   0.7569         C 11 -- H 14         +23.5% ( 70.3%)     73.9%
 TRAVEL (Ang.)       0.1768         C 11 -- H 13         +19.9% ( 64.8%)      0.4%
 REDUCED MASS        2.0619         C 11 -- H 12         +16.3% ( 58.6%)      2.8%
 EFFECTIVE MASS      9.2171
 FORCE CONSTANT      1.3286

 VIBRATION         26   26A           ATOM PAIR      ENERGY CONTRIBUTION    RADIAL
 FREQUENCY          1076.03         C  1 -- H  4         +36.0% ( 79.5%)     17.2%
 TRANSITION DIPOLE   0.0558         C  1 -- H  3         +35.9% ( 79.4%)     17.4%
 TRAVEL (Ang.)       0.2225         C  1 -- N  5         +14.1% ( 49.8%)      0.0%
 REDUCED MASS        1.2658         O  6 -- O  7          +6.1% ( 32.7%)      0.1%
 EFFECTIVE MASS      6.1978
 FORCE CONSTANT      0.8635

 VIBRATION         27   27A           ATOM PAIR      ENERGY CONTRIBUTION    RADIAL
 FREQUENCY          1199.66         C 11 -- H 13         +44.9% ( 60.2%)      0.9%
 TRANSITION DIPOLE   1.1097         C 11 -- H 12         +34.2% ( 52.6%)      4.1%
 TRAVEL (Ang.)       0.3648         C 11 -- H 14         +10.0% ( 28.5%)     40.7%
 REDUCED MASS        0.4223         C  8 -- C 11          +7.1% ( 24.0%)     21.7%
 EFFECTIVE MASS      1.7985
 FORCE CONSTANT      0.3581

 VIBRATION         28   28A           ATOM PAIR      ENERGY CONTRIBUTION    RADIAL
 FREQUENCY          1210.72         C 11 -- H 14         +49.5% ( 60.8%)      0.0%
 TRANSITION DIPOLE   0.9408         C 11 -- H 12         +23.5% ( 41.9%)      3.2%
 TRAVEL (Ang.)       0.3833         C 11 -- H 13         +19.8% ( 38.4%)     12.3%
 REDUCED MASS        0.3792         C  8 -- C 11          +4.2% ( 17.7%)     26.4%
 EFFECTIVE MASS      1.5419
 FORCE CONSTANT      0.3275

 VIBRATION         29   29A           ATOM PAIR      ENERGY CONTRIBUTION    RADIAL
 FREQUENCY          1214.44         O  6 -- O  7         +29.8% ( 70.7%)    100.0%
 TRANSITION DIPOLE   1.8750         N  5 -- O  7         +16.6% ( 52.8%)     97.1%
 TRAVEL (Ang.)       0.1323         N  5 -- O  6         +16.1% ( 51.9%)     96.3%
 REDUCED MASS        3.1710         C  1 -- H  4         +13.7% ( 47.9%)     96.4%
 EFFECTIVE MASS     12.3064         C  1 -- H  3         +13.4% ( 47.4%)     90.5%
 FORCE CONSTANT      2.7555

 VIBRATION         30   30A           ATOM PAIR      ENERGY CONTRIBUTION    RADIAL
 FREQUENCY          1215.50         O 16 -- H 17         +54.2% ( 67.4%)      5.4%
 TRANSITION DIPOLE   1.1637         H  2 -- O 16         +22.2% ( 43.1%)     12.5%
 TRAVEL (Ang.)       0.3035         H 15 -- O 16          +6.3% ( 22.9%)     22.2%
 REDUCED MASS        0.6022         O  9 -- H 15          +5.0% ( 20.4%)     19.7%
 EFFECTIVE MASS      2.9190
 FORCE CONSTANT      0.5242

 VIBRATION         31   31A           ATOM PAIR      ENERGY CONTRIBUTION    RADIAL
 FREQUENCY          1275.71         O  9 -- H 15         +26.7% ( 74.3%)      0.0%
 TRANSITION DIPOLE   2.3990         C  8 -- O  9         +20.9% ( 65.8%)     99.2%
 TRAVEL (Ang.)       0.1781         H 15 -- O 16         +18.1% ( 61.2%)      8.5%
 REDUCED MASS        1.6672         C  8 -- C 11         +14.8% ( 55.4%)     69.0%
 EFFECTIVE MASS      7.8977         C  8 -- O 10         +10.6% ( 46.8%)      4.4%
 FORCE CONSTANT      1.5986

 VIBRATION         32   32A           ATOM PAIR      ENERGY CONTRIBUTION    RADIAL
 FREQUENCY          1329.71         C 11 -- H 14         +35.6% ( 62.1%)      1.7%
 TRANSITION DIPOLE   1.2284         C 11 -- H 12         +27.8% ( 54.9%)      1.6%
 TRAVEL (Ang.)       0.3094         C 11 -- H 13         +24.4% ( 51.3%)      1.2%
 REDUCED MASS        0.5297         C  8 -- C 11          +8.6% ( 30.5%)     95.7%
 EFFECTIVE MASS      2.4893
 FORCE CONSTANT      0.5518

 VIBRATION         33   33A           ATOM PAIR      ENERGY CONTRIBUTION    RADIAL
 FREQUENCY          1363.43         O  9 -- H 15         +23.3% ( 65.2%)     47.3%
 TRANSITION DIPOLE   2.5940         C  8 -- O  9         +20.0% ( 60.4%)     78.0%
 TRAVEL (Ang.)       0.1632         H 15 -- O 16         +17.8% ( 56.9%)     16.6%
 REDUCED MASS        1.8571         C  8 -- O 10         +16.3% ( 54.5%)     20.0%
 EFFECTIVE MASS      6.8286         C  8 -- C 11         +15.9% ( 53.8%)     52.4%
 FORCE CONSTANT      2.0340

 VIBRATION         34   34A           ATOM PAIR      ENERGY CONTRIBUTION    RADIAL
 FREQUENCY          1366.78         C  1 -- H  3         +35.5% ( 63.1%)      1.6%
 TRANSITION DIPOLE   0.4427         C  1 -- H  4         +34.8% ( 62.5%)      1.7%
 TRAVEL (Ang.)       0.3124         C  1 -- N  5          +7.6% ( 29.2%)     99.8%
 REDUCED MASS        0.5054         N  5 -- O  7          +5.0% ( 23.8%)     78.0%
 EFFECTIVE MASS      3.7635
 FORCE CONSTANT      0.5563

 VIBRATION         35   35A           ATOM PAIR      ENERGY CONTRIBUTION    RADIAL
 FREQUENCY          1499.33         N  5 -- O  6         +34.7% ( 82.7%)     85.8%
 TRANSITION DIPOLE   8.8378         N  5 -- O  7         +34.3% ( 82.2%)     86.3%
 TRAVEL (Ang.)       0.0833         C  1 -- N  5         +22.7% ( 66.9%)      0.0%
 REDUCED MASS        6.4809         O  6 -- O  7          +6.0% ( 34.3%)      0.0%
 EFFECTIVE MASS     13.8664
 FORCE CONSTANT      8.5838

 VIBRATION         36   36A           ATOM PAIR      ENERGY CONTRIBUTION    RADIAL
 FREQUENCY          1675.52         C  1 -- N  5         +41.0% ( 95.8%)     99.9%
 TRANSITION DIPOLE   9.9238         N  5 -- O  6         +19.4% ( 65.9%)     40.5%
 TRAVEL (Ang.)       0.0801         N  5 -- O  7         +19.2% ( 65.5%)     37.9%
 REDUCED MASS        6.2735         C  1 -- H  4          +9.2% ( 45.3%)     24.6%
 EFFECTIVE MASS     13.1003
 FORCE CONSTANT     10.3767

 VIBRATION         37   37A           ATOM PAIR      ENERGY CONTRIBUTION    RADIAL
 FREQUENCY          1786.76         C  8 -- O 10         +49.5% ( 95.2%)     99.0%
 TRANSITION DIPOLE   6.4032         C  8 -- C 11         +23.7% ( 66.0%)     59.0%
 TRAVEL (Ang.)       0.0782         C  8 -- O  9         +22.7% ( 64.5%)     13.2%
 REDUCED MASS        6.1729         O  9 -- H 15          +1.5% ( 16.6%)      1.2%
 EFFECTIVE MASS     12.5233
 FORCE CONSTANT     11.6110

 VIBRATION         38   38A           ATOM PAIR      ENERGY CONTRIBUTION    RADIAL
 FREQUENCY          1917.38         H  2 -- O 16         +89.5% ( 96.8%)     98.9%
 TRANSITION DIPOLE   2.5371         H 15 -- O 16          +2.9% ( 17.3%)     18.8%
 TRAVEL (Ang.)       0.1479         O  9 -- H 15          +1.8% ( 13.9%)     83.9%
 REDUCED MASS        1.6078         O 16 -- H 17          +1.7% ( 13.4%)     44.5%
 EFFECTIVE MASS      2.9979
 FORCE CONSTANT      3.4825

 VIBRATION         39   39A           ATOM PAIR      ENERGY CONTRIBUTION    RADIAL
 FREQUENCY          2304.37         O  9 -- H 15         +50.3% ( 96.1%)     98.1%
 TRANSITION DIPOLE   3.4749         H 15 -- O 16         +46.1% ( 91.9%)     84.8%
 TRAVEL (Ang.)       0.1863         O 16 -- H 17          +1.7% ( 17.9%)     90.4%
 REDUCED MASS        0.8429         H  2 -- O 16          +0.5% (  9.9%)     97.9%
 EFFECTIVE MASS      1.5107
 FORCE CONSTANT      2.6372

 VIBRATION         40   40A           ATOM PAIR      ENERGY CONTRIBUTION    RADIAL
 FREQUENCY          2627.50         C 11 -- H 13         +68.3% ( 85.3%)     99.7%
 TRANSITION DIPOLE   1.1605         C 11 -- H 14         +19.7% ( 45.8%)     89.4%
 TRAVEL (Ang.)       0.2202         C 11 -- H 12         +11.2% ( 34.6%)     79.6%
 REDUCED MASS        0.5293         C  8 -- C 11          +0.8% (  9.2%)      0.1%
 EFFECTIVE MASS      1.4241
 FORCE CONSTANT      2.1531

 VIBRATION         41   41A           ATOM PAIR      ENERGY CONTRIBUTION    RADIAL
 FREQUENCY          2643.81         C 11 -- H 12         +50.6% ( 73.5%)     98.4%
 TRANSITION DIPOLE   1.1345         C 11 -- H 14         +46.9% ( 70.8%)     97.6%
 TRAVEL (Ang.)       0.2278         C 11 -- H 13          +1.5% ( 12.8%)     16.4%
 REDUCED MASS        0.4915         C  8 -- C 11          +0.9% (  9.7%)      0.1%
 EFFECTIVE MASS      1.4449
 FORCE CONSTANT      2.0243

 VIBRATION         42   42A           ATOM PAIR      ENERGY CONTRIBUTION    RADIAL
 FREQUENCY          2710.05         C  1 -- H  3         +54.3% ( 76.1%)     99.1%
 TRANSITION DIPOLE   1.1024         C  1 -- H  4         +44.5% ( 68.9%)     98.4%
 TRAVEL (Ang.)       0.2199         C  1 -- N  5          +1.1% ( 11.0%)      0.1%
 REDUCED MASS        0.5147
 EFFECTIVE MASS      1.5191
 FORCE CONSTANT      2.2274

 VIBRATION         43   43A           ATOM PAIR      ENERGY CONTRIBUTION    RADIAL
 FREQUENCY          2737.04         O 16 -- H 17         +96.0% ( 97.8%)     99.5%
 TRANSITION DIPOLE   1.7182         H 15 -- O 16          +1.7% ( 13.1%)     14.9%
 TRAVEL (Ang.)       0.1664         O  9 -- H 15          +1.5% ( 12.1%)     99.8%
 REDUCED MASS        0.8898         H  2 -- O 16          +0.4% (  6.3%)      0.6%
 EFFECTIVE MASS      1.3293
 FORCE CONSTANT      3.9274

 VIBRATION         44   44A           ATOM PAIR      ENERGY CONTRIBUTION    RADIAL
 FREQUENCY          2768.64         C 11 -- H 12         +38.1% ( 58.9%)     96.2%
 TRANSITION DIPOLE   0.7137         C 11 -- H 14         +32.4% ( 54.4%)     95.0%
 TRAVEL (Ang.)       0.2727         C 11 -- H 13         +28.8% ( 51.3%)     94.3%
 REDUCED MASS        0.3274         C  8 -- C 11          +0.3% (  5.3%)     95.0%
 EFFECTIVE MASS      1.1589
 FORCE CONSTANT      1.4788

 VIBRATION         45   45A           ATOM PAIR      ENERGY CONTRIBUTION    RADIAL
 FREQUENCY          2778.86         C  1 -- H  4         +54.8% ( 72.5%)     96.3%
 TRANSITION DIPOLE   1.3108         C  1 -- H  3         +44.1% ( 65.1%)     94.8%
 TRAVEL (Ang.)       0.2244         C  1 -- N  5          +0.6% (  7.7%)     97.9%
 REDUCED MASS        0.4819         O 16 -- H 17          +0.3% (  5.4%)     99.4%
 EFFECTIVE MASS      1.2414
 FORCE CONSTANT      2.1926

      SYMMETRY NUMBER FOR POINT-GROUP C1  =  1


          SYSTEM IS A GROUND STATE



 Title: ASE calculation


          MOLECULE IS NOT LINEAR

          THERE ARE 45 GENUINE VIBRATIONS IN THIS SYSTEM
          THIS THERMODYNAMICS CALCULATION IS LIMITED TO
          MOLECULES WHICH HAVE NO INTERNAL ROTATIONS




                    CALCULATED THERMODYNAMIC PROPERTIES
                                          *
   TEMP. (K)   PARTITION FUNCTION   H.O.F.    ENTHALPY  HEAT CAPACITY ENTROPY
                                   KCAL/MOL   CAL/MOLE    CAL/K/MOL  CAL/K/MOL


 298.00  VIB.     0.8709D+06                  6637.8003    36.2511    49.4540
         ROT.     0.1143D+07                   888.2803     2.9808    30.7011
         INT.     0.9956D+12                  7526.0806    39.2319    80.1551
         TRA.     0.1586D+28                  1480.4672     4.9680    40.6996
         TOT.                     -301.879    9006.5478    44.1999   120.8548

   *: NOTE: HEATS OF FORMATION ARE RELATIVE TO THE
            ELEMENTS IN THEIR STANDARD STATE AT 298K
              (=  Standard Enthalpy of Formation).

            Hvib:  Zero-point energy is not included.
                   frequencies of less than zero cm-1 are not included.
            Hrot = (3/2)RT
            Htra = (3/2)RT + pV = (5/2)RT

            Heat capacity is Cp, not Cv

          For more information, see: HTTP://OpenMOPAC.net/Manual/thermochemistry.html


           FORCE CONSTANT IN CARTESIAN COORDINATES (Millidynes/A)

    ATOM   CHEMICAL       X               Y               Z
   NUMBER   SYMBOL  FORCE CONSTANT  FORCE CONSTANT  FORCE CONSTANT

      1       C        2.005496        8.855760       10.683042
      2       H        3.701433        0.662846        0.188450
      3       H        0.275516        4.187035        0.741861
      4       H        0.389891        1.274506        3.585871
      5       N        3.394579       13.021383       13.804775
      6       O        0.740126        3.192224        7.952335
      7       O        0.392932        9.897482        1.552983
      8       C        7.582431        5.403642       13.829111
      9       O        5.637566        2.584284        4.462844
     10       O        1.801491        2.687144        9.840318
     11       C        6.386027        5.897635        7.238122
     12       H        0.885393        3.489938        0.811675
     13       H        2.878294        1.602868        0.624250
     14       H        1.541377        0.833842        2.882598
     15       H        1.611104        0.594325        2.064536
     16       O        4.863272        3.139203        1.305367
     17       H        1.936490        2.167256        0.773124

 **********************
 *                    *
 * JOB ENDED NORMALLY *
 *                    *
 **********************



 TOTAL JOB TIME:             1.17 SECONDS

 == MOPAC DONE ==
