
                                 *****************
                                 * O   R   C   A *
                                 *****************

                                            #,                                       
                                            ###                                      
                                            ####                                     
                                            #####                                    
                                            ######                                   
                                           ########,                                 
                                     ,,################,,,,,                         
                               ,,#################################,,                 
                          ,,##########################################,,             
                       ,#########################################, ''#####,          
                    ,#############################################,,   '####,        
                  ,##################################################,,,,####,       
                ,###########''''           ''''###############################       
              ,#####''   ,,,,##########,,,,          '''####'''          '####       
            ,##' ,,,,###########################,,,                        '##       
           ' ,,###''''                  '''############,,,                           
         ,,##''                                '''############,,,,        ,,,,,,###''
      ,#''                                            '''#######################'''  
     '                                                          ''''####''''         
             ,#######,   #######,   ,#######,      ##                                
            ,#'     '#,  ##    ##  ,#'     '#,    #''#        ######   ,####,        
            ##       ##  ##   ,#'  ##            #'  '#       #        #'  '#        
            ##       ##  #######   ##           ,######,      #####,   #    #        
            '#,     ,#'  ##    ##  '#,     ,#' ,#      #,         ##   #,  ,#        
             '#######'   ##     ##  '#######'  #'      '#     #####' # '####'        



                  #######################################################
                  #                        -***-                        #
                  #          Department of theory and spectroscopy      #
                  #    Directorship and core code : Frank Neese         #
                  #        Max Planck Institute fuer Kohlenforschung    #
                  #                Kaiser Wilhelm Platz 1               #
                  #                 D-45470 Muelheim/Ruhr               #
                  #                      Germany                        #
                  #                                                     #
                  #                  All rights reserved                #
                  #                        -***-                        #
                  #######################################################


                         Program Version 5.0.4 -  RELEASE  -


 With contributions from (in alphabetic order):
   Daniel Aravena         : Magnetic Suceptibility
   Michael Atanasov       : Ab Initio Ligand Field Theory (pilot matlab implementation)
   Alexander A. Auer      : GIAO ZORA, VPT2 properties, NMR spectrum
   Ute Becker             : Parallelization
   Giovanni Bistoni       : ED, misc. LED, open-shell LED, HFLD
   Martin Brehm           : Molecular dynamics
   Dmytro Bykov           : SCF Hessian
   Vijay G. Chilkuri      : MRCI spin determinant printing, contributions to CSF-ICE
   Dipayan Datta          : RHF DLPNO-CCSD density
   Achintya Kumar Dutta   : EOM-CC, STEOM-CC
   Dmitry Ganyushin       : Spin-Orbit,Spin-Spin,Magnetic field MRCI
   Miquel Garcia          : C-PCM and meta-GGA Hessian, CC/C-PCM, Gaussian charge scheme
   Yang Guo               : DLPNO-NEVPT2, F12-NEVPT2, CIM, IAO-localization
   Andreas Hansen         : Spin unrestricted coupled pair/coupled cluster methods
   Benjamin Helmich-Paris : MC-RPA, TRAH-SCF, COSX integrals
   Lee Huntington         : MR-EOM, pCC
   Robert Izsak           : Overlap fitted RIJCOSX, COSX-SCS-MP3, EOM
   Marcus Kettner         : VPT2
   Christian Kollmar      : KDIIS, OOCD, Brueckner-CCSD(T), CCSD density, CASPT2, CASPT2-K
   Simone Kossmann        : Meta GGA functionals, TD-DFT gradient, OOMP2, MP2 Hessian
   Martin Krupicka        : Initial AUTO-CI
   Lucas Lang             : DCDCAS
   Marvin Lechner         : AUTO-CI (C++ implementation), FIC-MRCC
   Dagmar Lenk            : GEPOL surface, SMD
   Dimitrios Liakos       : Extrapolation schemes; Compound Job, initial MDCI parallelization
   Dimitrios Manganas     : Further ROCIS development; embedding schemes
   Dimitrios Pantazis     : SARC Basis sets
   Anastasios Papadopoulos: AUTO-CI, single reference methods and gradients
   Taras Petrenko         : DFT Hessian,TD-DFT gradient, ASA, ECA, R-Raman, ABS, FL, XAS/XES, NRVS
   Peter Pinski           : DLPNO-MP2, DLPNO-MP2 Gradient
   Christoph Reimann      : Effective Core Potentials
   Marius Retegan         : Local ZFS, SOC
   Christoph Riplinger    : Optimizer, TS searches, QM/MM, DLPNO-CCSD(T), (RO)-DLPNO pert. Triples
   Tobias Risthaus        : Range-separated hybrids, TD-DFT gradient, RPA, STAB
   Michael Roemelt        : Original ROCIS implementation
   Masaaki Saitow         : Open-shell DLPNO-CCSD energy and density
   Barbara Sandhoefer     : DKH picture change effects
   Avijit Sen             : IP-ROCIS
   Kantharuban Sivalingam : CASSCF convergence, NEVPT2, FIC-MRCI
   Bernardo de Souza      : ESD, SOC TD-DFT
   Georgi Stoychev        : AutoAux, RI-MP2 NMR, DLPNO-MP2 response
   Willem Van den Heuvel  : Paramagnetic NMR
   Boris Wezisla          : Elementary symmetry handling
   Frank Wennmohs         : Technical directorship


 We gratefully acknowledge several colleagues who have allowed us to
 interface, adapt or use parts of their codes:
   Stefan Grimme, W. Hujo, H. Kruse, P. Pracht,  : VdW corrections, initial TS optimization,
                  C. Bannwarth, S. Ehlert          DFT functionals, gCP, sTDA/sTD-DF
   Ed Valeev, F. Pavosevic, A. Kumar             : LibInt (2-el integral package), F12 methods
   Garnet Chan, S. Sharma, J. Yang, R. Olivares  : DMRG
   Ulf Ekstrom                                   : XCFun DFT Library
   Mihaly Kallay                                 : mrcc  (arbitrary order and MRCC methods)
   Jiri Pittner, Ondrej Demel                    : Mk-CCSD
   Frank Weinhold                                : gennbo (NPA and NBO analysis)
   Christopher J. Cramer and Donald G. Truhlar   : smd solvation model
   Lars Goerigk                                  : TD-DFT with DH, B97 family of functionals
   V. Asgeirsson, H. Jonsson                     : NEB implementation
   FAccTs GmbH                                   : IRC, NEB, NEB-TS, DLPNO-Multilevel, CI-OPT
                                                   MM, QMMM, 2- and 3-layer-ONIOM, Crystal-QMMM,
                                                   LR-CPCM, SF, NACMEs, symmetry and pop. for TD-DFT,
                                                   nearIR, NL-DFT gradient (VV10), updates on ESD,
                                                   ML-optimized integration grids
   S Lehtola, MJT Oliveira, MAL Marques          : LibXC Library
   Liviu Ungur et al                             : ANISO software


 Your calculation uses the libint2 library for the computation of 2-el integrals
 For citations please refer to: http://libint.valeyev.net

 Your ORCA version has been built with support for libXC version: 5.1.0
 For citations please refer to: https://tddft.org/programs/libxc/

 This ORCA versions uses:
   CBLAS   interface :  Fast vector & matrix operations
   LAPACKE interface :  Fast linear algebra routines
   SCALAPACK package :  Parallel linear algebra routines
   Shared memory     :  Shared parallel matrices
   BLAS/LAPACK       :  OpenBLAS 0.3.15  USE64BITINT DYNAMIC_ARCH NO_AFFINITY Prescott SINGLE_THREADED
        Core in use  :  Prescott
   Copyright (c) 2011-2014, The OpenBLAS Project




***************************************
The coordinates will be read from file: start.xyz
***************************************


Your calculation utilizes the atom-pairwise dispersion correction
with the Becke-Johnson damping scheme (D3BJ)
Cite in your paper:
S.Grimme, S.Ehrlich, L.Goerigk, J Comput Chem, (2011), 32, 1456–1465 
S.Grimme, J.Antony, S.Ehrlich and H.Krieg, J.Chem.Phys., 132, (2010), 154104 
   

Your calculation utilizes a Nudged-Elastic-Band implementation
 by V.Asgeirsson, C. Riplinger & H. Jonsson
Please cite in your paper:
 V. Asgeirsson et al., in prep. (2019)
   

================================================================================

----- Orbital basis set information -----
Your calculation utilizes the basis: def2-TZVP
   F. Weigend and R. Ahlrichs, Phys. Chem. Chem. Phys. 7, 3297 (2005).

----- AuxJ basis set information -----
Your calculation utilizes the auxiliary basis: def2/J
   F. Weigend, Phys. Chem. Chem. Phys. 8, 1057 (2006).

================================================================================
                                        WARNINGS
                       Please study these warnings very carefully!
================================================================================


WARNING: Geometry Optimization
  ===> : Switching off AutoStart
         For restart on a previous wavefunction, please use MOREAD

INFO   : the flag for use of the SHARK integral package has been found!

================================================================================
                                       INPUT FILE
================================================================================
NAME = neb.inp
|  1> ! NEB-TS b3lyp D3 def2-TZVP CPCM
|  2> 
|  3> %pal
|  4> nprocs 102
|  5> end
|  6> 
|  7> %cpcm
|  8> epsilon 78.4
|  9> end
| 10> 
| 11> %neb
| 12> NEB_End_XYZFile "end.xyz"
| 13> Nimages 6
| 14> end
| 15> 
| 16> 
| 17> *XYZfile 0 1 start.xyz
| 18> 
| 19>                          ****END OF INPUT****
================================================================================


--------------------------------------------------------------------------------
                        Nudged Elastic Band Calculation
--------------------------------------------------------------------------------

Number of images (incl. end points)     ....  8
Number of intermediate images           ....  6
Number of optimized images              ....  6
Optimization of end points before NEB   ....  NO
Use existing gbw files for MO input     ....  NO
Number of atoms                         ....  31
Number of (active) degrees of freedom   ....  93
Constrained atoms                       ....  None

-----------------------------------------
  REACTANT (ANGSTROEM)
-----------------------------------------
C      0.679349    -0.350344    -0.224639 
H      0.247823     0.643294    -0.272091 
N     -0.930725    -1.321215     1.428793 
O     -1.801727    -1.035320     0.626408 
O     -1.141929    -1.812338     2.526835 
H      1.790427    -1.836146    -1.223651 
C      0.521070    -1.085451     1.060039 
H      0.965114    -2.083547     1.036033 
H      0.923858    -0.538834     1.913717 
C      1.350909    -0.846126    -1.256621 
H      1.484165    -0.272006    -2.165208 
C      5.443259    -3.677891     0.118579 
C      6.730670    -3.165722    -0.008096 
C      6.908887    -1.788071     0.202121 
C      5.786217    -1.031086     0.529730 
C      4.545541    -1.639828     0.635172 
N      4.368960    -2.946896     0.431347 
H      5.272137    -4.738001    -0.041644 
H      5.880991     0.034032     0.700943 
H      3.663840    -1.063064     0.888143 
C      7.880056    -4.065344    -0.355578 
H      8.629978    -4.068695     0.439794 
H      8.382483    -3.729059    -1.265820 
H      7.541526    -5.089737    -0.508580 
C      8.260429    -1.152363     0.076360 
H      8.214637    -0.086118     0.293195 
H      8.658629    -1.285236    -0.933048 
H      8.975520    -1.617635     0.759066 
H      2.753205    -3.709668     0.604105 
O      1.860152    -4.122436     0.737714 
H      1.496751    -4.224029    -0.150301 

-----------------------------------------
  PRODUCT (ANGSTROEM)
-----------------------------------------
C      1.788279     0.201848     0.048819 
H      0.908471     0.226826    -0.584314 
N      1.127100    -2.042304     0.726650 
O      0.094278    -2.012096    -0.021330 
O      1.343759    -3.081658     1.443140 
H      3.488416     1.299783     0.706556 
C      1.998442    -1.016003     0.766384 
H      3.227321    -1.958304    -0.691719 
H      2.807427    -1.138669     1.470705 
C      2.591225     1.280555     0.097715 
H      2.370818     2.165655    -0.483463 
C      6.483075     0.203218    -0.392001 
C      7.183602     1.388192    -0.287613 
C      6.828165     2.446019    -1.149522 
C      5.788057     2.251212    -2.058781 
C      5.126467     1.045151    -2.109712 
N      5.494074     0.057893    -1.286123 
H      6.690834    -0.654116     0.232193 
H      5.490646     3.045668    -2.728477 
H      4.310047     0.835896    -2.783914 
C      8.285060     1.526368     0.717858 
H      8.077896     2.349031     1.405692 
H      9.233214     1.750492     0.223892 
H      8.403111     0.611297     1.295417 
C      7.551792     3.751483    -1.088657 
H      7.159621     4.455250    -1.819703 
H      8.618861     3.604346    -1.273796 
H      7.464996     4.190734    -0.091514 
H      4.965055    -0.838988    -1.314994 
O      3.980264    -2.246366    -1.245606 
H      3.595616    -2.481219    -2.100736 



----------------------
NEB settings
----------------------
Method type                             ....  climbing image
Threshold for climbing image            ....  2.00e-02 Eh/Bohr 
Free endpoints                          ....  off 
Tangent type                            ....  improved 
Number of intermediate images           ....  6 
Number of images free to move           ....  6 
Spring type for image distribution      ....  distance between adjacent images 
Spring constant                         ....  energy weighted (0.0100 -to- 0.1000) Eh/Bohr^2 
Spring force perp. to the path          ....  none 
Generation of initial path              ....  image dependent pair potential 
Initial path via TS guess               ....  off 

Minimization of RMSD: Rotation          ....  always 
Minimization of RMSD: Translation type  ....  centroid 
Center fixed to origin                  ....  true 
Remove external force                   ....  true 

Reparametrization of the path           ....  off 
Convergence thresholds:
Convergence monitored for               ....  all images
Scaling factor                          ....  10.00

Convergence parameters for regular images:
               Max(|Fp|)                ....  2.00e-02 Eh/Bohr
               RMS(Fp)                  ....  1.00e-02 Eh/Bohr

Convergence parameters for climbing image:
               Max(|F|)                 ....  2.00e-03 Eh/Bohr
               RMS(F)                   ....  1.00e-03 Eh/Bohr
Optimization method:
Method                                  ....  L-BFGS
Max. iterations                         ....  500 
Step size                               ....  1.00 
Maximum allowed step size               ....  0.10 Bohr

LBFGS parameters: 
               Memory                   ....  20 
               Initial step size        ....  0.0010 
               Estimate curvature       ....  YES 
               Reset on maxmove         ....  YES 
               Reparam. on reset        ....  NO 
Generation of  the initial path:
Minimize RMSD between reactant and product configurations     .... done
       RMSD before minimization         ....  4.5006 Bohr
       RMSD after minimization          ....  1.9092 Bohr
Performing linear interpolation         ....  done
Interpolation using                     ....  IDPP (Image Dependent Pair Potential)
IDPP-Settings:
       Remove global transl. and rot.   ...   true
       Convergence tolerance            ....  0.0100 1/Ang.^3
       Max. numer of iterations         ....    7000
       Spring constant                  ....  1.0000 1/Ang.^4
       Time step                        ....  0.0100 fs
       Max. movement per iteration      ....  0.0500 Ang.
       Full print                       ....  false 
idpp initial path generation successfully converged in 218 iterations
Displacement along initial path:             24.5507 Bohr
Writing initial trajectory to file      ....  neb_initial_path_trj.xyz



----------------------
NEB OPTIMIZATION      
----------------------

Following output files will be written:
Energy profile during opt. written to    ....  neb.interp
Optimization log-file                    ....  neb.NEB.log
Current trajectory will be written to    ....  neb_MEP_trj.xyz
       and to allxyz file                ....  neb_MEP.allxyz
       and individual images to xyz file ....  neb_im{NIm}.xyz
Trajectory history will be written to    ....  neb_MEP_ALL_trj.xyz
Converged CI will be written to          ....  neb_NEB-CI_converged.xyz
Converged TS will be written to          ....  neb_NEB-TS_converged.xyz

Single point energy and gradient calculation of reactant and
product configurations (have to be performed only once)
Properties of fixed NEB end points:
               Reactant:
                         E               ....   -725.717758 Eh
                         RMS(F)          ....      0.000270 Eh/Bohr
                         MAX(|F|)        ....      0.001035 Eh/Bohr
               Product:
                         E               ....   -725.710142 Eh
                         RMS(F)          ....      0.000130 Eh/Bohr
                         MAX(|F|)        ....      0.000465 Eh/Bohr



Starting iterations:

Optim.  Iteration  HEI  E(HEI)-E(0)  max(|Fp|)   RMS(Fp)    dS
Switch-on CI threshold               0.020000 
   LBFGS     0      4    0.165967    0.075093   0.012315  24.5507       
   LBFGS     1      4    0.154954    0.061320   0.010603  24.4218       
   LBFGS     2      4    0.147041    0.054548   0.009733  24.3071       
   LBFGS     3      4    0.140370    0.053222   0.009074  24.1983       
   LBFGS     4      4    0.134642    0.055322   0.008658  24.0864       
   LBFGS     5      4    0.128932    0.056750   0.008129  23.9798       
   LBFGS     6      4    0.123390    0.056517   0.007766  23.8606       
   LBFGS     7      4    0.117879    0.054652   0.007177  23.7523       
   LBFGS     8      4    0.111757    0.051286   0.006818  23.6200       
   LBFGS     9      4    0.105907    0.046633   0.006109  23.5118       
   LBFGS    10      4    0.099045    0.041822   0.005878  23.3814       
   LBFGS    11      4    0.092212    0.036272   0.005186  23.2795       
   LBFGS    12      4    0.084541    0.036870   0.004865  23.1775       
   LBFGS    13      4    0.075823    0.039116   0.004581  23.0907       
   LBFGS    14      4    0.064140    0.038507   0.004710  23.0095       
   LBFGS    15      4    0.054248    0.034048   0.004555  22.9696       
   LBFGS    16      4    0.045063    0.040912   0.004484  22.9478       
   LBFGS    17      4    0.038363    0.077509   0.007919  22.9168       
   LBFGS    18      4    0.034416    0.091161   0.008536  22.9140       
   LBFGS    19      4    0.033231    0.015991   0.002563  22.9095       

Image  4 will be converted to a climbing image in the next iteration (max(|Fp|) < 0.0200) 

Optim.  Iteration  CI   E(CI)-E(0)   max(|Fp|)   RMS(Fp)    dS     max(|FCI|)   RMS(FCI)
Convergence thresholds               0.020000   0.010000            0.002000    0.001000 
   LBFGS    20      4    0.032662    0.010933   0.002031  22.8988    0.020947    0.004558       
   LBFGS    21      4    0.029472    0.010739   0.001826  22.8618    0.015663    0.003902       
   LBFGS    22      4    0.026508    0.012421   0.001909  22.8219    0.014457    0.003595       
   LBFGS    23      4    0.023803    0.009617   0.001486  22.7921    0.013000    0.003242       
   LBFGS    24      4    0.022590    0.008941   0.001447  22.7736    0.012315    0.003036       
   LBFGS    25      4    0.021519    0.008630   0.001342  22.7585    0.012039    0.002911       
   LBFGS    26      4    0.020621    0.008507   0.001404  22.7434    0.012221    0.002857       
   LBFGS    27      4    0.019805    0.011916   0.001511  22.7321    0.012361    0.002822       
   LBFGS    28      4    0.019191    0.023866   0.002261  22.7224    0.012345    0.002805       
   LBFGS    29      4    0.018638    0.043677   0.003857  22.7172    0.012378    0.002829       
   LBFGS    30      4    0.018375    0.030903   0.002911  22.7181    0.012890    0.002840       
   LBFGS    31      4    0.018039    0.011171   0.001407  22.7161    0.013302    0.002875       
   LBFGS    32      4    0.017612    0.009573   0.001240  22.7094    0.013636    0.002914       
   LBFGS    33      4    0.017094    0.033789   0.003135  22.6958    0.013697    0.002942       
   LBFGS    34      4    0.016584    0.047954   0.004316  22.6943    0.013891    0.003012       
   LBFGS    35      4    0.016455    0.029056   0.002799  22.7000    0.014428    0.003031       
   LBFGS    36      4    0.016332    0.004798   0.000913  22.7036    0.014782    0.003080       
   LBFGS    37      4    0.016075    0.014260   0.001677  22.7119    0.015407    0.003192       
   LBFGS    38      4    0.015869    0.061962   0.005911  22.7235    0.015601    0.003269       
   LBFGS    39      4    0.015837    0.012373   0.001282  22.7280    0.015720    0.003251       
   LBFGS    40      4    0.015659    0.037399   0.003655  22.7574    0.016138    0.003328       
   LBFGS    41      4    0.015345    0.071407   0.007511  22.8381    0.017012    0.003511       
   LBFGS    42      4    0.015340    0.022240   0.001893  22.8479    0.017359    0.003545       
   LBFGS    43      4    0.015335    0.006771   0.000864  22.8501    0.017498    0.003564       
   LBFGS    44      4    0.015326    0.051575   0.003855  22.8799    0.018500    0.003738       
   LBFGS    45      4    0.015335    0.026586   0.002127  22.9041    0.018629    0.003764       
   LBFGS    46      4    0.015354    0.017854   0.001491  22.9132    0.018804    0.003797       
   LBFGS    47      4    0.015514    0.008813   0.000994  22.9754    0.019901    0.004005       
   LBFGS    48      4    0.016111    0.041643   0.003679  23.0246    0.022462    0.004480       
   LBFGS    49      4    0.016737    0.021818   0.002129  23.0904    0.024335    0.004827       
   LBFGS    50      4    0.016737    0.021817   0.002129  23.0904    0.024334    0.004827       
   LBFGS    51      4    0.017842    0.079084   0.006117  23.1214    0.026362    0.005214       
   LBFGS    52      4    0.017897    0.050277   0.004039  23.1250    0.026491    0.005238       
   LBFGS    53      4    0.018615    0.041799   0.003598  23.1512    0.027679    0.005462       
   LBFGS    54      4    0.020621    0.033724   0.003347  23.2213    0.030359    0.005952       
   LBFGS    55      4    0.022950    0.047878   0.004104  23.2352    0.032941    0.006429       
   LBFGS    56      4    0.025721    0.063253   0.005832  23.2667    0.034723    0.006730       
   LBFGS    57      4    0.029715    0.088276   0.008591  23.3343    0.035640    0.006813       
   LBFGS    58      4    0.030871    0.019265   0.001911  23.3613    0.035025    0.006603       
   LBFGS    59      4    0.032380    0.014080   0.001749  23.3670    0.034075    0.006335       
   LBFGS    60      4    0.035701    0.038818   0.003809  23.3941    0.030443    0.005428       
   LBFGS    61      4    0.036976    0.046475   0.003891  23.3901    0.027487    0.004783       
   LBFGS    62      4    0.037895    0.044909   0.004209  23.3894    0.023383    0.003969       
   LBFGS    63      4    0.038051    0.047175   0.004133  23.3922    0.016846    0.002837       
   LBFGS    64      4    0.037712    0.034047   0.002972  23.3834    0.015153    0.002566       
   LBFGS    65      4    0.037435    0.023081   0.002219  23.3761    0.013918    0.002377       
   LBFGS    66      4    0.036097    0.013961   0.001407  23.3570    0.007946    0.001581       
   LBFGS    67      4    0.035237    0.043096   0.004087  23.3326    0.005958    0.001389       
   LBFGS    68      4    0.034896    0.022399   0.001774  23.3284    0.005013    0.001191       
   LBFGS    69      4    0.034147    0.044749   0.003412  23.3454    0.002782    0.000935       
   LBFGS    70      4    0.034095    0.005117   0.000906  23.3454    0.002614    0.000832       
   LBFGS    71      4    0.034045    0.007930   0.000939  23.3446    0.002432    0.000789       
   LBFGS    72      4    0.033678    0.021884   0.002064  23.3497    0.003866    0.000854       
   LBFGS    73      4    0.033620    0.014403   0.001300  23.3528    0.001849    0.000635       

                                .--------------------.
          ----------------------| CI-NEB convergence |-------------------------
          Item                value                   Tolerance       Converged
          ---------------------------------------------------------------------
          RMS(Fp)             0.0013004034            0.0100000000      YES
          MAX(|Fp|)           0.0144028818            0.0200000000      YES
          RMS(FCI)            0.0006353085            0.0010000000      YES
          MAX(|FCI|)          0.0018487360            0.0020000000      YES
          ---------------------------------------------------------------------

The elastic band and climbing image have converged successfully to a MEP in 73 iterations!


                    *********************H U R R A Y*********************
                    ***        THE NEB OPTIMIZATION HAS CONVERGED     ***
                    *****************************************************



---------------------------------------------------------------
                         PATH SUMMARY              
---------------------------------------------------------------
All forces in Eh/Bohr.

Image Dist.(Ang.)    E(Eh)   dE(kcal/mol)  max(|Fp|)  RMS(Fp)
  0     0.000    -725.71776      0.00       0.00104   0.00027
  1     3.798    -725.71419      2.24       0.01440   0.00276
  2     5.830    -725.70715      6.66       0.00640   0.00142
  3     7.608    -725.70483      8.11       0.00334   0.00108
  4     8.152    -725.68414     21.10       0.00181   0.00062 <= CI
  5     8.548    -725.70349      8.96       0.00274   0.00097
  6     9.733    -725.70845      5.84       0.00106   0.00029
  7    12.358    -725.71014      4.78       0.00046   0.00013

Straight line distance between images along the path:
        D( 0- 1) =   3.7980 Ang.
        D( 1- 2) =   2.0315 Ang.
        D( 2- 3) =   1.7779 Ang.
        D( 3- 4) =   0.5449 Ang.
        D( 4- 5) =   0.3960 Ang.
        D( 5- 6) =   1.1848 Ang.
        D( 6- 7) =   2.6246 Ang.

---------------------------------------------------------------
               INFORMATION ABOUT SADDLE POINT     
---------------------------------------------------------------

Climbing image                            ....  4 
Energy                                    ....  -725.68413853 Eh
Max. abs. force                           ....  1.8487e-03 Eh/Bohr

-----------------------------------------
  SADDLE POINT (ANGSTROEM)
-----------------------------------------
C     -3.277749     1.634901     0.179368 
H     -4.122680     2.038139    -0.366524 
N     -4.927781     0.214924     1.325127 
O     -5.819762     0.680822     0.604747 
O     -5.192026    -0.504150     2.300333 
H     -1.203808     1.795804     0.554406 
C     -3.544831     0.447894     1.010164 
H     -3.042142    -0.579362     0.360298 
H     -2.983558     0.381562     1.938859 
C     -2.067863     2.168777     0.017867 
H     -1.904020     2.977068    -0.682037 
C      1.187598    -1.542769     0.004981 
C      2.493464    -1.078850     0.011777 
C      2.743546     0.201747    -0.519198 
C      1.690358     0.874096    -1.137440 
C      0.432616     0.309803    -1.181481 
N      0.190304    -0.857066    -0.574699 
H      0.916574    -2.482882     0.466472 
H      1.851256     1.842876    -1.590110 
H     -0.401192     0.776939    -1.682997 
C      3.611253    -1.939865     0.520148 
H      4.138131    -1.482708     1.360307 
H      4.347199    -2.079391    -0.276561 
H      3.247140    -2.920070     0.823142 
C      4.109951     0.811130    -0.451221 
H      4.098461     1.847045    -0.785868 
H      4.809023     0.251451    -1.078636 
H      4.505370     0.774671     0.566573 
H     -0.879646    -1.202593    -0.491325 
O     -2.266990    -1.521363    -0.222538 
H     -2.738195    -1.838579    -1.003936 

-----------------------------------------
  FORCES (Eh/Bohr)
-----------------------------------------
C      0.000433    -0.000502    -0.000208 
H      0.000464    -0.001284    -0.001357 
N      0.000494    -0.001091    -0.000455 
O      0.000581    -0.001252    -0.000802 
O      0.000903    -0.000669    -0.000025 
H      0.000240     0.000049     0.000072 
C      0.001300    -0.000181    -0.000387 
H     -0.001161     0.001805     0.000951 
H      0.000606     0.000235    -0.000446 
C     -0.000315     0.000479     0.000511 
H      0.000006     0.001849     0.001410 
C     -0.000093    -0.000214    -0.000422 
C      0.000039    -0.000287    -0.000555 
C     -0.000267    -0.000377    -0.000737 
C      0.000062     0.000147    -0.000509 
C     -0.000159     0.000370     0.000306 
N      0.000541     0.000541     0.000136 
H     -0.000311    -0.000290    -0.000863 
H     -0.000009    -0.000120    -0.000353 
H     -0.000610     0.000457     0.001405 
C     -0.000364     0.000048     0.000196 
H     -0.000997     0.000589     0.000308 
H      0.000172    -0.000557     0.000826 
H     -0.000408     0.000225     0.000752 
C     -0.000144    -0.000301    -0.000411 
H     -0.000503    -0.000319    -0.000442 
H     -0.000008    -0.000340    -0.000157 
H     -0.000762    -0.000273    -0.000168 
H     -0.000482     0.000157     0.000705 
O     -0.000145     0.000275     0.000519 
H      0.000716     0.000932     0.000338 

-----------------------------------------
  UNIT TANGENT
-----------------------------------------
C     -0.000680    -0.004590     0.024258 
H      0.034556    -0.021720    -0.045637 
N      0.055688     0.056445    -0.000894 
O     -0.025921     0.000490    -0.030107 
O      0.005678    -0.027737    -0.001142 
H      0.007007     0.036270     0.090858 
C     -0.123568     0.196820     0.125820 
H      0.332476    -0.444559    -0.327567 
H      0.052097    -0.133968    -0.049831 
C      0.022054    -0.000685     0.035718 
H      0.036109    -0.025710     0.011227 
C     -0.026407    -0.018550     0.027938 
C     -0.034346    -0.012308    -0.000258 
C     -0.032718    -0.011952    -0.012688 
C     -0.034027    -0.019364    -0.023607 
C     -0.041926     0.011451    -0.007524 
N     -0.022368     0.016230     0.033536 
H     -0.043883    -0.006764     0.025566 
H     -0.029131    -0.028748    -0.039263 
H     -0.049958    -0.004441     0.003447 
C     -0.027035     0.003145     0.010042 
H     -0.034473     0.022672     0.004803 
H     -0.023734     0.007828     0.012372 
H     -0.014662     0.003095     0.020806 
C     -0.034002    -0.007482    -0.011493 
H     -0.028012    -0.010403    -0.020557 
H     -0.028268    -0.014103    -0.000915 
H     -0.036618    -0.000757    -0.009422 
H      0.518846     0.206479    -0.016186 
O     -0.223932     0.190716     0.087924 
H     -0.148843     0.042199     0.082773 
 => Unit tangent is an approximation to the TS mode at the saddle point

Next a TS optimization is performed on the CI from the NEB run.

         *************************************************************
         *                       TS OPTIMIZATION                     *
         *************************************************************


Following output files will be written:
Converged TS will be written to          ....  neb_NEB-TS_converged.xyz
                                         ....  neb.xyz
Current trajectory will be written to    ....  neb_trj.xyz
Initial Hessian will be stored in        ....  neb.appr.hess
Geometry optimization settings:
Update method            Update   .... Bofill
Choice of coordinates    CoordSys .... Z-matrix Internals
Initial Hessian          InHess   .... Read

Convergence Tolerances:
Energy Change            TolE     ....  5.0000e-06 Eh
Max. Gradient            TolMAXG  ....  3.0000e-04 Eh/bohr
RMS Gradient             TolRMSG  ....  1.0000e-04 Eh/bohr
Max. Displacement        TolMAXD  ....  4.0000e-03 bohr
RMS Displacement         TolRMSD  ....  2.0000e-03 bohr
Strict Convergence                ....  False
------------------------------------------------------------------------------
                        ORCA OPTIMIZATION COORDINATE SETUP
------------------------------------------------------------------------------

The optimization will be done in new redundant internal coordinates
Making redundant internal coordinates   ...  (new redundants) done
Following TS mode number                ...     0
TS-active-atoms for coordinate setup... 7 28 
Evaluating the initial hessian          ... (Reading Exact Hessian)...  
InHessName: neb.appr.hess	The file <neb.appr.hess> is opened as a .hess file
done
done
Diagonalizing the Hessian               .... done
Dimension of the hessian                .... 142
Lowest eigenvalues of the non projected Hessian:
 -0.007899190 -0.000000000 -0.000000000 -0.000000000 -0.000000000
done
Evaluating the coordinates              ...  done
Calculating the B-matrix                .... done
Calculating the G-matrix                .... done
Diagonalizing the G-matrix              .... done
Small eigenvalue found = 2.185e-03
Small eigenvalue found = 5.308e-03
Small eigenvalue found = 8.962e-03
Small eigenvalue found = 1.846e-02
The first mode is                       ....   55
The number of degrees of freedom        ....   87

    -----------------------------------------------------------------
                    Redundant Internal Coordinates


    -----------------------------------------------------------------
         Definition                    Initial Value    d2E/dq (diagonal element)
    -----------------------------------------------------------------
      1. B(H   1,C   0)                  1.0837         0.368542   
      2. B(O   3,N   2)                  1.2376         0.874414   
      3. B(O   4,N   2)                  1.2401         0.867847   
      4. B(C   6,N   2)                  1.4374         0.463469   
      5. B(C   6,C   0)                  1.4733         0.457086   
      6. B(H   7,C   6)                  1.3154         0.130641   
      7. B(H   8,C   6)                  1.0872         0.363696   
      8. B(C   9,H   5)                  1.0833         0.369603   
      9. B(C   9,C   0)                  1.3323         0.771849   
     10. B(H  10,C   9)                  1.0817         0.371446   
     11. B(C  12,C  11)                  1.3858         0.592966   
     12. B(C  13,C  12)                  1.4087         0.540786   
     13. B(C  14,C  13)                  1.3941         0.568972   
     14. B(C  15,C  14)                  1.3792         0.616412   
     15. B(N  16,C  11)                  1.3419         0.632280   
     16. B(N  16,C  15)                  1.3373         0.633098   
     17. B(H  17,C  11)                  1.0818         0.371618   
     18. B(H  18,C  14)                  1.0814         0.371785   
     19. B(H  19,C  15)                  1.0793         0.375165   
     20. B(C  20,C  12)                  1.4997         0.420197   
     21. B(H  21,C  20)                  1.0920         0.357472   
     22. B(H  22,C  20)                  1.0935         0.355738   
     23. B(H  23,C  20)                  1.0887         0.361907   
     24. B(C  24,C  13)                  1.4977         0.428142   
     25. B(H  25,C  24)                  1.0887         0.361845   
     26. B(H  26,C  24)                  1.0934         0.355642   
     27. B(H  27,C  24)                  1.0925         0.357008   
     28. B(H  28,N  16)                  1.1274         0.231332   
     29. B(O  29,H  28)                  1.4486         0.085286   
     30. B(O  29,H   7)                  1.3520         0.127326   
     31. B(H  30,O  29)                  0.9660         0.508701   
     32. A(H   1,C   0,C   6)          116.2629         0.248243   
     33. A(H   1,C   0,C   9)          119.8585         0.253874   
     34. A(C   6,C   0,C   9)          123.7696         0.301584   
     35. A(O   3,N   2,C   6)          120.3238         0.292585   
     36. A(O   3,N   2,O   4)          121.4963         0.308492   
     37. A(O   4,N   2,C   6)          118.1191         0.292862   
     38. A(C   0,C   6,H   7)          106.3394         0.108695   
     39. A(H   7,C   6,H   8)          100.2002         0.045692   
     40. A(C   0,C   6,H   8)          115.9307         0.096319   
     41. A(N   2,C   6,H   8)          107.4369         0.089798   
     42. A(N   2,C   6,H   7)          110.4488         0.112268   
     43. A(C   0,C   6,N   2)          115.3772         0.164622   
     44. A(C   6,H   7,O  29)          167.4743         0.248868   
     45. A(H   5,C   9,H  10)          117.1888         0.212250   
     46. A(C   0,C   9,H   5)          121.7579         0.237855   
     47. A(C   0,C   9,H  10)          121.0267         0.238827   
     48. A(N  16,C  11,H  17)          116.2413         0.219873   
     49. A(C  12,C  11,H  17)          121.6618         0.222932   
     50. A(C  12,C  11,N  16)          122.0967         0.171257   
     51. A(C  13,C  12,C  20)          121.1551         0.243589   
     52. A(C  11,C  12,C  20)          120.7827         0.242808   
     53. A(C  11,C  12,C  13)          118.0182         0.161667   
     54. A(C  14,C  13,C  24)          120.8735         0.245996   
     55. A(C  12,C  13,C  24)          120.9806         0.241097   
     56. A(C  12,C  13,C  14)          118.1299         0.163919   
     57. A(C  15,C  14,H  18)          119.2658         0.218718   
     58. A(C  13,C  14,H  18)          120.3521         0.221177   
     59. A(C  13,C  14,C  15)          120.3820         0.165476   
     60. A(N  16,C  15,H  19)          116.6462         0.219743   
     61. A(C  14,C  15,H  19)          122.8358         0.220597   
     62. A(C  14,C  15,N  16)          120.5123         0.162788   
     63. A(C  15,N  16,H  28)          118.2231         0.240499   
     64. A(C  11,N  16,H  28)          121.1131         0.208515   
     65. A(C  11,N  16,C  15)          120.4763         0.185287   
     66. A(C  12,C  20,H  22)          109.1405         0.228218   
     67. A(C  12,C  20,H  21)          112.3374         0.231493   
     68. A(H  22,C  20,H  23)          108.2389         0.124003   
     69. A(H  21,C  20,H  23)          108.9157         0.132418   
     70. A(C  12,C  20,H  23)          111.2216         0.228269   
     71. A(H  21,C  20,H  22)          106.8124         0.124287   
     72. A(H  26,C  24,H  27)          106.6234         0.124148   
     73. A(H  25,C  24,H  27)          108.7801         0.129807   
     74. A(C  13,C  24,H  27)          111.0337         0.229774   
     75. A(H  25,C  24,H  26)          108.5066         0.127744   
     76. A(C  13,C  24,H  26)          110.4255         0.229647   
     77. A(C  13,C  24,H  25)          111.3203         0.228907   
     78. A(N  16,H  28,O  29)          171.8909         0.224154   
     79. A(H  28,O  29,H  30)          112.9111         0.130726   
     80. A(H   7,O  29,H  28)          118.4076         0.231737   
     81. A(H   7,O  29,H  30)          107.3270         0.138545   
     82. D(C   0,C   6,N   2,O   4)   -159.6759         0.022671   
     83. D(H   7,C   6,N   2,O   4)     79.7149         0.026353   
     84. D(H   7,C   6,C   0,C   9)    -71.7077         0.026797   
     85. D(H   7,C   6,C   0,H   1)    104.4803         0.025911   
     86. D(H   8,C   6,C   0,C   9)     38.6419         0.026134   
     87. D(H   7,C   6,N   2,O   3)    -97.4922         0.025410   
     88. D(N   2,C   6,C   0,H   1)    -18.3410         0.024520   
     89. D(N   2,C   6,C   0,C   9)    165.4711         0.025620   
     90. D(H   8,C   6,C   0,H   1)   -145.1702         0.025192   
     91. D(H   8,C   6,N   2,O   4)    -28.6588         0.023517   
     92. D(C   0,C   6,N   2,O   3)     23.1171         0.023902   
     93. D(H   8,C   6,N   2,O   3)    154.1341         0.022945   
     94. D(O  29,H   7,C   6,H   8)    -47.8907         0.074194   
     95. D(O  29,H   7,C   6,N   2)   -160.9719         0.076185   
     96. D(O  29,H   7,C   6,C   0)     73.1572         0.117011   
     97. D(H  10,C   9,C   0,C   6)    173.5833         0.024347   
     98. D(H  10,C   9,C   0,H   1)     -2.4747         0.024601   
     99. D(H   5,C   9,C   0,C   6)     -4.4889         0.026635   
    100. D(H   5,C   9,C   0,H   1)    179.4531         0.027705   
    101. D(C  20,C  12,C  11,H  17)      7.2238         0.011361   
    102. D(C  20,C  12,C  11,N  16)   -172.6033         0.011336   
    103. D(C  13,C  12,C  11,N  16)      5.0123         0.010488   
    104. D(C  13,C  12,C  11,H  17)   -175.1607         0.010439   
    105. D(C  24,C  13,C  12,C  20)     -7.0824         0.008513   
    106. D(C  24,C  13,C  12,C  11)    175.3114         0.007377   
    107. D(C  14,C  13,C  12,C  20)    171.4772         0.008267   
    108. D(C  14,C  13,C  12,C  11)     -6.1290         0.007249   
    109. D(H  18,C  14,C  13,C  24)      0.8677         0.009889   
    110. D(H  18,C  14,C  13,C  12)   -177.6936         0.009145   
    111. D(C  15,C  14,C  13,C  24)   -179.2930         0.007993   
    112. D(C  15,C  14,C  13,C  12)      2.1457         0.007720   
    113. D(H  19,C  15,C  14,H  18)      2.3177         0.013854   
    114. D(H  19,C  15,C  14,C  13)   -177.5234         0.012028   
    115. D(N  16,C  15,C  14,H  18)   -176.7924         0.012166   
    116. D(N  16,C  15,C  14,C  13)      3.3665         0.012456   
    117. D(H  28,N  16,C  15,C  14)    170.3391         0.014375   
    118. D(C  11,N  16,C  15,H  19)    176.0964         0.011731   
    119. D(C  11,N  16,C  15,C  14)     -4.7401         0.012624   
    120. D(H  28,N  16,C  11,H  17)      5.7012         0.016134   
    121. D(H  28,N  16,C  11,C  12)   -174.4629         0.013270   
    122. D(C  15,N  16,C  11,H  17)   -179.3635         0.012430   
    123. D(H  28,N  16,C  15,H  19)     -8.8244         0.015417   
    124. D(C  15,N  16,C  11,C  12)      0.4724         0.011410   
    125. D(H  23,C  20,C  12,C  13)   -175.7226         0.029617   
    126. D(H  23,C  20,C  12,C  11)      1.8176         0.029467   
    127. D(H  22,C  20,C  12,C  13)    -56.3711         0.029455   
    128. D(H  22,C  20,C  12,C  11)    121.1691         0.029474   
    129. D(H  21,C  20,C  12,C  13)     61.8979         0.029349   
    130. D(H  21,C  20,C  12,C  11)   -120.5619         0.029407   
    131. D(H  27,C  24,C  13,C  12)    -51.1480         0.029412   
    132. D(H  26,C  24,C  13,C  14)   -111.6164         0.029436   
    133. D(H  26,C  24,C  13,C  12)     66.9037         0.029408   
    134. D(H  25,C  24,C  13,C  14)      8.9768         0.029511   
    135. D(H  27,C  24,C  13,C  14)    130.3319         0.029507   
    136. D(H  25,C  24,C  13,C  12)   -172.5032         0.029402   
    137. D(O  29,H  28,N  16,C  15)    -81.4522         0.144082   
    138. D(O  29,H  28,N  16,C  11)     93.5942         0.136107   
    139. D(H  30,O  29,H  28,N  16)    155.5753         0.135256   
    140. D(H   7,O  29,H  28,N  16)     28.9777         0.090518   
    141. D(H  28,O  29,H   7,C   6)    -20.5603         0.162576   
    142. D(H  30,O  29,H   7,C   6)   -149.7862         0.113451   
    -----------------------------------------------------------------

Number of atoms                         .... 31
Number of degrees of freedom            .... 142

         *************************************************************
         *                GEOMETRY OPTIMIZATION CYCLE   1            *
         *************************************************************


           ************************************************************
           *        Program running with 102 parallel MPI-processes   *
           *              working on a common directory               *
           ************************************************************
------------------------------------------------------------------------------
                           ORCA GTO INTEGRAL CALCULATION
                           -- RI-GTO INTEGRALS CHOSEN --
------------------------------------------------------------------------------
------------------------------------------------------------------------------
                   ___                                                        
                  /   \      - P O W E R E D   B Y -                         
                 /     \                                                     
                 |  |  |   _    _      __       _____    __    __             
                 |  |  |  | |  | |    /  \     |  _  \  |  |  /  |          
                  \  \/   | |  | |   /    \    | | | |  |  | /  /          
                 / \  \   | |__| |  /  /\  \   | |_| |  |  |/  /          
                |  |  |   |  __  | /  /__\  \  |    /   |      \           
                |  |  |   | |  | | |   __   |  |    \   |  |\   \          
                \     /   | |  | | |  |  |  |  | |\  \  |  | \   \       
                 \___/    |_|  |_| |__|  |__|  |_| \__\ |__|  \__/        
                                                                              
                      - O R C A' S   B I G   F R I E N D -                    
                                      &                                       
                       - I N T E G R A L  F E E D E R -                       
                                                                              
 v1 FN, 2020, v2 2021                                                         
------------------------------------------------------------------------------


Reading SHARK input file neb.SHARKINP.tmp ... ok
----------------------
SHARK INTEGRAL PACKAGE
----------------------

Number of atoms                             ...     31
Number of basis functions                   ...    561
Number of shells                            ...    229
Maximum angular momentum                    ...      3
Integral batch strategy                     ... SHARK/LIBINT Hybrid
RI-J (if used) integral strategy            ... SPLIT-RIJ (Revised 2003 algorithm where possible)
Printlevel                                  ...      1
Contraction scheme used                     ... SEGMENTED contraction
Coulomb Range Separation                    ... NOT USED
Exchange Range Separation                   ... NOT USED
Finite Nucleus Model                        ... NOT USED
Auxiliary Coulomb fitting basis             ... AVAILABLE
   # of basis functions in Aux-J            ...    911
   # of shells in Aux-J                     ...    305
   Maximum angular momentum in Aux-J        ...      4
Auxiliary J/K fitting basis                 ... NOT available
Auxiliary Correlation fitting basis         ... NOT available
Auxiliary 'external' fitting basis          ... NOT available
Integral threshold                          ...     2.500000e-11
Primitive cut-off                           ...     2.500000e-12
Primitive pair pre-selection threshold      ...     2.500000e-12

Calculating pre-screening integrals         ... done (  0.1 sec) Dimension = 229
Organizing shell pair data                  ... done (  0.5 sec)
Shell pair information
Total number of shell pairs                 ...     26335
Shell pairs after pre-screening             ...     18700
Total number of primitive shell pairs       ...     78984
Primitive shell pairs kept                  ...     38603
          la=0 lb=0:   5374 shell pairs
          la=1 lb=0:   5516 shell pairs
          la=1 lb=1:   1455 shell pairs
          la=2 lb=0:   2529 shell pairs
          la=2 lb=1:   1320 shell pairs
          la=2 lb=2:    307 shell pairs
          la=3 lb=0:   1201 shell pairs
          la=3 lb=1:    640 shell pairs
          la=3 lb=2:    286 shell pairs
          la=3 lb=3:     72 shell pairs

Calculating one electron integrals          ... done (  0.1 sec)
Calculating RI/J V-Matrix + Cholesky decomp.... done (  0.1 sec)
Calculating Nuclear repulsion               ... done (  0.0 sec) ENN=    950.512629275634 Eh

SHARK setup successfully completed in   1.2 seconds

Maximum memory used throughout the entire GTOINT-calculation: 30.5 MB


           ************************************************************
           *        Program running with 102 parallel MPI-processes   *
           *              working on a common directory               *
           ************************************************************
-------------------------------------------------------------------------------
                                 ORCA SCF
-------------------------------------------------------------------------------

------------
SCF SETTINGS
------------
Hamiltonian:
 Density Functional     Method          .... DFT(GTOs)
 Exchange Functional    Exchange        .... B88
   X-Alpha parameter    XAlpha          ....  0.666667
   Becke's b parameter  XBeta           ....  0.004200
 Correlation Functional Correlation     .... LYP
 LDA part of GGA corr.  LDAOpt          .... VWN-5
 Gradients option       PostSCFGGA      .... off
 Hybrid DFT is turned on
   Fraction HF Exchange ScalHFX         ....  0.200000
   Scaling of DF-GGA-X  ScalDFX         ....  0.720000
   Scaling of DF-GGA-C  ScalDFC         ....  0.810000
   Scaling of DF-LDA-C  ScalLDAC        ....  1.000000
   Perturbative correction              ....  0.000000
   Density functional embedding theory  .... OFF
   NL short-range parameter             ....  4.800000
 RI-approximation to the Coulomb term is turned on
   Number of AuxJ basis functions       .... 911
   RIJ-COSX (HFX calculated with COS-X)).... on


General Settings:
 Integral files         IntName         .... neb
 Hartree-Fock type      HFTyp           .... RHF
 Total Charge           Charge          ....    0
 Multiplicity           Mult            ....    1
 Number of Electrons    NEL             ....  114
 Basis Dimension        Dim             ....  561
 Nuclear Repulsion      ENuc            ....    950.5126292756 Eh

Convergence Acceleration:
 DIIS                   CNVDIIS         .... on
   Start iteration      DIISMaxIt       ....    12
   Startup error        DIISStart       ....  0.200000
   # of expansion vecs  DIISMaxEq       ....     5
   Bias factor          DIISBfac        ....   1.050
   Max. coefficient     DIISMaxC        ....  10.000
 Trust-Rad. Augm. Hess. CNVTRAH         .... auto
   Auto Start mean grad. ratio tolernc. ....  1.125000
   Auto Start start iteration           ....     1
   Auto Start num. interpolation iter.  ....    10
   Max. Number of Micro iterations      ....    16
   Max. Number of Macro iterations      .... Maxiter - #DIIS iter
   Number of Davidson start vectors     ....     2
   Converg. threshold I  (grad. norm)   ....   1.000e-05
   Converg. threshold II (energy diff.) ....   1.000e-08
   Grad. Scal. Fac. for Micro threshold ....   0.100
   Minimum threshold for Micro iter.    ....   0.010
   NR start threshold (gradient norm)   ....   0.001
   Initial trust radius                 ....   0.400
   Minimum AH scaling param. (alpha)    ....   1.000
   Maximum AH scaling param. (alpha)    .... 1000.000
   Orbital update algorithm             .... Taylor
   White noise on init. David. guess    .... on
   Maximum white noise                  ....   0.010
   Quad. conv. algorithm                .... NR
 SOSCF                  CNVSOSCF        .... on
   Start iteration      SOSCFMaxIt      ....   150
   Startup grad/error   SOSCFStart      ....  0.003300
 Level Shifting         CNVShift        .... on
   Level shift para.    LevelShift      ....    0.2500
   Turn off err/grad.   ShiftErr        ....    0.0010
 Zerner damping         CNVZerner       .... off
 Static damping         CNVDamp         .... on
   Fraction old density DampFac         ....    0.7000
   Max. Damping (<1)    DampMax         ....    0.9800
   Min. Damping (>=0)   DampMin         ....    0.0000
   Turn off err/grad.   DampErr         ....    0.1000
 Fernandez-Rico         CNVRico         .... off

SCF Procedure:
 Maximum # iterations   MaxIter         ....   125
 SCF integral mode      SCFMode         .... Direct
   Integral package                     .... SHARK and LIBINT hybrid scheme
 Reset frequency        DirectResetFreq ....    20
 Integral Threshold     Thresh          ....  2.500e-11 Eh
 Primitive CutOff       TCut            ....  2.500e-12 Eh

Convergence Tolerance:
 Convergence Check Mode ConvCheckMode   .... Total+1el-Energy
 Convergence forced     ConvForced      .... 0
 Energy Change          TolE            ....  1.000e-08 Eh
 1-El. energy change                    ....  1.000e-05 Eh
 Orbital Gradient       TolG            ....  1.000e-05
 Orbital Rotation angle TolX            ....  1.000e-05
 DIIS Error             TolErr          ....  5.000e-07


Diagonalization of the overlap matrix:
Smallest eigenvalue                        ... 3.580e-05
Time for diagonalization                   ...    0.179 sec
Threshold for overlap eigenvalues          ... 1.000e-08
Number of eigenvalues below threshold      ... 0
Time for construction of square roots      ...    0.233 sec
Total time needed                          ...    0.415 sec

---------------------
INITIAL GUESS: MOREAD
---------------------
Guess MOs are being read from file: neb.gbw
Input Geometry matches current geometry (good)
Input basis set matches current basis set (good)
MOs were renormalized
MOs were reorthogonalized (Cholesky)
                      ------------------
                      INITIAL GUESS DONE (   0.6 sec)
                      ------------------
-------------------
DFT GRID GENERATION
-------------------

General Integration Accuracy     IntAcc      ... 4.388
Radial Grid Type                 RadialGrid  ... OptM3 with GC (2021)
Angular Grid (max. ang.)         AngularGrid ... 4 (Lebedev-302)
Angular grid pruning method      GridPruning ... 4 (adaptive)
Weight generation scheme         WeightScheme... Becke
Basis function cutoff            BFCut       ... 1.0000e-11
Integration weight cutoff        WCut        ... 1.0000e-14
Angular grids for H and He will be reduced by one unit
Partially contracted basis set               ... off
Rotationally invariant grid construction     ... off

Total number of grid points                  ...   141456
Total number of batches                      ...     2228
Average number of points per batch           ...       63
Average number of grid points per atom       ...     4563
Time for grid setup =    1.116 sec

--------------------
COSX GRID GENERATION
--------------------

GRIDX 1
-------
General Integration Accuracy     IntAcc      ... 3.816
Radial Grid Type                 RadialGrid  ... OptM3 with GC (2021)
Angular Grid (max. ang.)         AngularGrid ... 1 (Lebedev-50)
Angular grid pruning method      GridPruning ... 4 (adaptive)
Weight generation scheme         WeightScheme... Becke
Basis function cutoff            BFCut       ... 1.0000e-11
Integration weight cutoff        WCut        ... 1.0000e-14
Angular grids for H and He will be reduced by one unit
Partially contracted basis set               ... on
Rotationally invariant grid construction     ... off

Total number of grid points                  ...    18037
Total number of batches                      ...      297
Average number of points per batch           ...       60
Average number of grid points per atom       ...      582
UseSFitting                                  ... on

GRIDX 2
-------
General Integration Accuracy     IntAcc      ... 4.020
Radial Grid Type                 RadialGrid  ... OptM3 with GC (2021)
Angular Grid (max. ang.)         AngularGrid ... 2 (Lebedev-110)
Angular grid pruning method      GridPruning ... 4 (adaptive)
Weight generation scheme         WeightScheme... Becke
Basis function cutoff            BFCut       ... 1.0000e-11
Integration weight cutoff        WCut        ... 1.0000e-14
Angular grids for H and He will be reduced by one unit
Partially contracted basis set               ... on
Rotationally invariant grid construction     ... off

Total number of grid points                  ...    38759
Total number of batches                      ...      622
Average number of points per batch           ...       62
Average number of grid points per atom       ...     1250
UseSFitting                                  ... on

GRIDX 3
-------
General Integration Accuracy     IntAcc      ... 4.338
Radial Grid Type                 RadialGrid  ... OptM3 with GC (2021)
Angular Grid (max. ang.)         AngularGrid ... 3 (Lebedev-194)
Angular grid pruning method      GridPruning ... 4 (adaptive)
Weight generation scheme         WeightScheme... Becke
Basis function cutoff            BFCut       ... 1.0000e-11
Integration weight cutoff        WCut        ... 1.0000e-14
Angular grids for H and He will be reduced by one unit
Partially contracted basis set               ... on
Rotationally invariant grid construction     ... off

Total number of grid points                  ...    84663
Total number of batches                      ...     1341
Average number of points per batch           ...       63
Average number of grid points per atom       ...     2731
UseSFitting                                  ... on

Time for X-Grid setup             =    1.656 sec


--------------------
CPCM SOLVATION MODEL
--------------------
CPCM parameters:
  Epsilon                                         ...      78.4000
  Refrac                                          ...       1.3300
  Rsolv                                           ...       1.3000
  Surface type                                    ... GAUSSIAN VDW
  Epsilon function type                           ...         CPCM
Radii:
 Radius for C  used is    3.8550 Bohr (=   2.0400 Ang.)
 Radius for H  used is    2.4944 Bohr (=   1.3200 Ang.)
 Radius for N  used is    3.5149 Bohr (=   1.8600 Ang.)
 Radius for O  used is    3.4469 Bohr (=   1.8240 Ang.)
Calculating surface                               ...        done! (  0.0s)
GEPOL surface points                              ...         1751
GEPOL Volume                                      ...    1846.8576
GEPOL Surface-area                                ...    1028.4846
Calculating surface distance matrix               ...        done! (  0.1s)
Performing Cholesky decomposition & store         ...        done! (  0.6s)
Overall time for CPCM initialization              ...                 0.7s
--------------
SCF ITERATIONS
--------------
ITER       Energy         Delta-E        Max-DP      RMS-DP      [F,P]     Damp
               ***  Starting incremental Fock matrix formation  ***
                      *** Initiating the SOSCF procedure ***
                      *** Re-Reading the Fockian *** 
                      *** Removing any level shift *** 
ITER      Energy       Delta-E        Grad      Rot      Max-DP    RMS-DP
  0   -725.63232036 -725.6323203616  0.000000  0.000000  0.000023  0.000000
               *** Restarting incremental Fock matrix formation ***
                  ***Gradient check signals convergence***
              ***Rediagonalizing the Fockian in SOSCF/NRSCF***

               *****************************************************
               *                     SUCCESS                       *
               *           SCF CONVERGED AFTER   1 CYCLES          *
               *****************************************************

Old exchange energy                            =    -19.054343468 Eh
New exchange energy                            =    -19.054347514 Eh
Exchange energy change after final integration =     -0.000004046 Eh
Total energy after final integration           =   -725.632324407 Eh
Final COS-X integration done in                =     1.982 sec

----------------
TOTAL SCF ENERGY
----------------

Total Energy       :         -725.63232441 Eh          -19745.45939 eV

Components:
Nuclear Repulsion  :          950.51262928 Eh           25864.76358 eV
Electronic Energy  :        -1676.14495368 Eh          -45610.22297 eV
One Electron Energy:        -2872.74465106 Eh          -78171.35611 eV
Two Electron Energy:         1196.59969738 Eh           32561.13314 eV
Max COSX asymmetry :            0.00000156 Eh               0.00004 eV
CPCM Dielectric    :           -0.04582039 Eh              -1.24684 eV

Virial components:
Potential Energy   :        -1448.09443694 Eh          -39404.65292 eV
Kinetic Energy     :          722.46211253 Eh           19659.19354 eV
Virial Ratio       :            2.00438807


DFT components:
N(Alpha)           :       57.000017258741 electrons
N(Beta)            :       57.000017258741 electrons
N(Total)           :      114.000034517482 electrons
E(X)               :      -75.831499966187 Eh       
E(C)               :       -4.555163974583 Eh       
E(XC)              :      -80.386663940770 Eh       
DFET-embed. en.    :        0.000000000000 Eh       
CPCM Solvation Model Properties:
Surface-charge          :           -0.03016188
Charge-correction       :           -0.00041018 Eh              -0.01116 eV
Free-energy (cav+disp)  :  This term is not implemented in the current solvation scheme

---------------
SCF CONVERGENCE
---------------

  Last Energy change         ...   -5.0932e-11  Tolerance :   1.0000e-08
  Last MAX-Density change    ...    1.6653e-15  Tolerance :   1.0000e-07
  Last RMS-Density change    ...    1.4176e-17  Tolerance :   5.0000e-09
  Last Orbital Gradient      ...    3.0621e-07  Tolerance :   1.0000e-05
  Last Orbital Rotation      ...    1.2535e-06  Tolerance :   1.0000e-05

             **** THE GBW FILE WAS UPDATED (neb.gbw) ****
             **** DENSITY neb.scfp WAS UPDATED ****
             **** ENERGY FILE WAS UPDATED (neb.en.tmp) ****
             **** THE GBW FILE WAS UPDATED (neb.gbw) ****
             **** DENSITY neb.scfp WAS UPDATED ****
----------------
ORBITAL ENERGIES
----------------

  NO   OCC          E(Eh)            E(eV) 
   0   2.0000     -19.139478      -520.8117 
   1   2.0000     -19.136920      -520.7421 
   2   2.0000     -19.075840      -519.0800 
   3   2.0000     -14.528975      -395.3535 
   4   2.0000     -14.381714      -391.3463 
   5   2.0000     -10.234869      -278.5050 
   6   2.0000     -10.234612      -278.4979 
   7   2.0000     -10.218213      -278.0517 
   8   2.0000     -10.207730      -277.7665 
   9   2.0000     -10.195447      -277.4322 
  10   2.0000     -10.187488      -277.2156 
  11   2.0000     -10.173632      -276.8386 
  12   2.0000     -10.172349      -276.8037 
  13   2.0000     -10.171236      -276.7734 
  14   2.0000     -10.154100      -276.3071 
  15   2.0000      -1.205118       -32.7929 
  16   2.0000      -1.028295       -27.9813 
  17   2.0000      -0.999867       -27.2078 
  18   2.0000      -0.931584       -25.3497 
  19   2.0000      -0.852536       -23.1987 
  20   2.0000      -0.819669       -22.3043 
  21   2.0000      -0.803178       -21.8556 
  22   2.0000      -0.744145       -20.2492 
  23   2.0000      -0.734946       -19.9989 
  24   2.0000      -0.716235       -19.4898 
  25   2.0000      -0.641753       -17.4630 
  26   2.0000      -0.622325       -16.9343 
  27   2.0000      -0.608451       -16.5568 
  28   2.0000      -0.567689       -15.4476 
  29   2.0000      -0.556138       -15.1333 
  30   2.0000      -0.529579       -14.4106 
  31   2.0000      -0.528512       -14.3815 
  32   2.0000      -0.523795       -14.2532 
  33   2.0000      -0.503585       -13.7032 
  34   2.0000      -0.482560       -13.1311 
  35   2.0000      -0.466510       -12.6944 
  36   2.0000      -0.456620       -12.4253 
  37   2.0000      -0.447736       -12.1835 
  38   2.0000      -0.444067       -12.0837 
  39   2.0000      -0.427538       -11.6339 
  40   2.0000      -0.418600       -11.3907 
  41   2.0000      -0.416339       -11.3292 
  42   2.0000      -0.411092       -11.1864 
  43   2.0000      -0.405436       -11.0325 
  44   2.0000      -0.398806       -10.8521 
  45   2.0000      -0.383543       -10.4367 
  46   2.0000      -0.368322       -10.0225 
  47   2.0000      -0.361922        -9.8484 
  48   2.0000      -0.347724        -9.4621 
  49   2.0000      -0.306721        -8.3463 
  50   2.0000      -0.304644        -8.2898 
  51   2.0000      -0.301541        -8.2054 
  52   2.0000      -0.289774        -7.8851 
  53   2.0000      -0.280889        -7.6434 
  54   2.0000      -0.278861        -7.5882 
  55   2.0000      -0.274479        -7.4690 
  56   2.0000      -0.219737        -5.9793 
  57   0.0000      -0.063088        -1.7167 
  58   0.0000      -0.057205        -1.5566 
  59   0.0000      -0.035191        -0.9576 
  60   0.0000       0.008690         0.2365 
  61   0.0000       0.040097         1.0911 
  62   0.0000       0.048465         1.3188 
  63   0.0000       0.066910         1.8207 
  64   0.0000       0.076809         2.0901 
  65   0.0000       0.079591         2.1658 
  66   0.0000       0.084359         2.2955 
  67   0.0000       0.097128         2.6430 
  68   0.0000       0.098173         2.6714 
  69   0.0000       0.099852         2.7171 
  70   0.0000       0.102124         2.7789 
  71   0.0000       0.115605         3.1458 
  72   0.0000       0.120159         3.2697 
  73   0.0000       0.129625         3.5273 
  74   0.0000       0.139546         3.7972 
  75   0.0000       0.151486         4.1221 
  76   0.0000       0.153954         4.1893 
  77   0.0000       0.156161         4.2494 
  78   0.0000       0.161744         4.4013 
  79   0.0000       0.179404         4.8818 
  80   0.0000       0.181852         4.9484 
  81   0.0000       0.186902         5.0859 
  82   0.0000       0.194388         5.2896 
  83   0.0000       0.195853         5.3294 
  84   0.0000       0.201167         5.4740 
  85   0.0000       0.211936         5.7671 
  86   0.0000       0.215790         5.8719 
  87   0.0000       0.223730         6.0880 
  88   0.0000       0.233125         6.3437 
  89   0.0000       0.242302         6.5934 
  90   0.0000       0.248735         6.7684 
  91   0.0000       0.253370         6.8945 
  92   0.0000       0.253525         6.8988 
  93   0.0000       0.263692         7.1754 
  94   0.0000       0.267448         7.2776 
  95   0.0000       0.276874         7.5341 
  96   0.0000       0.279734         7.6120 
  97   0.0000       0.282931         7.6990 
  98   0.0000       0.287335         7.8188 
  99   0.0000       0.294313         8.0087 
 100   0.0000       0.300896         8.1878 
 101   0.0000       0.304107         8.2752 
 102   0.0000       0.315527         8.5859 
 103   0.0000       0.324147         8.8205 
 104   0.0000       0.334712         9.1080 
 105   0.0000       0.339660         9.2426 
 106   0.0000       0.344119         9.3640 
 107   0.0000       0.347621         9.4593 
 108   0.0000       0.363840         9.9006 
 109   0.0000       0.369971        10.0674 
 110   0.0000       0.379197        10.3185 
 111   0.0000       0.385252        10.4832 
 112   0.0000       0.393260        10.7012 
 113   0.0000       0.394502        10.7350 
 114   0.0000       0.399319        10.8660 
 115   0.0000       0.401661        10.9298 
 116   0.0000       0.414544        11.2803 
 117   0.0000       0.420474        11.4417 
 118   0.0000       0.427410        11.6304 
 119   0.0000       0.431253        11.7350 
 120   0.0000       0.433820        11.8048 
 121   0.0000       0.442530        12.0418 
 122   0.0000       0.445863        12.1326 
 123   0.0000       0.448174        12.1954 
 124   0.0000       0.448619        12.2075 
 125   0.0000       0.454930        12.3793 
 126   0.0000       0.464079        12.6282 
 127   0.0000       0.467899        12.7322 
 128   0.0000       0.476091        12.9551 
 129   0.0000       0.478791        13.0286 
 130   0.0000       0.484645        13.1879 
 131   0.0000       0.495844        13.4926 
 132   0.0000       0.496794        13.5185 
 133   0.0000       0.504149        13.7186 
 134   0.0000       0.505389        13.7523 
 135   0.0000       0.512799        13.9540 
 136   0.0000       0.516196        14.0464 
 137   0.0000       0.519119        14.1260 
 138   0.0000       0.527239        14.3469 
 139   0.0000       0.538421        14.6512 
 140   0.0000       0.544153        14.8072 
 141   0.0000       0.551339        15.0027 
 142   0.0000       0.559660        15.2291 
 143   0.0000       0.570239        15.5170 
 144   0.0000       0.575092        15.6490 
 145   0.0000       0.580137        15.7863 
 146   0.0000       0.590391        16.0654 
 147   0.0000       0.592551        16.1241 
 148   0.0000       0.599796        16.3213 
 149   0.0000       0.608149        16.5486 
 150   0.0000       0.614980        16.7345 
 151   0.0000       0.623711        16.9720 
 152   0.0000       0.636153        17.3106 
 153   0.0000       0.646279        17.5861 
 154   0.0000       0.652517        17.7559 
 155   0.0000       0.659844        17.9553 
 156   0.0000       0.663929        18.0664 
 157   0.0000       0.677686        18.4408 
 158   0.0000       0.684031        18.6134 
 159   0.0000       0.688358        18.7312 
 160   0.0000       0.701139        19.0790 
 161   0.0000       0.716993        19.5104 
 162   0.0000       0.719322        19.5738 
 163   0.0000       0.728319        19.8186 
 164   0.0000       0.733255        19.9529 
 165   0.0000       0.758669        20.6444 
 166   0.0000       0.775749        21.1092 
 167   0.0000       0.785966        21.3872 
 168   0.0000       0.794089        21.6083 
 169   0.0000       0.799291        21.7498 
 170   0.0000       0.818882        22.2829 
 171   0.0000       0.825179        22.4543 
 172   0.0000       0.842542        22.9267 
 173   0.0000       0.846465        23.0335 
 174   0.0000       0.863711        23.5028 
 175   0.0000       0.883006        24.0278 
 176   0.0000       0.897830        24.4312 
 177   0.0000       0.919727        25.0270 
 178   0.0000       0.928495        25.2656 
 179   0.0000       0.934379        25.4258 
 180   0.0000       0.944566        25.7030 
 181   0.0000       0.950495        25.8643 
 182   0.0000       0.955185        25.9919 
 183   0.0000       0.978523        26.6270 
 184   0.0000       0.990707        26.9585 
 185   0.0000       1.003563        27.3083 
 186   0.0000       1.005406        27.3585 
 187   0.0000       1.020130        27.7592 
 188   0.0000       1.026161        27.9233 
 189   0.0000       1.038877        28.2693 
 190   0.0000       1.050842        28.5949 
 191   0.0000       1.067401        29.0455 
 192   0.0000       1.074128        29.2285 
 193   0.0000       1.081851        29.4387 
 194   0.0000       1.098287        29.8859 
 195   0.0000       1.116448        30.3801 
 196   0.0000       1.135281        30.8926 
 197   0.0000       1.142916        31.1003 
 198   0.0000       1.147191        31.2166 
 199   0.0000       1.156351        31.4659 
 200   0.0000       1.161210        31.5981 
 201   0.0000       1.167671        31.7739 
 202   0.0000       1.183171        32.1957 
 203   0.0000       1.191185        32.4138 
 204   0.0000       1.223482        33.2926 
 205   0.0000       1.234539        33.5935 
 206   0.0000       1.246031        33.9062 
 207   0.0000       1.260514        34.3003 
 208   0.0000       1.272672        34.6312 
 209   0.0000       1.278179        34.7810 
 210   0.0000       1.287902        35.0456 
 211   0.0000       1.295688        35.2575 
 212   0.0000       1.307897        35.5897 
 213   0.0000       1.342867        36.5413 
 214   0.0000       1.348084        36.6832 
 215   0.0000       1.352252        36.7967 
 216   0.0000       1.358405        36.9641 
 217   0.0000       1.373752        37.3817 
 218   0.0000       1.375586        37.4316 
 219   0.0000       1.398906        38.0662 
 220   0.0000       1.410782        38.3893 
 221   0.0000       1.417474        38.5714 
 222   0.0000       1.433505        39.0077 
 223   0.0000       1.445820        39.3428 
 224   0.0000       1.460876        39.7525 
 225   0.0000       1.469655        39.9913 
 226   0.0000       1.486465        40.4488 
 227   0.0000       1.499427        40.8015 
 228   0.0000       1.513685        41.1895 
 229   0.0000       1.518062        41.3086 
 230   0.0000       1.528694        41.5979 
 231   0.0000       1.533419        41.7264 
 232   0.0000       1.546004        42.0689 
 233   0.0000       1.547238        42.1025 
 234   0.0000       1.550466        42.1903 
 235   0.0000       1.551041        42.2060 
 236   0.0000       1.554588        42.3025 
 237   0.0000       1.568502        42.6811 
 238   0.0000       1.580601        43.0103 
 239   0.0000       1.583081        43.0778 
 240   0.0000       1.600357        43.5479 
 241   0.0000       1.606863        43.7250 
 242   0.0000       1.613865        43.9155 
 243   0.0000       1.631322        44.3905 
 244   0.0000       1.632665        44.4271 
 245   0.0000       1.645154        44.7669 
 246   0.0000       1.647486        44.8304 
 247   0.0000       1.660320        45.1796 
 248   0.0000       1.671429        45.4819 
 249   0.0000       1.678700        45.6797 
 250   0.0000       1.686890        45.9026 
 251   0.0000       1.695314        46.1318 
 252   0.0000       1.697787        46.1991 
 253   0.0000       1.718896        46.7735 
 254   0.0000       1.722837        46.8808 
 255   0.0000       1.729642        47.0660 
 256   0.0000       1.744200        47.4621 
 257   0.0000       1.747148        47.5423 
 258   0.0000       1.753879        47.7255 
 259   0.0000       1.772272        48.2260 
 260   0.0000       1.781757        48.4841 
 261   0.0000       1.798519        48.9402 
 262   0.0000       1.805891        49.1408 
 263   0.0000       1.819260        49.5046 
 264   0.0000       1.829589        49.7856 
 265   0.0000       1.851924        50.3934 
 266   0.0000       1.857426        50.5431 
 267   0.0000       1.878766        51.1238 
 268   0.0000       1.896598        51.6091 
 269   0.0000       1.920332        52.2549 
 270   0.0000       1.924268        52.3620 
 271   0.0000       1.940867        52.8137 
 272   0.0000       1.967374        53.5350 
 273   0.0000       1.973226        53.6942 
 274   0.0000       1.986276        54.0493 
 275   0.0000       1.987605        54.0855 
 276   0.0000       2.000937        54.4483 
 277   0.0000       2.006650        54.6037 
 278   0.0000       2.012507        54.7631 
 279   0.0000       2.018873        54.9363 
 280   0.0000       2.042425        55.5772 
 281   0.0000       2.058426        56.0126 
 282   0.0000       2.066879        56.2426 
 283   0.0000       2.085647        56.7533 
 284   0.0000       2.096619        57.0519 
 285   0.0000       2.103214        57.2314 
 286   0.0000       2.111962        57.4694 
 287   0.0000       2.121007        57.7155 
 288   0.0000       2.128671        57.9241 
 289   0.0000       2.136679        58.1420 
 290   0.0000       2.170767        59.0696 
 291   0.0000       2.183023        59.4031 
 292   0.0000       2.192707        59.6666 
 293   0.0000       2.197665        59.8015 
 294   0.0000       2.222698        60.4827 
 295   0.0000       2.238451        60.9113 
 296   0.0000       2.253654        61.3250 
 297   0.0000       2.257451        61.4284 
 298   0.0000       2.271724        61.8168 
 299   0.0000       2.282783        62.1177 
 300   0.0000       2.291905        62.3659 
 301   0.0000       2.303600        62.6841 
 302   0.0000       2.318954        63.1020 
 303   0.0000       2.321550        63.1726 
 304   0.0000       2.328817        63.3703 
 305   0.0000       2.338030        63.6210 
 306   0.0000       2.351700        63.9930 
 307   0.0000       2.361300        64.2542 
 308   0.0000       2.373405        64.5836 
 309   0.0000       2.378431        64.7204 
 310   0.0000       2.398598        65.2692 
 311   0.0000       2.402038        65.3628 
 312   0.0000       2.424606        65.9769 
 313   0.0000       2.442282        66.4579 
 314   0.0000       2.449665        66.6588 
 315   0.0000       2.457296        66.8664 
 316   0.0000       2.473137        67.2975 
 317   0.0000       2.488397        67.7127 
 318   0.0000       2.508673        68.2645 
 319   0.0000       2.513165        68.3867 
 320   0.0000       2.518828        68.5408 
 321   0.0000       2.536214        69.0139 
 322   0.0000       2.545792        69.2745 
 323   0.0000       2.548067        69.3364 
 324   0.0000       2.559609        69.6505 
 325   0.0000       2.567097        69.8543 
 326   0.0000       2.583063        70.2887 
 327   0.0000       2.596455        70.6531 
 328   0.0000       2.604432        70.8702 
 329   0.0000       2.616873        71.2087 
 330   0.0000       2.621703        71.3402 
 331   0.0000       2.635371        71.7121 
 332   0.0000       2.641522        71.8795 
 333   0.0000       2.653317        72.2004 
 334   0.0000       2.661677        72.4279 
 335   0.0000       2.683181        73.0131 
 336   0.0000       2.688864        73.1677 
 337   0.0000       2.700931        73.4961 
 338   0.0000       2.704658        73.5975 
 339   0.0000       2.712903        73.8218 
 340   0.0000       2.732377        74.3518 
 341   0.0000       2.741865        74.6099 
 342   0.0000       2.749720        74.8237 
 343   0.0000       2.764196        75.2176 
 344   0.0000       2.769573        75.3639 
 345   0.0000       2.779189        75.6256 
 346   0.0000       2.792942        75.9998 
 347   0.0000       2.804977        76.3273 
 348   0.0000       2.809763        76.4575 
 349   0.0000       2.822681        76.8091 
 350   0.0000       2.826100        76.9021 
 351   0.0000       2.840285        77.2881 
 352   0.0000       2.864853        77.9566 
 353   0.0000       2.869370        78.0795 
 354   0.0000       2.882369        78.4332 
 355   0.0000       2.888345        78.5959 
 356   0.0000       2.894743        78.7699 
 357   0.0000       2.909652        79.1757 
 358   0.0000       2.917078        79.3777 
 359   0.0000       2.936068        79.8945 
 360   0.0000       2.943938        80.1086 
 361   0.0000       2.951474        80.3137 
 362   0.0000       2.961478        80.5859 
 363   0.0000       2.966659        80.7269 
 364   0.0000       2.973314        80.9080 
 365   0.0000       2.984947        81.2245 
 366   0.0000       3.005060        81.7718 
 367   0.0000       3.017323        82.1055 
 368   0.0000       3.021287        82.2134 
 369   0.0000       3.030283        82.4582 
 370   0.0000       3.033463        82.5447 
 371   0.0000       3.050905        83.0193 
 372   0.0000       3.055289        83.1386 
[...]
 268   0.0000       1.912211        52.0339 
 269   0.0000       1.914889        52.1068 
 270   0.0000       1.925092        52.3844 
 271   0.0000       1.931573        52.5608 
 272   0.0000       1.965405        53.4814 
 273   0.0000       1.970882        53.6304 
 274   0.0000       1.977028        53.7977 
 275   0.0000       1.982185        53.9380 
 276   0.0000       1.993586        54.2482 
 277   0.0000       2.007913        54.6381 
 278   0.0000       2.009222        54.6737 
 279   0.0000       2.026614        55.1470 
 280   0.0000       2.042410        55.5768 
 281   0.0000       2.055625        55.9364 
 282   0.0000       2.073831        56.4318 
 283   0.0000       2.080834        56.6224 
 284   0.0000       2.096664        57.0531 
 285   0.0000       2.108719        57.3811 
 286   0.0000       2.125507        57.8380 
 287   0.0000       2.137990        58.1777 
 288   0.0000       2.148000        58.4501 
 289   0.0000       2.152221        58.5649 
 290   0.0000       2.178875        59.2902 
 291   0.0000       2.182553        59.3903 
 292   0.0000       2.187657        59.5292 
 293   0.0000       2.199398        59.8487 
 294   0.0000       2.219240        60.3886 
 295   0.0000       2.246624        61.1337 
 296   0.0000       2.253480        61.3203 
 297   0.0000       2.267853        61.7114 
 298   0.0000       2.285872        62.2017 
 299   0.0000       2.291128        62.3448 
 300   0.0000       2.300968        62.6125 
 301   0.0000       2.310321        62.8670 
 302   0.0000       2.318502        63.0897 
 303   0.0000       2.325261        63.2736 
 304   0.0000       2.331733        63.4497 
 305   0.0000       2.339075        63.6495 
 306   0.0000       2.353093        64.0309 
 307   0.0000       2.358608        64.1810 
 308   0.0000       2.363090        64.3029 
 309   0.0000       2.380046        64.7643 
 310   0.0000       2.398141        65.2567 
 311   0.0000       2.412355        65.6435 
 312   0.0000       2.432328        66.1870 
 313   0.0000       2.434917        66.2574 
 314   0.0000       2.450191        66.6731 
 315   0.0000       2.459944        66.9385 
 316   0.0000       2.477598        67.4189 
 317   0.0000       2.487027        67.6755 
 318   0.0000       2.506965        68.2180 
 319   0.0000       2.510046        68.3018 
 320   0.0000       2.521954        68.6259 
 321   0.0000       2.530393        68.8555 
 322   0.0000       2.549866        69.3854 
 323   0.0000       2.554349        69.5074 
 324   0.0000       2.560013        69.6615 
 325   0.0000       2.578650        70.1686 
 326   0.0000       2.587205        70.4014 
 327   0.0000       2.598170        70.6998 
 328   0.0000       2.606625        70.9299 
 329   0.0000       2.608493        70.9807 
 330   0.0000       2.621020        71.3216 
 331   0.0000       2.632440        71.6323 
 332   0.0000       2.643883        71.9437 
 333   0.0000       2.648053        72.0572 
 334   0.0000       2.663860        72.4873 
 335   0.0000       2.681801        72.9755 
 336   0.0000       2.693943        73.3059 
 337   0.0000       2.704687        73.5983 
 338   0.0000       2.710380        73.7532 
 339   0.0000       2.720098        74.0176 
 340   0.0000       2.730666        74.3052 
 341   0.0000       2.736539        74.4650 
 342   0.0000       2.752078        74.8878 
 343   0.0000       2.755446        74.9795 
 344   0.0000       2.773715        75.4766 
 345   0.0000       2.791834        75.9697 
 346   0.0000       2.800180        76.1968 
 347   0.0000       2.801719        76.2387 
 348   0.0000       2.809729        76.4566 
 349   0.0000       2.820821        76.7584 
 350   0.0000       2.841808        77.3295 
 351   0.0000       2.852655        77.6247 
 352   0.0000       2.859101        77.8001 
 353   0.0000       2.873117        78.1815 
 354   0.0000       2.881558        78.4112 
 355   0.0000       2.885262        78.5120 
 356   0.0000       2.899485        78.8990 
 357   0.0000       2.906660        79.0942 
 358   0.0000       2.944519        80.1244 
 359   0.0000       2.946993        80.1918 
 360   0.0000       2.951492        80.3142 
 361   0.0000       2.959644        80.5360 
 362   0.0000       2.977427        81.0199 
 363   0.0000       2.978627        81.0526 
 364   0.0000       2.984861        81.2222 
 365   0.0000       2.999029        81.6077 
 366   0.0000       3.005732        81.7901 
 367   0.0000       3.014060        82.0167 
 368   0.0000       3.024483        82.3004 
 369   0.0000       3.030545        82.4653 
 370   0.0000       3.038916        82.6931 
 371   0.0000       3.046742        82.9061 
 372   0.0000       3.056025        83.1587 
 373   0.0000       3.065043        83.4041 
 374   0.0000       3.067507        83.4711 
 375   0.0000       3.078983        83.7834 
 376   0.0000       3.087086        84.0039 
 377   0.0000       3.098334        84.3100 
 378   0.0000       3.110278        84.6350 
 379   0.0000       3.128807        85.1392 
 380   0.0000       3.141887        85.4951 
 381   0.0000       3.161447        86.0273 
 382   0.0000       3.167536        86.1930 
 383   0.0000       3.174130        86.3725 
 384   0.0000       3.176136        86.4271 
 385   0.0000       3.189086        86.7794 
 386   0.0000       3.193726        86.9057 
 387   0.0000       3.196934        86.9930 
 388   0.0000       3.216422        87.5233 
 389   0.0000       3.228283        87.8460 
 390   0.0000       3.247404        88.3663 
 391   0.0000       3.251692        88.4830 
 392   0.0000       3.267653        88.9173 
 393   0.0000       3.273724        89.0825 
 394   0.0000       3.283847        89.3580 
 395   0.0000       3.293752        89.6275 
 396   0.0000       3.298764        89.7639 
 397   0.0000       3.300555        89.8127 
 398   0.0000       3.306785        89.9822 
 399   0.0000       3.318384        90.2978 
 400   0.0000       3.319391        90.3252 
 401   0.0000       3.326126        90.5085 
 402   0.0000       3.338911        90.8564 
 403   0.0000       3.352808        91.2345 
 404   0.0000       3.357715        91.3681 
 405   0.0000       3.376187        91.8707 
 406   0.0000       3.381320        92.0104 
 407   0.0000       3.386410        92.1489 
 408   0.0000       3.397876        92.4609 
 409   0.0000       3.410989        92.8177 
 410   0.0000       3.422862        93.1408 
 411   0.0000       3.436735        93.5183 
 412   0.0000       3.453826        93.9834 
 413   0.0000       3.462127        94.2093 
 414   0.0000       3.471583        94.4666 
 415   0.0000       3.479777        94.6895 
 416   0.0000       3.526670        95.9656 
 417   0.0000       3.548667        96.5641 
 418   0.0000       3.553135        96.6857 
 419   0.0000       3.586494        97.5935 
 420   0.0000       3.588265        97.6417 
 421   0.0000       3.597603        97.8958 
 422   0.0000       3.615084        98.3714 
 423   0.0000       3.624725        98.6338 
 424   0.0000       3.643882        99.1551 
 425   0.0000       3.658307        99.5476 
 426   0.0000       3.686229       100.3074 
 427   0.0000       3.725605       101.3789 
 428   0.0000       3.727907       101.4415 
 429   0.0000       3.737426       101.7005 
 430   0.0000       3.743564       101.8676 
 431   0.0000       3.772570       102.6569 
 432   0.0000       3.811822       103.7250 
 433   0.0000       3.824003       104.0564 
 434   0.0000       3.826989       104.1377 
 435   0.0000       3.832868       104.2976 
 436   0.0000       3.843815       104.5955 
 437   0.0000       3.870182       105.3130 
 438   0.0000       3.895984       106.0151 
 439   0.0000       3.905643       106.2780 
 440   0.0000       3.914033       106.5063 
 441   0.0000       3.938391       107.1691 
 442   0.0000       3.946668       107.3943 
 443   0.0000       3.989560       108.5615 
 444   0.0000       4.015261       109.2608 
 445   0.0000       4.028223       109.6135 
 446   0.0000       4.048960       110.1778 
 447   0.0000       4.070957       110.7764 
 448   0.0000       4.094849       111.4265 
 449   0.0000       4.102255       111.6280 
 450   0.0000       4.112635       111.9105 
 451   0.0000       4.140182       112.6601 
 452   0.0000       4.154317       113.0447 
 453   0.0000       4.178576       113.7048 
 454   0.0000       4.195176       114.1565 
 455   0.0000       4.199945       114.2863 
 456   0.0000       4.212396       114.6251 
 457   0.0000       4.234052       115.2144 
 458   0.0000       4.240068       115.3781 
 459   0.0000       4.288138       116.6862 
 460   0.0000       4.317475       117.4845 
 461   0.0000       4.323540       117.6495 
 462   0.0000       4.337192       118.0210 
 463   0.0000       4.359989       118.6413 
 464   0.0000       4.386872       119.3729 
 465   0.0000       4.410467       120.0149 
 466   0.0000       4.418506       120.2337 
 467   0.0000       4.425020       120.4109 
 468   0.0000       4.432708       120.6201 
 469   0.0000       4.460225       121.3689 
 470   0.0000       4.543627       123.6384 
 471   0.0000       4.547160       123.7345 
 472   0.0000       4.558561       124.0448 
 473   0.0000       4.579044       124.6021 
 474   0.0000       4.580462       124.6407 
 475   0.0000       4.623536       125.8128 
 476   0.0000       4.637906       126.2038 
 477   0.0000       4.657870       126.7471 
 478   0.0000       4.660452       126.8173 
 479   0.0000       4.683286       127.4387 
 480   0.0000       4.694459       127.7427 
 481   0.0000       4.726017       128.6015 
 482   0.0000       4.781636       130.1149 
 483   0.0000       4.794391       130.4620 
 484   0.0000       4.804454       130.7358 
 485   0.0000       4.805514       130.7647 
 486   0.0000       4.835271       131.5744 
 487   0.0000       4.869428       132.5039 
 488   0.0000       4.900177       133.3406 
 489   0.0000       4.953991       134.8049 
 490   0.0000       4.962156       135.0271 
 491   0.0000       4.980473       135.5255 
 492   0.0000       5.032942       136.9533 
 493   0.0000       5.041847       137.1956 
 494   0.0000       5.079532       138.2211 
 495   0.0000       5.124931       139.4565 
 496   0.0000       5.130373       139.6046 
 497   0.0000       5.140002       139.8666 
 498   0.0000       5.152157       140.1973 
 499   0.0000       5.167386       140.6117 
 500   0.0000       5.177569       140.8888 
 501   0.0000       5.186001       141.1183 
 502   0.0000       5.213118       141.8562 
 503   0.0000       5.222386       142.1083 
 504   0.0000       5.227779       142.2551 
 505   0.0000       5.235857       142.4749 
 506   0.0000       5.280200       143.6815 
 507   0.0000       5.299307       144.2015 
 508   0.0000       5.311062       144.5214 
 509   0.0000       5.379152       146.3742 
 510   0.0000       5.413191       147.3004 
 511   0.0000       5.432788       147.8337 
 512   0.0000       5.450113       148.3051 
 513   0.0000       5.528085       150.4268 
 514   0.0000       5.553646       151.1224 
 515   0.0000       5.606116       152.5502 
 516   0.0000       5.637097       153.3932 
 517   0.0000       5.674864       154.4209 
 518   0.0000       5.711894       155.4285 
 519   0.0000       5.721417       155.6877 
 520   0.0000       5.807165       158.0210 
 521   0.0000       5.845594       159.0667 
 522   0.0000       5.933766       161.4660 
 523   0.0000       6.008986       163.5128 
 524   0.0000       6.092446       165.7839 
 525   0.0000       6.250137       170.0749 
 526   0.0000       6.285247       171.0303 
 527   0.0000       6.323533       172.0721 
 528   0.0000       6.335940       172.4097 
 529   0.0000       6.373091       173.4206 
 530   0.0000       6.383858       173.7136 
 531   0.0000       6.407037       174.3443 
 532   0.0000       6.452320       175.5765 
 533   0.0000       6.492258       176.6633 
 534   0.0000       6.656740       181.1391 
 535   0.0000       6.680494       181.7855 
 536   0.0000       6.848461       186.3561 
 537   0.0000       6.865152       186.8103 
 538   0.0000       6.906957       187.9479 
 539   0.0000       7.021125       191.0545 
 540   0.0000       7.057770       192.0517 
 541   0.0000       7.108004       193.4186 
 542   0.0000       7.239210       196.9889 
 543   0.0000       7.258822       197.5226 
 544   0.0000       7.388276       201.0452 
 545   0.0000       7.476960       203.4584 
 546   0.0000      22.183867       603.6537 
 547   0.0000      22.305658       606.9678 
 548   0.0000      22.399487       609.5210 
 549   0.0000      22.486721       611.8948 
 550   0.0000      22.584060       614.5435 
 551   0.0000      22.735142       618.6547 
 552   0.0000      22.745426       618.9345 
 553   0.0000      22.855014       621.9166 
 554   0.0000      22.889854       622.8646 
 555   0.0000      23.353162       635.4719 
 556   0.0000      32.336775       879.9284 
 557   0.0000      32.496794       884.2827 
 558   0.0000      43.714063      1189.5201 
 559   0.0000      43.935440      1195.5441 
 560   0.0000      44.018400      1197.8015 
-------
TIMINGS
-------

Total SCF time: 0 days 0 hours 0 min 30 sec 

Total time                  ....      30.345 sec
Sum of individual times     ....      27.216 sec  ( 89.7%)

Fock matrix formation       ....      19.864 sec  ( 65.5%)
  Split-RI-J                ....       3.112 sec  ( 15.7% of F)
  Chain of spheres X        ....       9.130 sec  ( 46.0% of F)
  XC integration            ....       2.148 sec  ( 10.8% of F)
    Basis function eval.    ....       0.213 sec  (  9.9% of XC)
    Density eval.           ....       0.537 sec  ( 25.0% of XC)
    XC-Functional eval.     ....       0.018 sec  (  0.8% of XC)
    XC-Potential eval.      ....       0.208 sec  (  9.7% of XC)
Diagonalization             ....       0.434 sec  (  1.4%)
Density matrix formation    ....       0.222 sec  (  0.7%)
Population analysis         ....       0.000 sec  (  0.0%)
Initial guess               ....       0.582 sec  (  1.9%)
Orbital Transformation      ....       0.000 sec  (  0.0%)
Orbital Orthonormalization  ....       0.494 sec  (  1.6%)
DIIS solution               ....       0.207 sec  (  0.7%)
SOSCF solution              ....       3.159 sec  ( 10.4%)
Grid generation             ....       2.748 sec  (  9.1%)

Maximum memory used throughout the entire SCF-calculation: 113.2 MB


-------------------------------------------------------------------------------
                          DFT DISPERSION CORRECTION                            
                                                                               
                              DFTD3 V3.1  Rev 1                                
                          USING Becke-Johnson damping                          
-------------------------------------------------------------------------------
The B3LYP functional is recognized
Active option DFTDOPT                   ...         4   

molecular C6(AA) [au] = 8867.148422 


            DFT-D V3
 parameters
 s6 scaling factor         :     1.0000 
 a1 scaling factor         :     0.3981 
 s8 scaling factor         :     1.9889 
 a2 scaling factor         :     4.4211 
 ad hoc parameters k1-k3   :    16.0000     1.3333    -4.0000 

 Edisp/kcal,au: -32.210035379222  -0.051329953211 
 E6   /kcal   : -15.732571575 
 E8   /kcal   : -16.477463804 
 % E8         :  51.156304581 

-------------------------   ----------------
Dispersion correction           -0.051329953
-------------------------   ----------------


-------------------------   --------------------
FINAL SINGLE POINT ENERGY      -725.689541479271
-------------------------   --------------------

                                *** OPTIMIZATION RUN DONE ***


                    ***********************HURRAY************************
                    ***        THE TS OPTIMIZATION HAS CONVERGED      ***
                    *****************************************************



---------------------------------------------------------------
                      PATH SUMMARY FOR NEB-TS             
---------------------------------------------------------------
All forces in Eh/Bohr. Global forces for TS.

Image     E(Eh)   dE(kcal/mol)  max(|Fp|)  RMS(Fp)
  0    -725.71776     0.00       0.00104   0.00027
  1    -725.71419     2.24       0.01440   0.00276
  2    -725.70715     6.66       0.00640   0.00142
  3    -725.70483     8.11       0.00334   0.00108
  4    -725.68414    21.10       0.00181   0.00062 <= CI
 TS    -725.68954    17.71       0.00043   0.00008 <= TS
  5    -725.70349     8.96       0.00274   0.00097
  6    -725.70845     5.84       0.00106   0.00029
  7    -725.71014     4.78       0.00046   0.00013
----------
STATISTICS
----------

For the individual parts of the NEB, NEB-CI or NEB-TS run:

Number of iterations:
     NEB                               ... 74  78.7%
     TS optimization                   ... 20  21.3%
Number of SCF / gradient calculations:
     NEB                               ... 626  96.9%
     TS optimization                   ... 20  3.1%

----------
 TIMINGS
----------

For the individual parts of the NEB, NEB-CI or NEB-TS run:

Total                                  ...    12229.301 sec
NEB                                    ...    10954.923 sec  89.6%
TS Optimization                        ...     1274.379 sec  10.4%


                            ***************************************
                            *     ORCA property calculations      *
                            ***************************************

                                    ---------------------
                                    Active property flags
                                    ---------------------
   (+) Dipole Moment


------------------------------------------------------------------------------
                       ORCA ELECTRIC PROPERTIES CALCULATION
------------------------------------------------------------------------------

Dipole Moment Calculation                       ... on
Quadrupole Moment Calculation                   ... off
Polarizability Calculation                      ... off
GBWName                                         ... neb.gbw
Electron density                                ... neb.scfp
The origin for moment calculation is the CENTER OF MASS  = (-1.477279, -0.177969  0.348975)

-------------
DIPOLE MOMENT
-------------
                                X             Y             Z
Electronic contribution:    -13.18923      -1.46529       2.53964
Nuclear contribution   :     20.76762       2.21398      -4.93307
                        -----------------------------------------
Total Dipole Moment    :      7.57839       0.74868      -2.39343
                        -----------------------------------------
Magnitude (a.u.)       :      7.98254
Magnitude (Debye)      :     20.29001



--------------------
Rotational spectrum 
--------------------
 
Rotational constants in cm-1:     0.037921     0.007205     0.006497 
Rotational constants in MHz :  1136.851130   215.986811   194.786475 

 Dipole components along the rotational axes: 
x,y,z [a.u.] :    -7.780901    -1.737504     0.399577 
x,y,z [Debye]:   -19.777479    -4.416384     1.015645 

 

Timings for individual modules:

Sum of individual times         ...    12305.084 sec (= 205.085 min)
GTO integral calculation        ...      111.269 sec (=   1.854 min)   0.9 %
SCF iterations                  ...      990.032 sec (=  16.501 min)   8.0 %
SCF Gradient evaluation         ...      247.796 sec (=   4.130 min)   2.0 %
Geometry relaxation             ...        1.065 sec (=   0.018 min)   0.0 %
NEB Iterations                  ...    10954.923 sec (= 182.582 min)  89.0 %
                             ****ORCA TERMINATED NORMALLY****
TOTAL RUN TIME: 0 days 3 hours 23 minutes 57 seconds 365 msec
