 *******************************************************************************
 **                                                                           **
 **                              MOPAC v22.0.6                                **
 **                                                                           **
 *******************************************************************************
 **          Digital Object Identifier (DOI): 10.5281/zenodo.6511958          **
 **    Visit the DOI location for information on how to cite this program.    **
 *******************************************************************************

                              PM7 CALCULATION RESULTS

 *******************************************************************************
 *  CALCULATION DONE:                                Sat Mar 23 20:29:09 2024  *
 *  PM7        - The PM7 Hamiltonian to be used
 *  SINGLET    - SPIN STATE DEFINED AS A SINGLET
 *
 *
 *
 *                 CHARGE ON SYSTEM = 0
 *
 *
 *
 *  EPS=78.4   - USE ANDREAS KLAMT'S COSMO IMPLICIT SOLVATION MODEL
 *  T=         - A TIME OF 14.0 DAYS REQUESTED
 *  DUMP=N     - RESTART FILE WRITTEN EVERY 30.0 MINUTES REQUESTED
 *  RELSCF     - DEFAULT SCF CRITERION MULTIPLIED BY 1.0000
 *              (DEFAULT SCF CRITERION = 0.00010)
 *  ITRY=      - DO A MAXIMUM OF 15000 ITERATIONS FOR SCF
 *  AUX        - OUTPUT AUXILIARY INFORMATION
 *  BONDS      - FINAL BOND-ORDER MATRIX TO BE PRINTED
 *******************************************************************************
PM7 BONDS AUX DUMP=30M ITRY=15000 T=14D CHARGE=0 SINGLET eps=78.4 RELSCF=1
 Title: ASE calculation

   ATOM   CHEMICAL          X               Y               Z
  NUMBER   SYMBOL      (ANGSTROMS)     (ANGSTROMS)     (ANGSTROMS)

     1       C          3.56996769  *   2.30035517  *  -0.84637107  *
     2       C          3.27938542  *   1.09935464  *  -0.20560274  *
     3       C          2.46957994  *   0.13433659  *  -0.82133017  *
     4       C          1.96010372  *   0.38916812  *  -2.10312092  *
     5       C          2.27762468  *   1.59019047  *  -2.71533993  *
     6       C          3.06726638  *   2.56315054  *  -2.12103821  *
     7       H          4.20067266  *   3.04270754  *  -0.35113997  *
     8       H          3.68800987  *   0.91044834  *   0.79017121  *
     9       H          1.32464597  *  -0.35093475  *  -2.59676276  *
    10      Cl          1.67785364  *   1.87060315  *  -4.30023800  *
    11       H          3.29739693  *   3.50393022  *  -2.62297609  *
    12       C          2.14900061     -1.10676098     -0.13194499   
    13       C          1.70841942  *  -1.06378166  *   1.28916041  *
    14       H          1.79540263  *  -2.04297273  *   1.78670193  *
    15       H          0.65645733  *  -0.74925994  *   1.37635708  *
    16       H          2.30707049  *  -0.35556567  *   1.88153124  *
    17       N          2.10386790  *  -2.26771256  *  -0.80451805  *
    18       O          1.71315305  *  -3.33497356  *  -0.28614350  *
    19       O          2.57543357  *  -2.34466481  *  -1.98561754  *
    20       N          5.03278231  *  -1.32651452  *  -3.04567283  *
    21       C          5.56484247  *  -2.23625572  *  -4.12440610  *
    22       C          7.00591549  *  -1.83592116  *  -4.45346586  *
    23       O          7.05122925  *  -0.48042818  *  -4.86338178  *
    24       C          6.60674359  *   0.40885320  *  -3.85714855  *
    25       C          5.14717621  *   0.10614830  *  -3.49911938  *
    26       H          4.79592012  *   0.78451890  *  -2.68752143  *
    27       H          4.48615962  *   0.27292012  *  -4.38221657  *
    28       H          6.71510077  *   1.40750671  *  -4.32808473  *
    29       H          7.27868769  *   0.35486068  *  -2.97974719  *
    30       H          7.39316494  *  -2.38374991  *  -5.33683896  *
    31       H          7.69788720  *  -1.99572748  *  -3.60518333  *
    32       H          4.91543846  *  -2.16315753  *  -5.02891368  *
    33       H          4.32238970     -1.59167904  *  -0.45084663  *
    34       H          4.03260332  *  -1.56565981  *  -2.82010461  *
    35       H          5.51265517  *  -3.29601035  *  -3.77909353  *
    36       H          5.88194358  *  -2.52388569  *  -0.27982337  *
    37       H          5.59418842  *  -1.47154948  *  -2.11481534  *
    38       O          5.75033950     -1.61469958     -0.54903928   



          CARTESIAN COORDINATES 

    NO.       ATOM           X           Y           Z

     1         C          3.5700      2.3004     -0.8464
     2         C          3.2794      1.0994     -0.2056
     3         C          2.4696      0.1343     -0.8213
     4         C          1.9601      0.3892     -2.1031
     5         C          2.2776      1.5902     -2.7153
     6         C          3.0673      2.5632     -2.1210
     7         H          4.2007      3.0427     -0.3511
     8         H          3.6880      0.9104      0.7902
     9         H          1.3246     -0.3509     -2.5968
    10        Cl          1.6779      1.8706     -4.3002
    11         H          3.2974      3.5039     -2.6230
    12         C          2.1490     -1.1068     -0.1319
    13         C          1.7084     -1.0638      1.2892
    14         H          1.7954     -2.0430      1.7867
    15         H          0.6565     -0.7493      1.3764
    16         H          2.3071     -0.3556      1.8815
    17         N          2.1039     -2.2677     -0.8045
    18         O          1.7132     -3.3350     -0.2861
    19         O          2.5754     -2.3447     -1.9856
    20         N          5.0328     -1.3265     -3.0457
    21         C          5.5648     -2.2363     -4.1244
    22         C          7.0059     -1.8359     -4.4535
    23         O          7.0512     -0.4804     -4.8634
    24         C          6.6067      0.4089     -3.8571
    25         C          5.1472      0.1061     -3.4991
    26         H          4.7959      0.7845     -2.6875
    27         H          4.4862      0.2729     -4.3822
    28         H          6.7151      1.4075     -4.3281
    29         H          7.2787      0.3549     -2.9797
    30         H          7.3932     -2.3837     -5.3368
    31         H          7.6979     -1.9957     -3.6052
    32         H          4.9154     -2.1632     -5.0289
    33         H          4.3224     -1.5917     -0.4508
    34         H          4.0326     -1.5657     -2.8201
    35         H          5.5127     -3.2960     -3.7791
    36         H          5.8819     -2.5239     -0.2798
    37         H          5.5942     -1.4715     -2.1148
    38         O          5.7503     -1.6147     -0.5490

 General Reference for PM7:
 "Optimization of Parameters for Semiempirical Methods VI: More Modifications to the 
 NDDO Approximations and Re-optimization of Parameters", J. J. P. Stewart, J. Mol. Mod., 1:32, 19 (2013)
 https://link.springer.com/article/10.1007/s00894-012-1667-x

           Empirical Formula: C12 H19 N2 O4 Cl  =    38 atoms



      MOLECULAR POINT GROUP   :   C1  


 SINGLET STATE CALCULATION


      RHF CALCULATION, NO. OF DOUBLY OCCUPIED LEVELS = 54


          Geometry optimization using L-BFGS
  SCF CRITERION =    0.1000E-03
 CYCLE:     1 TIME:   0.625 TIME LEFT:  2.00W  GRAD.:     2.631 HEAT: -97.67287
 CYCLE:     2 TIME:   0.195 TIME LEFT:  2.00W  GRAD.:     2.597 HEAT: -97.67297
 CYCLE:     3 TIME:   0.211 TIME LEFT:  2.00W  GRAD.:     3.168 HEAT: -97.67842
 CYCLE:     4 TIME:   0.211 TIME LEFT:  2.00W  GRAD.:     2.607 HEAT: -97.67296
 CYCLE:     5 TIME:   0.328 TIME LEFT:  2.00W  GRAD.:     3.212 HEAT: -97.67840
 CYCLE:     6 TIME:   0.297 TIME LEFT:  2.00W  GRAD.:     1.429 HEAT: -97.67926
 CYCLE:     7 TIME:   0.297 TIME LEFT:  2.00W  GRAD.:     0.991 HEAT: -97.68025

 -------------------------------------------------------------------------------
 PM7 BONDS AUX DUMP=30M ITRY=15000 T=14D CHARGE=0 SINGLET eps=78.4 RELSCF=1
 Title: ASE calculation



     HERBERTS TEST WAS SATISFIED IN BFGS                      
     SCF FIELD WAS ACHIEVED                                   


                              PM7 CALCULATION
                                                       MOPAC v22.0.6 Linux
                                                       Sat Mar 23 20:29:12 2024




          FINAL HEAT OF FORMATION =        -97.68025 KCAL/MOL =    -408.69418 KJ/MOL
          VAN DER WAALS AREA      =        281.67 SQUARE ANGSTROMS



          DIELECTRIC ENERGY       =         -1.40112 EV
          COSMO AREA              =        281.67 SQUARE ANGSTROMS
          COSMO VOLUME            =        337.68 CUBIC ANGSTROMS

          GRADIENT NORM           =          0.99064          =       0.16070 PER ATOM
          IONIZATION POTENTIAL    =          8.754135 EV
          HOMO LUMO ENERGIES (EV) =         -8.754 -0.545
          NO. OF FILLED LEVELS    =         54
          MOLECULAR WEIGHT        =        290.7461         POINT GROUP:  C1  

          MOLECULAR DIMENSIONS (Angstroms)

            Atom       Atom       Distance
            H    30    H    15     9.64945
           Cl    10    H    36     7.23827
            O    18    H     7     6.31428


          SCF CALCULATIONS        =          9

          WALL-CLOCK TIME         =      2.320 SECONDS
          COMPUTATION TIME        =          1 MINUTE AND 24.556 SECONDS




   ATOM   CHEMICAL          X               Y               Z
  NUMBER   SYMBOL      (ANGSTROMS)     (ANGSTROMS)     (ANGSTROMS)

     1       C          3.57005242  *   2.30040641  *  -0.84616972  *
     2       C          3.27945489  *   1.09936520  *  -0.20549413  *
     3       C          2.47010363  *   0.13408049  *  -0.82119885  *
     4       C          1.96035852  *   0.38922084  *  -2.10298765  *
     5       C          2.27792526  *   1.59012920  *  -2.71517206  *
     6       C          3.06744777  *   2.56318931  *  -2.12113600  *
     7       H          4.20067454  *   3.04269979  *  -0.35096082  *
     8       H          3.68784947  *   0.91041680  *   0.79021358  *
     9       H          1.32485959  *  -0.35070605  *  -2.59667720  *
    10      Cl          1.67811893  *   1.87080042  *  -4.30019827  *
    11       H          3.29751011  *   3.50385446  *  -2.62279965  *
    12       C          2.14900061     -1.10676098     -0.13194499   
    13       C          1.70843799  *  -1.06364291  *   1.28926347  *
    14       H          1.79531697  *  -2.04288765  *   1.78654583  *
    15       H          0.65650279  *  -0.74921648  *   1.37626565  *
    16       H          2.30712535  *  -0.35554095  *   1.88152548  *
    17       N          2.10589224  *  -2.26712891  *  -0.80392974  *
    18       O          1.71331125  *  -3.33492227  *  -0.28626085  *
    19       O          2.57516206  *  -2.34438874  *  -1.98565195  *
    20       N          5.03294796  *  -1.32677774  *  -3.04565808  *
    21       C          5.56473021  *  -2.23608111  *  -4.12432794  *
    22       C          7.00563142  *  -1.83588654  *  -4.45334051  *
    23       O          7.05119588  *  -0.48047747  *  -4.86351097  *
    24       C          6.60672238  *   0.40867627  *  -3.85727178  *
    25       C          5.14727317  *   0.10627658  *  -3.49898661  *
    26       H          4.79595968  *   0.78429368  *  -2.68733271  *
    27       H          4.48611231  *   0.27259730  *  -4.38211863  *
    28       H          6.71507650  *   1.40716469  *  -4.32781578  *
    29       H          7.27872158  *   0.35515241  *  -2.97995743  *
    30       H          7.39286198  *  -2.38365733  *  -5.33655115  *
    31       H          7.69799374  *  -1.99601827  *  -3.60554983  *
    32       H          4.91533040  *  -2.16300734  *  -5.02892691  *
    33       H          4.32238970     -1.59299748  *  -0.45188953  *
    34       H          4.03245549  *  -1.56563896  *  -2.81974239  *
    35       H          5.51253593  *  -3.29584559  *  -3.77895635  *
    36       H          5.88261804  *  -2.52547565  *  -0.27942348  *
    37       H          5.59419196  *  -1.47126847  *  -2.11654787  *
    38       O          5.75033950     -1.61469958     -0.54903928   

                             CARTESIAN COORDINATES

   1    C        3.570052416     2.300406406    -0.846169723
   2    C        3.279454891     1.099365200    -0.205494126
   3    C        2.470103635     0.134080491    -0.821198852
   4    C        1.960358518     0.389220837    -2.102987654
   5    C        2.277925259     1.590129203    -2.715172058
   6    C        3.067447766     2.563189308    -2.121136005
   7    H        4.200674544     3.042699795    -0.350960821
   8    H        3.687849474     0.910416801     0.790213585
   9    H        1.324859589    -0.350706045    -2.596677198
  10   Cl        1.678118929     1.870800417    -4.300198271
  11    H        3.297510107     3.503854461    -2.622799648
  12    C        2.149000610    -1.106760980    -0.131944990
  13    C        1.708437989    -1.063642909     1.289263473
  14    H        1.795316970    -2.042887653     1.786545835
  15    H        0.656502791    -0.749216483     1.376265653
  16    H        2.307125351    -0.355540955     1.881525476
  17    N        2.105892238    -2.267128915    -0.803929743
  18    O        1.713311251    -3.334922274    -0.286260852
  19    O        2.575162057    -2.344388739    -1.985651947
  20    N        5.032947962    -1.326777739    -3.045658077
  21    C        5.564730207    -2.236081105    -4.124327944
  22    C        7.005631423    -1.835886538    -4.453340511
  23    O        7.051195885    -0.480477468    -4.863510966
  24    C        6.606722378     0.408676269    -3.857271781
  25    C        5.147273169     0.106276579    -3.498986613
  26    H        4.795959676     0.784293675    -2.687332710
  27    H        4.486112312     0.272597305    -4.382118633
  28    H        6.715076500     1.407164687    -4.327815776
  29    H        7.278721578     0.355152408    -2.979957430
  30    H        7.392861979    -2.383657328    -5.336551154
  31    H        7.697993743    -1.996018273    -3.605549834
  32    H        4.915330397    -2.163007343    -5.028926911
  33    H        4.322389700    -1.592997477    -0.451889534
  34    H        4.032455494    -1.565638960    -2.819742390
  35    H        5.512535925    -3.295845587    -3.778956351
  36    H        5.882618036    -2.525475653    -0.279423481
  37    H        5.594191955    -1.471268472    -2.116547868
  38    O        5.750339500    -1.614699580    -0.549039280


           Empirical Formula: C12 H19 N2 O4 Cl  =    38 atoms



      MOLECULAR POINT GROUP   :   C1  


                  EIGENVALUES  
 -38.39325 -36.27562 -31.38718 -30.41345 -28.66285 -28.27634 -27.61979 -27.34996
 -27.24837 -25.93633 -25.67201 -24.99990 -24.26224 -23.01350 -21.93591 -21.55356
 -21.09506 -19.66507 -19.03291 -18.27426 -18.16705 -17.31837 -17.00141 -16.92604
 -16.73059 -16.57416 -16.22236 -15.88413 -15.73300 -15.54182 -15.10269 -14.69355
 -14.64021 -14.24333 -14.05754 -14.00389 -13.93190 -13.81605 -13.29305 -13.20148
 -12.84740 -12.61999 -12.47059 -12.30360 -12.10390 -11.95519 -11.49625 -11.34909
 -11.17412 -10.99924 -10.83716 -10.54923 -10.10289  -8.75414  -0.54511  -0.37921
   0.38958   0.67529   0.84994   0.96306   1.60080   1.72556   2.05213   2.51761
   2.93893   3.09968   3.36685   3.84107   3.86025   3.99772   4.07885   4.35580
   4.48966   4.51919   4.58970   4.62168   4.69651   4.80253   4.95728   5.14305
   5.25878   5.27296   5.37838   5.46208   5.52923   5.55583   5.71450   5.72360
   5.76186   5.85333   5.86056   5.89553   5.95586   6.04866   6.93957  69.47359
  69.54187  69.56080  69.75738  69.76461


              NET ATOMIC CHARGES AND DIPOLE CONTRIBUTIONS

  ATOM NO.   TYPE          CHARGE      No. of ELECS.   s-Pop       p-Pop       d-Pop       
    1          C          -0.109450        4.1094     1.08930     3.02014
    2          C          -0.200546        4.2005     1.08842     3.11212
    3          C           0.062409        3.9376     1.06128     2.87631
    4          C          -0.220436        4.2204     1.08657     3.13387
    5          C           0.027271        3.9727     1.09585     2.87688
    6          C          -0.208461        4.2085     1.08453     3.12393
    7          H           0.173126        0.8269     0.82687
    8          H           0.181599        0.8184     0.81840
    9          H           0.197768        0.8022     0.80223
   10         Cl          -0.117822        7.1178     1.98079     5.13030     0.00673
   11          H           0.186112        0.8139     0.81389
   12          C          -0.311833        4.3118     1.03978     3.27205
   13          C          -0.395589        4.3956     1.04271     3.35288
   14          H           0.166211        0.8338     0.83379
   15          H           0.158640        0.8414     0.84136
   16          H           0.160188        0.8398     0.83981
   17          N           0.678610        4.3214     1.42560     2.89579
   18          O          -0.629120        6.6291     1.94379     4.68533
   19          O          -0.745771        6.7458     1.94516     4.80061
   20          N          -0.238931        5.2389     1.52968     3.70925
   21          C          -0.201819        4.2018     1.09299     3.10883
   22          C          -0.060438        4.0604     1.09421     2.96623
   23          O          -0.418229        6.4182     1.87762     4.54061
   24          C          -0.059372        4.0594     1.09366     2.96572
   25          C          -0.213948        4.2139     1.09271     3.12124
   26          H           0.180856        0.8191     0.81914
   27          H           0.193134        0.8069     0.80687
   28          H           0.176254        0.8237     0.82375
   29          H           0.154252        0.8457     0.84575
   30          H           0.174862        0.8251     0.82514
   31          H           0.153315        0.8467     0.84669
   32          H           0.198560        0.8014     0.80144
   33          H           0.483034        0.5170     0.51697
   34          H           0.325636        0.6744     0.67436
   35          H           0.200599        0.7994     0.79940
   36          H           0.360286        0.6397     0.63971
   37          H           0.349733        0.6503     0.65027
   38          O          -0.810690        6.8107     1.89033     4.92036
 DIPOLE           X         Y         Z       TOTAL
 POINT-CHG.    10.791     4.297    -2.515    11.884
 HYBRID        -0.597    -0.673    -0.178     0.917
 SUM           10.194     3.624    -2.693    11.149


          ATOMIC ORBITAL ELECTRON POPULATIONS

     Atom    s        px        py        pz      x^2-y^2     xz        z^2       yz        xy
    1  C   1.08930   1.00104   1.03000   0.98911
    2  C   1.08842   1.02093   0.99702   1.09417
    3  C   1.06128   0.95227   0.96362   0.96041
    4  C   1.08657   1.06902   1.03427   1.03058
    5  C   1.09585   1.00566   0.99902   0.87220
    6  C   1.08453   1.02383   1.07351   1.02659
    7  H   0.82687
    8  H   0.81840
    9  H   0.80223
   10 Cl   1.98079   1.87752   1.96747   1.28532   0.00038   0.00185   0.00235   0.00172   0.00043
   11  H   0.81389
   12  C   1.03978   1.38493   0.88817   0.99895
   13  C   1.04271   1.16642   1.19172   0.99474
   14  H   0.83379
   15  H   0.84136
   16  H   0.83981
   17  N   1.42560   0.96917   0.99152   0.93510
   18  O   1.94379   1.66903   1.28137   1.73492
   19  O   1.94516   1.69302   1.94086   1.16673
   20  N   1.52968   1.29416   1.16050   1.25459
   21  C   1.09299   1.05901   1.04088   1.00893
   22  C   1.09421   0.99454   0.82036   1.15132
   23  O   1.87762   1.87248   1.23962   1.42851
   24  C   1.09366   0.96026   0.99997   1.00548
   25  C   1.09271   1.10130   0.85104   1.16890
   26  H   0.81914
   27  H   0.80687
   28  H   0.82375
   29  H   0.84575
   30  H   0.82514
   31  H   0.84669
   32  H   0.80144
   33  H   0.51697
   34  H   0.67436
   35  H   0.79940
   36  H   0.63971
   37  H   0.65027
   38  O   1.89033   1.53535   1.49287   1.89214

          BONDING CONTRIBUTION OF EACH M.O.

  1.4252  1.4087  1.8875  1.2227  1.1750  1.4864  0.8572  1.8962  1.3085  1.6691
  1.4964  1.1474  1.3823  1.9065  1.8007  1.7350  1.6782  1.5242  1.7541  1.6773
  1.6918  1.3053  1.9419  1.5547  1.9867  1.8493  1.6277  1.3091  1.6879  1.5147
  1.8834  1.9093  1.8355  1.7962  1.5362  1.4119  1.8172  1.7556  1.9001  1.9000
  1.9551  1.7689  1.8819  1.1895  0.8376  0.9206  0.2692  0.4937  0.4962  0.4768
  0.7301  1.6970  1.5059  1.2836 -2.0831 -2.0506 -1.7945 -2.0348 -2.3531 -1.7325
 -2.1026 -1.8630 -2.0664 -1.8571 -2.0109 -2.0086 -1.9599 -1.9427 -1.8814 -1.8580
 -1.9561 -1.9629 -1.9194 -1.9973 -1.9437 -1.9452 -1.9722 -1.9071 -1.9253 -1.9529
 -1.9527 -1.9929 -1.9321 -1.9379 -1.9472 -1.9458 -1.9622 -1.9592 -1.9654 -1.9373
 -1.7699 -1.9497 -1.9527 -1.9455 -1.9055 -0.0036 -0.0089 -0.0077 -0.0004 -0.0009





            (VALENCIES)   BOND ORDERS

     1  C     (3.967)     2  C 1.453     6  C 1.426     7  H 0.957     4  C 0.106    10 Cl 0.011

     2  C     (3.966)     1  C 1.453     3  C 1.397     8  H 0.953     5  C 0.107    17  N 0.013

     3  C     (3.991)     2  C 1.397     4  C 1.396    12  C 1.040     6  C 0.106    18  O 0.012    10 Cl 0.011

     4  C     (3.959)     5  C 1.432     3  C 1.396     9  H 0.945     1  C 0.106    10 Cl 0.025    17  N 0.012

     5  C     (3.962)     4  C 1.432     6  C 1.422    10 Cl 0.981     2  C 0.107

     6  C     (3.964)     1  C 1.426     5  C 1.422    11  H 0.951     3  C 0.106    10 Cl 0.025

     7  H     (0.970)     1  C 0.957

     8  H     (0.967)     2  C 0.953

     9  H     (0.961)     4  C 0.945

    10 Cl     (1.065)     5  C 0.981     4  C 0.025     6  C 0.025     1  C 0.011     3  C 0.011

    11  H     (0.965)     6  C 0.951

    12  C     (3.769)    17  N 1.349     3  C 1.040    13  C 0.998    18  O 0.164    19  O 0.137    33  H 0.031

    13  C     (3.915)    12  C 0.998    15  H 0.962    14  H 0.961    16  H 0.960    19  O 0.012

    14  H     (0.972)    13  C 0.961

    15  H     (0.975)    13  C 0.962

    16  H     (0.974)    13  C 0.960

    17  N     (3.807)    12  C 1.349    18  O 1.248    19  O 1.141     2  C 0.013     4  C 0.012

    18  O     (1.600)    17  N 1.248    12  C 0.164    19  O 0.151     3  C 0.012

    19  O     (1.492)    17  N 1.141    18  O 0.151    12  C 0.137    34  H 0.022    13  C 0.012

    20  N     (3.531)    25  C 0.926    21  C 0.918    34  H 0.843    37  H 0.763    38  O 0.039

    21  C     (3.861)    22  C 0.994    32  H 0.949    35  H 0.944    20  N 0.918    23  O 0.019    25  C 0.011

    22  C     (3.890)    21  C 0.994    31  H 0.960    23  O 0.953    30  H 0.949    28  H 0.011

    23  O     (1.985)    24  C 0.959    22  C 0.953    25  C 0.020    21  C 0.019

    24  C     (3.892)    25  C 0.991    29  H 0.960    23  O 0.959    28  H 0.949    30  H 0.011

    25  C     (3.877)    24  C 0.991    27  H 0.951    26  H 0.948    20  N 0.926    23  O 0.020    21  C 0.011

    26  H     (0.967)    25  C 0.948

    27  H     (0.963)    25  C 0.951

    28  H     (0.969)    24  C 0.949    22  C 0.011

    29  H     (0.976)    24  C 0.960

    30  H     (0.969)    22  C 0.949    24  C 0.011

    31  H     (0.976)    22  C 0.960

    32  H     (0.961)    21  C 0.949

    33  H     (0.767)    38  O 0.711    12  C 0.031

    34  H     (0.894)    20  N 0.843    19  O 0.022

    35  H     (0.960)    21  C 0.944

    36  H     (0.870)    38  O 0.865

    37  H     (0.878)    20  N 0.763    38  O 0.091

    38  O     (1.731)    36  H 0.865    33  H 0.711    37  H 0.091    20  N 0.039


 **********************
 *                    *
 * JOB ENDED NORMALLY *
 *                    *
 **********************



 TOTAL JOB TIME:             2.35 SECONDS

 == MOPAC DONE ==
