 *******************************************************************************
 **                                                                           **
 **                              MOPAC v22.0.6                                **
 **                                                                           **
 *******************************************************************************
 **          Digital Object Identifier (DOI): 10.5281/zenodo.6511958          **
 **    Visit the DOI location for information on how to cite this program.    **
 *******************************************************************************

                              PM7 CALCULATION RESULTS

 *******************************************************************************
 *  CALCULATION DONE:                                Sat Mar 23 20:29:12 2024  *
 *  PM7        - The PM7 Hamiltonian to be used
 *  SINGLET    - SPIN STATE DEFINED AS A SINGLET
 *
 *
 *
 *                 CHARGE ON SYSTEM = 0
 *
 *
 *
 *  EPS=78.4   - USE ANDREAS KLAMT'S COSMO IMPLICIT SOLVATION MODEL
 *  LET        - OVERRIDE SOME SAFETY CHECKS
 *  T=         - A TIME OF 14.0 DAYS REQUESTED
 *  DUMP=N     - RESTART FILE WRITTEN EVERY 30.0 MINUTES REQUESTED
 *  RELSCF     - DEFAULT SCF CRITERION MULTIPLIED BY 1.0000
 *              (DEFAULT SCF CRITERION = 0.00010)
 *  ITRY=      - DO A MAXIMUM OF 15000 ITERATIONS FOR SCF
 *  AUX        - OUTPUT AUXILIARY INFORMATION
 *  ISOTOPE    - SAVE THE FORCE MATRIX FOR USE LATER
 *  BONDS      - FINAL BOND-ORDER MATRIX TO BE PRINTED
 *  LARGE      - EXPANDED OUTPUT TO BE PRINTED
 *  THERMO     - THERMODYNAMIC QUANTITIES TO BE CALCULATED
 *******************************************************************************
PM7 AUX LARGE THERMO(298,298) LET ISOTOPE BONDS DUMP=30M ITRY=15000 T=14D CHARGE=0 SINGLET eps=78.4 RELSCF=1
 Title: ASE calculation

   ATOM   CHEMICAL          X               Y               Z
  NUMBER   SYMBOL      (ANGSTROMS)     (ANGSTROMS)     (ANGSTROMS)

     1       C          3.57005242  *   2.30040641  *  -0.84616972  *
     2       C          3.27945489  *   1.09936520  *  -0.20549413  *
     3       C          2.47010364  *   0.13408049  *  -0.82119885  *
     4       C          1.96035852  *   0.38922084  *  -2.10298765  *
     5       C          2.27792526  *   1.59012920  *  -2.71517206  *
     6       C          3.06744777  *   2.56318931  *  -2.12113600  *
     7       H          4.20067454  *   3.04269979  *  -0.35096082  *
     8       H          3.68784947  *   0.91041680  *   0.79021359  *
     9       H          1.32485959  *  -0.35070605  *  -2.59667720  *
    10      Cl          1.67811893  *   1.87080042  *  -4.30019827  *
    11       H          3.29751011  *   3.50385446  *  -2.62279965  *
    12       C          2.14900061  *  -1.10676098  *  -0.13194499  *
    13       C          1.70843799  *  -1.06364291  *   1.28926347  *
    14       H          1.79531697  *  -2.04288765  *   1.78654584  *
    15       H          0.65650279  *  -0.74921648  *   1.37626565  *
    16       H          2.30712535  *  -0.35554095  *   1.88152548  *
    17       N          2.10589224  *  -2.26712891  *  -0.80392974  *
    18       O          1.71331125  *  -3.33492227  *  -0.28626085  *
    19       O          2.57516206  *  -2.34438874  *  -1.98565195  *
    20       N          5.03294796  *  -1.32677774  *  -3.04565808  *
    21       C          5.56473021  *  -2.23608110  *  -4.12432794  *
    22       C          7.00563142  *  -1.83588654  *  -4.45334051  *
    23       O          7.05119589  *  -0.48047747  *  -4.86351097  *
    24       C          6.60672238  *   0.40867627  *  -3.85727178  *
    25       C          5.14727317  *   0.10627658  *  -3.49898661  *
    26       H          4.79595968  *   0.78429368  *  -2.68733271  *
    27       H          4.48611231  *   0.27259731  *  -4.38211863  *
    28       H          6.71507650  *   1.40716469  *  -4.32781578  *
    29       H          7.27872158  *   0.35515241  *  -2.97995743  *
    30       H          7.39286198  *  -2.38365733  *  -5.33655115  *
    31       H          7.69799374  *  -1.99601827  *  -3.60554983  *
    32       H          4.91533040  *  -2.16300734  *  -5.02892691  *
    33       H          4.32238970  *  -1.59299748  *  -0.45188953  *
    34       H          4.03245549  *  -1.56563896  *  -2.81974239  *
    35       H          5.51253592  *  -3.29584559  *  -3.77895635  *
    36       H          5.88261804  *  -2.52547565  *  -0.27942348  *
    37       H          5.59419196  *  -1.47126847  *  -2.11654787  *
    38       O          5.75033950  *  -1.61469958  *  -0.54903928  *



          CARTESIAN COORDINATES 

    NO.       ATOM           X           Y           Z

     1         C          3.5701      2.3004     -0.8462
     2         C          3.2795      1.0994     -0.2055
     3         C          2.4701      0.1341     -0.8212
     4         C          1.9604      0.3892     -2.1030
     5         C          2.2779      1.5901     -2.7152
     6         C          3.0674      2.5632     -2.1211
     7         H          4.2007      3.0427     -0.3510
     8         H          3.6878      0.9104      0.7902
     9         H          1.3249     -0.3507     -2.5967
    10        Cl          1.6781      1.8708     -4.3002
    11         H          3.2975      3.5039     -2.6228
    12         C          2.1490     -1.1068     -0.1319
    13         C          1.7084     -1.0636      1.2893
    14         H          1.7953     -2.0429      1.7865
    15         H          0.6565     -0.7492      1.3763
    16         H          2.3071     -0.3555      1.8815
    17         N          2.1059     -2.2671     -0.8039
    18         O          1.7133     -3.3349     -0.2863
    19         O          2.5752     -2.3444     -1.9857
    20         N          5.0329     -1.3268     -3.0457
    21         C          5.5647     -2.2361     -4.1243
    22         C          7.0056     -1.8359     -4.4533
    23         O          7.0512     -0.4805     -4.8635
    24         C          6.6067      0.4087     -3.8573
    25         C          5.1473      0.1063     -3.4990
    26         H          4.7960      0.7843     -2.6873
    27         H          4.4861      0.2726     -4.3821
    28         H          6.7151      1.4072     -4.3278
    29         H          7.2787      0.3552     -2.9800
    30         H          7.3929     -2.3837     -5.3366
    31         H          7.6980     -1.9960     -3.6055
    32         H          4.9153     -2.1630     -5.0289
    33         H          4.3224     -1.5930     -0.4519
    34         H          4.0325     -1.5656     -2.8197
    35         H          5.5125     -3.2958     -3.7790
    36         H          5.8826     -2.5255     -0.2794
    37         H          5.5942     -1.4713     -2.1165
    38         O          5.7503     -1.6147     -0.5490

 General Reference for PM7:
 "Optimization of Parameters for Semiempirical Methods VI: More Modifications to the 
 NDDO Approximations and Re-optimization of Parameters", J. J. P. Stewart, J. Mol. Mod., 1:32, 19 (2013)
 https://link.springer.com/article/10.1007/s00894-012-1667-x

           Empirical Formula: C12 H19 N2 O4 Cl  =    38 atoms



      MOLECULAR POINT GROUP   :   C1  


 SINGLET STATE CALCULATION


      RHF CALCULATION, NO. OF DOUBLY OCCUPIED LEVELS = 54

  SCF CRITERION =    0.1000E-03


          HEAT OF FORMATION =     -97.679914 KCALS/MOLE


          CARTESIAN COORDINATE DERIVATIVES

   NUMBER  ATOM         X            Y            Z

     1       C      0.081471    -0.051338    -0.046923
     2       C     -0.031331     0.082810    -0.003870
     3       C      0.069341    -0.143314    -0.088199
     4       C     -0.063614     0.196200    -0.125754
     5       C      0.144226     0.114455    -0.038203
     6       C     -0.106453     0.179823    -0.025899
     7       H     -0.049924     0.042590     0.033258
     8       H     -0.017942     0.065645     0.064518
     9       H      0.023293     0.020708    -0.040537
    10      Cl      0.028935     0.198519     0.035675
    11       H      0.022612     0.017589    -0.020875
    12       C      0.961510    -0.299721    -9.053623
    13       C      0.129675    -0.070432    -0.057463
    14       H      0.028340     0.014081     0.039656
    15       H      0.047225     0.035134    -0.006774
    16       H     -0.016159     0.022857     0.012347
    17       N     -0.118343     0.041590    -0.050551
    18       O     -0.330588    -0.075961    -0.144921
    19       O      0.409259     0.265217    -0.045880
    20       N      0.107946    -0.173290     0.070275
    21       C      0.055557    -0.195701    -0.162066
    22       C     -0.097901     0.112194     0.191411
    23       O      0.056191    -0.072481    -0.108125
    24       C     -0.072192    -0.020579     0.051922
    25       C     -0.031390    -0.056599    -0.027467
    26       H     -0.083925     0.054417    -0.016646
    27       H     -0.094739    -0.045455    -0.045853
    28       H      0.051490     0.055512     0.028349
    29       H      0.091128     0.073543     0.019026
    30       H     -0.144942    -0.100087     0.071987
    31       H      0.006047    -0.029458    -0.081778
    32       H      0.067355    -0.139954    -0.042000
    33       H     26.263232    69.068107  -102.969418
    34       H      0.008446     0.124623     0.096435
    35       H     -0.103634    -0.060570     0.062015
    36       H      0.232469    -0.057924    -0.135737
    37       H      0.227167    -0.101796    -0.169280
    38       O    -27.749599   -69.090793   112.731171

 DIPOLE           X         Y         Z       TOTAL
 POINT-CHG.    -7.118    -5.165     7.994    11.884
 HYBRID         0.623     0.660    -0.130     0.917
 SUM           -6.494    -4.505     7.863    11.149


          GRADIENT NORM = 185.46953



 ** GRADIENT IS VERY LARGE, BUT SINCE "LET" IS USED, CALCULATION WILL CONTINUE


                              **** WARNING ****

           GRADIENT IS VERY LARGE FOR A THERMO CALCULATION
           RESULTS ARE LIKELY TO BE INACCURATE IF THERE ARE
           ANY LOW-LYING VIBRATIONS (LESS THAN ABOUT 400CM-1)
           GRADIENT NORM SHOULD BE LESS THAN ABOUT 1.2 FOR THERMO
           TO GIVE ACCURATE RESULTS


          TIME FOR SCF CALCULATION =    0.23

          TIME FOR DERIVATIVES     =    0.05

          MOLECULAR WEIGHT =  290.75



          ROTATIONAL CONSTANTS IN CM(-1)

          A =    0.01164011   B =    0.00897823   C =    0.00660330



           PRINCIPAL MOMENTS OF INERTIA IN UNITS OF 10**(-40)*GRAM-CM**2

          A =     2404.8527   B =     3117.8489   C =     4239.2088


          ORIENTATION OF MOLECULE IN FORCE CALCULATION

    NO.       ATOM         X         Y         Z

     1          C      -1.5991   -1.8054   -1.7158
     2          C      -0.2071   -1.8054   -1.7158
     3          C       0.5113   -0.6014   -1.7158
     4          C      -0.1924    0.6122   -1.7061
     5          C      -1.5767    0.5750   -1.6959
     6          C      -2.3077   -0.6033   -1.7063
     7          H      -2.1433   -2.7529   -1.7181
     8          H       0.3289   -2.7575   -1.7171
     9          H       0.3515    1.5604   -1.7093
    10         Cl      -2.4232    2.0689   -1.6447
    11          H      -3.3983   -0.6048   -1.7043
    12          C       1.9663   -0.6114   -1.7440
    13          C       2.6753   -1.4997   -2.7053
    14          H       3.7310   -1.6573   -2.4326
    15          H       2.6636   -1.0822   -3.7244
    16          H       2.2119   -2.4961   -2.7593
    17          N       2.6673    0.2732   -1.0187
    18          O       3.9089    0.3875   -1.1060
    19          O       2.0920    0.9673   -0.1187
    20          N       0.2129    0.1627    1.8867
    21          C       0.3900    0.9801    3.1411
    22          C      -0.4076    0.3349    4.2778
    23          O      -1.7754    0.2436    3.9199
    24          C      -1.9867   -0.5589    2.7745
    25          C      -1.2561    0.0454    1.5700
    26          H      -1.3942   -0.5947    0.6682
    27          H      -1.6681    1.0539    1.3295
    28          H      -3.0875   -0.5348    2.6410
    29          H      -1.6770   -1.6012    2.9793
    30          H      -0.4223    0.9742    5.1840
    31          H      -0.0237   -0.6647    4.5556
    32          H       0.0462    2.0259    2.9578
    33          H       1.7849   -1.4107    0.3514
    34          H       0.7319    0.6015    1.0822
    35          H       1.4743    1.0412    3.3973
    36          H       2.3431   -2.1332    1.9325
    37          H       0.6481   -0.8335    2.0182
    38          O       1.4608   -2.1100    1.5576


    FIRST DERIVATIVES WILL BE USED IN THE CALCULATION OF SECOND DERIVATIVES

          ESTIMATED TIME TO COMPLETE CALCULATION =       65.91 SECONDS

    FOR POINT-GROUP C1   THERE ARE   1 UNIQUE SYMMETRY FUNCTIONS.

 STEP:   1 TIME =     0.17 SECS, INTEGRAL =      0.17 TIME LEFT:1209599.54
 STEP:   2 TIME =     0.15 SECS, INTEGRAL =      0.32 TIME LEFT:1209599.39
 STEP:   3 TIME =     0.16 SECS, INTEGRAL =      0.48 TIME LEFT:1209599.23
 STEP:   4 TIME =     0.16 SECS, INTEGRAL =      0.63 TIME LEFT:1209599.08
 STEP:   5 TIME =     0.16 SECS, INTEGRAL =      0.79 TIME LEFT:1209598.92
 STEP:   6 TIME =     0.16 SECS, INTEGRAL =      0.95 TIME LEFT:1209598.76
 STEP:   7 TIME =     0.14 SECS, INTEGRAL =      1.09 TIME LEFT:1209598.62
 STEP:   8 TIME =     0.15 SECS, INTEGRAL =      1.24 TIME LEFT:1209598.47
 STEP:   9 TIME =     0.14 SECS, INTEGRAL =      1.38 TIME LEFT:1209598.33
 STEP:  10 TIME =     0.16 SECS, INTEGRAL =      1.54 TIME LEFT:1209598.17
 STEP:  11 TIME =     0.20 SECS, INTEGRAL =      1.74 TIME LEFT:1209597.97
 STEP:  12 TIME =     0.16 SECS, INTEGRAL =      1.91 TIME LEFT:1209597.80
 STEP:  13 TIME =     0.19 SECS, INTEGRAL =      2.09 TIME LEFT:1209597.62
 STEP:  14 TIME =     0.20 SECS, INTEGRAL =      2.29 TIME LEFT:1209597.42
 STEP:  15 TIME =     0.16 SECS, INTEGRAL =      2.45 TIME LEFT:1209597.27
 STEP:  16 TIME =     0.16 SECS, INTEGRAL =      2.60 TIME LEFT:1209597.11
 STEP:  17 TIME =     0.16 SECS, INTEGRAL =      2.76 TIME LEFT:1209596.95
 STEP:  18 TIME =     0.16 SECS, INTEGRAL =      2.92 TIME LEFT:1209596.79
 STEP:  19 TIME =     0.15 SECS, INTEGRAL =      3.07 TIME LEFT:1209596.64
 STEP:  20 TIME =     0.16 SECS, INTEGRAL =      3.23 TIME LEFT:1209596.48
 STEP:  21 TIME =     0.16 SECS, INTEGRAL =      3.38 TIME LEFT:1209596.33
 STEP:  22 TIME =     0.16 SECS, INTEGRAL =      3.55 TIME LEFT:1209596.16
 STEP:  23 TIME =     0.17 SECS, INTEGRAL =      3.72 TIME LEFT:1209595.99
 STEP:  24 TIME =     0.15 SECS, INTEGRAL =      3.87 TIME LEFT:1209595.84
 STEP:  25 TIME =     0.15 SECS, INTEGRAL =      4.02 TIME LEFT:1209595.70
 STEP:  26 TIME =     0.15 SECS, INTEGRAL =      4.16 TIME LEFT:1209595.55
 STEP:  27 TIME =     0.14 SECS, INTEGRAL =      4.30 TIME LEFT:1209595.41
 STEP:  28 TIME =     0.14 SECS, INTEGRAL =      4.45 TIME LEFT:1209595.27
 STEP:  29 TIME =     0.14 SECS, INTEGRAL =      4.59 TIME LEFT:1209595.12
 STEP:  30 TIME =     0.15 SECS, INTEGRAL =      4.73 TIME LEFT:1209594.98
 STEP:  31 TIME =     0.15 SECS, INTEGRAL =      4.88 TIME LEFT:1209594.83
 STEP:  32 TIME =     0.16 SECS, INTEGRAL =      5.05 TIME LEFT:1209594.66
 STEP:  33 TIME =     0.15 SECS, INTEGRAL =      5.20 TIME LEFT:1209594.52
 STEP:  34 TIME =     0.15 SECS, INTEGRAL =      5.34 TIME LEFT:1209594.37
 STEP:  35 TIME =     0.14 SECS, INTEGRAL =      5.48 TIME LEFT:1209594.23
 STEP:  36 TIME =     0.16 SECS, INTEGRAL =      5.65 TIME LEFT:1209594.06
 STEP:  37 TIME =     0.14 SECS, INTEGRAL =      5.79 TIME LEFT:1209593.92
 STEP:  38 TIME =     0.14 SECS, INTEGRAL =      5.93 TIME LEFT:1209593.78
 STEP:  39 TIME =     0.14 SECS, INTEGRAL =      6.07 TIME LEFT:1209593.64
 STEP:  40 TIME =     0.15 SECS, INTEGRAL =      6.22 TIME LEFT:1209593.49
 STEP:  41 TIME =     0.14 SECS, INTEGRAL =      6.36 TIME LEFT:1209593.35
 STEP:  42 TIME =     0.14 SECS, INTEGRAL =      6.50 TIME LEFT:1209593.21
 STEP:  43 TIME =     0.16 SECS, INTEGRAL =      6.66 TIME LEFT:1209593.05
 STEP:  44 TIME =     0.14 SECS, INTEGRAL =      6.80 TIME LEFT:1209592.91
 STEP:  45 TIME =     0.14 SECS, INTEGRAL =      6.94 TIME LEFT:1209592.77
 STEP:  46 TIME =     0.14 SECS, INTEGRAL =      7.08 TIME LEFT:1209592.63
 STEP:  47 TIME =     0.15 SECS, INTEGRAL =      7.23 TIME LEFT:1209592.48
 STEP:  48 TIME =     0.14 SECS, INTEGRAL =      7.37 TIME LEFT:1209592.34
 STEP:  49 TIME =     0.13 SECS, INTEGRAL =      7.50 TIME LEFT:1209592.21
 STEP:  50 TIME =     0.15 SECS, INTEGRAL =      7.65 TIME LEFT:1209592.06
 STEP:  51 TIME =     0.15 SECS, INTEGRAL =      7.80 TIME LEFT:1209591.91
 STEP:  52 TIME =     0.14 SECS, INTEGRAL =      7.94 TIME LEFT:1209591.77
 STEP:  53 TIME =     0.13 SECS, INTEGRAL =      8.07 TIME LEFT:1209591.64
 STEP:  54 TIME =     0.14 SECS, INTEGRAL =      8.21 TIME LEFT:1209591.50
 STEP:  55 TIME =     0.15 SECS, INTEGRAL =      8.36 TIME LEFT:1209591.35
 STEP:  56 TIME =     0.13 SECS, INTEGRAL =      8.49 TIME LEFT:1209591.22
 STEP:  57 TIME =     0.14 SECS, INTEGRAL =      8.63 TIME LEFT:1209591.08
 STEP:  58 TIME =     0.16 SECS, INTEGRAL =      8.79 TIME LEFT:1209590.92
 STEP:  59 TIME =     0.16 SECS, INTEGRAL =      8.95 TIME LEFT:1209590.77
 STEP:  60 TIME =     0.13 SECS, INTEGRAL =      9.08 TIME LEFT:1209590.63
 STEP:  61 TIME =     0.16 SECS, INTEGRAL =      9.24 TIME LEFT:1209590.47
 STEP:  62 TIME =     0.18 SECS, INTEGRAL =      9.42 TIME LEFT:1209590.29
 STEP:  63 TIME =     0.14 SECS, INTEGRAL =      9.56 TIME LEFT:1209590.15
 STEP:  64 TIME =     0.13 SECS, INTEGRAL =      9.70 TIME LEFT:1209590.02
 STEP:  65 TIME =     0.20 SECS, INTEGRAL =      9.89 TIME LEFT:1209589.82
 STEP:  66 TIME =     0.16 SECS, INTEGRAL =     10.05 TIME LEFT:1209589.66
 STEP:  67 TIME =     0.14 SECS, INTEGRAL =     10.20 TIME LEFT:1209589.52
