 *******************************************************************************
 **                                                                           **
 **                              MOPAC v22.0.6                                **
 **                                                                           **
 *******************************************************************************
 **          Digital Object Identifier (DOI): 10.5281/zenodo.6511958          **
 **    Visit the DOI location for information on how to cite this program.    **
 *******************************************************************************

                              PM7 CALCULATION RESULTS

 *******************************************************************************
 *  CALCULATION DONE:                                Sun Mar 24 14:22:00 2024  *
 *  PM7        - The PM7 Hamiltonian to be used
 *  SINGLET    - SPIN STATE DEFINED AS A SINGLET
 *
 *
 *
 *                 CHARGE ON SYSTEM = 0
 *
 *
 *
 *  EPS=78.4   - USE ANDREAS KLAMT'S COSMO IMPLICIT SOLVATION MODEL
 *  THREADS    - USE A MAXIMUM OF 30 THREADS
 *  T=         - A TIME OF 14.0 DAYS REQUESTED
 *  DUMP=N     - RESTART FILE WRITTEN EVERY 30.0 MINUTES REQUESTED
 *  RELSCF     - DEFAULT SCF CRITERION MULTIPLIED BY 1.0000
 *              (DEFAULT SCF CRITERION = 0.00010)
 *  ITRY=      - DO A MAXIMUM OF 15000 ITERATIONS FOR SCF
 *  AUX        - OUTPUT AUXILIARY INFORMATION
 *  BONDS      - FINAL BOND-ORDER MATRIX TO BE PRINTED
 *******************************************************************************
PM7 BONDS AUX DUMP=30M ITRY=15000 T=14D THREADS=30 CHARGE=0 SINGLET eps=78.4 RELSCF=1
 Title: ASE calculation

   ATOM   CHEMICAL          X               Y               Z
  NUMBER   SYMBOL      (ANGSTROMS)     (ANGSTROMS)     (ANGSTROMS)

     1       C          2.63348380  *   2.12108391  *   2.33621700  *
     2       C          2.55620856  *   0.77664178  *   1.99119955  *
     3       C          1.68427188  *   0.33456553  *   0.98158793  *
     4       C          0.87764566  *   1.27807350  *   0.32830030  *
     5       C          0.98775998  *   2.60881350  *   0.69424177  *
     6       C          1.84440351  *   3.06823971  *   1.68097345  *
     7       H          3.31940435  *   2.44086176  *   3.12324518  *
     8       H          3.18815798  *   0.05754401  *   2.51410288  *
     9       H          0.18257085  *   0.95835301  *  -0.45058611  *
    10      Cl         -0.00238318  *   3.75369923  *  -0.12866517  *
    11       H          1.91076393  *   4.12191971  *   1.94676123  *
    12       C          1.62526812     -1.07605444      0.64510876   
    13       C          1.61574544  *  -2.08897695  *   1.74244412  *
    14       H          1.93704629  *  -3.08577504  *   1.40319124  *
    15       H          0.60361799  *  -2.21203242  *   2.15997401  *
    16       H          2.27185251  *  -1.81309260  *   2.57940059  *
    17       N          1.37730731  *  -1.49638242  *  -0.61417346  *
    18       O          1.30369743  *  -2.71849257  *  -0.88766465  *
    19       O          1.28872836  *  -0.68569548  *  -1.56807046  *
    20       N          5.37557492  *  -3.82616787  *  -0.57160639  *
    21       C          4.48425980  *  -4.17556281  *  -1.74350321  *
    22       C          4.84244343  *  -5.56136049  *  -2.28067161  *
    23       C          6.31736046  *  -5.61456503  *  -2.69165976  *
    24       C          7.21551520  *  -5.21432474  *  -1.51685821  *
    25       C          6.82832609  *  -3.83177311  *  -0.99306289  *
    26       H          3.61616714     -1.32812777  *   0.29527615  *
    27       H          3.42112935  *  -4.13964095  *  -1.40261665  *
    28       H          4.60270261  *  -3.40010970  *  -2.53581101  *
    29       H          4.19266858  *  -5.80562422  *  -3.14627711  *
    30       H          4.62533649  *  -6.34342651  *  -1.52496937  *
    31       H          6.58043973  *  -6.63172300  *  -3.04091293  *
    32       H          6.50172173  *  -4.95014590  *  -3.55906990  *
    33       H          8.28009131  *  -5.20939401  *  -1.82645236  *
    34       H          7.15717878  *  -5.97115640  *  -0.70860996  *
    35       H          7.45129858  *  -3.54788888  *  -0.11312788  *
    36       H          6.98896413  *  -3.04827505  *  -1.76950369  *
    37       H          5.23510801  *  -4.51528279  *   0.19814205  *
    38       H          4.97149599  *  -1.27189485  *   1.22233086  *
    39       H          5.11357958  *  -2.85664193  *  -0.19435764  *
    40       O          4.78049580     -1.35762514      0.28277620   



          CARTESIAN COORDINATES 

    NO.       ATOM           X           Y           Z

     1         C          2.6335      2.1211      2.3362
     2         C          2.5562      0.7766      1.9912
     3         C          1.6843      0.3346      0.9816
     4         C          0.8776      1.2781      0.3283
     5         C          0.9878      2.6088      0.6942
     6         C          1.8444      3.0682      1.6810
     7         H          3.3194      2.4409      3.1232
     8         H          3.1882      0.0575      2.5141
     9         H          0.1826      0.9584     -0.4506
    10        Cl         -0.0024      3.7537     -0.1287
    11         H          1.9108      4.1219      1.9468
    12         C          1.6253     -1.0761      0.6451
    13         C          1.6157     -2.0890      1.7424
    14         H          1.9370     -3.0858      1.4032
    15         H          0.6036     -2.2120      2.1600
    16         H          2.2719     -1.8131      2.5794
    17         N          1.3773     -1.4964     -0.6142
    18         O          1.3037     -2.7185     -0.8877
    19         O          1.2887     -0.6857     -1.5681
    20         N          5.3756     -3.8262     -0.5716
    21         C          4.4843     -4.1756     -1.7435
    22         C          4.8424     -5.5614     -2.2807
    23         C          6.3174     -5.6146     -2.6917
    24         C          7.2155     -5.2143     -1.5169
    25         C          6.8283     -3.8318     -0.9931
    26         H          3.6162     -1.3281      0.2953
    27         H          3.4211     -4.1396     -1.4026
    28         H          4.6027     -3.4001     -2.5358
    29         H          4.1927     -5.8056     -3.1463
    30         H          4.6253     -6.3434     -1.5250
    31         H          6.5804     -6.6317     -3.0409
    32         H          6.5017     -4.9501     -3.5591
    33         H          8.2801     -5.2094     -1.8265
    34         H          7.1572     -5.9712     -0.7086
    35         H          7.4513     -3.5479     -0.1131
    36         H          6.9890     -3.0483     -1.7695
    37         H          5.2351     -4.5153      0.1981
    38         H          4.9715     -1.2719      1.2223
    39         H          5.1136     -2.8566     -0.1944
    40         O          4.7805     -1.3576      0.2828

 General Reference for PM7:
 "Optimization of Parameters for Semiempirical Methods VI: More Modifications to the 
 NDDO Approximations and Re-optimization of Parameters", J. J. P. Stewart, J. Mol. Mod., 1:32, 19 (2013)
 https://link.springer.com/article/10.1007/s00894-012-1667-x

           Empirical Formula: C13 H21 N2 O3 Cl  =    40 atoms



      MOLECULAR POINT GROUP   :   C1  


 SINGLET STATE CALCULATION


      RHF CALCULATION, NO. OF DOUBLY OCCUPIED LEVELS = 54


          Geometry optimization using L-BFGS
  SCF CRITERION =    0.1000E-03
 CYCLE:     1 TIME:   0.223 TIME LEFT:  2.00W  GRAD.:     3.829 HEAT: -102.0674
 CYCLE:     2 TIME:   0.062 TIME LEFT:  2.00W  GRAD.:     3.771 HEAT: -102.0676
 CYCLE:     3 TIME:   0.062 TIME LEFT:  2.00W  GRAD.:     2.936 HEAT: -102.0784
 CYCLE:     4 TIME:   0.062 TIME LEFT:  2.00W  GRAD.:     3.769 HEAT: -102.0676
 CYCLE:     5 TIME:   0.062 TIME LEFT:  2.00W  GRAD.:     2.960 HEAT: -102.0783
 CYCLE:     6 TIME:   0.062 TIME LEFT:  2.00W  GRAD.:     1.855 HEAT: -102.0823
 CYCLE:     7 TIME:   0.090 TIME LEFT:  2.00W  GRAD.:     1.639 HEAT: -102.0850
 CYCLE:     8 TIME:   0.062 TIME LEFT:  2.00W  GRAD.:     2.112 HEAT: -102.0936
 CYCLE:     9 TIME:   0.062 TIME LEFT:  2.00W  GRAD.:     3.318 HEAT: -102.0920
 CYCLE:    10 TIME:   0.062 TIME LEFT:  2.00W  GRAD.:     5.014 HEAT: -101.4962
 CYCLE:    11 TIME:   0.066 TIME LEFT:  2.00W  GRAD.:     3.166 HEAT: -101.5235
 CYCLE:    12 TIME:   0.062 TIME LEFT:  2.00W  GRAD.:     2.913 HEAT: -101.5513
 CYCLE:    13 TIME:   0.086 TIME LEFT:  2.00W  GRAD.:     3.350 HEAT: -101.5584
 CYCLE:    14 TIME:   0.062 TIME LEFT:  2.00W  GRAD.:     3.390 HEAT: -101.5911
 CYCLE:    15 TIME:   0.062 TIME LEFT:  2.00W  GRAD.:     2.918 HEAT: -101.5967
 CYCLE:    16 TIME:   0.070 TIME LEFT:  2.00W  GRAD.:     4.545 HEAT: -101.5944
 CYCLE:    17 TIME:   0.059 TIME LEFT:  2.00W  GRAD.:     1.639 HEAT: -101.6018
 CYCLE:    18 TIME:   0.070 TIME LEFT:  2.00W  GRAD.:     0.982 HEAT: -101.6102


          CURRENT BEST VALUE OF HEAT OF FORMATION =   -102.094058

 PM7 BONDS AUX DUMP=30M ITRY=15000 T=14D THREADS=30 CHARGE=0 SINGLET eps=78.4 RELSCF=1
 Title: ASE calculation

  C     2.63409165 +1   2.12110950 +1   2.33616601 +1
  C     2.55695826 +1   0.77658377 +1   1.99129023 +1
  C     1.68509272 +1   0.33406081 +1   0.98121911 +1
  C     0.87789559 +1   1.27833229 +1   0.32819282 +1
  C     0.98815279 +1   2.60869388 +1   0.69443493 +1
  C     1.84462068 +1   3.06809874 +1   1.68105738 +1
  H     3.32006917 +1   2.44081323 +1   3.12335843 +1
  H     3.18854874 +1   0.05728528 +1   2.51373323 +1
  H     0.18327073 +1   0.95828784 +1  -0.45085980 +1
 Cl    -0.00250407 +1   3.75399123 +1  -0.12853805 +1
  H     1.91070264 +1   4.12181353 +1   1.94711269 +1
  C     1.62526812 +0  -1.07605444 +0   0.64510876 +0
  C     1.61696217 +1  -2.08875194 +1   1.74224135 +1
  H     1.93876863 +1  -3.08525278 +1   1.40303308 +1
  H     0.60483134 +1  -2.21161437 +1   2.16007232 +1
  H     2.27364865 +1  -1.81314290 +1   2.57851375 +1
  N     1.38127941 +1  -1.49608131 +1  -0.61410219 +1
  O     1.30554026 +1  -2.71808961 +1  -0.88829434 +1
  O     1.29176125 +1  -0.68641949 +1  -1.56905510 +1
  N     5.37557864 +1  -3.82686461 +1  -0.57125494 +1
  C     4.48435119 +1  -4.17609129 +1  -1.74318001 +1
  C     4.84201539 +1  -5.56181766 +1  -2.28108438 +1
  C     6.31708904 +1  -5.61494971 +1  -2.69208087 +1
  C     7.21577438 +1  -5.21475483 +1  -1.51746870 +1
  C     6.82810005 +1  -3.83242643 +1  -0.99330128 +1
  H     3.61616714 +0  -1.32831929 +1   0.29227127 +1
  H     3.42123803 +1  -4.13964541 +1  -1.40306269 +1
  H     4.60273435 +1  -3.40076750 +1  -2.53509864 +1
  H     4.19176467 +1  -5.80641671 +1  -3.14676759 +1
  H     4.62527978 +1  -6.34363867 +1  -1.52500588 +1
  H     6.58004825 +1  -6.63226894 +1  -3.04112930 +1
  H     6.50133211 +1  -4.95026311 +1  -3.55935391 +1
  H     8.28076053 +1  -5.21008873 +1  -1.82706404 +1
  H     7.15718629 +1  -5.97144254 +1  -0.70906994 +1
  H     7.45148086 +1  -3.54789794 +1  -0.11412729 +1
  H     6.98828791 +1  -3.04903226 +1  -1.76940480 +1
  H     5.23600836 +1  -4.51762528 +1   0.19719233 +1
  H     4.97321407 +1  -1.27012168 +1   1.22613813 +1
  H     5.11403178 +1  -2.85750357 +1  -0.19451452 +1
  O     4.78049580 +0  -1.35762514 +0   0.28277620 +0



 -------------------------------------------------------------------------------
 PM7 BONDS AUX DUMP=30M ITRY=15000 T=14D THREADS=30 CHARGE=0 SINGLET eps=78.4 RELSCF=1
 Title: ASE calculation



     HERBERTS TEST WAS SATISFIED IN BFGS                      
     SCF FIELD WAS ACHIEVED                                   


                              PM7 CALCULATION
                                                       MOPAC v22.0.6 Linux
                                                       Sun Mar 24 14:22:01 2024




          FINAL HEAT OF FORMATION =       -102.09406 KCAL/MOL =    -427.16154 KJ/MOL
          VAN DER WAALS AREA      =        319.13 SQUARE ANGSTROMS



          DIELECTRIC ENERGY       =         -2.21652 EV
          COSMO AREA              =        319.13 SQUARE ANGSTROMS
          COSMO VOLUME            =        358.48 CUBIC ANGSTROMS

          GRADIENT NORM           =          2.11186          =       0.33391 PER ATOM
          IONIZATION POTENTIAL    =          8.512152 EV
          HOMO LUMO ENERGIES (EV) =         -8.512 -0.304
          NO. OF FILLED LEVELS    =         54
          MOLECULAR WEIGHT        =        288.7735         POINT GROUP:  C1  

          MOLECULAR DIMENSIONS (Angstroms)

            Atom       Atom       Distance
            H    31    H    11    12.74110
            H    33    H    15     6.01084
           Cl    10    H    16     4.68277


          SCF CALCULATIONS        =         20

          WALL-CLOCK TIME         =      1.426 SECONDS
          COMPUTATION TIME        =          2 MINUTES AND 14.413 SECONDS



       FINAL  POINT  AND  DERIVATIVES

   PARAMETER     ATOM    TYPE            VALUE        GRADIENT
      1          1  C    CARTESIAN X     2.634092      0.004970  KCAL/ANGSTROM
      2          1  C    CARTESIAN Y     2.121110     -0.397561  KCAL/ANGSTROM
      3          1  C    CARTESIAN Z     2.336166     -0.004378  KCAL/ANGSTROM
      4          2  C    CARTESIAN X     2.556958     -0.023990  KCAL/ANGSTROM
      5          2  C    CARTESIAN Y     0.776584      0.252167  KCAL/ANGSTROM
      6          2  C    CARTESIAN Z     1.991290      0.178151  KCAL/ANGSTROM
      7          3  C    CARTESIAN X     1.685093      0.045525  KCAL/ANGSTROM
      8          3  C    CARTESIAN Y     0.334061     -0.182814  KCAL/ANGSTROM
      9          3  C    CARTESIAN Z     0.981219      0.020995  KCAL/ANGSTROM
     10          4  C    CARTESIAN X     0.877896     -0.204519  KCAL/ANGSTROM
     11          4  C    CARTESIAN Y     1.278332      0.352590  KCAL/ANGSTROM
     12          4  C    CARTESIAN Z     0.328193      0.023346  KCAL/ANGSTROM
     13          5  C    CARTESIAN X     0.988153     -0.062879  KCAL/ANGSTROM
     14          5  C    CARTESIAN Y     2.608694     -0.378121  KCAL/ANGSTROM
     15          5  C    CARTESIAN Z     0.694435     -0.109809  KCAL/ANGSTROM
     16          6  C    CARTESIAN X     1.844621     -0.106274  KCAL/ANGSTROM
     17          6  C    CARTESIAN Y     3.068099      0.328111  KCAL/ANGSTROM
     18          6  C    CARTESIAN Z     1.681057     -0.023454  KCAL/ANGSTROM
     19          7  H    CARTESIAN X     3.320069     -0.051064  KCAL/ANGSTROM
     20          7  H    CARTESIAN Y     2.440813      0.024781  KCAL/ANGSTROM
     21          7  H    CARTESIAN Z     3.123358      0.049243  KCAL/ANGSTROM
     22          8  H    CARTESIAN X     3.188549     -0.096676  KCAL/ANGSTROM
     23          8  H    CARTESIAN Y     0.057285      0.035485  KCAL/ANGSTROM
     24          8  H    CARTESIAN Z     2.513733      0.024558  KCAL/ANGSTROM
     25          9  H    CARTESIAN X     0.183271     -0.091840  KCAL/ANGSTROM
     26          9  H    CARTESIAN Y     0.958288      0.017674  KCAL/ANGSTROM
     27          9  H    CARTESIAN Z    -0.450860      0.050086  KCAL/ANGSTROM
     28         10 Cl    CARTESIAN X    -0.002504     -0.083324  KCAL/ANGSTROM
     29         10 Cl    CARTESIAN Y     3.753991      0.080421  KCAL/ANGSTROM
     30         10 Cl    CARTESIAN Z    -0.128538     -0.108170  KCAL/ANGSTROM
     31         11  H    CARTESIAN X     1.910703      0.002303  KCAL/ANGSTROM
     32         11  H    CARTESIAN Y     4.121814     -0.032658  KCAL/ANGSTROM
     33         11  H    CARTESIAN Z     1.947113     -0.067472  KCAL/ANGSTROM
     34         13  C    CARTESIAN X     1.616962     -0.148929  KCAL/ANGSTROM
     35         13  C    CARTESIAN Y    -2.088752     -0.001642  KCAL/ANGSTROM
     36         13  C    CARTESIAN Z     1.742241      0.066011  KCAL/ANGSTROM
     37         14  H    CARTESIAN X     1.938769     -0.226327  KCAL/ANGSTROM
     38         14  H    CARTESIAN Y    -3.085253     -0.012406  KCAL/ANGSTROM
     39         14  H    CARTESIAN Z     1.403033      0.047440  KCAL/ANGSTROM
     40         15  H    CARTESIAN X     0.604831     -0.188706  KCAL/ANGSTROM
     41         15  H    CARTESIAN Y    -2.211614     -0.000681  KCAL/ANGSTROM
     42         15  H    CARTESIAN Z     2.160072     -0.080646  KCAL/ANGSTROM
     43         16  H    CARTESIAN X     2.273649     -0.285450  KCAL/ANGSTROM
     44         16  H    CARTESIAN Y    -1.813143     -0.035258  KCAL/ANGSTROM
     45         16  H    CARTESIAN Z     2.578514      0.064628  KCAL/ANGSTROM
     46         17  N    CARTESIAN X     1.381279     -0.072282  KCAL/ANGSTROM
     47         17  N    CARTESIAN Y    -1.496081     -0.169766  KCAL/ANGSTROM
     48         17  N    CARTESIAN Z    -0.614102     -0.657303  KCAL/ANGSTROM
     49         18  O    CARTESIAN X     1.305540     -0.434108  KCAL/ANGSTROM
     50         18  O    CARTESIAN Y    -2.718090      0.655494  KCAL/ANGSTROM
     51         18  O    CARTESIAN Z    -0.888294      0.176801  KCAL/ANGSTROM
     52         19  O    CARTESIAN X     1.291761     -0.613932  KCAL/ANGSTROM
     53         19  O    CARTESIAN Y    -0.686419     -0.459953  KCAL/ANGSTROM
     54         19  O    CARTESIAN Z    -1.569055      0.561347  KCAL/ANGSTROM
     55         20  N    CARTESIAN X     5.375579     -0.062834  KCAL/ANGSTROM
     56         20  N    CARTESIAN Y    -3.826865      0.244621  KCAL/ANGSTROM
     57         20  N    CARTESIAN Z    -0.571255      0.055219  KCAL/ANGSTROM
     58         21  C    CARTESIAN X     4.484351      0.034337  KCAL/ANGSTROM
     59         21  C    CARTESIAN Y    -4.176091      0.152125  KCAL/ANGSTROM
     60         21  C    CARTESIAN Z    -1.743180      0.097872  KCAL/ANGSTROM
     61         22  C    CARTESIAN X     4.842015      0.009478  KCAL/ANGSTROM
     62         22  C    CARTESIAN Y    -5.561818      0.077240  KCAL/ANGSTROM
     63         22  C    CARTESIAN Z    -2.281084      0.019753  KCAL/ANGSTROM
     64         23  C    CARTESIAN X     6.317089      0.039614  KCAL/ANGSTROM
     65         23  C    CARTESIAN Y    -5.614950      0.066711  KCAL/ANGSTROM
     66         23  C    CARTESIAN Z    -2.692081      0.059211  KCAL/ANGSTROM
     67         24  C    CARTESIAN X     7.215774     -0.007835  KCAL/ANGSTROM
     68         24  C    CARTESIAN Y    -5.214755      0.094621  KCAL/ANGSTROM
     69         24  C    CARTESIAN Z    -1.517469      0.088941  KCAL/ANGSTROM
     70         25  C    CARTESIAN X     6.828100     -0.085647  KCAL/ANGSTROM
     71         25  C    CARTESIAN Y    -3.832426      0.122954  KCAL/ANGSTROM
     72         25  C    CARTESIAN Z    -0.993301      0.086111  KCAL/ANGSTROM
     73         26  H    CARTESIAN Y    -1.328319      0.003494  KCAL/ANGSTROM
     74         26  H    CARTESIAN Z     0.292271      0.045190  KCAL/ANGSTROM
     75         27  H    CARTESIAN X     3.421238      0.060419  KCAL/ANGSTROM
     76         27  H    CARTESIAN Y    -4.139645      0.027267  KCAL/ANGSTROM
     77         27  H    CARTESIAN Z    -1.403063     -0.013760  KCAL/ANGSTROM
     78         28  H    CARTESIAN X     4.602734     -0.039318  KCAL/ANGSTROM
     79         28  H    CARTESIAN Y    -3.400767     -0.012906  KCAL/ANGSTROM
     80         28  H    CARTESIAN Z    -2.535099      0.014403  KCAL/ANGSTROM
     81         29  H    CARTESIAN X     4.191765      0.025586  KCAL/ANGSTROM
     82         29  H    CARTESIAN Y    -5.806417      0.047586  KCAL/ANGSTROM
     83         29  H    CARTESIAN Z    -3.146768     -0.057817  KCAL/ANGSTROM
     84         30  H    CARTESIAN X     4.625280      0.023656  KCAL/ANGSTROM
     85         30  H    CARTESIAN Y    -6.343639      0.071110  KCAL/ANGSTROM
     86         30  H    CARTESIAN Z    -1.525006      0.039638  KCAL/ANGSTROM
     87         31  H    CARTESIAN X     6.580048      0.061781  KCAL/ANGSTROM
     88         31  H    CARTESIAN Y    -6.632269      0.052303  KCAL/ANGSTROM
     89         31  H    CARTESIAN Z    -3.041129      0.053853  KCAL/ANGSTROM
     90         32  H    CARTESIAN X     6.501332      0.063908  KCAL/ANGSTROM
     91         32  H    CARTESIAN Y    -4.950263      0.053719  KCAL/ANGSTROM
     92         32  H    CARTESIAN Z    -3.559354      0.045773  KCAL/ANGSTROM
     93         33  H    CARTESIAN X     8.280761      0.082468  KCAL/ANGSTROM
     94         33  H    CARTESIAN Y    -5.210089      0.082059  KCAL/ANGSTROM
     95         33  H    CARTESIAN Z    -1.827064      0.071280  KCAL/ANGSTROM
     96         34  H    CARTESIAN X     7.157186     -0.029925  KCAL/ANGSTROM
     97         34  H    CARTESIAN Y    -5.971443      0.075330  KCAL/ANGSTROM
     98         34  H    CARTESIAN Z    -0.709070      0.087571  KCAL/ANGSTROM
     99         35  H    CARTESIAN X     7.451481     -0.058820  KCAL/ANGSTROM
    100         35  H    CARTESIAN Y    -3.547898      0.028261  KCAL/ANGSTROM
    101         35  H    CARTESIAN Z    -0.114127      0.071910  KCAL/ANGSTROM
    102         36  H    CARTESIAN X     6.988288      0.077729  KCAL/ANGSTROM
    103         36  H    CARTESIAN Y    -3.049032      0.006689  KCAL/ANGSTROM
    104         36  H    CARTESIAN Z    -1.769405      0.129099  KCAL/ANGSTROM
    105         37  H    CARTESIAN X     5.236008     -0.069265  KCAL/ANGSTROM
    106         37  H    CARTESIAN Y    -4.517625      0.251858  KCAL/ANGSTROM
    107         37  H    CARTESIAN Z     0.197192      0.015959  KCAL/ANGSTROM
    108         38  H    CARTESIAN X     4.973214      0.315329  KCAL/ANGSTROM
    109         38  H    CARTESIAN Y    -1.270122     -0.105948  KCAL/ANGSTROM
    110         38  H    CARTESIAN Z     1.226138      0.973179  KCAL/ANGSTROM
    111         39  H    CARTESIAN X     5.114032     -0.012960  KCAL/ANGSTROM
    112         39  H    CARTESIAN Y    -2.857504      0.149918  KCAL/ANGSTROM
    113         39  H    CARTESIAN Z    -0.194515     -0.140787  KCAL/ANGSTROM




   ATOM   CHEMICAL          X               Y               Z
  NUMBER   SYMBOL      (ANGSTROMS)     (ANGSTROMS)     (ANGSTROMS)

     1       C          2.63409165  *   2.12110950  *   2.33616601  *
     2       C          2.55695826  *   0.77658377  *   1.99129023  *
     3       C          1.68509272  *   0.33406081  *   0.98121911  *
     4       C          0.87789559  *   1.27833229  *   0.32819282  *
     5       C          0.98815279  *   2.60869388  *   0.69443493  *
     6       C          1.84462068  *   3.06809874  *   1.68105738  *
     7       H          3.32006917  *   2.44081323  *   3.12335843  *
     8       H          3.18854874  *   0.05728528  *   2.51373323  *
     9       H          0.18327073  *   0.95828784  *  -0.45085980  *
    10      Cl         -0.00250407  *   3.75399123  *  -0.12853805  *
    11       H          1.91070264  *   4.12181353  *   1.94711269  *
    12       C          1.62526812     -1.07605444      0.64510876   
    13       C          1.61696217  *  -2.08875194  *   1.74224135  *
    14       H          1.93876863  *  -3.08525278  *   1.40303308  *
    15       H          0.60483134  *  -2.21161437  *   2.16007232  *
    16       H          2.27364865  *  -1.81314290  *   2.57851375  *
    17       N          1.38127941  *  -1.49608131  *  -0.61410219  *
    18       O          1.30554026  *  -2.71808961  *  -0.88829434  *
    19       O          1.29176125  *  -0.68641949  *  -1.56905510  *
    20       N          5.37557864  *  -3.82686461  *  -0.57125494  *
    21       C          4.48435119  *  -4.17609129  *  -1.74318001  *
    22       C          4.84201539  *  -5.56181766  *  -2.28108438  *
    23       C          6.31708904  *  -5.61494971  *  -2.69208087  *
    24       C          7.21577438  *  -5.21475483  *  -1.51746870  *
    25       C          6.82810005  *  -3.83242643  *  -0.99330128  *
    26       H          3.61616714     -1.32831929  *   0.29227127  *
    27       H          3.42123803  *  -4.13964541  *  -1.40306269  *
    28       H          4.60273435  *  -3.40076750  *  -2.53509864  *
    29       H          4.19176467  *  -5.80641671  *  -3.14676759  *
    30       H          4.62527978  *  -6.34363867  *  -1.52500588  *
    31       H          6.58004825  *  -6.63226894  *  -3.04112930  *
    32       H          6.50133211  *  -4.95026311  *  -3.55935391  *
    33       H          8.28076053  *  -5.21008873  *  -1.82706404  *
    34       H          7.15718629  *  -5.97144254  *  -0.70906994  *
    35       H          7.45148086  *  -3.54789794  *  -0.11412729  *
    36       H          6.98828791  *  -3.04903226  *  -1.76940480  *
    37       H          5.23600836  *  -4.51762528  *   0.19719233  *
    38       H          4.97321407  *  -1.27012168  *   1.22613813  *
    39       H          5.11403178  *  -2.85750357  *  -0.19451452  *
    40       O          4.78049580     -1.35762514      0.28277620   

                             CARTESIAN COORDINATES

   1    C        2.634091650     2.121109504     2.336166009
   2    C        2.556958264     0.776583775     1.991290234
   3    C        1.685092717     0.334060806     0.981219111
   4    C        0.877895586     1.278332287     0.328192822
   5    C        0.988152790     2.608693882     0.694434933
   6    C        1.844620684     3.068098740     1.681057376
   7    H        3.320069175     2.440813231     3.123358429
   8    H        3.188548736     0.057285284     2.513733230
   9    H        0.183270729     0.958287842    -0.450859800
  10   Cl       -0.002504074     3.753991228    -0.128538048
  11    H        1.910702644     4.121813526     1.947112692
  12    C        1.625268120    -1.076054440     0.645108760
  13    C        1.616962169    -2.088751941     1.742241350
  14    H        1.938768627    -3.085252783     1.403033077
  15    H        0.604831344    -2.211614372     2.160072317
  16    H        2.273648653    -1.813142900     2.578513755
  17    N        1.381279411    -1.496081308    -0.614102189
  18    O        1.305540258    -2.718089609    -0.888294342
  19    O        1.291761255    -0.686419492    -1.569055103
  20    N        5.375578635    -3.826864614    -0.571254943
  21    C        4.484351188    -4.176091285    -1.743180008
  22    C        4.842015388    -5.561817662    -2.281084376
  23    C        6.317089044    -5.614949709    -2.692080872
  24    C        7.215774378    -5.214754828    -1.517468698
  25    C        6.828100052    -3.832426427    -0.993301283
  26    H        3.616167140    -1.328319290     0.292271266
  27    H        3.421238029    -4.139645406    -1.403062692
  28    H        4.602734348    -3.400767495    -2.535098645
  29    H        4.191764667    -5.806416713    -3.146767593
  30    H        4.625279781    -6.343638673    -1.525005884
  31    H        6.580048249    -6.632268936    -3.041129296
  32    H        6.501332109    -4.950263115    -3.559353909
  33    H        8.280760527    -5.210088734    -1.827064041
  34    H        7.157186286    -5.971442535    -0.709069942
  35    H        7.451480862    -3.547897940    -0.114127290
  36    H        6.988287907    -3.049032261    -1.769404803
  37    H        5.236008361    -4.517625282     0.197192328
  38    H        4.973214071    -1.270121676     1.226138131
  39    H        5.114031780    -2.857503569    -0.194514522
  40    O        4.780495800    -1.357625140     0.282776200


           Empirical Formula: C13 H21 N2 O3 Cl  =    40 atoms



      MOLECULAR POINT GROUP   :   C1  


                  EIGENVALUES  
 -38.10768 -36.05390 -31.15674 -29.04076 -28.58037 -28.48182 -27.97014 -27.11763
 -26.80860 -25.72844 -24.88168 -24.09854 -23.20247 -21.85121 -21.78131 -20.91012
 -20.50025 -19.27418 -18.72749 -18.09935 -17.31394 -17.18890 -17.09721 -16.47070
 -16.41822 -16.36066 -15.72980 -15.57000 -15.07629 -14.93250 -14.82029 -14.63627
 -14.51354 -14.27625 -13.94397 -13.86175 -13.70957 -13.53463 -13.08354 -12.67262
 -12.55489 -12.51500 -12.30424 -12.01848 -11.90637 -11.74222 -11.71781 -11.46933
 -11.03899 -10.86171 -10.73671 -10.39731  -9.97632  -8.51215  -0.30369  -0.17517
   0.75003   1.04614   1.17386   1.87934   2.25495   2.81610   2.88841   3.32493
   3.49026   3.62928   3.78474   4.02949   4.20901   4.24723   4.47789   4.55560
   4.70502   4.80460   4.90983   4.91646   5.04311   5.19028   5.29124   5.43032
   5.45717   5.50345   5.57023   5.64083   5.68378   5.71546   5.80145   5.81396
   5.88727   5.97605   6.01112   6.11933   6.21201   6.22157   6.31170   6.43650
   7.03554  69.68700  69.69502  69.72837  69.96917  69.97644


              NET ATOMIC CHARGES AND DIPOLE CONTRIBUTIONS

  ATOM NO.   TYPE          CHARGE      No. of ELECS.   s-Pop       p-Pop       d-Pop       
    1          C          -0.103155        4.1032     1.08774     3.01541
    2          C          -0.220583        4.2206     1.08565     3.13494
    3          C           0.109773        3.8902     1.06143     2.82880
    4          C          -0.229385        4.2294     1.08377     3.14561
    5          C           0.054676        3.9453     1.09548     2.84985
    6          C          -0.223180        4.2232     1.08073     3.14245
    7          H           0.166224        0.8338     0.83378
    8          H           0.166488        0.8335     0.83351
    9          H           0.195933        0.8041     0.80407
   10         Cl          -0.136987        7.1370     1.98062     5.15001     0.00636
   11          H           0.181331        0.8187     0.81867
   12          C          -0.359970        4.3600     1.03619     3.32378
   13          C          -0.404316        4.4043     1.04293     3.36139
   14          H           0.159002        0.8410     0.84100
   15          H           0.156514        0.8435     0.84349
   16          H           0.155455        0.8445     0.84455
   17          N           0.702456        4.2975     1.42252     2.87502
   18          O          -0.660806        6.6608     1.94468     4.71612
   19          O          -0.672313        6.6723     1.94416     4.72815
   20          N          -0.210685        5.2107     1.51965     3.69103
   21          C          -0.162788        4.1628     1.08854     3.07425
   22          C          -0.292461        4.2925     1.06210     3.23036
   23          C          -0.272680        4.2727     1.05843     3.21425
   24          C          -0.303546        4.3035     1.06230     3.24124
   25          C          -0.161900        4.1619     1.08713     3.07477
   26          H           0.418814        0.5812     0.58119
   27          H           0.182112        0.8179     0.81789
   28          H           0.183678        0.8163     0.81632
   29          H           0.170499        0.8295     0.82950
   30          H           0.160289        0.8397     0.83971
   31          H           0.149599        0.8504     0.85040
   32          H           0.154033        0.8460     0.84597
   33          H           0.163441        0.8366     0.83656
   34          H           0.159416        0.8406     0.84058
   35          H           0.177579        0.8224     0.82242
   36          H           0.184621        0.8154     0.81538
   37          H           0.328498        0.6715     0.67150
   38          H           0.368948        0.6311     0.63105
   39          H           0.339460        0.6605     0.66054
   40          O          -0.774082        6.7741     1.86232     4.91176
 DIPOLE           X         Y         Z       TOTAL
 POINT-CHG.    18.436   -13.209     4.747    23.171
 HYBRID        -0.347    -0.185     0.280     0.483
 SUM           18.090   -13.394     5.027    23.063


          ATOMIC ORBITAL ELECTRON POPULATIONS

     Atom    s        px        py        pz      x^2-y^2     xz        z^2       yz        xy
    1  C   1.08774   1.00815   0.98289   1.02437
    2  C   1.08565   1.04868   1.03690   1.04936
    3  C   1.06143   0.93272   0.94690   0.94918
    4  C   1.08377   1.07530   0.97827   1.09204
    5  C   1.09548   0.95717   0.92001   0.97266
    6  C   1.08073   1.02467   1.09569   1.02210
    7  H   0.83378
    8  H   0.83351
    9  H   0.80407
   10 Cl   1.98062   1.71463   1.63806   1.79732   0.00129   0.00158   0.00074   0.00113   0.00161
   11  H   0.81867
   12  C   1.03619   1.44879   0.99015   0.88485
   13  C   1.04293   1.18509   1.09872   1.07757
   14  H   0.84100
   15  H   0.84349
   16  H   0.84455
   17  N   1.42252   0.95031   0.93336   0.99135
   18  O   1.94468   1.73787   1.07235   1.90591
   19  O   1.94416   1.74188   1.54701   1.43926
   20  N   1.51965   1.16901   1.30618   1.21584
   21  C   1.08854   1.03328   1.07907   0.96190
   22  C   1.06210   1.04275   1.02589   1.16171
   23  C   1.05843   0.98697   1.16890   1.05838
   24  C   1.06230   1.12144   1.02774   1.09206
   25  C   1.08713   0.82887   1.08448   1.16141
   26  H   0.58119
   27  H   0.81789
   28  H   0.81632
   29  H   0.82950
   30  H   0.83971
   31  H   0.85040
   32  H   0.84597
   33  H   0.83656
   34  H   0.84058
   35  H   0.82242
   36  H   0.81538
   37  H   0.67150
   38  H   0.63105
   39  H   0.66054
   40  O   1.86232   1.49318   1.94946   1.46912

          BONDING CONTRIBUTION OF EACH M.O.

  1.4442  1.4084  1.8847  1.8793  1.2902  1.0690  1.3211  1.2905  1.9627  1.6751
  1.1571  1.4007  1.9300  1.9719  1.8125  1.6729  1.9099  1.3862  1.8769  1.6838
  1.8785  1.5708  1.3085  1.8537  1.9579  1.4500  1.8895  1.7998  1.5891  1.8556
  1.9804  1.4536  1.7964  1.7225  1.9842  1.8482  1.7530  1.8438  1.9081  1.9183
  0.6959  1.7306  1.8330  0.8733  1.9788  1.6609  1.9314  0.3047  0.5352  0.5394
  0.4026  1.6625  1.5448  1.2695 -2.0853 -2.0563 -1.9846 -2.3795 -1.9146 -2.1224
 -2.0419 -1.7785 -1.8574 -1.9479 -1.9821 -1.9557 -1.9872 -1.9592 -1.9603 -1.9917
 -1.8403 -1.9655 -1.9979 -1.9952 -1.9665 -1.9487 -1.8987 -1.9000 -1.9209 -1.9301
 -1.9799 -1.9287 -1.9371 -1.9635 -1.9568 -1.9722 -1.8775 -1.8896 -1.9657 -1.9322
 -1.9543 -1.9474 -1.9432 -1.9473 -1.9277 -1.9330 -1.9069 -0.0040 -0.0088 -0.0066
 -0.0002 -0.0010





            (VALENCIES)   BOND ORDERS

     1  C     (3.969)     2  C 1.464     6  C 1.418     7  H 0.959     4  C 0.104    10 Cl 0.011

     2  C     (3.970)     1  C 1.464     3  C 1.383     8  H 0.957     5  C 0.106    17  N 0.012    12  C 0.012

     3  C     (3.985)     4  C 1.393     2  C 1.383    12  C 1.057     6  C 0.104    18  O 0.012    10 Cl 0.011

     4  C     (3.958)     5  C 1.430     3  C 1.393     9  H 0.945     1  C 0.104    10 Cl 0.024    12  C 0.013
                         17  N 0.011

     5  C     (3.956)     4  C 1.430     6  C 1.429    10 Cl 0.971     2  C 0.106

     6  C     (3.964)     5  C 1.429     1  C 1.418    11  H 0.953     3  C 0.104    10 Cl 0.024

     7  H     (0.972)     1  C 0.959

     8  H     (0.972)     2  C 0.957

     9  H     (0.962)     4  C 0.945

    10 Cl     (1.054)     5  C 0.971     6  C 0.024     4  C 0.024     1  C 0.011     3  C 0.011

    11  H     (0.967)     6  C 0.953

    12  C     (3.730)    17  N 1.291     3  C 1.057    13  C 0.996    18  O 0.143    19  O 0.141    26  H 0.040
                          4  C 0.013    40  O 0.012     2  C 0.012

    13  C     (3.920)    12  C 0.996    14  H 0.963    15  H 0.963    16  H 0.962    19  O 0.012

    14  H     (0.975)    13  C 0.963

    15  H     (0.976)    13  C 0.963

    16  H     (0.976)    13  C 0.962

    17  N     (3.809)    12  C 1.291    18  O 1.234    19  O 1.225     2  C 0.012     4  C 0.011

    18  O     (1.577)    17  N 1.234    19  O 0.167    12  C 0.143     3  C 0.012

    19  O     (1.568)    17  N 1.225    18  O 0.167    12  C 0.141    13  C 0.012

    20  N     (3.557)    25  C 0.922    21  C 0.918    37  H 0.867    39  H 0.789    40  O 0.031

    21  C     (3.875)    22  C 1.006    28  H 0.955    27  H 0.953    20  N 0.918    25  C 0.011

    22  C     (3.945)    21  C 1.006    23  C 1.002    30  H 0.963    29  H 0.955

    23  C     (3.953)    22  C 1.002    24  C 1.002    32  H 0.966    31  H 0.965

    24  C     (3.947)    25  C 1.006    23  C 1.002    34  H 0.963    33  H 0.957

    25  C     (3.879)    24  C 1.006    35  H 0.955    36  H 0.955    20  N 0.922    21  C 0.011

    26  H     (0.825)    40  O 0.769    12  C 0.040

    27  H     (0.967)    21  C 0.953

    28  H     (0.966)    21  C 0.955

    29  H     (0.971)    22  C 0.955

    30  H     (0.974)    22  C 0.963

    31  H     (0.978)    23  C 0.965

    32  H     (0.976)    23  C 0.966

    33  H     (0.973)    24  C 0.957

    34  H     (0.975)    24  C 0.963

    35  H     (0.968)    25  C 0.955

    36  H     (0.966)    25  C 0.955

    37  H     (0.892)    20  N 0.867

    38  H     (0.864)    40  O 0.859

    39  H     (0.885)    20  N 0.789    40  O 0.071

    40  O     (1.757)    38  H 0.859    26  H 0.769    39  H 0.071    20  N 0.031    12  C 0.012


 **********************
 *                    *
 * JOB ENDED NORMALLY *
 *                    *
 **********************



 TOTAL JOB TIME:             1.45 SECONDS

 == MOPAC DONE ==
