 *******************************************************************************
 **                                                                           **
 **                              MOPAC v22.0.6                                **
 **                                                                           **
 *******************************************************************************
 **          Digital Object Identifier (DOI): 10.5281/zenodo.6511958          **
 **    Visit the DOI location for information on how to cite this program.    **
 *******************************************************************************

                              PM7 CALCULATION RESULTS

 *******************************************************************************
 *  CALCULATION DONE:                                Sun Mar 24 14:22:19 2024  *
 *  PM7        - The PM7 Hamiltonian to be used
 *  SINGLET    - SPIN STATE DEFINED AS A SINGLET
 *
 *
 *
 *                 CHARGE ON SYSTEM = 0
 *
 *
 *
 *  EPS=78.4   - USE ANDREAS KLAMT'S COSMO IMPLICIT SOLVATION MODEL
 *  LET        - OVERRIDE SOME SAFETY CHECKS
 *  THREADS    - USE A MAXIMUM OF 30 THREADS
 *  T=         - A TIME OF 14.0 DAYS REQUESTED
 *  DUMP=N     - RESTART FILE WRITTEN EVERY 30.0 MINUTES REQUESTED
 *  RELSCF     - DEFAULT SCF CRITERION MULTIPLIED BY 1.0000
 *              (DEFAULT SCF CRITERION = 0.00010)
 *  ITRY=      - DO A MAXIMUM OF 15000 ITERATIONS FOR SCF
 *  AUX        - OUTPUT AUXILIARY INFORMATION
 *  ISOTOPE    - SAVE THE FORCE MATRIX FOR USE LATER
 *  BONDS      - FINAL BOND-ORDER MATRIX TO BE PRINTED
 *  LARGE      - EXPANDED OUTPUT TO BE PRINTED
 *  THERMO     - THERMODYNAMIC QUANTITIES TO BE CALCULATED
 *******************************************************************************
PM7 AUX LARGE THERMO(298,298) LET ISOTOPE BONDS DUMP=30M ITRY=15000 T=14D THREADS=30 CHARGE=0 SINGLET eps=78.4 RELSCF=1
 Title: ASE calculation

   ATOM   CHEMICAL          X               Y               Z
  NUMBER   SYMBOL      (ANGSTROMS)     (ANGSTROMS)     (ANGSTROMS)

     1       C          2.63409165  *   2.12110950  *   2.33616601  *
     2       C          2.55695826  *   0.77658377  *   1.99129023  *
     3       C          1.68509272  *   0.33406081  *   0.98121911  *
     4       C          0.87789559  *   1.27833229  *   0.32819282  *
     5       C          0.98815279  *   2.60869388  *   0.69443493  *
     6       C          1.84462068  *   3.06809874  *   1.68105738  *
     7       H          3.32006917  *   2.44081323  *   3.12335843  *
     8       H          3.18854874  *   0.05728528  *   2.51373323  *
     9       H          0.18327073  *   0.95828784  *  -0.45085980  *
    10      Cl         -0.00250407  *   3.75399123  *  -0.12853805  *
    11       H          1.91070264  *   4.12181353  *   1.94711269  *
    12       C          1.62526812  *  -1.07605444  *   0.64510876  *
    13       C          1.61696217  *  -2.08875194  *   1.74224135  *
    14       H          1.93876863  *  -3.08525278  *   1.40303308  *
    15       H          0.60483134  *  -2.21161437  *   2.16007232  *
    16       H          2.27364865  *  -1.81314290  *   2.57851375  *
    17       N          1.38127941  *  -1.49608131  *  -0.61410219  *
    18       O          1.30554026  *  -2.71808961  *  -0.88829434  *
    19       O          1.29176125  *  -0.68641949  *  -1.56905510  *
    20       N          5.37557864  *  -3.82686461  *  -0.57125494  *
    21       C          4.48435119  *  -4.17609129  *  -1.74318001  *
    22       C          4.84201539  *  -5.56181766  *  -2.28108438  *
    23       C          6.31708904  *  -5.61494971  *  -2.69208087  *
    24       C          7.21577438  *  -5.21475483  *  -1.51746870  *
    25       C          6.82810005  *  -3.83242643  *  -0.99330128  *
    26       D          3.61616714  *  -1.32831929  *   0.29227127  *
    27       H          3.42123803  *  -4.13964541  *  -1.40306269  *
    28       H          4.60273435  *  -3.40076750  *  -2.53509865  *
    29       H          4.19176467  *  -5.80641671  *  -3.14676759  *
    30       H          4.62527978  *  -6.34363867  *  -1.52500588  *
    31       H          6.58004825  *  -6.63226894  *  -3.04112930  *
    32       H          6.50133211  *  -4.95026312  *  -3.55935391  *
    33       H          8.28076053  *  -5.21008873  *  -1.82706404  *
    34       H          7.15718629  *  -5.97144254  *  -0.70906994  *
    35       H          7.45148086  *  -3.54789794  *  -0.11412729  *
    36       H          6.98828791  *  -3.04903226  *  -1.76940480  *
    37       H          5.23600836  *  -4.51762528  *   0.19719233  *
    38       H          4.97321407  *  -1.27012168  *   1.22613813  *
    39       H          5.11403178  *  -2.85750357  *  -0.19451452  *
    40       O          4.78049580  *  -1.35762514  *   0.28277620  *


                                Isotopes Used

              Atom:   26  H  Default mass  1.0079,  mass used:  2.0140 amu


          CARTESIAN COORDINATES 

    NO.       ATOM           X           Y           Z

     1         C          2.6341      2.1211      2.3362
     2         C          2.5570      0.7766      1.9913
     3         C          1.6851      0.3341      0.9812
     4         C          0.8779      1.2783      0.3282
     5         C          0.9882      2.6087      0.6944
     6         C          1.8446      3.0681      1.6811
     7         H          3.3201      2.4408      3.1234
     8         H          3.1885      0.0573      2.5137
     9         H          0.1833      0.9583     -0.4509
    10        Cl         -0.0025      3.7540     -0.1285
    11         H          1.9107      4.1218      1.9471
    12         C          1.6253     -1.0761      0.6451
    13         C          1.6170     -2.0888      1.7422
    14         H          1.9388     -3.0853      1.4030
    15         H          0.6048     -2.2116      2.1601
    16         H          2.2736     -1.8131      2.5785
    17         N          1.3813     -1.4961     -0.6141
    18         O          1.3055     -2.7181     -0.8883
    19         O          1.2918     -0.6864     -1.5691
    20         N          5.3756     -3.8269     -0.5713
    21         C          4.4844     -4.1761     -1.7432
    22         C          4.8420     -5.5618     -2.2811
    23         C          6.3171     -5.6149     -2.6921
    24         C          7.2158     -5.2148     -1.5175
    25         C          6.8281     -3.8324     -0.9933
    26         H          3.6162     -1.3283      0.2923
    27         H          3.4212     -4.1396     -1.4031
    28         H          4.6027     -3.4008     -2.5351
    29         H          4.1918     -5.8064     -3.1468
    30         H          4.6253     -6.3436     -1.5250
    31         H          6.5800     -6.6323     -3.0411
    32         H          6.5013     -4.9503     -3.5594
    33         H          8.2808     -5.2101     -1.8271
    34         H          7.1572     -5.9714     -0.7091
    35         H          7.4515     -3.5479     -0.1141
    36         H          6.9883     -3.0490     -1.7694
    37         H          5.2360     -4.5176      0.1972
    38         H          4.9732     -1.2701      1.2261
    39         H          5.1140     -2.8575     -0.1945
    40         O          4.7805     -1.3576      0.2828

 General Reference for PM7:
 "Optimization of Parameters for Semiempirical Methods VI: More Modifications to the 
 NDDO Approximations and Re-optimization of Parameters", J. J. P. Stewart, J. Mol. Mod., 1:32, 19 (2013)
 https://link.springer.com/article/10.1007/s00894-012-1667-x

           Empirical Formula: C13 H21 N2 O3 Cl  =    40 atoms



      MOLECULAR POINT GROUP   :   C1  


 SINGLET STATE CALCULATION


      RHF CALCULATION, NO. OF DOUBLY OCCUPIED LEVELS = 54

  SCF CRITERION =    0.1000E-03


          HEAT OF FORMATION =    -102.097438 KCALS/MOLE


          CARTESIAN COORDINATE DERIVATIVES

   NUMBER  ATOM         X            Y            Z

     1       C      0.361724    -0.093621    -0.028655
     2       C     -0.264016    -0.010887    -0.113381
     3       C      0.049500    -0.200119     0.011615
     4       C     -0.214368     0.260287    -0.094491
     5       C      0.429437     0.157624    -0.032012
     6       C     -0.320825     0.159423    -0.023303
     7       H     -0.057311    -0.020698    -0.067423
     8       H     -0.005994     0.069365    -0.068870
     9       H     -0.049282     0.022606    -0.104075
    10      Cl     -0.087568     0.102589     0.013069
    11       H      0.059111    -0.002914     0.038735
    12       C     -1.666964    -0.020947    -0.335790
    13       C      0.065402     0.074632    -0.206842
    14       H      0.000950     0.127003    -0.199075
    15       H      0.034936     0.237886    -0.072789
    16       H      0.016393     0.109522    -0.220676
    17       N      0.220649     0.414332     0.370995
    18       O     -0.456998     0.080996    -0.315714
    19       O      0.276817     0.071453    -0.764245
    20       N     -0.281673     0.077522    -0.049818
    21       C     -0.226495    -0.027135    -0.000369
    22       C     -0.086786     0.007802    -0.001953
    23       C     -0.076071    -0.011225     0.009351
    24       C     -0.129742    -0.064371    -0.083117
    25       C     -0.143012     0.052128     0.043719
    26       H      5.241438    65.414370   -68.279630
    27       H     -0.024150     0.008650     0.101847
    28       H     -0.008231     0.038120    -0.080719
    29       H     -0.039434    -0.006243     0.089066
    30       H     -0.046449    -0.038383     0.011353
    31       H     -0.060263    -0.059707    -0.008343
    32       H     -0.048542    -0.041964     0.026637
    33       H     -0.098018    -0.057186    -0.000291
    34       H     -0.059442    -0.026510    -0.065249
    35       H     -0.083543     0.001135    -0.224822
    36       H     -0.030490    -0.099729     0.035017
    37       H     -0.197954    -0.140841    -0.015932
    38       H     -0.051658    -0.934136    -0.369578
    39       H     -0.118703     0.141167     0.093159
    40       O     -1.822098   -65.769706    70.984867

 DIPOLE           X         Y         Z       TOTAL
 POINT-CHG.    10.576   -18.875     8.297    23.172
 HYBRID         0.129     0.007    -0.465     0.483
 SUM           10.704   -18.868     7.832    23.064


          GRADIENT NORM = 135.43688



 ** GRADIENT IS VERY LARGE, BUT SINCE "LET" IS USED, CALCULATION WILL CONTINUE


                              **** WARNING ****

           GRADIENT IS VERY LARGE FOR A THERMO CALCULATION
           RESULTS ARE LIKELY TO BE INACCURATE IF THERE ARE
           ANY LOW-LYING VIBRATIONS (LESS THAN ABOUT 400CM-1)
           GRADIENT NORM SHOULD BE LESS THAN ABOUT 1.3 FOR THERMO
           TO GIVE ACCURATE RESULTS


          TIME FOR SCF CALCULATION =    0.21

          TIME FOR DERIVATIVES     =    0.05

          MOLECULAR WEIGHT =  289.78



          ROTATIONAL CONSTANTS IN CM(-1)

          A =    0.02281866   B =    0.00388740   C =    0.00369576



           PRINCIPAL MOMENTS OF INERTIA IN UNITS OF 10**(-40)*GRAM-CM**2

          A =     1226.7483   B =     7200.8991   C =     7574.2955


          ORIENTATION OF MOLECULE IN FORCE CALCULATION

    NO.       ATOM         X         Y         Z

     1          C      -3.6146   -0.8846   -1.4546
     2          C      -2.2244   -0.8846   -1.4546
     3          C      -1.4975    0.3186   -1.4546
     4          C      -2.2040    1.5312   -1.4662
     5          C      -3.5876    1.4905   -1.4588
     6          C      -4.3242    0.3177   -1.4517
     7          H      -4.1572   -1.8323   -1.4533
     8          H      -1.6934   -1.8371   -1.4507
     9          H      -1.6626    2.4792   -1.4794
    10         Cl      -4.4362    2.9906   -1.4602
    11          H      -5.4130    0.3168   -1.4448
    12          C      -0.0470    0.2864   -1.4568
    13          C       0.6607   -0.6837   -2.3442
    14          H       1.6908   -0.8880   -2.0142
    15          H       0.7320   -0.2990   -3.3742
    16          H       0.1503   -1.6545   -2.4032
    17          N       0.6851    1.2324   -0.8318
    18          O       1.9392    1.2092   -0.8626
    19          O       0.1439    2.1281   -0.1388
    20          N       2.7071   -2.0622    1.7071
    21          C       3.3850   -0.7138    1.8157
    22          C       4.8388   -0.8901    2.2548
    23          C       4.9103   -1.6376    3.5904
    24          C       4.1820   -2.9820    3.4922
    25          C       2.7366   -2.7762    3.0402
    26          H       0.1740   -0.9008    0.1844
    27          H       3.3244   -0.2057    0.8230
    28          H       2.8251   -0.0816    2.5430
    29          H       5.3262    0.1033    2.3427
    30          H       5.4194   -1.4310    1.4801
    31          H       5.9662   -1.7989    3.8819
    32          H       4.4724   -1.0229    4.4018
    33          H       4.1952   -3.5034    4.4709
    34          H       4.7166   -3.6628    2.7991
    35          H       2.2087   -3.7516    2.9292
    36          H       2.1626   -2.1821    3.7881
    37          H       3.1923   -2.6452    0.9916
    38          H      -0.1892   -2.4700    0.5347
    39          H       1.6906   -1.9314    1.3914
    40          O       0.1401   -1.7052    1.0260


    FIRST DERIVATIVES WILL BE USED IN THE CALCULATION OF SECOND DERIVATIVES

          ESTIMATED TIME TO COMPLETE CALCULATION =       62.81 SECONDS

    FOR POINT-GROUP C1   THERE ARE   1 UNIQUE SYMMETRY FUNCTIONS.

 STEP:   1 TIME =     0.23 SECS, INTEGRAL =      0.23 TIME LEFT:1209599.51
 STEP:   2 TIME =     0.18 SECS, INTEGRAL =      0.41 TIME LEFT:1209599.32
 STEP:   3 TIME =     0.14 SECS, INTEGRAL =      0.55 TIME LEFT:1209599.19
 STEP:   4 TIME =     0.14 SECS, INTEGRAL =      0.69 TIME LEFT:1209599.05
 STEP:   5 TIME =     0.16 SECS, INTEGRAL =      0.85 TIME LEFT:1209598.89
 STEP:   6 TIME =     0.13 SECS, INTEGRAL =      0.98 TIME LEFT:1209598.76
 STEP:   7 TIME =     0.14 SECS, INTEGRAL =      1.12 TIME LEFT:1209598.62
 STEP:   8 TIME =     0.16 SECS, INTEGRAL =      1.29 TIME LEFT:1209598.45
 STEP:   9 TIME =     0.14 SECS, INTEGRAL =      1.42 TIME LEFT:1209598.32
 STEP:  10 TIME =     0.14 SECS, INTEGRAL =      1.56 TIME LEFT:1209598.18
 STEP:  11 TIME =     0.14 SECS, INTEGRAL =      1.70 TIME LEFT:1209598.04
 STEP:  12 TIME =     0.14 SECS, INTEGRAL =      1.84 TIME LEFT:1209597.90
 STEP:  13 TIME =     0.14 SECS, INTEGRAL =      1.98 TIME LEFT:1209597.76
 STEP:  14 TIME =     0.14 SECS, INTEGRAL =      2.12 TIME LEFT:1209597.62
 STEP:  15 TIME =     0.16 SECS, INTEGRAL =      2.28 TIME LEFT:1209597.46
 STEP:  16 TIME =     0.14 SECS, INTEGRAL =      2.42 TIME LEFT:1209597.32
 STEP:  17 TIME =     0.14 SECS, INTEGRAL =      2.56 TIME LEFT:1209597.18
 STEP:  18 TIME =     0.14 SECS, INTEGRAL =      2.70 TIME LEFT:1209597.04
 STEP:  19 TIME =     0.15 SECS, INTEGRAL =      2.84 TIME LEFT:1209596.89
 STEP:  20 TIME =     0.13 SECS, INTEGRAL =      2.98 TIME LEFT:1209596.76
 STEP:  21 TIME =     0.14 SECS, INTEGRAL =      3.11 TIME LEFT:1209596.62
 STEP:  22 TIME =     0.14 SECS, INTEGRAL =      3.25 TIME LEFT:1209596.48
 STEP:  23 TIME =     0.14 SECS, INTEGRAL =      3.39 TIME LEFT:1209596.34
 STEP:  24 TIME =     0.14 SECS, INTEGRAL =      3.53 TIME LEFT:1209596.21
 STEP:  25 TIME =     0.14 SECS, INTEGRAL =      3.67 TIME LEFT:1209596.07
 STEP:  26 TIME =     0.14 SECS, INTEGRAL =      3.80 TIME LEFT:1209595.93
 STEP:  27 TIME =     0.14 SECS, INTEGRAL =      3.94 TIME LEFT:1209595.80
 STEP:  28 TIME =     0.14 SECS, INTEGRAL =      4.08 TIME LEFT:1209595.66
 STEP:  29 TIME =     0.14 SECS, INTEGRAL =      4.21 TIME LEFT:1209595.52
 STEP:  30 TIME =     0.14 SECS, INTEGRAL =      4.36 TIME LEFT:1209595.38
 STEP:  31 TIME =     0.14 SECS, INTEGRAL =      4.50 TIME LEFT:1209595.24
 STEP:  32 TIME =     0.14 SECS, INTEGRAL =      4.63 TIME LEFT:1209595.11
 STEP:  33 TIME =     0.14 SECS, INTEGRAL =      4.77 TIME LEFT:1209594.96
 STEP:  34 TIME =     0.16 SECS, INTEGRAL =      4.93 TIME LEFT:1209594.80
 STEP:  35 TIME =     0.14 SECS, INTEGRAL =      5.07 TIME LEFT:1209594.67
 STEP:  36 TIME =     0.14 SECS, INTEGRAL =      5.21 TIME LEFT:1209594.53
 STEP:  37 TIME =     0.15 SECS, INTEGRAL =      5.36 TIME LEFT:1209594.38
 STEP:  38 TIME =     0.14 SECS, INTEGRAL =      5.50 TIME LEFT:1209594.24
 STEP:  39 TIME =     0.14 SECS, INTEGRAL =      5.64 TIME LEFT:1209594.10
 STEP:  40 TIME =     0.14 SECS, INTEGRAL =      5.77 TIME LEFT:1209593.96
 STEP:  41 TIME =     0.16 SECS, INTEGRAL =      5.93 TIME LEFT:1209593.80
 STEP:  42 TIME =     0.14 SECS, INTEGRAL =      6.07 TIME LEFT:1209593.67
 STEP:  43 TIME =     0.14 SECS, INTEGRAL =      6.21 TIME LEFT:1209593.53
 STEP:  44 TIME =     0.15 SECS, INTEGRAL =      6.36 TIME LEFT:1209593.38
 STEP:  45 TIME =     0.14 SECS, INTEGRAL =      6.50 TIME LEFT:1209593.24
 STEP:  46 TIME =     0.14 SECS, INTEGRAL =      6.63 TIME LEFT:1209593.11
 STEP:  47 TIME =     0.14 SECS, INTEGRAL =      6.77 TIME LEFT:1209592.97
 STEP:  48 TIME =     0.16 SECS, INTEGRAL =      6.93 TIME LEFT:1209592.81
 STEP:  49 TIME =     0.14 SECS, INTEGRAL =      7.06 TIME LEFT:1209592.68
 STEP:  50 TIME =     0.14 SECS, INTEGRAL =      7.20 TIME LEFT:1209592.54
 STEP:  51 TIME =     0.14 SECS, INTEGRAL =      7.34 TIME LEFT:1209592.40
 STEP:  52 TIME =     0.14 SECS, INTEGRAL =      7.48 TIME LEFT:1209592.26
 STEP:  53 TIME =     0.14 SECS, INTEGRAL =      7.61 TIME LEFT:1209592.12
 STEP:  54 TIME =     0.14 SECS, INTEGRAL =      7.75 TIME LEFT:1209591.98
 STEP:  55 TIME =     0.14 SECS, INTEGRAL =      7.89 TIME LEFT:1209591.85
 STEP:  56 TIME =     0.14 SECS, INTEGRAL =      8.03 TIME LEFT:1209591.71
 STEP:  57 TIME =     0.14 SECS, INTEGRAL =      8.16 TIME LEFT:1209591.57
 STEP:  58 TIME =     0.15 SECS, INTEGRAL =      8.32 TIME LEFT:1209591.42
 STEP:  59 TIME =     0.14 SECS, INTEGRAL =      8.46 TIME LEFT:1209591.28
 STEP:  60 TIME =     0.14 SECS, INTEGRAL =      8.59 TIME LEFT:1209591.14
 STEP:  61 TIME =     0.14 SECS, INTEGRAL =      8.73 TIME LEFT:1209591.01
 STEP:  62 TIME =     0.14 SECS, INTEGRAL =      8.87 TIME LEFT:1209590.87
 STEP:  63 TIME =     0.14 SECS, INTEGRAL =      9.01 TIME LEFT:1209590.73
 STEP:  64 TIME =     0.13 SECS, INTEGRAL =      9.14 TIME LEFT:1209590.60
 STEP:  65 TIME =     0.13 SECS, INTEGRAL =      9.27 TIME LEFT:1209590.46
 STEP:  66 TIME =     0.14 SECS, INTEGRAL =      9.41 TIME LEFT:1209590.32
 STEP:  67 TIME =     0.14 SECS, INTEGRAL =      9.55 TIME LEFT:1209590.19
 STEP:  68 TIME =     0.14 SECS, INTEGRAL =      9.69 TIME LEFT:1209590.05
 STEP:  69 TIME =     0.14 SECS, INTEGRAL =      9.82 TIME LEFT:1209589.91
 STEP:  70 TIME =     0.14 SECS, INTEGRAL =      9.96 TIME LEFT:1209589.77
 STEP:  71 TIME =     0.14 SECS, INTEGRAL =     10.10 TIME LEFT:1209589.64
 STEP:  72 TIME =     0.14 SECS, INTEGRAL =     10.24 TIME LEFT:1209589.50
 STEP:  73 TIME =     0.15 SECS, INTEGRAL =     10.39 TIME LEFT:1209589.35
 STEP:  74 TIME =     0.14 SECS, INTEGRAL =     10.52 TIME LEFT:1209589.21
 STEP:  75 TIME =     0.14 SECS, INTEGRAL =     10.66 TIME LEFT:1209589.08
 STEP:  76 TIME =     0.13 SECS, INTEGRAL =     10.79 TIME LEFT:1209588.95
 STEP:  77 TIME =     0.16 SECS, INTEGRAL =     10.95 TIME LEFT:1209588.79
 STEP:  78 TIME =     0.14 SECS, INTEGRAL =     11.09 TIME LEFT:1209588.65
 STEP:  79 TIME =     0.14 SECS, INTEGRAL =     11.22 TIME LEFT:1209588.52
 STEP:  80 TIME =     0.16 SECS, INTEGRAL =     11.38 TIME LEFT:1209588.36
 STEP:  81 TIME =     0.14 SECS, INTEGRAL =     11.52 TIME LEFT:1209588.22
 STEP:  82 TIME =     0.14 SECS, INTEGRAL =     11.66 TIME LEFT:1209588.08
 STEP:  83 TIME =     0.14 SECS, INTEGRAL =     11.79 TIME LEFT:1209587.95
 STEP:  84 TIME =     0.16 SECS, INTEGRAL =     11.95 TIME LEFT:1209587.79
 STEP:  85 TIME =     0.14 SECS, INTEGRAL =     12.09 TIME LEFT:1209587.64
 STEP:  86 TIME =     0.14 SECS, INTEGRAL =     12.23 TIME LEFT:1209587.51
 STEP:  87 TIME =     0.16 SECS, INTEGRAL =     12.39 TIME LEFT:1209587.35
 STEP:  88 TIME =     0.14 SECS, INTEGRAL =     12.53 TIME LEFT:1209587.21
 STEP:  89 TIME =     0.14 SECS, INTEGRAL =     12.66 TIME LEFT:1209587.07
