 *******************************************************************************
 **                                                                           **
 **                              MOPAC v22.0.6                                **
 **                                                                           **
 *******************************************************************************
 **          Digital Object Identifier (DOI): 10.5281/zenodo.6511958          **
 **    Visit the DOI location for information on how to cite this program.    **
 *******************************************************************************

                              PM7 CALCULATION RESULTS

 *******************************************************************************
 *  CALCULATION DONE:                                Tue Mar 26 11:49:58 2024  *
 *  PM7        - The PM7 Hamiltonian to be used
 *  SINGLET    - SPIN STATE DEFINED AS A SINGLET
 *
 *
 *
 *                 CHARGE ON SYSTEM = 0
 *
 *
 *
 *  EPS=78.4   - USE ANDREAS KLAMT'S COSMO IMPLICIT SOLVATION MODEL
 *  T=         - A TIME OF 14.0 DAYS REQUESTED
 *  DUMP=N     - RESTART FILE WRITTEN EVERY 30.0 MINUTES REQUESTED
 *  RELSCF     - DEFAULT SCF CRITERION MULTIPLIED BY 1.0000
 *              (DEFAULT SCF CRITERION = 0.00010)
 *  ITRY=      - DO A MAXIMUM OF 15000 ITERATIONS FOR SCF
 *  AUX        - OUTPUT AUXILIARY INFORMATION
 *  BONDS      - FINAL BOND-ORDER MATRIX TO BE PRINTED
 *******************************************************************************
PM7 BONDS AUX DUMP=30M ITRY=15000 T=14D CHARGE=0 SINGLET eps=78.4 RELSCF=1
 Title: ASE calculation

   ATOM   CHEMICAL          X               Y               Z
  NUMBER   SYMBOL      (ANGSTROMS)     (ANGSTROMS)     (ANGSTROMS)

     1       C          0.36894000  *  -0.43277000  *   0.20737000  *
     2       H          0.54519000  *  -1.06845000  *  -0.66761000  *
     3       N          0.62776000  *  -2.39637000  *   1.61569000  *
     4       O          0.74669000  *  -3.15283000  *   0.61942000  *
     5       O          0.66464000  *  -2.93534000  *   2.75468000  *
     6       H         -0.12627000  *   1.52723000  *   0.89504000  *
     7       C          0.47834000  *  -1.07441000  *   1.49426000  *
     8       H          2.48613000  *  -0.52903000  *   1.93166000  *
     9       H          0.35960000  *  -0.48035000  *   2.39730000  *
    10       C          0.05425000  *   0.86124000  *   0.06863000  *
    11       H         -0.03835000  *   1.35052000  *  -0.88500000  *
    12       C          5.92780000  *   0.72768000  *   3.84391000  *
    13       C          6.97708000  *   1.51310000  *   4.31306000  *
    14       C          6.93135000  *   2.89621000  *   4.13772000  *
    15       C          5.82919000  *   3.46776000  *   3.50098000  *
    16       C          4.79849000  *   2.64976000  *   3.04533000  *
    17       N          4.86324000  *   1.30263000  *   3.22136000  *
    18       H          5.91836000  *  -0.37211000  *   3.95775000  *
    19       H          7.82909000  *   1.03899000  *   4.81184000  *
    20       H          5.76731000  *   4.55086000  *   3.35430000  *
    21       H          3.90573000  *   3.05397000  *   2.53483000  *
    22       H          7.75317000  *   3.52652000  *   4.49530000  *
    23       H          3.70427000  *  -1.35275000  *   2.41022000  *
    24       H          4.08928000  *   0.67876000  *   2.83334000  *
    25       O          3.48181000  *  -0.52528000  *   1.95024000  *



          CARTESIAN COORDINATES 

    NO.       ATOM           X           Y           Z

     1         C          0.3689     -0.4328      0.2074
     2         H          0.5452     -1.0684     -0.6676
     3         N          0.6278     -2.3964      1.6157
     4         O          0.7467     -3.1528      0.6194
     5         O          0.6646     -2.9353      2.7547
     6         H         -0.1263      1.5272      0.8950
     7         C          0.4783     -1.0744      1.4943
     8         H          2.4861     -0.5290      1.9317
     9         H          0.3596     -0.4804      2.3973
    10         C          0.0543      0.8612      0.0686
    11         H         -0.0384      1.3505     -0.8850
    12         C          5.9278      0.7277      3.8439
    13         C          6.9771      1.5131      4.3131
    14         C          6.9314      2.8962      4.1377
    15         C          5.8292      3.4678      3.5010
    16         C          4.7985      2.6498      3.0453
    17         N          4.8632      1.3026      3.2214
    18         H          5.9184     -0.3721      3.9577
    19         H          7.8291      1.0390      4.8118
    20         H          5.7673      4.5509      3.3543
    21         H          3.9057      3.0540      2.5348
    22         H          7.7532      3.5265      4.4953
    23         H          3.7043     -1.3527      2.4102
    24         H          4.0893      0.6788      2.8333
    25         O          3.4818     -0.5253      1.9502

 General Reference for PM7:
 "Optimization of Parameters for Semiempirical Methods VI: More Modifications to the 
 NDDO Approximations and Re-optimization of Parameters", J. J. P. Stewart, J. Mol. Mod., 1:32, 19 (2013)
 https://link.springer.com/article/10.1007/s00894-012-1667-x

           Empirical Formula: C8 H12 N2 O3  =    25 atoms



      MOLECULAR POINT GROUP   :   C1  


 SINGLET STATE CALCULATION


      RHF CALCULATION, NO. OF DOUBLY OCCUPIED LEVELS = 36


          Geometry optimization using EF
  SCF CRITERION =    0.1000E-03

          DIAGONAL MATRIX USED AS START HESSIAN

 CYCLE:     1 TIME:   0.098 TIME LEFT:  2.00W  GRAD.:    17.003 HEAT: -49.17862
 CYCLE:     2 TIME:   0.062 TIME LEFT:  2.00W  GRAD.:     8.626 HEAT: -49.19838
 CYCLE:     3 TIME:   0.062 TIME LEFT:  2.00W  GRAD.:     6.038 HEAT: -49.23924
 CYCLE:     4 TIME:   0.117 TIME LEFT:  2.00W  GRAD.:     5.310 HEAT: -49.24368
 CYCLE:     5 TIME:   0.117 TIME LEFT:  2.00W  GRAD.:     5.190 HEAT: -49.24473
 CYCLE:     6 TIME:   0.090 TIME LEFT:  2.00W  GRAD.:     5.132 HEAT: -49.24525

     TRUST RADIUS NOW LESS THAN  0.00010 OPTIMIZATION TERMINATING
      THE GEOMETRY MAY NOT BE COMPLETELY OPTIMIZED
      (TO CONTINUE, ADD 'LET DDMIN=0.0' TO THE KEYWORD LINE)

 -------------------------------------------------------------------------------
 PM7 BONDS AUX DUMP=30M ITRY=15000 T=14D CHARGE=0 SINGLET eps=78.4 RELSCF=1
 Title: ASE calculation



     GEOMETRY OPTIMISED USING EIGENVECTOR FOLLOWING (EF).     
     SCF FIELD WAS ACHIEVED                                   


                              PM7 CALCULATION
                                                       MOPAC v22.0.6 Linux
                                                       Tue Mar 26 11:49:58 2024




          FINAL HEAT OF FORMATION =        -49.24525 KCAL/MOL =    -206.04211 KJ/MOL
          VAN DER WAALS AREA      =        242.92 SQUARE ANGSTROMS



          DIELECTRIC ENERGY       =         -2.72657 EV
          COSMO AREA              =        242.92 SQUARE ANGSTROMS
          COSMO VOLUME            =        238.27 CUBIC ANGSTROMS

          GRADIENT NORM           =          5.13230          =       1.02646 PER ATOM
          IONIZATION POTENTIAL    =          8.619245 EV
          HOMO LUMO ENERGIES (EV) =         -8.619 -1.242
          NO. OF FILLED LEVELS    =         36
          MOLECULAR WEIGHT        =        184.1944         POINT GROUP:  C1  

          MOLECULAR DIMENSIONS (Angstroms)

            Atom       Atom       Distance
            H    22    O     4    10.42688
            H    19    H    11     6.52284
            H     9    H     2     2.65525


          SCF CALCULATIONS        =         20

          WALL-CLOCK TIME         =      0.641 SECONDS
          COMPUTATION TIME        =     49.162 SECONDS



       FINAL  POINT  AND  DERIVATIVES

   PARAMETER     ATOM    TYPE            VALUE        GRADIENT
      1          1  C    CARTESIAN X     0.369606      0.591691  KCAL/ANGSTROM
      2          1  C    CARTESIAN Y    -0.432820     -0.428525  KCAL/ANGSTROM
      3          1  C    CARTESIAN Z     0.207718      0.056957  KCAL/ANGSTROM
      4          2  H    CARTESIAN X     0.545744     -0.269921  KCAL/ANGSTROM
      5          2  H    CARTESIAN Y    -1.068475     -0.015509  KCAL/ANGSTROM
      6          2  H    CARTESIAN Z    -0.667694     -0.060501  KCAL/ANGSTROM
      7          3  N    CARTESIAN X     0.628519      0.341198  KCAL/ANGSTROM
      8          3  N    CARTESIAN Y    -2.396021      0.419573  KCAL/ANGSTROM
      9          3  N    CARTESIAN Z     1.615643     -0.457801  KCAL/ANGSTROM
     10          4  O    CARTESIAN X     0.748209     -0.452937  KCAL/ANGSTROM
     11          4  O    CARTESIAN Y    -3.152689     -0.171697  KCAL/ANGSTROM
     12          4  O    CARTESIAN Z     0.619424     -0.061999  KCAL/ANGSTROM
     13          5  O    CARTESIAN X     0.665725     -0.235719  KCAL/ANGSTROM
     14          5  O    CARTESIAN Y    -2.935296     -0.172064  KCAL/ANGSTROM
     15          5  O    CARTESIAN Z     2.754772      0.344428  KCAL/ANGSTROM
     16          6  H    CARTESIAN X    -0.125645     -0.283911  KCAL/ANGSTROM
     17          6  H    CARTESIAN Y     1.527226     -0.050087  KCAL/ANGSTROM
     18          6  H    CARTESIAN Z     0.894868     -0.010100  KCAL/ANGSTROM
     19          7  C    CARTESIAN X     0.473642      3.406683  KCAL/ANGSTROM
     20          7  C    CARTESIAN Y    -1.075002      0.168098  KCAL/ANGSTROM
     21          7  C    CARTESIAN Z     1.494617     -0.261614  KCAL/ANGSTROM
     22          8  H    CARTESIAN X     2.495995     -2.153258  KCAL/ANGSTROM
     23          8  H    CARTESIAN Y    -0.529681      0.617273  KCAL/ANGSTROM
     24          8  H    CARTESIAN Z     1.931328      0.331141  KCAL/ANGSTROM
     25          9  H    CARTESIAN X     0.359904      0.151166  KCAL/ANGSTROM
     26          9  H    CARTESIAN Y    -0.480224     -0.027879  KCAL/ANGSTROM
     27          9  H    CARTESIAN Z     2.397410     -0.093871  KCAL/ANGSTROM
     28         10  C    CARTESIAN X     0.055401     -0.311737  KCAL/ANGSTROM
     29         10  C    CARTESIAN Y     0.861390      0.336532  KCAL/ANGSTROM
     30         10  C    CARTESIAN Z     0.068654     -0.142149  KCAL/ANGSTROM
     31         11  H    CARTESIAN X    -0.037571     -0.478546  KCAL/ANGSTROM
     32         11  H    CARTESIAN Y     1.350672     -0.093992  KCAL/ANGSTROM
     33         11  H    CARTESIAN Z    -0.885158      0.032678  KCAL/ANGSTROM
     34         12  C    CARTESIAN X     5.928621      0.114985  KCAL/ANGSTROM
     35         12  C    CARTESIAN Y     0.728256     -0.152401  KCAL/ANGSTROM
     36         12  C    CARTESIAN Z     3.844386      0.114860  KCAL/ANGSTROM
     37         13  C    CARTESIAN X     6.977723     -0.045536  KCAL/ANGSTROM
     38         13  C    CARTESIAN Y     1.513507     -0.131470  KCAL/ANGSTROM
     39         13  C    CARTESIAN Z     4.313466     -0.034762  KCAL/ANGSTROM
     40         14  C    CARTESIAN X     6.931853      0.006611  KCAL/ANGSTROM
     41         14  C    CARTESIAN Y     2.896783     -0.145720  KCAL/ANGSTROM
     42         14  C    CARTESIAN Z     4.138039     -0.002131  KCAL/ANGSTROM
     43         15  C    CARTESIAN X     5.829926      0.110817  KCAL/ANGSTROM
     44         15  C    CARTESIAN Y     3.468160      0.009989  KCAL/ANGSTROM
     45         15  C    CARTESIAN Z     3.501393     -0.013353  KCAL/ANGSTROM
     46         16  C    CARTESIAN X     4.799203     -0.132705  KCAL/ANGSTROM
     47         16  C    CARTESIAN Y     2.650036      0.135642  KCAL/ANGSTROM
     48         16  C    CARTESIAN Z     3.045536     -0.105477  KCAL/ANGSTROM
     49         17  N    CARTESIAN X     4.863833     -0.134014  KCAL/ANGSTROM
     50         17  N    CARTESIAN Y     1.302922     -0.260149  KCAL/ANGSTROM
     51         17  N    CARTESIAN Z     3.221206      0.057661  KCAL/ANGSTROM
     52         18  H    CARTESIAN X     5.918886     -0.293439  KCAL/ANGSTROM
     53         18  H    CARTESIAN Y    -0.371824     -0.127399  KCAL/ANGSTROM
     54         18  H    CARTESIAN Z     3.957999     -0.102635  KCAL/ANGSTROM
     55         19  H    CARTESIAN X     7.829507     -0.212367  KCAL/ANGSTROM
     56         19  H    CARTESIAN Y     1.039374     -0.190951  KCAL/ANGSTROM
     57         19  H    CARTESIAN Z     4.812230     -0.144239  KCAL/ANGSTROM
     58         20  H    CARTESIAN X     5.767657     -0.142198  KCAL/ANGSTROM
     59         20  H    CARTESIAN Y     4.551263     -0.218446  KCAL/ANGSTROM
     60         20  H    CARTESIAN Z     3.354519     -0.102510  KCAL/ANGSTROM
     61         21  H    CARTESIAN X     3.906280     -0.252347  KCAL/ANGSTROM
     62         21  H    CARTESIAN Y     3.054265     -0.193787  KCAL/ANGSTROM
     63         21  H    CARTESIAN Z     2.534997     -0.061192  KCAL/ANGSTROM
     64         22  H    CARTESIAN X     7.753519     -0.183747  KCAL/ANGSTROM
     65         22  H    CARTESIAN Y     3.527045     -0.272384  KCAL/ANGSTROM
     66         22  H    CARTESIAN Z     4.495848     -0.273583  KCAL/ANGSTROM
     67         23  H    CARTESIAN X     3.704864     -0.273429  KCAL/ANGSTROM
     68         23  H    CARTESIAN Y    -1.352465      0.046784  KCAL/ANGSTROM
     69         23  H    CARTESIAN Z     2.409838      0.229826  KCAL/ANGSTROM
     70         24  H    CARTESIAN X     4.090015     -0.560019  KCAL/ANGSTROM
     71         24  H    CARTESIAN Y     0.679435     -0.481533  KCAL/ANGSTROM
     72         24  H    CARTESIAN Z     2.833805     -0.234258  KCAL/ANGSTROM
     73         25  O    CARTESIAN X     3.473552      1.692835  KCAL/ANGSTROM
     74         25  O    CARTESIAN Y    -0.528187      1.400235  KCAL/ANGSTROM
     75         25  O    CARTESIAN Z     1.947868      0.994842  KCAL/ANGSTROM




   ATOM   CHEMICAL          X               Y               Z
  NUMBER   SYMBOL      (ANGSTROMS)     (ANGSTROMS)     (ANGSTROMS)

     1       C          0.36960580  *  -0.43282024  *   0.20771834  *
     2       H          0.54574421  *  -1.06847541  *  -0.66769437  *
     3       N          0.62851876  *  -2.39602143  *   1.61564310  *
     4       O          0.74820859  *  -3.15268855  *   0.61942385  *
     5       O          0.66572469  *  -2.93529602  *   2.75477189  *
     6       H         -0.12564486  *   1.52722579  *   0.89486771  *
     7       C          0.47364235  *  -1.07500223  *   1.49461671  *
     8       H          2.49599473  *  -0.52968116  *   1.93132783  *
     9       H          0.35990392  *  -0.48022389  *   2.39741010  *
    10       C          0.05540143  *   0.86138972  *   0.06865380  *
    11       H         -0.03757106  *   1.35067156  *  -0.88515838  *
    12       C          5.92862060  *   0.72825562  *   3.84438639  *
    13       C          6.97772279  *   1.51350732  *   4.31346615  *
    14       C          6.93185338  *   2.89678341  *   4.13803866  *
    15       C          5.82992623  *   3.46816033  *   3.50139292  *
    16       C          4.79920256  *   2.65003586  *   3.04553635  *
    17       N          4.86383275  *   1.30292205  *   3.22120551  *
    18       H          5.91888647  *  -0.37182352  *   3.95799855  *
    19       H          7.82950682  *   1.03937404  *   4.81222973  *
    20       H          5.76765699  *   4.55126282  *   3.35451926  *
    21       H          3.90628008  *   3.05426492  *   2.53499659  *
    22       H          7.75351858  *   3.52704526  *   4.49584799  *
    23       H          3.70486377  *  -1.35246485  *   2.40983797  *
    24       H          4.09001468  *   0.67943504  *   2.83380509  *
    25       O          3.47355191  *  -0.52818733  *   1.94786833  *

                             CARTESIAN COORDINATES

   1    C        0.369605804    -0.432820243     0.207718342
   2    H        0.545744211    -1.068475407    -0.667694365
   3    N        0.628518763    -2.396021429     1.615643098
   4    O        0.748208592    -3.152688550     0.619423853
   5    O        0.665724695    -2.935296019     2.754771890
   6    H       -0.125644862     1.527225787     0.894867714
   7    C        0.473642349    -1.075002232     1.494616712
   8    H        2.495994727    -0.529681157     1.931327833
   9    H        0.359903922    -0.480223891     2.397410097
  10    C        0.055401435     0.861389718     0.068653796
  11    H       -0.037571062     1.350671557    -0.885158376
  12    C        5.928620597     0.728255623     3.844386389
  13    C        6.977722787     1.513507320     4.313466149
  14    C        6.931853380     2.896783410     4.138038663
  15    C        5.829926235     3.468160334     3.501392921
  16    C        4.799202563     2.650035862     3.045536352
  17    N        4.863832751     1.302922048     3.221205513
  18    H        5.918886472    -0.371823521     3.957998548
  19    H        7.829506816     1.039374042     4.812229729
  20    H        5.767656986     4.551262824     3.354519257
  21    H        3.906280084     3.054264923     2.534996592
  22    H        7.753518584     3.527045259     4.495847986
  23    H        3.704863773    -1.352464853     2.409837970
  24    H        4.090014683     0.679435035     2.833805092
  25    O        3.473551913    -0.528187327     1.947868328


           Empirical Formula: C8 H12 N2 O3  =    25 atoms



      MOLECULAR POINT GROUP   :   C1  


                  EIGENVALUES  
 -38.57477 -36.03559 -29.90970 -29.52453 -28.40457 -27.69124 -27.41894 -25.64632
 -23.42071 -22.96801 -21.30723 -20.23138 -19.41688 -18.11714 -17.66710 -17.47819
 -17.10571 -17.01070 -16.41009 -16.26681 -15.64147 -15.45034 -14.93211 -14.28898
 -14.13843 -13.43224 -13.31218 -12.64555 -12.06822 -11.78597 -11.47589 -11.17039
 -11.03062 -10.98268 -10.86923  -8.61925  -1.24222  -0.91816   0.37957   1.27032
   1.40198   1.79607   1.95819   3.20480   3.38583   3.71531   3.76188   4.15117
   4.27527   4.28555   4.65722   4.85027   5.28803   5.29610   5.48207   5.53798
   5.55191   5.74470   6.05087   6.10169   6.13968   6.34912   6.57519   6.85915


              NET ATOMIC CHARGES AND DIPOLE CONTRIBUTIONS

  ATOM NO.   TYPE          CHARGE      No. of ELECS.   s-Pop       p-Pop       
    1          C          -0.041619        4.0416     1.07841     2.96321
    2          H           0.155455        0.8445     0.84454
    3          N           0.719959        4.2800     1.41572     2.86432
    4          O          -0.685856        6.6859     1.94431     4.74155
    5          O          -0.702598        6.7026     1.94556     4.75704
    6          H           0.147364        0.8526     0.85264
    7          C          -0.493526        4.4935     1.05761     3.43592
    8          H           0.382777        0.6172     0.61722
    9          H           0.192563        0.8074     0.80744
   10          C          -0.422244        4.4222     1.08718     3.33506
   11          H           0.147196        0.8528     0.85280
   12          C           0.055584        3.9444     1.10830     2.83612
   13          C          -0.195385        4.1954     1.09276     3.10262
   14          C          -0.027531        4.0275     1.10225     2.92528
   15          C          -0.196750        4.1968     1.09247     3.10428
   16          C           0.056970        3.9430     1.10773     2.83530
   17          N          -0.176719        5.1767     1.52125     3.65546
   18          H           0.227730        0.7723     0.77227
   19          H           0.203581        0.7964     0.79642
   20          H           0.202644        0.7974     0.79736
   21          H           0.224138        0.7759     0.77586
   22          H           0.190094        0.8099     0.80991
   23          H           0.390877        0.6091     0.60912
   24          H           0.388191        0.6118     0.61181
   25          O          -0.742896        6.7429     1.81409     4.92881
 DIPOLE           X         Y         Z       TOTAL
 POINT-CHG.    20.376    19.607     9.017    29.680
 HYBRID        -0.300    -0.824     0.172     0.894
 SUM           20.076    18.783     9.189    28.988


          ATOMIC ORBITAL ELECTRON POPULATIONS

     Atom    s        px        py        pz   
    1  C   1.07841   0.93675   1.00893   1.01753
    2  H   0.84454
    3  N   1.41572   0.94892   0.99598   0.91942
    4  O   1.94431   1.74767   1.63710   1.35678
    5  O   1.94556   1.76417   1.80053   1.19234
    6  H   0.85264
    7  C   1.05761   1.44927   0.88706   1.09959
    8  H   0.61722
    9  H   0.80744
   10  C   1.08718   1.12757   1.04998   1.15751
   11  H   0.85280
   12  C   1.10830   0.87001   1.07469   0.89142
   13  C   1.09276   1.06465   1.00852   1.02946
   14  C   1.10225   1.02031   1.01376   0.89121
   15  C   1.09247   0.98337   1.11487   1.00603
   16  C   1.10773   1.05100   0.83857   0.94573
   17  N   1.52125   1.22472   1.14334   1.28740
   18  H   0.77227
   19  H   0.79642
   20  H   0.79736
   21  H   0.77586
   22  H   0.80991
   23  H   0.60912
   24  H   0.61181
   25  O   1.81409   1.47179   1.60009   1.85693

          BONDING CONTRIBUTION OF EACH M.O.

  1.4423  1.4165  1.5464  1.4514  1.0732  1.6324  1.8910  1.3300  1.8709  1.9573
  1.2869  1.9018  1.5988  1.5947  1.5765  2.0618  1.3962  1.8593  1.8392  1.3094
  1.8221  1.9993  0.8416  1.9033  1.8737  1.4038  2.0184  0.7595  1.9658  1.9352
  1.6139  0.4922  2.0926  0.4730  0.2472  1.2445 -1.9991 -1.9165 -2.3053 -1.8973
 -1.9374 -2.2813 -2.1539 -1.8781 -1.8948 -1.9935 -1.8401 -1.8927 -1.9545 -1.9888
 -1.8730 -1.9326 -1.9333 -1.9236 -1.9144 -1.9371 -1.9342 -1.8135 -1.8584 -1.9539
 -1.8235 -1.9567 -1.9774 -1.9571





            (VALENCIES)   BOND ORDERS

     1  C     (3.967)    10  C 1.909     7  C 1.078     2  H 0.960     5  O 0.012

     2  H     (0.976)     1  C 0.960

     3  N     (3.814)     7  C 1.348     4  O 1.218     5  O 1.204    10  C 0.035

     4  O     (1.551)     3  N 1.218     5  O 0.158     7  C 0.146    10  C 0.013     9  H 0.010

     5  O     (1.530)     3  N 1.204     4  O 0.158     7  C 0.139    10  C 0.014     1  C 0.012

     6  H     (0.978)    10  C 0.969

     7  C     (3.719)     3  N 1.348     1  C 1.078     9  H 0.943     4  O 0.146     5  O 0.139    10  C 0.030
                          8  H 0.017

     8  H     (0.853)    25  O 0.827     7  C 0.017

     9  H     (0.963)     7  C 0.943     4  O 0.010

    10  C     (3.940)     1  C 1.909     6  H 0.969    11  H 0.969     3  N 0.035     7  C 0.030     5  O 0.014
                          4  O 0.013

    11  H     (0.978)    10  C 0.969

    12  C     (3.895)    13  C 1.459    17  N 1.320    18  H 0.930    15  C 0.106    16  C 0.036    14  C 0.014

    13  C     (3.960)    12  C 1.459    14  C 1.426    19  H 0.945    16  C 0.106

    14  C     (3.940)    15  C 1.428    13  C 1.426    22  H 0.952    17  N 0.097    12  C 0.014    16  C 0.014

    15  C     (3.960)    16  C 1.456    14  C 1.428    20  H 0.945    12  C 0.106

    16  C     (3.897)    15  C 1.456    17  N 1.323    21  H 0.932    13  C 0.106    12  C 0.036    14  C 0.014
                         24  H 0.010

    17  N     (3.542)    16  C 1.323    12  C 1.320    24  H 0.744    14  C 0.097    25  O 0.025

    18  H     (0.948)    12  C 0.930

    19  H     (0.959)    13  C 0.945

    20  H     (0.959)    15  C 0.945

    21  H     (0.950)    16  C 0.932

    22  H     (0.964)    14  C 0.952

    23  H     (0.847)    25  O 0.843

    24  H     (0.849)    17  N 0.744    25  O 0.069    16  C 0.010

    25  O     (1.782)    23  H 0.843     8  H 0.827    24  H 0.069    17  N 0.025


 **********************
 *                    *
 * JOB ENDED NORMALLY *
 *                    *
 **********************



 TOTAL JOB TIME:             0.65 SECONDS

 == MOPAC DONE ==
