
                                 *****************
                                 * O   R   C   A *
                                 *****************

                                            #,                                       
                                            ###                                      
                                            ####                                     
                                            #####                                    
                                            ######                                   
                                           ########,                                 
                                     ,,################,,,,,                         
                               ,,#################################,,                 
                          ,,##########################################,,             
                       ,#########################################, ''#####,          
                    ,#############################################,,   '####,        
                  ,##################################################,,,,####,       
                ,###########''''           ''''###############################       
              ,#####''   ,,,,##########,,,,          '''####'''          '####       
            ,##' ,,,,###########################,,,                        '##       
           ' ,,###''''                  '''############,,,                           
         ,,##''                                '''############,,,,        ,,,,,,###''
      ,#''                                            '''#######################'''  
     '                                                          ''''####''''         
             ,#######,   #######,   ,#######,      ##                                
            ,#'     '#,  ##    ##  ,#'     '#,    #''#        ######   ,####,        
            ##       ##  ##   ,#'  ##            #'  '#       #        #'  '#        
            ##       ##  #######   ##           ,######,      #####,   #    #        
            '#,     ,#'  ##    ##  '#,     ,#' ,#      #,         ##   #,  ,#        
             '#######'   ##     ##  '#######'  #'      '#     #####' # '####'        



                  #######################################################
                  #                        -***-                        #
                  #          Department of theory and spectroscopy      #
                  #    Directorship and core code : Frank Neese         #
                  #        Max Planck Institute fuer Kohlenforschung    #
                  #                Kaiser Wilhelm Platz 1               #
                  #                 D-45470 Muelheim/Ruhr               #
                  #                      Germany                        #
                  #                                                     #
                  #                  All rights reserved                #
                  #                        -***-                        #
                  #######################################################


                         Program Version 5.0.4 -  RELEASE  -


 With contributions from (in alphabetic order):
   Daniel Aravena         : Magnetic Suceptibility
   Michael Atanasov       : Ab Initio Ligand Field Theory (pilot matlab implementation)
   Alexander A. Auer      : GIAO ZORA, VPT2 properties, NMR spectrum
   Ute Becker             : Parallelization
   Giovanni Bistoni       : ED, misc. LED, open-shell LED, HFLD
   Martin Brehm           : Molecular dynamics
   Dmytro Bykov           : SCF Hessian
   Vijay G. Chilkuri      : MRCI spin determinant printing, contributions to CSF-ICE
   Dipayan Datta          : RHF DLPNO-CCSD density
   Achintya Kumar Dutta   : EOM-CC, STEOM-CC
   Dmitry Ganyushin       : Spin-Orbit,Spin-Spin,Magnetic field MRCI
   Miquel Garcia          : C-PCM and meta-GGA Hessian, CC/C-PCM, Gaussian charge scheme
   Yang Guo               : DLPNO-NEVPT2, F12-NEVPT2, CIM, IAO-localization
   Andreas Hansen         : Spin unrestricted coupled pair/coupled cluster methods
   Benjamin Helmich-Paris : MC-RPA, TRAH-SCF, COSX integrals
   Lee Huntington         : MR-EOM, pCC
   Robert Izsak           : Overlap fitted RIJCOSX, COSX-SCS-MP3, EOM
   Marcus Kettner         : VPT2
   Christian Kollmar      : KDIIS, OOCD, Brueckner-CCSD(T), CCSD density, CASPT2, CASPT2-K
   Simone Kossmann        : Meta GGA functionals, TD-DFT gradient, OOMP2, MP2 Hessian
   Martin Krupicka        : Initial AUTO-CI
   Lucas Lang             : DCDCAS
   Marvin Lechner         : AUTO-CI (C++ implementation), FIC-MRCC
   Dagmar Lenk            : GEPOL surface, SMD
   Dimitrios Liakos       : Extrapolation schemes; Compound Job, initial MDCI parallelization
   Dimitrios Manganas     : Further ROCIS development; embedding schemes
   Dimitrios Pantazis     : SARC Basis sets
   Anastasios Papadopoulos: AUTO-CI, single reference methods and gradients
   Taras Petrenko         : DFT Hessian,TD-DFT gradient, ASA, ECA, R-Raman, ABS, FL, XAS/XES, NRVS
   Peter Pinski           : DLPNO-MP2, DLPNO-MP2 Gradient
   Christoph Reimann      : Effective Core Potentials
   Marius Retegan         : Local ZFS, SOC
   Christoph Riplinger    : Optimizer, TS searches, QM/MM, DLPNO-CCSD(T), (RO)-DLPNO pert. Triples
   Tobias Risthaus        : Range-separated hybrids, TD-DFT gradient, RPA, STAB
   Michael Roemelt        : Original ROCIS implementation
   Masaaki Saitow         : Open-shell DLPNO-CCSD energy and density
   Barbara Sandhoefer     : DKH picture change effects
   Avijit Sen             : IP-ROCIS
   Kantharuban Sivalingam : CASSCF convergence, NEVPT2, FIC-MRCI
   Bernardo de Souza      : ESD, SOC TD-DFT
   Georgi Stoychev        : AutoAux, RI-MP2 NMR, DLPNO-MP2 response
   Willem Van den Heuvel  : Paramagnetic NMR
   Boris Wezisla          : Elementary symmetry handling
   Frank Wennmohs         : Technical directorship


 We gratefully acknowledge several colleagues who have allowed us to
 interface, adapt or use parts of their codes:
   Stefan Grimme, W. Hujo, H. Kruse, P. Pracht,  : VdW corrections, initial TS optimization,
                  C. Bannwarth, S. Ehlert          DFT functionals, gCP, sTDA/sTD-DF
   Ed Valeev, F. Pavosevic, A. Kumar             : LibInt (2-el integral package), F12 methods
   Garnet Chan, S. Sharma, J. Yang, R. Olivares  : DMRG
   Ulf Ekstrom                                   : XCFun DFT Library
   Mihaly Kallay                                 : mrcc  (arbitrary order and MRCC methods)
   Jiri Pittner, Ondrej Demel                    : Mk-CCSD
   Frank Weinhold                                : gennbo (NPA and NBO analysis)
   Christopher J. Cramer and Donald G. Truhlar   : smd solvation model
   Lars Goerigk                                  : TD-DFT with DH, B97 family of functionals
   V. Asgeirsson, H. Jonsson                     : NEB implementation
   FAccTs GmbH                                   : IRC, NEB, NEB-TS, DLPNO-Multilevel, CI-OPT
                                                   MM, QMMM, 2- and 3-layer-ONIOM, Crystal-QMMM,
                                                   LR-CPCM, SF, NACMEs, symmetry and pop. for TD-DFT,
                                                   nearIR, NL-DFT gradient (VV10), updates on ESD,
                                                   ML-optimized integration grids
   S Lehtola, MJT Oliveira, MAL Marques          : LibXC Library
   Liviu Ungur et al                             : ANISO software


 Your calculation uses the libint2 library for the computation of 2-el integrals
 For citations please refer to: http://libint.valeyev.net

 Your ORCA version has been built with support for libXC version: 5.1.0
 For citations please refer to: https://tddft.org/programs/libxc/

 This ORCA versions uses:
   CBLAS   interface :  Fast vector & matrix operations
   LAPACKE interface :  Fast linear algebra routines
   SCALAPACK package :  Parallel linear algebra routines
   Shared memory     :  Shared parallel matrices
   BLAS/LAPACK       :  OpenBLAS 0.3.15  USE64BITINT DYNAMIC_ARCH NO_AFFINITY Prescott SINGLE_THREADED
        Core in use  :  Prescott
   Copyright (c) 2011-2014, The OpenBLAS Project


Your calculation utilizes the atom-pairwise dispersion correction
with the Becke-Johnson damping scheme (D3BJ)
Cite in your paper:
S.Grimme, S.Ehrlich, L.Goerigk, J Comput Chem, (2011), 32, 1456–1465 
S.Grimme, J.Antony, S.Ehrlich and H.Krieg, J.Chem.Phys., 132, (2010), 154104 
   

================================================================================

----- Orbital basis set information -----
Your calculation utilizes the basis: def2-TZVP
   F. Weigend and R. Ahlrichs, Phys. Chem. Chem. Phys. 7, 3297 (2005).

----- AuxJ basis set information -----
Your calculation utilizes the auxiliary basis: def2/J
   F. Weigend, Phys. Chem. Chem. Phys. 8, 1057 (2006).

================================================================================
                                        WARNINGS
                       Please study these warnings very carefully!
================================================================================

WARNING: Gradients needed for Numerical Frequencies
  ===> : Setting RunTyp to EnGrad

INFO   : the flag for use of the SHARK integral package has been found!

================================================================================
                                       INPUT FILE
================================================================================
NAME = /home/rudenko/mop_saddle_orca_4_serv/for_orca/mcl-morpholine/orca/freq_D/f_D.inp
|  1> !  NUMFREQ B3LYP def2-TZVP CPCM D3 
|  2> %pal nprocs 102 end
|  3> %cpcm epsilon 78.4 end 
|  4> *xyz 0 1 
|  5> C   -1.60748908712598 2.46889832920335 0.98802391584727
|  6> C   -1.67987565934061 1.08289920424795 1.03116613436651
|  7> C   -1.8932348185783 0.33686909310954 -0.13252861975857
|  8> C   -2.03964705377618 1.01827809865819 -1.34282939597987
|  9> C   -1.95254777281134 2.401720048918 -1.36684632529432
| 10> C   -1.73652551564142 3.14870330857121 -0.21784144324809
| 11> H   -1.43336275215403 3.02756275732301 1.89870063634978
| 12> H   -1.55417777833461 0.57092811380634 1.97552620092019
| 13> H   -2.20798409404026 0.48211028051299 -2.26456074791487
| 14> Cl   -2.12388407403339 3.23072251263014 -2.9049759270442
| 15> H   -1.66770072087373 4.22637449772795 -0.26499357124809
| 16> C   -1.99904053574139 -1.15439287683306 -0.00408194013424
| 17> C   -3.2457724841428 -1.64583031573057 0.70691524295441
| 18> H   -3.16211309419585 -2.69992777712148 0.96728384475086
| 19> H   -4.14349308026949 -1.51010068964111 0.09700681107758
| 20> H   -3.36942799055206 -1.07567960745826 1.62681112376122
| 21> N   -1.70629706955887 -1.88644274099001 -1.20138252039261
| 22> O   -2.31413690852922 -2.93574408510913 -1.44085039447453
| 23> O   -0.7647961667504 -1.5123590855646 -1.93393454281903
| 24> N   1.50916377215414 -0.42837258527161 -0.43681421704396
| 25> C   2.72999754054064 -1.20748985199217 -0.7831155505831
| 26> C   3.7642956749896 -1.0239575561753 0.31264352168934
| 27> O   4.06566005129725 0.35462199341257 0.51172017362325
| 28> C   2.90219664173447 1.08370226237817 0.89545700737474
| 29> C   1.82622121897604 1.0014679791383 -0.17065094640235
| 30> H   0.91523991509053 1.49795597399701 0.15752821876983
| 31> H   2.1682377676628 1.45257035777485 -1.10228774713146
| 32> H   3.20449314998996 2.1201001103475 1.03533080744022
| 33> H   2.51897867400429 0.69523615817212 1.84720411472545
| 34> H   4.6924094574218 -1.51784902969684 0.02987631325688
| 35> H   3.40106026142544 -1.46319176211355 1.25008981654872
| 36> H   3.10853431537283 -0.84457088311794 -1.73867939408761
| 37> H   -0.96062867706775 -1.46819425676418 0.73616136487078 M = 2
| 38> H   0.81518758442757 -0.50992314171444 -1.18716492346984
| 39> H   2.4465544749962 -2.25461077445992 -0.8801326123771
| 40> H   0.34175929572576 -2.55392405721955 1.42916007525286
| 41> H   1.01068444522306 -0.8987346129888 0.42311961221424
| 42> O   0.14146109248531 -1.60942538996667 1.4539458836097
| 43> *
| 44> 
| 45>                          ****END OF INPUT****
================================================================================

                     *******************************
                     * Energy+Gradient Calculation *
                     *******************************

---------------------------------
CARTESIAN COORDINATES (ANGSTROEM)
---------------------------------
  C     -1.607489    2.468898    0.988024
  C     -1.679876    1.082899    1.031166
  C     -1.893235    0.336869   -0.132529
  C     -2.039647    1.018278   -1.342829
  C     -1.952548    2.401720   -1.366846
  C     -1.736526    3.148703   -0.217841
  H     -1.433363    3.027563    1.898701
  H     -1.554178    0.570928    1.975526
  H     -2.207984    0.482110   -2.264561
  Cl    -2.123884    3.230723   -2.904976
  H     -1.667701    4.226374   -0.264994
  C     -1.999041   -1.154393   -0.004082
  C     -3.245772   -1.645830    0.706915
  H     -3.162113   -2.699928    0.967284
  H     -4.143493   -1.510101    0.097007
  H     -3.369428   -1.075680    1.626811
  N     -1.706297   -1.886443   -1.201383
  O     -2.314137   -2.935744   -1.440850
  O     -0.764796   -1.512359   -1.933935
  N      1.509164   -0.428373   -0.436814
  C      2.729998   -1.207490   -0.783116
  C      3.764296   -1.023958    0.312644
  O      4.065660    0.354622    0.511720
  C      2.902197    1.083702    0.895457
  C      1.826221    1.001468   -0.170651
  H      0.915240    1.497956    0.157528
  H      2.168238    1.452570   -1.102288
  H      3.204493    2.120100    1.035331
  H      2.518979    0.695236    1.847204
  H      4.692409   -1.517849    0.029876
  H      3.401060   -1.463192    1.250090
  H      3.108534   -0.844571   -1.738679
  H     -0.960629   -1.468194    0.736161
  H      0.815188   -0.509923   -1.187165
  H      2.446554   -2.254611   -0.880133
  H      0.341759   -2.553924    1.429160
  H      1.010684   -0.898735    0.423120
  O      0.141461   -1.609425    1.453946

----------------------------
CARTESIAN COORDINATES (A.U.)
----------------------------
  NO LB      ZA    FRAG     MASS         X           Y           Z
   0 C     6.0000    0    12.011   -3.037714    4.665542    1.867095
   1 C     6.0000    0    12.011   -3.174505    2.046383    1.948622
   2 C     6.0000    0    12.011   -3.577695    0.636590   -0.250443
   3 C     6.0000    0    12.011   -3.854374    1.924267   -2.537580
   4 C     6.0000    0    12.011   -3.689781    4.538593   -2.582965
   5 C     6.0000    0    12.011   -3.281558    5.950187   -0.411661
   6 H     1.0000    0     1.008   -2.708663    5.721264    3.588024
   7 H     1.0000    0     1.008   -2.936970    1.078898    3.733203
   8 H     1.0000    0     1.008   -4.172485    0.911056   -4.279400
   9 Cl   17.0000    0    35.453   -4.013559    6.105181   -5.489609
  10 H     1.0000    0     1.008   -3.151498    7.986690   -0.500765
  11 C     6.0000    0    12.011   -3.777639   -2.181486   -0.007714
  12 C     6.0000    0    12.011   -6.133621   -3.110169    1.335876
  13 H     1.0000    0     1.008   -5.975528   -5.102124    1.827902
  14 H     1.0000    0     1.008   -7.830067   -2.853677    0.183316
  15 H     1.0000    0     1.008   -6.367296   -2.032740    3.074227
  16 N     7.0000    0    14.007   -3.224434   -3.564860   -2.270284
  17 O     8.0000    0    15.999   -4.373085   -5.547752   -2.722813
  18 O     8.0000    0    15.999   -1.445255   -2.857944   -3.654607
  19 N     7.0000    0    14.007    2.851906   -0.809507   -0.825459
  20 C     6.0000    0    12.011    5.158948   -2.281825   -1.479874
  21 C     6.0000    0    12.011    7.113488   -1.934999    0.590811
  22 O     8.0000    0    15.999    7.682984    0.670138    0.967011
  23 C     6.0000    0    12.011    5.484357    2.047900    1.692169
  24 C     6.0000    0    12.011    3.451058    1.892500   -0.322484
  25 H     1.0000    0     1.008    1.729553    2.830727    0.297685
  26 H     1.0000    0     1.008    4.097376    2.744960   -2.083022
  27 H     1.0000    0     1.008    6.055614    4.006409    1.956492
  28 H     1.0000    0     1.008    4.760180    1.313806    3.490710
  29 H     1.0000    0     1.008    8.867369   -2.868319    0.056458
  30 H     1.0000    0     1.008    6.427072   -2.765032    2.362327
  31 H     1.0000    0     1.008    5.874279   -1.596008   -3.285628
  32 H     1.0000    0     2.000   -1.815325   -2.774485    1.391143
  33 H     1.0000    0     1.008    1.540481   -0.963615   -2.243417
  34 H     1.0000    0     1.008    4.623318   -4.260597   -1.663210
  35 H     1.0000    0     1.008    0.645831   -4.826217    2.700721
  36 H     1.0000    0     1.008    1.909917   -1.698362    0.799580
  37 O     8.0000    0    15.999    0.267323   -3.041373    2.747560

--------------------------------
INTERNAL COORDINATES (ANGSTROEM)
--------------------------------
 C      0   0   0     0.000000000000     0.00000000     0.00000000
 C      1   0   0     1.388558475986     0.00000000     0.00000000
 C      2   1   0     1.398666700231   120.96441526     0.00000000
 C      3   2   1     1.396632644750   118.47377844   359.66417373
 C      4   3   2     1.386389096674   119.68842673     0.89459825
 C      5   4   3     1.387393896758   122.18794228   359.29996326
 H      1   2   3     1.082477719421   119.82771275   180.51749143
 H      2   1   3     1.081540701980   119.57548286   179.03594657
 H      4   3   2     1.079537851805   120.92630621   180.13301022
 Cl     5   4   3     1.755689005700   118.69994560   179.37056662
 H      6   5   4     1.080895632098   120.70300127   179.68871560
 C      3   2   1     1.500518464494   118.01040246   181.70808226
 C     12   3   2     1.517026137506   114.83574548    68.85343221
 H     13  12   3     1.088995941424   111.25308972   192.79855210
 H     13  12   3     1.093760986406   111.89947708    71.30856572
 H     13  12   3     1.089298373236   108.63427701   311.88196520
 N     12   3   2     1.433570514517   114.93598291   202.78271247
 O     17  12   3     1.236061261964   119.66172023   214.01662966
 O     17  12   3     1.250197983044   119.36457944    39.77508899
 N     19  17  12     2.930407788416   113.31025010    35.55380653
 C     20  19  17     1.489088116582   108.89531189   122.66656570
 C     21  20  19     1.517940933963   109.11673480   200.70286490
 O     22  21  20     1.425108267885   111.21640266   303.31408765
 C     23  22  21     1.425643399158   111.08360614    60.36348176
 C     20  19  17     1.488560496203   127.73066308   262.01540178
 H     25  20  19     1.088158457910   108.29302437    46.29403181
 H     25  20  19     1.090144854623   108.14929106   287.87676217
 H     24  23  22     1.088608450327   107.14790242   179.67399728
 H     24  23  22     1.097079979427   109.72433790    61.68367146
 H     22  21  20     1.088706239039   109.78751195   184.90283753
 H     22  21  20     1.097119961116   110.04833998    65.15424535
 H     21  20  19     1.090001159120   108.32392650    79.92983776
 H     12   3   2     1.313290007914   103.29498906   311.57176315
 H     20  19  17     1.025319279552    21.79449548   219.60087240
 H     21  20  19     1.089134751972   108.08252318   321.47414723
 H     33  12   3     1.831739840661   156.50127845   201.74432153
 H     20  19  17     1.099640062565    83.65784343    14.45098592
 O     36  33  12     0.965821639310    44.16055217   171.47625679

---------------------------
INTERNAL COORDINATES (A.U.)
---------------------------
 C      0   0   0     0.000000000000     0.00000000     0.00000000
 C      1   0   0     2.623995240549     0.00000000     0.00000000
 C      2   1   0     2.643097016071   120.96441526     0.00000000
 C      3   2   1     2.639253208271   118.47377844   359.66417373
 C      4   3   2     2.619895707769   119.68842673     0.89459825
 C      5   4   3     2.621794504746   122.18794228   359.29996326
 H      1   2   3     2.045586435777   119.82771275   180.51749143
 H      2   1   3     2.043815729430   119.57548286   179.03594657
 H      4   3   2     2.040030891113   120.92630621   180.13301022
 Cl     5   4   3     3.317771397110   118.69994560   179.37056662
 H      6   5   4     2.042596724017   120.70300127   179.68871560
 C      3   2   1     2.835568956786   118.01040246   181.70808226
 C     12   3   2     2.866763937886   114.83574548    68.85343221
 H     13  12   3     2.057904090244   111.25308972   192.79855210
 H     13  12   3     2.066908720274   111.89947708    71.30856572
 H     13  12   3     2.058475603542   108.63427701   311.88196520
 N     12   3   2     2.709055666101   114.93598291   202.78271247
 O     17  12   3     2.335817269860   119.66172023   214.01662966
 O     17  12   3     2.362531801133   119.36457944    39.77508899
 N     19  17  12     5.537668180816   113.31025010    35.55380653
 C     20  19  17     2.813968729617   108.89531189   122.66656570
 C     21  20  19     2.868492652658   109.11673480   200.70286490
 O     22  21  20     2.693064337490   111.21640266   303.31408765
 C     23  22  21     2.694075589042   111.08360614    60.36348176
 C     20  19  17     2.812971671597   127.73066308   262.01540178
 H     25  20  19     2.056321475760   108.29302437    46.29403181
 H     25  20  19     2.060075221540   108.14929106   287.87676217
 H     24  23  22     2.057171838191   107.14790242   179.67399728
 H     24  23  22     2.073180708124   109.72433790    61.68367146
 H     22  21  20     2.057356632075   109.78751195   184.90283753
 H     22  21  20     2.073256262567   110.04833998    65.15424535
 H     21  20  19     2.059803676393   108.32392650    79.92983776
 H     12   3   2     2.481758449372   103.29498906   311.57176315
 H     20  19  17     1.937572638183    21.79449548   219.60087240
 H     21  20  19     2.058166404164   108.08252318   321.47414723
 H     33  12   3     3.461486647442   156.50127845   201.74432153
 H     20  19  17     2.078018564136    83.65784343    14.45098592
 O     36  33  12     1.825138392511    44.16055217   171.47625679

---------------------
BASIS SET INFORMATION
---------------------
There are 5 groups of distinct atoms

 Group   1 Type C   : 11s6p2d1f contracted to 5s3p2d1f pattern {62111/411/11/1}
 Group   2 Type H   : 5s1p contracted to 3s1p pattern {311/1}
 Group   3 Type Cl  : 14s9p3d1f contracted to 5s5p2d1f pattern {73211/51111/21/1}
 Group   4 Type N   : 11s6p2d1f contracted to 5s3p2d1f pattern {62111/411/11/1}
 Group   5 Type O   : 11s6p2d1f contracted to 5s3p2d1f pattern {62111/411/11/1}

Atom   0C    basis set group =>   1
Atom   1C    basis set group =>   1
Atom   2C    basis set group =>   1
Atom   3C    basis set group =>   1
Atom   4C    basis set group =>   1
Atom   5C    basis set group =>   1
Atom   6H    basis set group =>   2
Atom   7H    basis set group =>   2
Atom   8H    basis set group =>   2
Atom   9Cl   basis set group =>   3
Atom  10H    basis set group =>   2
Atom  11C    basis set group =>   1
Atom  12C    basis set group =>   1
Atom  13H    basis set group =>   2
Atom  14H    basis set group =>   2
Atom  15H    basis set group =>   2
Atom  16N    basis set group =>   4
Atom  17O    basis set group =>   5
Atom  18O    basis set group =>   5
Atom  19N    basis set group =>   4
Atom  20C    basis set group =>   1
Atom  21C    basis set group =>   1
Atom  22O    basis set group =>   5
Atom  23C    basis set group =>   1
Atom  24C    basis set group =>   1
Atom  25H    basis set group =>   2
Atom  26H    basis set group =>   2
Atom  27H    basis set group =>   2
Atom  28H    basis set group =>   2
Atom  29H    basis set group =>   2
Atom  30H    basis set group =>   2
Atom  31H    basis set group =>   2
Atom  32H    basis set group =>   2
Atom  33H    basis set group =>   2
Atom  34H    basis set group =>   2
Atom  35H    basis set group =>   2
Atom  36H    basis set group =>   2
Atom  37O    basis set group =>   5
---------------------------------
AUXILIARY/J BASIS SET INFORMATION
---------------------------------
There are 5 groups of distinct atoms

 Group   1 Type C   : 12s5p4d2f1g contracted to 6s4p3d1f1g pattern {711111/2111/211/2/1}
 Group   2 Type H   : 5s2p1d contracted to 3s1p1d pattern {311/2/1}
 Group   3 Type Cl  : 14s5p5d2f1g contracted to 8s4p3d1f1g pattern {71111111/2111/311/2/1}
 Group   4 Type N   : 12s5p4d2f1g contracted to 6s4p3d1f1g pattern {711111/2111/211/2/1}
 Group   5 Type O   : 12s5p4d2f1g contracted to 6s4p3d1f1g pattern {711111/2111/211/2/1}

Atom   0C    basis set group =>   1
Atom   1C    basis set group =>   1
Atom   2C    basis set group =>   1
Atom   3C    basis set group =>   1
Atom   4C    basis set group =>   1
Atom   5C    basis set group =>   1
Atom   6H    basis set group =>   2
Atom   7H    basis set group =>   2
Atom   8H    basis set group =>   2
Atom   9Cl   basis set group =>   3
Atom  10H    basis set group =>   2
Atom  11C    basis set group =>   1
Atom  12C    basis set group =>   1
Atom  13H    basis set group =>   2
Atom  14H    basis set group =>   2
Atom  15H    basis set group =>   2
Atom  16N    basis set group =>   4
Atom  17O    basis set group =>   5
Atom  18O    basis set group =>   5
Atom  19N    basis set group =>   4
Atom  20C    basis set group =>   1
Atom  21C    basis set group =>   1
Atom  22O    basis set group =>   5
Atom  23C    basis set group =>   1
Atom  24C    basis set group =>   1
Atom  25H    basis set group =>   2
Atom  26H    basis set group =>   2
Atom  27H    basis set group =>   2
Atom  28H    basis set group =>   2
Atom  29H    basis set group =>   2
Atom  30H    basis set group =>   2
Atom  31H    basis set group =>   2
Atom  32H    basis set group =>   2
Atom  33H    basis set group =>   2
Atom  34H    basis set group =>   2
Atom  35H    basis set group =>   2
Atom  36H    basis set group =>   2
Atom  37O    basis set group =>   5


           ************************************************************
           *        Program running with 102 parallel MPI-processes   *
           *              working on a common directory               *
           ************************************************************
------------------------------------------------------------------------------
                           ORCA GTO INTEGRAL CALCULATION
                           -- RI-GTO INTEGRALS CHOSEN --
------------------------------------------------------------------------------
------------------------------------------------------------------------------
                   ___                                                        
                  /   \      - P O W E R E D   B Y -                         
                 /     \                                                     
                 |  |  |   _    _      __       _____    __    __             
                 |  |  |  | |  | |    /  \     |  _  \  |  |  /  |          
                  \  \/   | |  | |   /    \    | | | |  |  | /  /          
                 / \  \   | |__| |  /  /\  \   | |_| |  |  |/  /          
                |  |  |   |  __  | /  /__\  \  |    /   |      \           
                |  |  |   | |  | | |   __   |  |    \   |  |\   \          
                \     /   | |  | | |  |  |  |  | |\  \  |  | \   \       
                 \___/    |_|  |_| |__|  |__|  |_| \__\ |__|  \__/        
                                                                              
                      - O R C A' S   B I G   F R I E N D -                    
                                      &                                       
                       - I N T E G R A L  F E E D E R -                       
                                                                              
 v1 FN, 2020, v2 2021                                                         
------------------------------------------------------------------------------


Reading SHARK input file /home/rudenko/mop_saddle_orca_4_serv/for_orca/mcl-morpholine/orca/freq_D/f_D.SHARKINP.tmp ... ok
----------------------
SHARK INTEGRAL PACKAGE
----------------------

Number of atoms                             ...     38
Number of basis functions                   ...    709
Number of shells                            ...    287
Maximum angular momentum                    ...      3
Integral batch strategy                     ... SHARK/LIBINT Hybrid
RI-J (if used) integral strategy            ... SPLIT-RIJ (Revised 2003 algorithm where possible)
Printlevel                                  ...      1
Contraction scheme used                     ... SEGMENTED contraction
Coulomb Range Separation                    ... NOT USED
Exchange Range Separation                   ... NOT USED
Finite Nucleus Model                        ... NOT USED
Auxiliary Coulomb fitting basis             ... AVAILABLE
   # of basis functions in Aux-J            ...   1142
   # of shells in Aux-J                     ...    382
   Maximum angular momentum in Aux-J        ...      4
Auxiliary J/K fitting basis                 ... NOT available
Auxiliary Correlation fitting basis         ... NOT available
Auxiliary 'external' fitting basis          ... NOT available
Integral threshold                          ...     2.500000e-11
Primitive cut-off                           ...     2.500000e-12
Primitive pair pre-selection threshold      ...     2.500000e-12

Calculating pre-screening integrals         ... done (  0.1 sec) Dimension = 287
Organizing shell pair data                  ... done (  1.4 sec)
Shell pair information
Total number of shell pairs                 ...     41328
Shell pairs after pre-screening             ...     30994
Total number of primitive shell pairs       ...    126240
Primitive shell pairs kept                  ...     62840
          la=0 lb=0:   8570 shell pairs
          la=1 lb=0:   9158 shell pairs
          la=1 lb=1:   2492 shell pairs
          la=2 lb=0:   4225 shell pairs
          la=2 lb=1:   2292 shell pairs
          la=2 lb=2:    551 shell pairs
          la=3 lb=0:   1976 shell pairs
          la=3 lb=1:   1101 shell pairs
          la=3 lb=2:    505 shell pairs
          la=3 lb=3:    124 shell pairs

Calculating one electron integrals          ... done (  0.5 sec)
Calculating RI/J V-Matrix + Cholesky decomp.... done (  0.2 sec)
Calculating Nuclear repulsion               ... done (  0.0 sec) ENN=   1689.171257703892 Eh

SHARK setup successfully completed in   3.3 seconds

Maximum memory used throughout the entire GTOINT-calculation: 47.0 MB


           ************************************************************
           *        Program running with 102 parallel MPI-processes   *
           *              working on a common directory               *
           ************************************************************
-------------------------------------------------------------------------------
                                 ORCA SCF
-------------------------------------------------------------------------------

------------
SCF SETTINGS
------------
Hamiltonian:
 Density Functional     Method          .... DFT(GTOs)
 Exchange Functional    Exchange        .... B88
   X-Alpha parameter    XAlpha          ....  0.666667
   Becke's b parameter  XBeta           ....  0.004200
 Correlation Functional Correlation     .... LYP
 LDA part of GGA corr.  LDAOpt          .... VWN-5
 Gradients option       PostSCFGGA      .... off
 Hybrid DFT is turned on
   Fraction HF Exchange ScalHFX         ....  0.200000
   Scaling of DF-GGA-X  ScalDFX         ....  0.720000
   Scaling of DF-GGA-C  ScalDFC         ....  0.810000
   Scaling of DF-LDA-C  ScalLDAC        ....  1.000000
   Perturbative correction              ....  0.000000
   Density functional embedding theory  .... OFF
   NL short-range parameter             ....  4.800000
 RI-approximation to the Coulomb term is turned on
   Number of AuxJ basis functions       .... 1142
   RIJ-COSX (HFX calculated with COS-X)).... on


General Settings:
 Integral files         IntName         .... /home/rudenko/mop_saddle_orca_4_serv/for_orca/mcl-morpholine/orca/freq_D/f_D
 Hartree-Fock type      HFTyp           .... RHF
 Total Charge           Charge          ....    0
 Multiplicity           Mult            ....    1
 Number of Electrons    NEL             ....  154
 Basis Dimension        Dim             ....  709
 Nuclear Repulsion      ENuc            ....   1689.1712577039 Eh

Convergence Acceleration:
 DIIS                   CNVDIIS         .... on
   Start iteration      DIISMaxIt       ....    12
   Startup error        DIISStart       ....  0.200000
   # of expansion vecs  DIISMaxEq       ....     5
   Bias factor          DIISBfac        ....   1.050
   Max. coefficient     DIISMaxC        ....  10.000
 Trust-Rad. Augm. Hess. CNVTRAH         .... auto
   Auto Start mean grad. ratio tolernc. ....  1.125000
   Auto Start start iteration           ....    20
   Auto Start num. interpolation iter.  ....    10
   Max. Number of Micro iterations      ....    16
   Max. Number of Macro iterations      .... Maxiter - #DIIS iter
   Number of Davidson start vectors     ....     2
   Converg. threshold I  (grad. norm)   ....   1.000e-05
   Converg. threshold II (energy diff.) ....   1.000e-08
   Grad. Scal. Fac. for Micro threshold ....   0.100
   Minimum threshold for Micro iter.    ....   0.010
   NR start threshold (gradient norm)   ....   0.001
   Initial trust radius                 ....   0.400
   Minimum AH scaling param. (alpha)    ....   1.000
   Maximum AH scaling param. (alpha)    .... 1000.000
   Orbital update algorithm             .... Taylor
   White noise on init. David. guess    .... on
   Maximum white noise                  ....   0.010
   Quad. conv. algorithm                .... NR
 SOSCF                  CNVSOSCF        .... on
   Start iteration      SOSCFMaxIt      ....   150
   Startup grad/error   SOSCFStart      ....  0.003300
 Level Shifting         CNVShift        .... on
   Level shift para.    LevelShift      ....    0.2500
   Turn off err/grad.   ShiftErr        ....    0.0010
 Zerner damping         CNVZerner       .... off
 Static damping         CNVDamp         .... on
   Fraction old density DampFac         ....    0.7000
   Max. Damping (<1)    DampMax         ....    0.9800
   Min. Damping (>=0)   DampMin         ....    0.0000
   Turn off err/grad.   DampErr         ....    0.1000
 Fernandez-Rico         CNVRico         .... off

SCF Procedure:
 Maximum # iterations   MaxIter         ....   125
 SCF integral mode      SCFMode         .... Direct
   Integral package                     .... SHARK and LIBINT hybrid scheme
 Reset frequency        DirectResetFreq ....    20
 Integral Threshold     Thresh          ....  2.500e-11 Eh
 Primitive CutOff       TCut            ....  2.500e-12 Eh

Convergence Tolerance:
 Convergence Check Mode ConvCheckMode   .... Total+1el-Energy
 Convergence forced     ConvForced      .... 0
 Energy Change          TolE            ....  1.000e-08 Eh
 1-El. energy change                    ....  1.000e-05 Eh
 Orbital Gradient       TolG            ....  1.000e-05
 Orbital Rotation angle TolX            ....  1.000e-05
 DIIS Error             TolErr          ....  5.000e-07


Diagonalization of the overlap matrix:
Smallest eigenvalue                        ... 7.423e-06
Time for diagonalization                   ...    0.345 sec
Threshold for overlap eigenvalues          ... 1.000e-08
Number of eigenvalues below threshold      ... 0
Time for construction of square roots      ...    0.846 sec
Total time needed                          ...    1.197 sec

Time for model grid setup =    0.438 sec

------------------------------
INITIAL GUESS: MODEL POTENTIAL
------------------------------
Loading Hartree-Fock densities                     ... done
Calculating cut-offs                               ... done
Initializing the effective Hamiltonian             ... done
Setting up the integral package (SHARK)            ... done
Starting the Coulomb interaction                   ... done (   0.2 sec)
Reading the grid                                   ... done
Mapping shells                                     ... done
Starting the XC term evaluation                    ... done (   0.2 sec)
  promolecular density results
     # of electrons  =    153.983128326
     EX              =   -140.853941669
     EC              =     -5.391398227
     EX+EC           =   -146.245339896
Transforming the Hamiltonian                       ... done (   0.8 sec)
Diagonalizing the Hamiltonian                      ... done (   0.4 sec)
Back transforming the eigenvectors                 ... done (   0.3 sec)
Now organizing SCF variables                       ... done
                      ------------------
                      INITIAL GUESS DONE (   2.4 sec)
                      ------------------
-------------------
DFT GRID GENERATION
-------------------

General Integration Accuracy     IntAcc      ... 4.388
Radial Grid Type                 RadialGrid  ... OptM3 with GC (2021)
Angular Grid (max. ang.)         AngularGrid ... 4 (Lebedev-302)
Angular grid pruning method      GridPruning ... 4 (adaptive)
Weight generation scheme         WeightScheme... Becke
Basis function cutoff            BFCut       ... 1.0000e-11
Integration weight cutoff        WCut        ... 1.0000e-14
Angular grids for H and He will be reduced by one unit
Partially contracted basis set               ... off
Rotationally invariant grid construction     ... off

Total number of grid points                  ...   174885
Total number of batches                      ...     2749
Average number of points per batch           ...       63
Average number of grid points per atom       ...     4602
Time for grid setup =    1.980 sec

--------------------
COSX GRID GENERATION
--------------------

GRIDX 1
-------
General Integration Accuracy     IntAcc      ... 3.816
Radial Grid Type                 RadialGrid  ... OptM3 with GC (2021)
Angular Grid (max. ang.)         AngularGrid ... 1 (Lebedev-50)
Angular grid pruning method      GridPruning ... 4 (adaptive)
Weight generation scheme         WeightScheme... Becke
Basis function cutoff            BFCut       ... 1.0000e-11
Integration weight cutoff        WCut        ... 1.0000e-14
Angular grids for H and He will be reduced by one unit
Partially contracted basis set               ... on
Rotationally invariant grid construction     ... off

Total number of grid points                  ...    22143
Total number of batches                      ...      369
Average number of points per batch           ...       60
Average number of grid points per atom       ...      583
UseSFitting                                  ... on

GRIDX 2
-------
General Integration Accuracy     IntAcc      ... 4.020
Radial Grid Type                 RadialGrid  ... OptM3 with GC (2021)
Angular Grid (max. ang.)         AngularGrid ... 2 (Lebedev-110)
Angular grid pruning method      GridPruning ... 4 (adaptive)
Weight generation scheme         WeightScheme... Becke
Basis function cutoff            BFCut       ... 1.0000e-11
Integration weight cutoff        WCut        ... 1.0000e-14
Angular grids for H and He will be reduced by one unit
Partially contracted basis set               ... on
Rotationally invariant grid construction     ... off

Total number of grid points                  ...    47319
Total number of batches                      ...      759
Average number of points per batch           ...       62
Average number of grid points per atom       ...     1245
UseSFitting                                  ... on

GRIDX 3
-------
General Integration Accuracy     IntAcc      ... 4.338
Radial Grid Type                 RadialGrid  ... OptM3 with GC (2021)
Angular Grid (max. ang.)         AngularGrid ... 3 (Lebedev-194)
Angular grid pruning method      GridPruning ... 4 (adaptive)
Weight generation scheme         WeightScheme... Becke
Basis function cutoff            BFCut       ... 1.0000e-11
Integration weight cutoff        WCut        ... 1.0000e-14
Angular grids for H and He will be reduced by one unit
Partially contracted basis set               ... on
Rotationally invariant grid construction     ... off

Total number of grid points                  ...   103752
Total number of batches                      ...     1640
Average number of points per batch           ...       63
Average number of grid points per atom       ...     2730
UseSFitting                                  ... on

Time for X-Grid setup             =    4.979 sec


--------------------
CPCM SOLVATION MODEL
--------------------
CPCM parameters:
  Epsilon                                         ...      78.4000
  Refrac                                          ...       1.3300
  Rsolv                                           ...       1.3000
  Surface type                                    ... GAUSSIAN VDW
  Epsilon function type                           ...         CPCM
Radii:
 Radius for C  used is    3.8550 Bohr (=   2.0400 Ang.)
 Radius for H  used is    2.4944 Bohr (=   1.3200 Ang.)
 Radius for Cl used is    3.9684 Bohr (=   2.1000 Ang.)
 Radius for N  used is    3.5149 Bohr (=   1.8600 Ang.)
 Radius for O  used is    3.4469 Bohr (=   1.8240 Ang.)
Calculating surface                               ...        done! (  0.0s)
GEPOL surface points                              ...         2019
GEPOL Volume                                      ...    2259.4281
GEPOL Surface-area                                ...    1171.3164
Calculating surface distance matrix               ...        done! (  0.6s)
Performing Cholesky decomposition & store         ...        done! (  1.5s)
Overall time for CPCM initialization              ...                 2.1s
--------------
SCF ITERATIONS
--------------
ITER       Energy         Delta-E        Max-DP      RMS-DP      [F,P]     Damp
               ***  Starting incremental Fock matrix formation  ***
  0  -1338.4412005668   0.000000000000 0.52279514  0.00198116  0.3733539 0.7000
  1  -1338.7151635903  -0.273963023542 0.40144598  0.00156616  0.1310939 0.7000
                               ***Turning on DIIS***
  2  -1338.8139281126  -0.098764522238 0.27003696  0.00161928  0.0364445 0.0000
  3  -1338.9846722104  -0.170744097825 0.39460925  0.00143992  0.0697901 0.0000
  4  -1339.0152254007  -0.030553190276 0.05606431  0.00026143  0.0247663 0.0000
  5  -1339.0178638023  -0.002638401563 0.02327466  0.00012269  0.0070882 0.0000
                      *** Initiating the SOSCF procedure ***
                           *** Shutting down DIIS ***
                      *** Re-Reading the Fockian *** 
                      *** Removing any level shift *** 
ITER      Energy       Delta-E        Grad      Rot      Max-DP    RMS-DP
  6  -1339.01804270  -0.0001788938  0.000528  0.000528  0.005471  0.000045
               *** Restarting incremental Fock matrix formation ***
  7  -1339.01804812  -0.0000054232  0.000135  0.000471  0.003134  0.000028
  8  -1339.01804723   0.0000008901  0.000360  0.001137  0.001802  0.000016
  9  -1339.01805169  -0.0000044628  0.000098  0.000304  0.001544  0.000011
 10  -1339.01805145   0.0000002453  0.000162  0.000229  0.000226  0.000002
 11  -1339.01805191  -0.0000004644  0.000043  0.000114  0.000661  0.000002
 12  -1339.01805187   0.0000000452  0.000054  0.000065  0.000423  0.000002
 13  -1339.01805194  -0.0000000744  0.000004  0.000009  0.000313  0.000002
 14  -1339.01805192   0.0000000219  0.000006  0.000006  0.000125  0.000001
                  ***Gradient check signals convergence***
              ***Rediagonalizing the Fockian in SOSCF/NRSCF***

               *****************************************************
               *                     SUCCESS                       *
               *           SCF CONVERGED AFTER  15 CYCLES          *
               *****************************************************

Old exchange energy                            =    -28.520415662 Eh
New exchange energy                            =    -28.520401618 Eh
Exchange energy change after final integration =      0.000014044 Eh
Total energy after final integration           =  -1339.018037920 Eh
Final COS-X integration done in                =     4.515 sec

----------------
TOTAL SCF ENERGY
----------------

Total Energy       :        -1339.01803792 Eh          -36436.53321 eV

Components:
Nuclear Repulsion  :         1689.17125770 Eh           45964.68672 eV
Electronic Energy  :        -3028.18929562 Eh          -82401.21993 eV
One Electron Energy:        -5191.04600220 Eh         -141255.54301 eV
Two Electron Energy:         2162.85670657 Eh           58854.32308 eV
Max COSX asymmetry :            0.00000309 Eh               0.00008 eV
CPCM Dielectric    :           -0.03359932 Eh              -0.91428 eV

Virial components:
Potential Energy   :        -2673.70786324 Eh          -72755.28977 eV
Kinetic Energy     :         1334.68982532 Eh           36318.75656 eV
Virial Ratio       :            2.00324286


DFT components:
N(Alpha)           :       77.000038545811 electrons
N(Beta)            :       77.000038545811 electrons
N(Total)           :      154.000077091623 electrons
E(X)               :     -113.410286008824 Eh       
E(C)               :       -6.340701087357 Eh       
E(XC)              :     -119.750987096180 Eh       
DFET-embed. en.    :        0.000000000000 Eh       
CPCM Solvation Model Properties:
Surface-charge          :           -0.03098368
Charge-correction       :            0.00004470 Eh               0.00122 eV
Free-energy (cav+disp)  :  This term is not implemented in the current solvation scheme

---------------
SCF CONVERGENCE
---------------

  Last Energy change         ...   -4.5763e-08  Tolerance :   1.0000e-08
  Last MAX-Density change    ...    1.7764e-15  Tolerance :   1.0000e-07
  Last RMS-Density change    ...    1.6325e-17  Tolerance :   5.0000e-09
  Last Orbital Gradient      ...    6.4709e-07  Tolerance :   1.0000e-05
  Last Orbital Rotation      ...    2.2255e-06  Tolerance :   1.0000e-05

             **** THE GBW FILE WAS UPDATED (/home/rudenko/mop_saddle_orca_4_serv/for_orca/mcl-morpholine/orca/freq_D/f_D.gbw) ****
             **** DENSITY /home/rudenko/mop_saddle_orca_4_serv/for_orca/mcl-morpholine/orca/freq_D/f_D.scfp WAS UPDATED ****
             **** ENERGY FILE WAS UPDATED (/home/rudenko/mop_saddle_orca_4_serv/for_orca/mcl-morpholine/orca/freq_D/f_D.en.tmp) ****
             **** THE GBW FILE WAS UPDATED (/home/rudenko/mop_saddle_orca_4_serv/for_orca/mcl-morpholine/orca/freq_D/f_D.gbw) ****
             **** DENSITY /home/rudenko/mop_saddle_orca_4_serv/for_orca/mcl-morpholine/orca/freq_D/f_D.scfp WAS UPDATED ****
----------------
ORBITAL ENERGIES
----------------

  NO   OCC          E(Eh)            E(eV) 
   0   2.0000    -101.527449     -2762.7023 
   1   2.0000     -19.142726      -520.9001 
   2   2.0000     -19.140015      -520.8263 
   3   2.0000     -19.139787      -520.8201 
   4   2.0000     -19.075563      -519.0725 
   5   2.0000     -14.528503      -395.3407 
   6   2.0000     -14.385916      -391.4607 
   7   2.0000     -10.236227      -278.5419 
   8   2.0000     -10.223686      -278.2006 
   9   2.0000     -10.223254      -278.1889 
  10   2.0000     -10.215377      -277.9745 
  11   2.0000     -10.213872      -277.9336 
  12   2.0000     -10.200268      -277.5634 
  13   2.0000     -10.197183      -277.4794 
  14   2.0000     -10.182948      -277.0921 
  15   2.0000     -10.182214      -277.0721 
  16   2.0000     -10.181228      -277.0453 
  17   2.0000     -10.175991      -276.9028 
  18   2.0000     -10.161367      -276.5049 
  19   2.0000      -9.459602      -257.4089 
  20   2.0000      -7.220878      -196.4901 
  21   2.0000      -7.212809      -196.2705 
  22   2.0000      -7.212502      -196.2622 
  23   2.0000      -1.206275       -32.8244 
  24   2.0000      -1.050339       -28.5812 
  25   2.0000      -1.029385       -28.0110 
  26   2.0000      -0.973031       -26.4775 
  27   2.0000      -0.930842       -25.3295 
  28   2.0000      -0.895348       -24.3637 
  29   2.0000      -0.852265       -23.1913 
  30   2.0000      -0.818149       -22.2630 
  31   2.0000      -0.790334       -21.5061 
  32   2.0000      -0.752540       -20.4776 
  33   2.0000      -0.736233       -20.0339 
  34   2.0000      -0.718491       -19.5511 
  35   2.0000      -0.696240       -18.9457 
  36   2.0000      -0.670293       -18.2396 
  37   2.0000      -0.629944       -17.1416 
  38   2.0000      -0.606174       -16.4948 
  39   2.0000      -0.605476       -16.4758 
  40   2.0000      -0.573758       -15.6128 
  41   2.0000      -0.553800       -15.0697 
  42   2.0000      -0.534917       -14.5558 
  43   2.0000      -0.531263       -14.4564 
  44   2.0000      -0.517880       -14.0922 
  45   2.0000      -0.507589       -13.8122 
  46   2.0000      -0.496655       -13.5147 
  47   2.0000      -0.490148       -13.3376 
  48   2.0000      -0.479762       -13.0550 
  49   2.0000      -0.475929       -12.9507 
  50   2.0000      -0.469070       -12.7640 
  51   2.0000      -0.457254       -12.4425 
  52   2.0000      -0.449351       -12.2275 
  53   2.0000      -0.440426       -11.9846 
  54   2.0000      -0.429944       -11.6994 
  55   2.0000      -0.416472       -11.3328 
  56   2.0000      -0.415276       -11.3002 
  57   2.0000      -0.409858       -11.1528 
  58   2.0000      -0.396959       -10.8018 
  59   2.0000      -0.391275       -10.6471 
  60   2.0000      -0.388985       -10.5848 
  61   2.0000      -0.380376       -10.3506 
  62   2.0000      -0.371365       -10.1054 
  63   2.0000      -0.368570       -10.0293 
  64   2.0000      -0.361051        -9.8247 
  65   2.0000      -0.349955        -9.5228 
  66   2.0000      -0.335993        -9.1428 
  67   2.0000      -0.326030        -8.8717 
  68   2.0000      -0.318236        -8.6596 
  69   2.0000      -0.309901        -8.4328 
  70   2.0000      -0.307213        -8.3597 
  71   2.0000      -0.287410        -7.8208 
  72   2.0000      -0.278322        -7.5735 
  73   2.0000      -0.270722        -7.3667 
  74   2.0000      -0.267667        -7.2836 
  75   2.0000      -0.252723        -6.8769 
  76   2.0000      -0.219445        -5.9714 
  77   0.0000      -0.063987        -1.7412 
  78   0.0000      -0.022115        -0.6018 
  79   0.0000      -0.018147        -0.4938 
  80   0.0000       0.023587         0.6418 
  81   0.0000       0.035076         0.9545 
  82   0.0000       0.050598         1.3768 
  83   0.0000       0.061850         1.6830 
  84   0.0000       0.064670         1.7598 
  85   0.0000       0.070132         1.9084 
  86   0.0000       0.081870         2.2278 
  87   0.0000       0.084978         2.3124 
  88   0.0000       0.088740         2.4147 
  89   0.0000       0.101253         2.7552 
  90   0.0000       0.102836         2.7983 
  91   0.0000       0.105771         2.8782 
  92   0.0000       0.111618         3.0373 
  93   0.0000       0.117896         3.2081 
  94   0.0000       0.120912         3.2902 
  95   0.0000       0.122227         3.3260 
  96   0.0000       0.127211         3.4616 
  97   0.0000       0.129360         3.5201 
  98   0.0000       0.133631         3.6363 
  99   0.0000       0.136891         3.7250 
 100   0.0000       0.148831         4.0499 
 101   0.0000       0.154220         4.1965 
 102   0.0000       0.158110         4.3024 
 103   0.0000       0.168549         4.5865 
 104   0.0000       0.173365         4.7175 
 105   0.0000       0.179635         4.8881 
 106   0.0000       0.184885         5.0310 
 107   0.0000       0.188866         5.1393 
 108   0.0000       0.189559         5.1582 
 109   0.0000       0.201579         5.4852 
 110   0.0000       0.205407         5.5894 
 111   0.0000       0.214888         5.8474 
 112   0.0000       0.217189         5.9100 
 113   0.0000       0.224926         6.1206 
 114   0.0000       0.229262         6.2385 
 115   0.0000       0.232503         6.3267 
 116   0.0000       0.235562         6.4100 
 117   0.0000       0.244467         6.6523 
 118   0.0000       0.247016         6.7216 
 119   0.0000       0.256456         6.9785 
 120   0.0000       0.260205         7.0805 
 121   0.0000       0.269320         7.3286 
 122   0.0000       0.273694         7.4476 
 123   0.0000       0.281574         7.6620 
 124   0.0000       0.285659         7.7732 
 125   0.0000       0.288319         7.8456 
 126   0.0000       0.300174         8.1681 
 127   0.0000       0.308181         8.3860 
 128   0.0000       0.310325         8.4444 
 129   0.0000       0.313406         8.5282 
 130   0.0000       0.319546         8.6953 
 131   0.0000       0.324746         8.8368 
 132   0.0000       0.327055         8.8996 
 133   0.0000       0.333814         9.0835 
 134   0.0000       0.337488         9.1835 
 135   0.0000       0.347077         9.4444 
 136   0.0000       0.349691         9.5156 
 137   0.0000       0.353548         9.6205 
 138   0.0000       0.355208         9.6657 
 139   0.0000       0.361302         9.8315 
 140   0.0000       0.363807         9.8997 
 141   0.0000       0.375021        10.2048 
 142   0.0000       0.378828        10.3084 
 143   0.0000       0.383469        10.4347 
 144   0.0000       0.391003        10.6397 
 145   0.0000       0.396618        10.7925 
 146   0.0000       0.398404        10.8411 
 147   0.0000       0.402982        10.9657 
 148   0.0000       0.408095        11.1048 
 149   0.0000       0.411293        11.1919 
 150   0.0000       0.413940        11.2639 
 151   0.0000       0.422620        11.5001 
 152   0.0000       0.424978        11.5642 
 153   0.0000       0.430321        11.7096 
 154   0.0000       0.431456        11.7405 
 155   0.0000       0.433103        11.7853 
 156   0.0000       0.435636        11.8543 
 157   0.0000       0.440687        11.9917 
 158   0.0000       0.443998        12.0818 
 159   0.0000       0.448047        12.1920 
 160   0.0000       0.455268        12.3885 
 161   0.0000       0.461172        12.5491 
 162   0.0000       0.464075        12.6281 
 163   0.0000       0.467425        12.7193 
 164   0.0000       0.473494        12.8844 
 165   0.0000       0.476571        12.9682 
 166   0.0000       0.478352        13.0166 
 167   0.0000       0.481459        13.1012 
 168   0.0000       0.492861        13.4114 
 169   0.0000       0.494467        13.4551 
 170   0.0000       0.499609        13.5950 
 171   0.0000       0.509084        13.8529 
 172   0.0000       0.510836        13.9006 
 173   0.0000       0.514037        13.9877 
 174   0.0000       0.521567        14.1926 
 175   0.0000       0.523012        14.2319 
 176   0.0000       0.527701        14.3595 
 177   0.0000       0.550617        14.9830 
 178   0.0000       0.554984        15.1019 
 179   0.0000       0.559008        15.2114 
 180   0.0000       0.564556        15.3623 
 181   0.0000       0.574567        15.6348 
 182   0.0000       0.583858        15.8876 
 183   0.0000       0.587562        15.9884 
 184   0.0000       0.595444        16.2029 
 185   0.0000       0.601589        16.3701 
 186   0.0000       0.608303        16.5528 
 187   0.0000       0.618009        16.8169 
 188   0.0000       0.620067        16.8729 
 189   0.0000       0.629678        17.1344 
 190   0.0000       0.643710        17.5162 
 191   0.0000       0.653706        17.7882 
 192   0.0000       0.654960        17.8224 
 193   0.0000       0.664873        18.0921 
 194   0.0000       0.667136        18.1537 
 195   0.0000       0.673409        18.3244 
 196   0.0000       0.680241        18.5103 
 197   0.0000       0.686579        18.6828 
 198   0.0000       0.693554        18.8726 
 199   0.0000       0.699004        19.0209 
 200   0.0000       0.708230        19.2719 
 201   0.0000       0.714563        19.4442 
 202   0.0000       0.717504        19.5243 
 203   0.0000       0.725756        19.7488 
 204   0.0000       0.735814        20.0225 
 205   0.0000       0.741483        20.1768 
 206   0.0000       0.749251        20.3881 
 207   0.0000       0.757611        20.6157 
 208   0.0000       0.761776        20.7290 
 209   0.0000       0.770944        20.9785 
 210   0.0000       0.780604        21.2413 
 211   0.0000       0.786941        21.4137 
 212   0.0000       0.791281        21.5319 
 213   0.0000       0.799138        21.7457 
 214   0.0000       0.815153        22.1814 
 215   0.0000       0.822347        22.3772 
 216   0.0000       0.830885        22.6095 
 217   0.0000       0.835936        22.7470 
 218   0.0000       0.837758        22.7966 
 219   0.0000       0.854912        23.2633 
 220   0.0000       0.858805        23.3693 
 221   0.0000       0.871154        23.7053 
 222   0.0000       0.877459        23.8769 
 223   0.0000       0.889085        24.1932 
 224   0.0000       0.892429        24.2842 
 225   0.0000       0.898184        24.4408 
 226   0.0000       0.905260        24.6334 
 227   0.0000       0.915610        24.9150 
 228   0.0000       0.919863        25.0307 
 229   0.0000       0.930707        25.3258 
 230   0.0000       0.941643        25.6234 
 231   0.0000       0.950750        25.8712 
 232   0.0000       0.968109        26.3436 
 233   0.0000       0.974149        26.5079 
 234   0.0000       0.993731        27.0408 
 235   0.0000       1.010167        27.4881 
 236   0.0000       1.019603        27.7448 
 237   0.0000       1.033311        28.1178 
 238   0.0000       1.037055        28.2197 
 239   0.0000       1.050593        28.5881 
 240   0.0000       1.058963        28.8159 
 241   0.0000       1.062085        28.9008 
 242   0.0000       1.067613        29.0512 
 243   0.0000       1.077664        29.3247 
 244   0.0000       1.088414        29.6173 
 245   0.0000       1.104627        30.0584 
 246   0.0000       1.114394        30.3242 
 247   0.0000       1.127548        30.6821 
 248   0.0000       1.131321        30.7848 
 249   0.0000       1.148858        31.2620 
 250   0.0000       1.153093        31.3773 
 251   0.0000       1.157951        31.5095 
 252   0.0000       1.166056        31.7300 
 253   0.0000       1.170757        31.8579 
 254   0.0000       1.174234        31.9525 
 255   0.0000       1.191493        32.4222 
 256   0.0000       1.200695        32.6726 
 257   0.0000       1.211223        32.9590 
 258   0.0000       1.223772        33.3005 
 259   0.0000       1.226571        33.3767 
 260   0.0000       1.239845        33.7379 
 261   0.0000       1.241261        33.7764 
 262   0.0000       1.249955        34.0130 
 263   0.0000       1.259083        34.2614 
 264   0.0000       1.262918        34.3658 
 265   0.0000       1.273797        34.6618 
 266   0.0000       1.288496        35.0617 
 267   0.0000       1.301715        35.4215 
 268   0.0000       1.310725        35.6667 
 269   0.0000       1.317382        35.8478 
 270   0.0000       1.334825        36.3224 
 271   0.0000       1.343287        36.5527 
 272   0.0000       1.353919        36.8420 
 273   0.0000       1.360697        37.0265 
 274   0.0000       1.371768        37.3277 
 275   0.0000       1.397526        38.0286 
 276   0.0000       1.405803        38.2539 
 277   0.0000       1.408936        38.3391 
 278   0.0000       1.425420        38.7877 
 279   0.0000       1.443319        39.2747 
 280   0.0000       1.454362        39.5752 
 281   0.0000       1.457071        39.6489 
 282   0.0000       1.464460        39.8500 
 283   0.0000       1.471433        40.0397 
 284   0.0000       1.477579        40.2070 
 285   0.0000       1.492368        40.6094 
 286   0.0000       1.502084        40.8738 
 287   0.0000       1.504634        40.9432 
 288   0.0000       1.514811        41.2201 
 289   0.0000       1.528961        41.6051 
 290   0.0000       1.531858        41.6840 
 291   0.0000       1.538873        41.8749 
 292   0.0000       1.551693        42.2237 
 293   0.0000       1.554162        42.2909 
 294   0.0000       1.564269        42.5659 
 295   0.0000       1.573210        42.8092 
 296   0.0000       1.580192        42.9992 
 297   0.0000       1.584441        43.1148 
 298   0.0000       1.589104        43.2417 
 299   0.0000       1.595263        43.4093 
 300   0.0000       1.604526        43.6614 
 301   0.0000       1.611659        43.8555 
 302   0.0000       1.619040        44.0563 
 303   0.0000       1.623364        44.1740 
 304   0.0000       1.626597        44.2620 
 305   0.0000       1.638524        44.5865 
 306   0.0000       1.643710        44.7276 
 307   0.0000       1.657960        45.1154 
 308   0.0000       1.660950        45.1967 
 309   0.0000       1.665545        45.3218 
 310   0.0000       1.682432        45.7813 
 311   0.0000       1.691485        46.0276 
 312   0.0000       1.697091        46.1802 
 313   0.0000       1.702774        46.3348 
 314   0.0000       1.708300        46.4852 
 315   0.0000       1.715491        46.6809 
 316   0.0000       1.722075        46.8601 
 317   0.0000       1.725512        46.9536 
 318   0.0000       1.729094        47.0510 
 319   0.0000       1.737036        47.2672 
 320   0.0000       1.759470        47.8776 
 321   0.0000       1.763757        47.9943 
 322   0.0000       1.778527        48.3962 
 323   0.0000       1.784170        48.5497 
 324   0.0000       1.789390        48.6918 
 325   0.0000       1.800445        48.9926 
 326   0.0000       1.810864        49.2761 
 327   0.0000       1.816729        49.4357 
 328   0.0000       1.825056        49.6623 
 329   0.0000       1.837107        49.9902 
 330   0.0000       1.843227        50.1568 
 331   0.0000       1.848053        50.2881 
 332   0.0000       1.861491        50.6537 
 333   0.0000       1.867201        50.8091 
 334   0.0000       1.879986        51.1570 
 335   0.0000       1.889918        51.4273 
 336   0.0000       1.899519        51.6885 
 337   0.0000       1.908434        51.9311 
 338   0.0000       1.911921        52.0260 
 339   0.0000       1.919108        52.2216 
 340   0.0000       1.922849        52.3234 
 341   0.0000       1.941736        52.8373 
 342   0.0000       1.944255        52.9059 
 343   0.0000       1.950773        53.0832 
 344   0.0000       1.952055        53.1181 
 345   0.0000       1.968883        53.5760 
 346   0.0000       1.972273        53.6683 
 347   0.0000       1.978972        53.8506 
 348   0.0000       1.989227        54.1296 
 349   0.0000       1.993109        54.2353 
 350   0.0000       2.005322        54.5676 
 351   0.0000       2.014108        54.8067 
 352   0.0000       2.021630        55.0114 
 353   0.0000       2.027370        55.1675 
 354   0.0000       2.045359        55.6571 
 355   0.0000       2.058341        56.0103 
 356   0.0000       2.065667        56.2097 
 357   0.0000       2.075097        56.4663 
 358   0.0000       2.084182        56.7135 
 359   0.0000       2.088845        56.8404 
 360   0.0000       2.097348        57.0717 
 361   0.0000       2.104203        57.2583 
 362   0.0000       2.118962        57.6599 
 363   0.0000       2.129288        57.9409 
 364   0.0000       2.135779        58.1175 
 365   0.0000       2.149869        58.5009 
 366   0.0000       2.157846        58.7180 
 367   0.0000       2.166848        58.9629 
 368   0.0000       2.173585        59.1462 
 369   0.0000       2.192831        59.6700 
 370   0.0000       2.197104        59.7862 
 371   0.0000       2.206301        60.0365 
 372   0.0000       2.210656        60.1550 
 373   0.0000       2.216771        60.3214 
 374   0.0000       2.222201        60.4692 
 375   0.0000       2.229029        60.6550 
 376   0.0000       2.237256        60.8788 
 377   0.0000       2.246766        61.1376 
 378   0.0000       2.253344        61.3166 
 379   0.0000       2.259265        61.4777 
 380   0.0000       2.277229        61.9665 
 381   0.0000       2.287859        62.2558 
 382   0.0000       2.291129        62.3448 
 383   0.0000       2.301596        62.6296 
 384   0.0000       2.312130        62.9163 
 385   0.0000       2.322395        63.1956 
 386   0.0000       2.332680        63.4755 
 387   0.0000       2.340975        63.7012 
 388   0.0000       2.350490        63.9601 
 389   0.0000       2.360882        64.2429 
 390   0.0000       2.366411        64.3933 
 391   0.0000       2.380420        64.7745 
 392   0.0000       2.387988        64.9805 
 393   0.0000       2.399328        65.2890 
 394   0.0000       2.403956        65.4150 
 395   0.0000       2.408003        65.5251 
 396   0.0000       2.426420        66.0263 
 397   0.0000       2.434524        66.2468 
 398   0.0000       2.449800        66.6624 
 399   0.0000       2.452023        66.7229 
 400   0.0000       2.468358        67.1674 
 401   0.0000       2.476194        67.3807 
 402   0.0000       2.495071        67.8943 
 403   0.0000       2.499266        68.0085 
 404   0.0000       2.504832        68.1600 
 405   0.0000       2.514083        68.4117 
 406   0.0000       2.525248        68.7155 
 407   0.0000       2.528422        68.8019 
 408   0.0000       2.537519        69.0494 
 409   0.0000       2.548418        69.3460 
 410   0.0000       2.552542        69.4582 
 411   0.0000       2.564455        69.7824 
 412   0.0000       2.573775        70.0360 
 413   0.0000       2.586640        70.3861 
 414   0.0000       2.589417        70.4616 
 415   0.0000       2.599006        70.7226 
 416   0.0000       2.605943        70.9113 
 417   0.0000       2.608903        70.9918 
 418   0.0000       2.612728        71.0960 
 419   0.0000       2.618585        71.2553 
 420   0.0000       2.618969        71.2658 
 421   0.0000       2.627182        71.4893 
 422   0.0000       2.633585        71.6635 
 423   0.0000       2.636439        71.7412 
 424   0.0000       2.649940        72.1085 
 425   0.0000       2.662708        72.4560 
 426   0.0000       2.665487        72.5316 
 427   0.0000       2.672838        72.7316 
 428   0.0000       2.681951        72.9796 
 429   0.0000       2.685757        73.0831 
 430   0.0000       2.701231        73.5042 
 431   0.0000       2.710870        73.7665 
 432   0.0000       2.720299        74.0231 
 433   0.0000       2.724700        74.1429 
 434   0.0000       2.729743        74.2801 
 435   0.0000       2.737280        74.4852 
 436   0.0000       2.750753        74.8518 
 437   0.0000       2.762035        75.1588 
 438   0.0000       2.766983        75.2934 
 439   0.0000       2.776482        75.5519 
 440   0.0000       2.780705        75.6668 
 441   0.0000       2.785957        75.8097 
 442   0.0000       2.794127        76.0321 
 443   0.0000       2.802032        76.2472 
 444   0.0000       2.807240        76.3889 
 445   0.0000       2.823039        76.8188 
 446   0.0000       2.831951        77.0613 
 447   0.0000       2.834028        77.1178 
 448   0.0000       2.842027        77.3355 
 449   0.0000       2.860130        77.8281 
 450   0.0000       2.867366        78.0250 
 451   0.0000       2.886019        78.5326 
 452   0.0000       2.904840        79.0447 
 453   0.0000       2.912255        79.2465 
 454   0.0000       2.925553        79.6083 
 455   0.0000       2.931795        79.7782 
 456   0.0000       2.946516        80.1788 
 457   0.0000       2.950737        80.2936 
 458   0.0000       2.956212        80.4426 
 459   0.0000       2.973621        80.9163 
 460   0.0000       2.975357        80.9636 
 461   0.0000       2.986908        81.2779 
 462   0.0000       2.995085        81.5004 
 463   0.0000       3.007574        81.8403 
 464   0.0000       3.021612        82.2223 
 465   0.0000       3.036700        82.6328 
 466   0.0000       3.041256        82.7568 
 467   0.0000       3.049082        82.9697 
 468   0.0000       3.052845        83.0721 
 469   0.0000       3.053722        83.0960 
 470   0.0000       3.070466        83.5516 
 471   0.0000       3.084841        83.9428 
 472   0.0000       3.089508        84.0698 
 473   0.0000       3.097885        84.2977 
 474   0.0000       3.120987        84.9264 
 475   0.0000       3.124333        85.0174 
 476   0.0000       3.127575        85.1057 
 477   0.0000       3.138970        85.4157 
 478   0.0000       3.147043        85.6354 
 479   0.0000       3.153392        85.8082 
 480   0.0000       3.159392        85.9714 
 481   0.0000       3.167792        86.2000 
 482   0.0000       3.178358        86.4875 
 483   0.0000       3.185321        86.6770 
 484   0.0000       3.188575        86.7655 
 485   0.0000       3.193907        86.9106 
 486   0.0000       3.201215        87.1095 
 487   0.0000       3.209713        87.3407 
 488   0.0000       3.220294        87.6286 
 489   0.0000       3.229521        87.8797 
 490   0.0000       3.233488        87.9877 
 491   0.0000       3.246616        88.3449 
 492   0.0000       3.249036        88.4108 
 493   0.0000       3.255569        88.5885 
 494   0.0000       3.265550        88.8601 
 495   0.0000       3.268334        88.9359 
 496   0.0000       3.283699        89.3540 
 497   0.0000       3.297154        89.7201 
 498   0.0000       3.299183        89.7753 
 499   0.0000       3.302910        89.8767 
 500   0.0000       3.313215        90.1572 
 501   0.0000       3.319855        90.3379 
 502   0.0000       3.331762        90.6618 
 503   0.0000       3.334399        90.7336 
 504   0.0000       3.347110        91.0795 
 505   0.0000       3.359447        91.4152 
 506   0.0000       3.370377        91.7126 
 507   0.0000       3.379307        91.9556 
 508   0.0000       3.387728        92.1848 
 509   0.0000       3.390838        92.2694 
 510   0.0000       3.406179        92.6868 
 511   0.0000       3.411181        92.8229 
 512   0.0000       3.423616        93.1613 
 513   0.0000       3.433625        93.4337 
 514   0.0000       3.439182        93.5849 
 515   0.0000       3.446035        93.7714 
 516   0.0000       3.448534        93.8394 
 517   0.0000       3.464666        94.2784 
 518   0.0000       3.472917        94.5029 
 519   0.0000       3.477905        94.6386 
 520   0.0000       3.494788        95.0980 
 521   0.0000       3.507412        95.4415 
 522   0.0000       3.510149        95.5160 
 523   0.0000       3.513349        95.6031 
 524   0.0000       3.516555        95.6903 
 525   0.0000       3.521334        95.8204 
 526   0.0000       3.527403        95.9855 
 527   0.0000       3.538854        96.2971 
 528   0.0000       3.554208        96.7149 
 529   0.0000       3.564225        96.9875 
 530   0.0000       3.566056        97.0373 
 531   0.0000       3.594414        97.8090 
 532   0.0000       3.602372        98.0255 
 533   0.0000       3.609326        98.2148 
 534   0.0000       3.621980        98.5591 
 535   0.0000       3.638776        99.0161 
 536   0.0000       3.644390        99.1689 
 537   0.0000       3.659169        99.5711 
 538   0.0000       3.674167        99.9792 
 539   0.0000       3.695143       100.5499 
 540   0.0000       3.722049       101.2821 
 541   0.0000       3.729535       101.4858 
 542   0.0000       3.741835       101.8205 
 543   0.0000       3.771610       102.6307 
 544   0.0000       3.775663       102.7410 
 545   0.0000       3.779767       102.8527 
 546   0.0000       3.789860       103.1273 
 547   0.0000       3.799083       103.3783 
 548   0.0000       3.807308       103.6021 
 549   0.0000       3.817649       103.8835 
 550   0.0000       3.862880       105.1143 
 551   0.0000       3.881917       105.6323 
 552   0.0000       3.905626       106.2775 
 553   0.0000       3.913973       106.5046 
 554   0.0000       3.923248       106.7570 
 555   0.0000       3.925424       106.8162 
 556   0.0000       3.934629       107.0667 
 557   0.0000       3.963992       107.8657 
 558   0.0000       3.981425       108.3401 
 559   0.0000       3.989407       108.5573 
 560   0.0000       3.999532       108.8328 
 561   0.0000       4.019046       109.3638 
 562   0.0000       4.029086       109.6370 
 563   0.0000       4.040299       109.9421 
 564   0.0000       4.053598       110.3040 
 565   0.0000       4.064293       110.5950 
 566   0.0000       4.070290       110.7582 
 567   0.0000       4.103273       111.6557 
 568   0.0000       4.110112       111.8418 
 569   0.0000       4.125265       112.2542 
 570   0.0000       4.138305       112.6090 
 571   0.0000       4.152984       113.0084 
 572   0.0000       4.162364       113.2637 
 573   0.0000       4.176652       113.6525 
 574   0.0000       4.194518       114.1386 
 575   0.0000       4.214299       114.6769 
 576   0.0000       4.227887       115.0467 
 577   0.0000       4.237029       115.2954 
 578   0.0000       4.248000       115.5939 
 579   0.0000       4.259983       115.9200 
 580   0.0000       4.265294       116.0646 
 581   0.0000       4.275648       116.3463 
 582   0.0000       4.286973       116.6545 
 583   0.0000       4.300317       117.0176 
 584   0.0000       4.308861       117.2501 
 585   0.0000       4.319708       117.5452 
 586   0.0000       4.340786       118.1188 
 587   0.0000       4.371747       118.9613 
 588   0.0000       4.380503       119.1996 
 589   0.0000       4.391424       119.4967 
 590   0.0000       4.439666       120.8095 
 591   0.0000       4.465897       121.5232 
 592   0.0000       4.481658       121.9521 
 593   0.0000       4.503434       122.5447 
 594   0.0000       4.508064       122.6707 
 595   0.0000       4.545218       123.6817 
 596   0.0000       4.562894       124.1627 
 597   0.0000       4.572520       124.4246 
 598   0.0000       4.632022       126.0437 
 599   0.0000       4.642182       126.3202 
 600   0.0000       4.654330       126.6508 
 601   0.0000       4.661614       126.8490 
 602   0.0000       4.693014       127.7034 
 603   0.0000       4.708216       128.1171 
 604   0.0000       4.714428       128.2861 
 605   0.0000       4.737850       128.9235 
 606   0.0000       4.771720       129.8451 
 607   0.0000       4.791224       130.3758 
 608   0.0000       4.802782       130.6903 
 609   0.0000       4.815313       131.0313 
 610   0.0000       4.828835       131.3993 
 611   0.0000       4.841840       131.7532 
 612   0.0000       4.852408       132.0407 
 613   0.0000       4.927161       134.0749 
 614   0.0000       4.941974       134.4779 
 615   0.0000       4.946016       134.5879 
 616   0.0000       4.955338       134.8416 
 617   0.0000       4.972442       135.3070 
 618   0.0000       5.042463       137.2124 
 619   0.0000       5.054599       137.5426 
 620   0.0000       5.087527       138.4386 
 621   0.0000       5.091641       138.5506 
 622   0.0000       5.102838       138.8553 
 623   0.0000       5.142761       139.9416 
 624   0.0000       5.152597       140.2093 
 625   0.0000       5.163469       140.5051 
 626   0.0000       5.167333       140.6103 
 627   0.0000       5.175650       140.8366 
 628   0.0000       5.182767       141.0303 
 629   0.0000       5.193311       141.3172 
 630   0.0000       5.196828       141.4129 
 631   0.0000       5.231896       142.3671 
 632   0.0000       5.245323       142.7325 
 633   0.0000       5.279026       143.6496 
 634   0.0000       5.291532       143.9899 
 635   0.0000       5.304390       144.3398 
 636   0.0000       5.351845       145.6311 
 637   0.0000       5.372005       146.1797 
 638   0.0000       5.376793       146.3100 
 639   0.0000       5.422114       147.5432 
 640   0.0000       5.428012       147.7037 
 641   0.0000       5.433502       147.8531 
 642   0.0000       5.446259       148.2002 
 643   0.0000       5.451664       148.3473 
 644   0.0000       5.477089       149.0392 
 645   0.0000       5.493115       149.4753 
 646   0.0000       5.531455       150.5185 
 647   0.0000       5.554382       151.1424 
 648   0.0000       5.606501       152.5606 
 649   0.0000       5.653250       153.8328 
 650   0.0000       5.675301       154.4328 
 651   0.0000       5.743269       156.2823 
 652   0.0000       5.770526       157.0240 
 653   0.0000       5.773375       157.1015 
 654   0.0000       5.834556       158.7663 
 655   0.0000       5.848349       159.1417 
 656   0.0000       5.873925       159.8376 
 657   0.0000       5.933777       161.4663 
 658   0.0000       5.956254       162.0779 
 659   0.0000       6.148420       167.3070 
 660   0.0000       6.168177       167.8446 
 661   0.0000       6.264899       170.4766 
 662   0.0000       6.286604       171.0672 
 663   0.0000       6.306665       171.6131 
 664   0.0000       6.358265       173.0172 
 665   0.0000       6.412068       174.4812 
 666   0.0000       6.429047       174.9433 
 667   0.0000       6.445551       175.3924 
 668   0.0000       6.481471       176.3698 
 669   0.0000       6.493777       176.7047 
 670   0.0000       6.623222       180.2270 
 671   0.0000       6.701909       182.3682 
 672   0.0000       6.708723       182.5536 
 673   0.0000       6.738670       183.3685 
 674   0.0000       6.854361       186.5167 
 675   0.0000       6.872413       187.0079 
 676   0.0000       6.878267       187.1672 
 677   0.0000       6.918435       188.2602 
 678   0.0000       7.002199       190.5395 
 679   0.0000       7.075473       192.5334 
 680   0.0000       7.123337       193.8359 
 681   0.0000       7.197743       195.8606 
 682   0.0000       7.227430       196.6684 
 683   0.0000       7.252945       197.3627 
 684   0.0000       7.283238       198.1870 
 685   0.0000       7.486997       203.7315 
 686   0.0000       7.593949       206.6419 
 687   0.0000      10.709826       291.4292 
 688   0.0000      10.787558       293.5444 
 689   0.0000      11.323589       308.1305 
 690   0.0000      22.137968       602.4047 
 691   0.0000      22.380596       609.0070 
 692   0.0000      22.415594       609.9593 
 693   0.0000      22.462604       611.2385 
 694   0.0000      22.491061       612.0129 
 695   0.0000      22.551826       613.6664 
 696   0.0000      22.616010       615.4129 
 697   0.0000      22.663872       616.7153 
 698   0.0000      22.790967       620.1737 
 699   0.0000      22.809748       620.6848 
 700   0.0000      22.874160       622.4375 
 701   0.0000      23.210124       631.5796 
 702   0.0000      25.836468       703.0460 
 703   0.0000      32.311185       879.2320 
 704   0.0000      32.463683       883.3817 
 705   0.0000      43.816143      1192.2979 
 706   0.0000      44.063557      1199.0303 
 707   0.0000      44.089619      1199.7395 
 708   0.0000      44.104952      1200.1568 

                    ********************************
                    * MULLIKEN POPULATION ANALYSIS *
                    ********************************

-----------------------
MULLIKEN ATOMIC CHARGES
-----------------------
   0 C :   -0.118104
   1 C :   -0.222844
   2 C :    0.148882
   3 C :   -0.254650
   4 C :    0.223566
   5 C :   -0.215306
   6 H :    0.145298
   7 H :    0.126915
   8 H :    0.134740
   9 Cl:   -0.145729
  10 H :    0.147614
  11 C :   -0.155818
  12 C :   -0.362280
  13 H :    0.123822
  14 H :    0.119350
  15 H :    0.131814
  16 N :    0.470448
  17 O :   -0.414427
  18 O :   -0.466445
  19 N :   -0.157728
  20 C :   -0.130424
  21 C :   -0.063300
  22 O :   -0.358690
  23 C :   -0.059255
  24 C :   -0.126540
  25 H :    0.164539
  26 H :    0.141337
  27 H :    0.140201
  28 H :    0.118715
  29 H :    0.141402
  30 H :    0.116631
  31 H :    0.142965
  32 H :    0.269914
  33 H :    0.292798
  34 H :    0.151596
  35 H :    0.323189
[...]
    104       0.000010   0.000029  -0.000004   0.000013  -0.000186   0.000034
    105       0.000146   0.000237   0.000052  -0.000027  -0.000641  -0.207865
    106       0.000406   0.000807  -0.000383   0.000161  -0.000041   0.975965
    107      -0.000187  -0.000332   0.000065  -0.000020   0.000158   0.017997
    108      -0.000423  -0.000457   0.000018   0.000047  -0.001138  -0.001726
    109      -0.000117  -0.000213   0.000062  -0.000037   0.008634  -0.005934
    110       0.000370   0.000695  -0.000178  -0.000012  -0.027045   0.002884
    111       0.000040   0.000022  -0.000006   0.000007  -0.000517   0.012932
    112      -0.000116  -0.000206   0.000043  -0.000011  -0.000212  -0.061021
    113      -0.000003  -0.000040   0.000007   0.000004   0.000232  -0.001019


-----------
IR SPECTRUM
-----------

 Mode   freq       eps      Int      T**2         TX        TY        TZ
       cm**-1   L/(mol*cm) km/mol    a.u.
----------------------------------------------------------------------------
  7:     14.70   0.000099    0.50  0.002109  ( 0.025425  0.018838  0.033282)
  8:     32.18   0.001249    6.31  0.012108  (-0.070592  0.084242  0.005254)
  9:     49.69   0.000624    3.15  0.003920  ( 0.052095  0.029722 -0.017959)
 10:     56.85   0.001406    7.11  0.007718  ( 0.011998  0.086812 -0.006166)
 11:     72.30   0.000913    4.61  0.003939  (-0.048578  0.001341 -0.039712)
 12:     82.15   0.002838   14.34  0.010783  ( 0.096413  0.001101  0.038552)
 13:     93.09   0.000154    0.78  0.000516  (-0.020083  0.010147 -0.003116)
 14:    109.85   0.001654    8.36  0.004698  ( 0.003004 -0.065329  0.020522)
 15:    111.23   0.002651   13.40  0.007438  (-0.004329 -0.082796  0.023756)
 16:    120.30   0.004346   21.96  0.011273  (-0.077398  0.025376 -0.068110)
 17:    169.84   0.000876    4.43  0.001610  (-0.034289  0.000116 -0.020832)
 18:    193.37   0.000588    2.97  0.000948  (-0.023908 -0.017607  0.008177)
 19:    226.03   0.000350    1.77  0.000484  (-0.013500 -0.013893  0.010419)
 20:    246.01   0.017202   86.93  0.021820  ( 0.024689  0.045786 -0.138255)
 21:    264.06   0.001677    8.47  0.001981  ( 0.015995  0.004157 -0.041330)
 22:    273.47   0.004584   23.16  0.005230  ( 0.002138 -0.057769  0.043457)
 23:    287.97   0.004608   23.29  0.004993  (-0.066642 -0.002294 -0.023387)
 24:    309.01   0.000086    0.43  0.000087  ( 0.008276  0.000646  0.004218)
 25:    343.87   0.023975  121.16  0.021758  ( 0.038201  0.066699 -0.125897)
 26:    378.14   0.001984   10.03  0.001637  ( 0.028381 -0.015272  0.024468)
 27:    386.07   0.005596   28.28  0.004524  ( 0.021216  0.009493  0.063114)
 28:    421.31   0.013612   68.79  0.010082  (-0.044995 -0.029136  0.084906)
 29:    432.36   0.024557  124.10  0.017724  ( 0.040930  0.038544 -0.120680)
 30:    436.63   0.002152   10.88  0.001538  ( 0.002875  0.026709 -0.028576)
 31:    452.51   0.001365    6.90  0.000942  ( 0.025791 -0.012430  0.011045)
 32:    464.42   0.003546   17.92  0.002383  (-0.036747 -0.008406 -0.031014)
 33:    486.33   0.000395    1.99  0.000253  ( 0.009565 -0.000058 -0.012718)
 34:    535.14   0.003096   15.64  0.001805  ( 0.023313 -0.000816 -0.035511)
 35:    569.25   0.010243   51.76  0.005615  (-0.074206 -0.001203 -0.010352)
 36:    595.68   0.003353   16.95  0.001757  ( 0.021790  0.031147 -0.017653)
 37:    618.87   0.005374   27.16  0.002710  ( 0.051106  0.009706  0.002014)
 38:    625.21   0.002935   14.83  0.001465  (-0.027057  0.023439  0.013541)
 39:    666.82   0.006594   33.32  0.003086  ( 0.038142 -0.010736  0.038932)
 40:    712.55   0.016611   83.94  0.007275  (-0.083598  0.002534  0.016723)
 41:    728.82   0.004720   23.85  0.002021  (-0.011913 -0.042826  0.006716)
 42:    789.42   0.002897   14.64  0.001145  ( 0.013541  0.024775 -0.018660)
 43:    801.51   0.007741   39.12  0.003014  (-0.053163  0.010875  0.008324)
 44:    834.99   0.005367   27.12  0.002006  ( 0.033371  0.019963 -0.022216)
 45:    845.87   0.008749   44.21  0.003228  ( 0.011277 -0.011564  0.054468)
 46:    853.05   0.000118    0.59  0.000043  (-0.003802  0.003582  0.003972)
 47:    884.03   0.007166   36.21  0.002530  ( 0.046568  0.012322  0.014462)
 48:    892.42   0.001410    7.12  0.000493  ( 0.017389 -0.013627 -0.002196)
 49:    905.40   0.002289   11.57  0.000789  (-0.027272  0.000795 -0.006678)
 50:    923.98   0.000152    0.77  0.000051  (-0.000466  0.006570  0.002834)
 51:    932.61   0.010780   54.48  0.003607  ( 0.021734 -0.053295  0.017161)
 52:    944.65   0.000597    3.02  0.000197  (-0.010222  0.009187  0.002866)
 53:    976.74   0.001106    5.59  0.000353  ( 0.011814  0.014464 -0.002160)
 54:    996.54   0.000224    1.13  0.000070  (-0.007703  0.002255  0.002412)
 55:   1021.03   0.001793    9.06  0.000548  (-0.001138  0.012375 -0.019839)
 56:   1029.56   0.001531    7.74  0.000464  ( 0.017137  0.006322  0.011415)
 57:   1064.42   0.011741   59.34  0.003442  ( 0.032618  0.023893 -0.042514)
 58:   1074.12   0.005250   26.53  0.001525  ( 0.016697 -0.034088 -0.009190)
 59:   1081.77   0.009893   49.99  0.002854  (-0.033267 -0.025121 -0.033407)
 60:   1098.52   0.004583   23.16  0.001302  ( 0.021095 -0.011960 -0.026720)
 61:   1101.65   0.001032    5.21  0.000292  ( 0.001879 -0.016203 -0.005121)
 62:   1106.17   0.008826   44.61  0.002490  ( 0.011787  0.019420 -0.044430)
 63:   1108.54   0.038227  193.18  0.010761  ( 0.038056 -0.091246 -0.031417)
 64:   1116.07   0.005650   28.55  0.001580  ( 0.023106 -0.030249 -0.011436)
 65:   1147.93   0.005518   27.88  0.001500  ( 0.014429 -0.000402 -0.035940)
 66:   1174.22   0.004429   22.38  0.001177  (-0.021426  0.019842  0.018005)
 67:   1189.85   0.000196    0.99  0.000051  (-0.003439 -0.005967 -0.001982)
 68:   1192.44   0.001981   10.01  0.000518  (-0.005323  0.007072 -0.020978)
 69:   1226.92   0.000376    1.90  0.000096  ( 0.001965 -0.009298  0.002307)
 70:   1254.75   0.001986   10.03  0.000494  ( 0.012218 -0.016460 -0.008580)
 71:   1284.89   0.010219   51.64  0.002482  ( 0.022711  0.002055 -0.044293)
 72:   1305.79   0.000873    4.41  0.000209  (-0.007118 -0.012505  0.001288)
 73:   1316.94   0.007162   36.19  0.001697  ( 0.026367  0.022582 -0.022177)
 74:   1331.62   0.005069   25.62  0.001188  (-0.028578 -0.012003  0.015072)
 75:   1342.70   0.001011    5.11  0.000235  (-0.004173 -0.014369  0.003335)
 76:   1344.62   0.004311   21.79  0.001001  (-0.022805  0.017460  0.013254)
 77:   1354.65   0.080474  406.68  0.018538  (-0.066183  0.086991  0.081183)
 78:   1383.15   0.003318   16.77  0.000749  ( 0.006756 -0.025109 -0.008513)
 79:   1408.23   0.030455  153.91  0.006749  ( 0.074298  0.010342 -0.033492)
 80:   1411.78   0.005074   25.64  0.001121  (-0.007940 -0.018041  0.027073)
 81:   1422.43   0.002708   13.68  0.000594  ( 0.011069  0.011610  0.018350)
 82:   1436.98   0.086192  435.58  0.018718  ( 0.067568  0.117471 -0.018787)
 83:   1460.87   0.068122  344.26  0.014552  ( 0.075460  0.092302  0.018381)
 84:   1470.54   0.002474   12.50  0.000525  ( 0.013552 -0.015849  0.009493)
 85:   1479.64   0.000249    1.26  0.000052  (-0.003521  0.000917  0.006260)
 86:   1481.44   0.015681   79.24  0.003303  ( 0.025384  0.037685  0.035194)
 87:   1483.62   0.001246    6.30  0.000262  ( 0.014714  0.005391 -0.004056)
 88:   1487.60   0.001746    8.82  0.000366  ( 0.001176  0.011655  0.015132)
 89:   1489.29   0.002403   12.15  0.000504  ( 0.021388 -0.003663  0.005722)
 90:   1497.97   0.001744    8.81  0.000363  ( 0.000191 -0.009454  0.016549)
 91:   1511.21   0.007922   40.04  0.001636  (-0.004388  0.034338 -0.020918)
 92:   1599.77   0.014874   75.17  0.002901  (-0.000778  0.024936 -0.047739)
 93:   1606.82   0.028214  142.58  0.005480  ( 0.033664  0.062681 -0.020430)
 94:   1631.97   0.012484   63.09  0.002387  ( 0.004223  0.048432 -0.004857)
 95:   1694.66   0.064326  325.08  0.011845  ( 0.099294  0.028424 -0.034322)
 96:   2155.20   0.495581  2504.46  0.071758  (-0.161155 -0.132422  0.168082)
 97:   3000.98   0.005737   28.99  0.000597  ( 0.009712 -0.019394 -0.011229)
 98:   3003.50   0.018113   91.53  0.001882  (-0.007748 -0.016927  0.039184)
 99:   3025.56   0.008773   44.33  0.000905  ( 0.028896  0.007126 -0.004372)
100:   3076.84   0.001725    8.72  0.000175  ( 0.000612 -0.011251 -0.006928)
101:   3079.24   0.003081   15.57  0.000312  ( 0.006303  0.005313 -0.015630)
102:   3096.39   0.005690   28.75  0.000573  (-0.008608  0.010719 -0.019607)
103:   3113.49   0.006747   34.10  0.000676  ( 0.012827 -0.021421 -0.007272)
104:   3114.96   0.003292   16.64  0.000330  (-0.011533 -0.013702  0.003000)
105:   3123.68   0.005347   27.02  0.000534  (-0.000383  0.022673  0.004467)
106:   3132.30   0.002350   11.87  0.000234  (-0.005649 -0.010601  0.009476)
107:   3139.07   0.001139    5.76  0.000113  (-0.001887 -0.000219 -0.010470)
108:   3180.62   0.001358    6.86  0.000133  (-0.001476 -0.008496 -0.007673)
109:   3196.33   0.001080    5.46  0.000105  ( 0.000371 -0.001879  0.010089)
110:   3207.23   0.000274    1.38  0.000027  ( 0.000427 -0.003016 -0.004165)
111:   3214.18   0.000057    0.29  0.000006  (-0.001992  0.001253 -0.000065)
112:   3362.62   0.077001  389.13  0.007146  ( 0.074923  0.017963  0.034783)
113:   3780.85   0.006069   30.67  0.000501  (-0.008666  0.018981 -0.008098)

* The epsilon (eps) is given for a Dirac delta lineshape.
** The dipole moment derivative (T) already includes vibrational overlap.

The first frequency considered to be a vibration is 7
The total number of vibrations considered is 107


--------------------------
THERMOCHEMISTRY AT 298.15K
--------------------------

Temperature         ... 298.15 K
Pressure            ... 1.00 atm
Total Mass          ... 291.74 AMU

Throughout the following assumptions are being made:
  (1) The electronic state is orbitally nondegenerate
  (2) There are no thermally accessible electronically excited states
  (3) Hindered rotations indicated by low frequency modes are not
      treated as such but are treated as vibrations and this may
      cause some error
  (4) All equations used are the standard statistical mechanics
      equations for an ideal gas
  (5) All vibrations are strictly harmonic

freq.      14.70  E(vib)   ...       0.57 
freq.      32.18  E(vib)   ...       0.55 
freq.      49.69  E(vib)   ...       0.52 
freq.      56.85  E(vib)   ...       0.51 
freq.      72.30  E(vib)   ...       0.50 
freq.      82.15  E(vib)   ...       0.48 
freq.      93.09  E(vib)   ...       0.47 
freq.     109.85  E(vib)   ...       0.45 
freq.     111.23  E(vib)   ...       0.45 
freq.     120.30  E(vib)   ...       0.44 
freq.     169.84  E(vib)   ...       0.38 
freq.     193.37  E(vib)   ...       0.36 
freq.     226.03  E(vib)   ...       0.33 
freq.     246.01  E(vib)   ...       0.31 
freq.     264.06  E(vib)   ...       0.29 
freq.     273.47  E(vib)   ...       0.29 
freq.     287.97  E(vib)   ...       0.27 
freq.     309.01  E(vib)   ...       0.26 
freq.     343.87  E(vib)   ...       0.23 
freq.     378.14  E(vib)   ...       0.21 
freq.     386.07  E(vib)   ...       0.20 
freq.     421.31  E(vib)   ...       0.18 
freq.     432.36  E(vib)   ...       0.18 
freq.     436.63  E(vib)   ...       0.17 
freq.     452.51  E(vib)   ...       0.16 
freq.     464.42  E(vib)   ...       0.16 
freq.     486.33  E(vib)   ...       0.15 
freq.     535.14  E(vib)   ...       0.13 
freq.     569.25  E(vib)   ...       0.11 
freq.     595.68  E(vib)   ...       0.10 
freq.     618.87  E(vib)   ...       0.09 
freq.     625.21  E(vib)   ...       0.09 
freq.     666.82  E(vib)   ...       0.08 
freq.     712.55  E(vib)   ...       0.07 
freq.     728.82  E(vib)   ...       0.06 
freq.     789.42  E(vib)   ...       0.05 
freq.     801.51  E(vib)   ...       0.05 
freq.     834.99  E(vib)   ...       0.04 
freq.     845.87  E(vib)   ...       0.04 
freq.     853.05  E(vib)   ...       0.04 
freq.     884.03  E(vib)   ...       0.04 
freq.     892.42  E(vib)   ...       0.03 
freq.     905.40  E(vib)   ...       0.03 
freq.     923.98  E(vib)   ...       0.03 
freq.     932.61  E(vib)   ...       0.03 
freq.     944.65  E(vib)   ...       0.03 
freq.     976.74  E(vib)   ...       0.03 
freq.     996.54  E(vib)   ...       0.02 
freq.    1021.03  E(vib)   ...       0.02 
freq.    1029.56  E(vib)   ...       0.02 
freq.    1064.42  E(vib)   ...       0.02 
freq.    1074.12  E(vib)   ...       0.02 
freq.    1081.77  E(vib)   ...       0.02 
freq.    1098.52  E(vib)   ...       0.02 
freq.    1101.65  E(vib)   ...       0.02 
freq.    1106.17  E(vib)   ...       0.02 
freq.    1108.54  E(vib)   ...       0.02 
freq.    1116.07  E(vib)   ...       0.01 
freq.    1147.93  E(vib)   ...       0.01 
freq.    1174.22  E(vib)   ...       0.01 
freq.    1189.85  E(vib)   ...       0.01 
freq.    1192.44  E(vib)   ...       0.01 
freq.    1226.92  E(vib)   ...       0.01 
freq.    1254.75  E(vib)   ...       0.01 
freq.    1284.89  E(vib)   ...       0.01 
freq.    1305.79  E(vib)   ...       0.01 
freq.    1316.94  E(vib)   ...       0.01 
freq.    1331.62  E(vib)   ...       0.01 
freq.    1342.70  E(vib)   ...       0.01 
freq.    1344.62  E(vib)   ...       0.01 
freq.    1354.65  E(vib)   ...       0.01 
freq.    1383.15  E(vib)   ...       0.01 
freq.    1408.23  E(vib)   ...       0.00 
freq.    1411.78  E(vib)   ...       0.00 
freq.    1422.43  E(vib)   ...       0.00 
freq.    1436.98  E(vib)   ...       0.00 
freq.    1460.87  E(vib)   ...       0.00 
freq.    1470.54  E(vib)   ...       0.00 
freq.    1479.64  E(vib)   ...       0.00 
freq.    1481.44  E(vib)   ...       0.00 
freq.    1483.62  E(vib)   ...       0.00 
freq.    1487.60  E(vib)   ...       0.00 
freq.    1489.29  E(vib)   ...       0.00 
freq.    1497.97  E(vib)   ...       0.00 
freq.    1511.21  E(vib)   ...       0.00 
freq.    1599.77  E(vib)   ...       0.00 
freq.    1606.82  E(vib)   ...       0.00 
freq.    1631.97  E(vib)   ...       0.00 
freq.    1694.66  E(vib)   ...       0.00 
freq.    2155.20  E(vib)   ...       0.00 
freq.    3000.98  E(vib)   ...       0.00 
freq.    3003.50  E(vib)   ...       0.00 
freq.    3025.56  E(vib)   ...       0.00 
freq.    3076.84  E(vib)   ...       0.00 
freq.    3079.24  E(vib)   ...       0.00 
freq.    3096.39  E(vib)   ...       0.00 
freq.    3113.49  E(vib)   ...       0.00 
freq.    3114.96  E(vib)   ...       0.00 
freq.    3123.68  E(vib)   ...       0.00 
freq.    3132.30  E(vib)   ...       0.00 
freq.    3139.07  E(vib)   ...       0.00 
freq.    3180.62  E(vib)   ...       0.00 
freq.    3196.33  E(vib)   ...       0.00 
freq.    3207.23  E(vib)   ...       0.00 
freq.    3214.18  E(vib)   ...       0.00 
freq.    3362.62  E(vib)   ...       0.00 
freq.    3780.85  E(vib)   ...       0.00 

------------
INNER ENERGY
------------

The inner energy is: U= E(el) + E(ZPE) + E(vib) + E(rot) + E(trans)
    E(el)   - is the total energy from the electronic structure calculation
              = E(kin-el) + E(nuc-el) + E(el-el) + E(nuc-nuc)
    E(ZPE)  - the the zero temperature vibrational energy from the frequency calculation
    E(vib)  - the the finite temperature correction to E(ZPE) due to population
              of excited vibrational states
    E(rot)  - is the rotational thermal energy
    E(trans)- is the translational thermal energy

Summary of contributions to the inner energy U:
Electronic energy                ...  -1339.09723491 Eh
Zero point energy                ...      0.30385628 Eh     190.67 kcal/mol
Thermal vibrational correction   ...      0.01690282 Eh      10.61 kcal/mol
Thermal rotational correction    ...      0.00141627 Eh       0.89 kcal/mol
Thermal translational correction ...      0.00141627 Eh       0.89 kcal/mol
-----------------------------------------------------------------------
Total thermal energy                  -1338.77364327 Eh


Summary of corrections to the electronic energy:
(perhaps to be used in another calculation)
Total thermal correction                  0.01973536 Eh      12.38 kcal/mol
Non-thermal (ZPE) correction              0.30385628 Eh     190.67 kcal/mol
-----------------------------------------------------------------------
Total correction                          0.32359164 Eh     203.06 kcal/mol


--------
ENTHALPY
--------

The enthalpy is H = U + kB*T
                kB is Boltzmann's constant
Total free energy                 ...  -1338.77364327 Eh 
Thermal Enthalpy correction       ...      0.00094421 Eh       0.59 kcal/mol
-----------------------------------------------------------------------
Total Enthalpy                    ...  -1338.77269906 Eh


Note: Only C1 symmetry has been detected, increase convergence thresholds 
      if your molecule has a higher symmetry. Symmetry factor of 1.0 is   
      used for the rotational entropy correction. 
 

Note: Rotational entropy computed according to Herzberg 
Infrared and Raman Spectra, Chapter V,1, Van Nostrand Reinhold, 1945 
Point Group:  C1, Symmetry Number:   1  
Rotational constants in cm-1:     0.011987     0.008152     0.006256 

Vibrational entropy computed according to the QRRHO of S. Grimme
Chem.Eur.J. 2012 18 9955


-------
ENTROPY
-------

The entropy contributions are T*S = T*(S(el)+S(vib)+S(rot)+S(trans))
     S(el)   - electronic entropy
     S(vib)  - vibrational entropy
     S(rot)  - rotational entropy
     S(trans)- translational entropy
The entropies will be listed as multiplied by the temperature to get
units of energy

Electronic entropy                ...      0.00000000 Eh      0.00 kcal/mol
Vibrational entropy               ...      0.03035419 Eh     19.05 kcal/mol
Rotational entropy                ...      0.01626526 Eh     10.21 kcal/mol
Translational entropy             ...      0.02038763 Eh     12.79 kcal/mol
-----------------------------------------------------------------------
Final entropy term                ...      0.06700707 Eh     42.05 kcal/mol

In case the symmetry of your molecule has not been determined correctly
or in case you have a reason to use a different symmetry number we print 
out the resulting rotational entropy values for sn=1,12 :
 --------------------------------------------------------
|  sn= 1 | S(rot)=       0.01626526 Eh     10.21 kcal/mol|
|  sn= 2 | S(rot)=       0.01561080 Eh      9.80 kcal/mol|
|  sn= 3 | S(rot)=       0.01522797 Eh      9.56 kcal/mol|
|  sn= 4 | S(rot)=       0.01495635 Eh      9.39 kcal/mol|
|  sn= 5 | S(rot)=       0.01474566 Eh      9.25 kcal/mol|
|  sn= 6 | S(rot)=       0.01457351 Eh      9.14 kcal/mol|
|  sn= 7 | S(rot)=       0.01442797 Eh      9.05 kcal/mol|
|  sn= 8 | S(rot)=       0.01430189 Eh      8.97 kcal/mol|
|  sn= 9 | S(rot)=       0.01419068 Eh      8.90 kcal/mol|
|  sn=10 | S(rot)=       0.01409120 Eh      8.84 kcal/mol|
|  sn=11 | S(rot)=       0.01400121 Eh      8.79 kcal/mol|
|  sn=12 | S(rot)=       0.01391906 Eh      8.73 kcal/mol|
 --------------------------------------------------------


-------------------
GIBBS FREE ENERGY
-------------------

The Gibbs free energy is G = H - T*S

Total enthalpy                    ...  -1338.77269906 Eh 
Total entropy correction          ...     -0.06700707 Eh    -42.05 kcal/mol
-----------------------------------------------------------------------
Final Gibbs free energy         ...  -1338.83970613 Eh

For completeness - the Gibbs free energy minus the electronic energy
G-E(el)                           ...      0.25752878 Eh    161.60 kcal/mol



Timings for individual modules:

Sum of individual times         ...     6892.486 sec (= 114.875 min)
GTO integral calculation        ...       15.099 sec (=   0.252 min)   0.2 %
SCF iterations                  ...      311.871 sec (=   5.198 min)   4.5 %
SCF Gradient evaluation         ...       53.945 sec (=   0.899 min)   0.8 %
Numerical frequency calculation ...     6511.571 sec (= 108.526 min)  94.5 %
                             ****ORCA TERMINATED NORMALLY****
TOTAL RUN TIME: 0 days 1 hours 51 minutes 45 seconds 733 msec
