 *******************************************************************************
 **                                                                           **
 **                              MOPAC v22.0.6                                **
 **                                                                           **
 *******************************************************************************
 **          Digital Object Identifier (DOI): 10.5281/zenodo.6511958          **
 **    Visit the DOI location for information on how to cite this program.    **
 *******************************************************************************

                              PM7 CALCULATION RESULTS

 *******************************************************************************
 *  CALCULATION DONE:                                Tue Mar 26 12:01:33 2024  *
 *  PM7        - The PM7 Hamiltonian to be used
 *  SINGLET    - SPIN STATE DEFINED AS A SINGLET
 *
 *
 *
 *                 CHARGE ON SYSTEM = -1
 *
 *
 *
 *  EPS=78.4   - USE ANDREAS KLAMT'S COSMO IMPLICIT SOLVATION MODEL
 *  LET        - OVERRIDE SOME SAFETY CHECKS
 *  THREADS    - USE A MAXIMUM OF 30 THREADS
 *  T=         - A TIME OF 14.0 DAYS REQUESTED
 *  DUMP=N     - RESTART FILE WRITTEN EVERY 30.0 MINUTES REQUESTED
 *  RELSCF     - DEFAULT SCF CRITERION MULTIPLIED BY 1.0000
 *              (DEFAULT SCF CRITERION = 0.00010)
 *  ITRY=      - DO A MAXIMUM OF 15000 ITERATIONS FOR SCF
 *  AUX        - OUTPUT AUXILIARY INFORMATION
 *  ISOTOPE    - SAVE THE FORCE MATRIX FOR USE LATER
 *  BONDS      - FINAL BOND-ORDER MATRIX TO BE PRINTED
 *  LARGE      - EXPANDED OUTPUT TO BE PRINTED
 *  THERMO     - THERMODYNAMIC QUANTITIES TO BE CALCULATED
 *******************************************************************************
PM7 AUX LARGE THERMO(298,298) LET ISOTOPE BONDS DUMP=30M ITRY=15000 T=14D THREADS=30 CHARGE=-1 SINGLET eps=78.4 RELSCF=1
 Title: ASE calculation

   ATOM   CHEMICAL          X               Y               Z
  NUMBER   SYMBOL      (ANGSTROMS)     (ANGSTROMS)     (ANGSTROMS)

     1       C          1.21233575  *  -0.85680773  *  -0.01093733  *
     2       D          2.65363208  *  -1.12661412  *   0.16311548  *
     3       N          0.67274179  *  -1.45561053  *   1.13722543  *
     4       O          0.47001213  *  -2.67993194  *   1.18427284  *
     5       O          0.47446561  *  -0.79120337  *   2.16673365  *
     6       C          6.52219507  *  -3.21163681  *   0.57192262  *
     7       O          5.78292685  *  -2.35223267  *   1.22434098  *
     8       O          6.11713391  *  -3.76179195  *  -0.44300843  *
     9       C          7.86949714  *  -3.47778905  *   1.15501005  *
    10       H          8.58469425  *  -3.80456043  *   0.38093076  *
    11       H          7.83099671  *  -4.28121570  *   1.91015549  *
    12       H          8.30116319  *  -2.59647343  *   1.65089890  *
    13       C          1.04218139  *   0.63978319  *  -0.06090280  *
    14       H          1.42481959  *   1.14221668  *   0.83678615  *
    15       H         -0.01740039  *   0.91909473  *  -0.15330031  *
    16       H          1.55837877  *   1.07507842  *  -0.92577637  *
    17       C          0.87737474  *  -1.56132732  *  -1.30091669  *
    18       H         -0.18918921  *  -1.46772024  *  -1.54943884  *
    19       H          1.11135124  *  -2.63307297  *  -1.26800987  *
    20       H          1.43721018  *  -1.13149065  *  -2.14310054  *
    21       H          4.82552932  *  -1.94243348  *   0.70241824  *
    22       O          3.84235511  *  -1.23481208  *   0.13143457  *
    23       H          4.16287938  *  -0.34945492  *   0.28465508  *


                                Isotopes Used

              Atom:    2  H  Default mass  1.0079,  mass used:  2.0140 amu


          CARTESIAN COORDINATES 

    NO.       ATOM           X           Y           Z

     1         C          1.2123     -0.8568     -0.0109
     2         H          2.6536     -1.1266      0.1631
     3         N          0.6727     -1.4556      1.1372
     4         O          0.4700     -2.6799      1.1843
     5         O          0.4745     -0.7912      2.1667
     6         C          6.5222     -3.2116      0.5719
     7         O          5.7829     -2.3522      1.2243
     8         O          6.1171     -3.7618     -0.4430
     9         C          7.8695     -3.4778      1.1550
    10         H          8.5847     -3.8046      0.3809
    11         H          7.8310     -4.2812      1.9102
    12         H          8.3012     -2.5965      1.6509
    13         C          1.0422      0.6398     -0.0609
    14         H          1.4248      1.1422      0.8368
    15         H         -0.0174      0.9191     -0.1533
    16         H          1.5584      1.0751     -0.9258
    17         C          0.8774     -1.5613     -1.3009
    18         H         -0.1892     -1.4677     -1.5494
    19         H          1.1114     -2.6331     -1.2680
    20         H          1.4372     -1.1315     -2.1431
    21         H          4.8255     -1.9424      0.7024
    22         O          3.8424     -1.2348      0.1314
    23         H          4.1629     -0.3495      0.2847

 General Reference for PM7:
 "Optimization of Parameters for Semiempirical Methods VI: More Modifications to the 
 NDDO Approximations and Re-optimization of Parameters", J. J. P. Stewart, J. Mol. Mod., 1:32, 19 (2013)
 https://link.springer.com/article/10.1007/s00894-012-1667-x

           Empirical Formula: C5 H12 N O5  =    23 atoms



      MOLECULAR POINT GROUP   :   C1  


 SINGLET STATE CALCULATION


      RHF CALCULATION, NO. OF DOUBLY OCCUPIED LEVELS = 34

  SCF CRITERION =    0.1000E-03


          HEAT OF FORMATION =    -297.664604 KCALS/MOLE


          CARTESIAN COORDINATE DERIVATIVES

   NUMBER  ATOM         X            Y            Z

     1       C      4.935415    -2.330548    -0.540257
     2       H    -23.821230     2.130846     0.121049
     3       N     -0.215130     2.497114    -0.469639
     4       O     -0.459069    -0.144443    -0.409037
     5       O     -1.966321    -0.905455     0.557151
     6       C      0.707029     0.517411    -0.076101
     7       O      5.215921     1.939165     2.817059
     8       O      2.088548     2.178970    -2.403723
     9       C      3.182104    -0.280002     0.634985
    10       H      0.666587    -0.601843     0.581974
    11       H      0.623160     0.071088     0.164138
    12       H      0.427336    -0.137781     0.712114
    13       C     -1.222706    -0.389103    -0.659897
    14       H     -1.054894    -0.181819    -0.276201
    15       H     -0.000614     0.387081     0.503373
    16       H     -1.386930    -0.028148    -0.466250
    17       C     -1.673412    -0.017519    -0.051405
    18       H     -0.109815     0.058848    -0.178121
    19       H     -0.413040    -0.358129    -0.217240
    20       H     -0.569883    -0.270467     0.413055
    21       H     -5.599495    -4.233941    -1.547271
    22       O     18.637552    -0.355002     1.034525
    23       H      2.012251     0.454659    -0.243733

 DIPOLE           X         Y         Z       TOTAL
 POINT-CHG.    -6.207    -7.863    -4.899    11.151
 HYBRID        -1.148     0.372    -0.199     1.223
 SUM           -7.355    -7.491    -5.098    11.670


          GRADIENT NORM =  33.09969



 ** GRADIENT IS VERY LARGE, BUT SINCE "LET" IS USED, CALCULATION WILL CONTINUE


                              **** WARNING ****

           GRADIENT IS VERY LARGE FOR A THERMO CALCULATION
           RESULTS ARE LIKELY TO BE INACCURATE IF THERE ARE
           ANY LOW-LYING VIBRATIONS (LESS THAN ABOUT 400CM-1)
           GRADIENT NORM SHOULD BE LESS THAN ABOUT 1.0 FOR THERMO
           TO GIVE ACCURATE RESULTS


          TIME FOR SCF CALCULATION =    0.20

          TIME FOR DERIVATIVES     =    0.02

          MOLECULAR WEIGHT =  167.16



          ROTATIONAL CONSTANTS IN CM(-1)

          A =    0.05963097   B =    0.01098542   C =    0.01076297



           PRINCIPAL MOMENTS OF INERTIA IN UNITS OF 10**(-40)*GRAM-CM**2

          A =      469.4331   B =     2548.1722   C =     2600.8398


          ORIENTATION OF MOLECULE IN FORCE CALCULATION

    NO.       ATOM         X         Y         Z

     1          C      -2.1694   -0.5654   -0.4058
     2          H      -0.6928   -0.5654   -0.4058
     3          N      -2.4514    0.8088   -0.4058
     4          O      -2.4200    1.4676    0.6465
     5          O      -2.6449    1.4176   -1.4700
     6          C       3.5124    0.0284    0.7960
     7          O       2.7107    0.3248   -0.1940
     8          O       3.0979   -0.5058    1.8156
     9          C       4.9448    0.3964    0.5990
    10          H       5.6113   -0.2520    1.1930
    11          H       5.1430    1.4332    0.9200
    12          H       5.2635    0.3226   -0.4507
    13          C      -2.6149   -1.2838   -1.6534
    14          H      -2.2274   -0.8235   -2.5714
    15          H      -3.7110   -1.2916   -1.7409
    16          H      -2.2925   -2.3327   -1.6510
    17          C      -2.5197   -1.2765    0.8765
    18          H      -3.6071   -1.3293    1.0274
    19          H      -2.0916   -0.7861    1.7600
    20          H      -2.1511   -2.3117    0.8680
    21          H       1.6398   -0.1336   -0.1908
    22          O       0.4835   -0.7702   -0.4172
    23          H       0.6527   -1.1191   -1.2888


    FIRST DERIVATIVES WILL BE USED IN THE CALCULATION OF SECOND DERIVATIVES

          ESTIMATED TIME TO COMPLETE CALCULATION =       30.19 SECONDS

    FOR POINT-GROUP C1   THERE ARE   1 UNIQUE SYMMETRY FUNCTIONS.

 STEP:   1 TIME =     0.04 SECS, INTEGRAL =      0.04 TIME LEFT:1209599.74
 STEP:   2 TIME =     0.04 SECS, INTEGRAL =      0.08 TIME LEFT:1209599.70
 STEP:   3 TIME =     0.06 SECS, INTEGRAL =      0.14 TIME LEFT:1209599.64
 STEP:   4 TIME =     0.15 SECS, INTEGRAL =      0.30 TIME LEFT:1209599.48
 STEP:   5 TIME =     0.20 SECS, INTEGRAL =      0.50 TIME LEFT:1209599.29
 STEP:   6 TIME =     0.18 SECS, INTEGRAL =      0.67 TIME LEFT:1209599.11
 STEP:   7 TIME =     0.13 SECS, INTEGRAL =      0.80 TIME LEFT:1209598.98
 STEP:   8 TIME =     0.20 SECS, INTEGRAL =      1.00 TIME LEFT:1209598.78
 STEP:   9 TIME =     0.24 SECS, INTEGRAL =      1.24 TIME LEFT:1209598.54
 STEP:  10 TIME =     0.11 SECS, INTEGRAL =      1.36 TIME LEFT:1209598.43
 STEP:  11 TIME =     0.12 SECS, INTEGRAL =      1.48 TIME LEFT:1209598.30
 STEP:  12 TIME =     0.07 SECS, INTEGRAL =      1.54 TIME LEFT:1209598.24
 STEP:  13 TIME =     0.14 SECS, INTEGRAL =      1.69 TIME LEFT:1209598.09
 STEP:  14 TIME =     0.05 SECS, INTEGRAL =      1.74 TIME LEFT:1209598.04
 STEP:  15 TIME =     0.08 SECS, INTEGRAL =      1.82 TIME LEFT:1209597.96
 STEP:  16 TIME =     0.13 SECS, INTEGRAL =      1.95 TIME LEFT:1209597.83
 STEP:  17 TIME =     0.16 SECS, INTEGRAL =      2.11 TIME LEFT:1209597.68
 STEP:  18 TIME =     0.07 SECS, INTEGRAL =      2.18 TIME LEFT:1209597.60
 STEP:  19 TIME =     0.09 SECS, INTEGRAL =      2.27 TIME LEFT:1209597.51
 STEP:  20 TIME =     0.16 SECS, INTEGRAL =      2.43 TIME LEFT:1209597.36
 STEP:  21 TIME =     0.05 SECS, INTEGRAL =      2.48 TIME LEFT:1209597.30
 STEP:  22 TIME =     0.05 SECS, INTEGRAL =      2.53 TIME LEFT:1209597.25
 STEP:  23 TIME =     0.09 SECS, INTEGRAL =      2.62 TIME LEFT:1209597.16
 STEP:  24 TIME =     0.05 SECS, INTEGRAL =      2.67 TIME LEFT:1209597.11
 STEP:  25 TIME =     0.04 SECS, INTEGRAL =      2.71 TIME LEFT:1209597.07
 STEP:  26 TIME =     0.04 SECS, INTEGRAL =      2.75 TIME LEFT:1209597.03
 STEP:  27 TIME =     0.04 SECS, INTEGRAL =      2.79 TIME LEFT:1209596.99
 STEP:  28 TIME =     0.04 SECS, INTEGRAL =      2.82 TIME LEFT:1209596.96
 STEP:  29 TIME =     0.03 SECS, INTEGRAL =      2.86 TIME LEFT:1209596.93
 STEP:  30 TIME =     0.04 SECS, INTEGRAL =      2.89 TIME LEFT:1209596.89
 STEP:  31 TIME =     0.03 SECS, INTEGRAL =      2.92 TIME LEFT:1209596.86
 STEP:  32 TIME =     0.04 SECS, INTEGRAL =      2.96 TIME LEFT:1209596.82
 STEP:  33 TIME =     0.04 SECS, INTEGRAL =      2.99 TIME LEFT:1209596.79
 STEP:  34 TIME =     0.03 SECS, INTEGRAL =      3.02 TIME LEFT:1209596.76
 STEP:  35 TIME =     0.04 SECS, INTEGRAL =      3.06 TIME LEFT:1209596.72
 STEP:  36 TIME =     0.04 SECS, INTEGRAL =      3.09 TIME LEFT:1209596.69
 STEP:  37 TIME =     0.03 SECS, INTEGRAL =      3.12 TIME LEFT:1209596.66
 STEP:  38 TIME =     0.04 SECS, INTEGRAL =      3.16 TIME LEFT:1209596.62
 STEP:  39 TIME =     0.03 SECS, INTEGRAL =      3.19 TIME LEFT:1209596.59
 STEP:  40 TIME =     0.04 SECS, INTEGRAL =      3.23 TIME LEFT:1209596.55
 STEP:  41 TIME =     0.04 SECS, INTEGRAL =      3.26 TIME LEFT:1209596.52
 STEP:  42 TIME =     0.04 SECS, INTEGRAL =      3.30 TIME LEFT:1209596.48
 STEP:  43 TIME =     0.04 SECS, INTEGRAL =      3.33 TIME LEFT:1209596.45
 STEP:  44 TIME =     0.04 SECS, INTEGRAL =      3.37 TIME LEFT:1209596.41
 STEP:  45 TIME =     0.04 SECS, INTEGRAL =      3.40 TIME LEFT:1209596.38
 STEP:  46 TIME =     0.04 SECS, INTEGRAL =      3.44 TIME LEFT:1209596.34
 STEP:  47 TIME =     0.04 SECS, INTEGRAL =      3.47 TIME LEFT:1209596.31
 STEP:  48 TIME =     0.04 SECS, INTEGRAL =      3.51 TIME LEFT:1209596.27
 STEP:  49 TIME =     0.04 SECS, INTEGRAL =      3.54 TIME LEFT:1209596.24
 STEP:  50 TIME =     0.04 SECS, INTEGRAL =      3.58 TIME LEFT:1209596.20
 STEP:  51 TIME =     0.04 SECS, INTEGRAL =      3.61 TIME LEFT:1209596.17
 STEP:  52 TIME =     0.04 SECS, INTEGRAL =      3.65 TIME LEFT:1209596.13
 STEP:  53 TIME =     0.04 SECS, INTEGRAL =      3.68 TIME LEFT:1209596.10
 STEP:  54 TIME =     0.04 SECS, INTEGRAL =      3.72 TIME LEFT:1209596.06
 STEP:  55 TIME =     0.04 SECS, INTEGRAL =      3.75 TIME LEFT:1209596.03
 STEP:  56 TIME =     0.04 SECS, INTEGRAL =      3.79 TIME LEFT:1209595.99
 STEP:  57 TIME =     0.04 SECS, INTEGRAL =      3.82 TIME LEFT:1209595.96
 STEP:  58 TIME =     0.03 SECS, INTEGRAL =      3.86 TIME LEFT:1209595.93
 STEP:  59 TIME =     0.04 SECS, INTEGRAL =      3.89 TIME LEFT:1209595.89
 STEP:  60 TIME =     0.04 SECS, INTEGRAL =      3.93 TIME LEFT:1209595.86
 STEP:  61 TIME =     0.04 SECS, INTEGRAL =      3.96 TIME LEFT:1209595.82
 STEP:  62 TIME =     0.04 SECS, INTEGRAL =      4.00 TIME LEFT:1209595.79
 STEP:  63 TIME =     0.04 SECS, INTEGRAL =      4.03 TIME LEFT:1209595.75
 STEP:  64 TIME =     0.04 SECS, INTEGRAL =      4.07 TIME LEFT:1209595.71
 STEP:  65 TIME =     0.04 SECS, INTEGRAL =      4.10 TIME LEFT:1209595.68
 STEP:  66 TIME =     0.04 SECS, INTEGRAL =      4.14 TIME LEFT:1209595.64
 STEP:  67 TIME =     0.04 SECS, INTEGRAL =      4.17 TIME LEFT:1209595.61
 STEP:  68 TIME =     0.04 SECS, INTEGRAL =      4.21 TIME LEFT:1209595.57
 STEP:  69 TIME =     0.04 SECS, INTEGRAL =      4.24 TIME LEFT:1209595.54

(To convert to Hartree/Bohr^2, multiply by (10^(-21) x N x a0^2)/(4.184 x 627.51) =  0.0642)


           FORCE MATRIX IN MILLIDYNES/ANGSTROM


                  C  1       H  2       N  3       O  4       O  5       C  6
 ------------------------------------------------------------------------------
     C    1  12.640794
     H    2   1.562500   1.698426
     N    3   4.008068   1.835140  18.168731
     O    4   1.616169   0.457229   8.314290  11.047427
     O    5   1.671755   0.440196   8.340539   2.513860  11.110931
     C    6   0.148761   0.250140   0.094929   0.030129   0.095023  17.478575
     O    7   0.270294   0.467520   0.189070   0.054572   0.146785   5.918227
     O    8   0.044241   0.073914   0.028973   0.009070   0.033695  10.394602
     C    9   0.026749   0.053427   0.017201   0.006410   0.016203   3.298714
     H   10   0.002643   0.003270   0.002447   0.001230   0.002007   0.783048
     H   11   0.003694   0.006818   0.003892   0.002031   0.002139   0.800166
     H   12   0.003183   0.006816   0.003084   0.001054   0.003429   0.767318
     C   13   3.351823   0.308637   0.855761   0.126854   0.161944   0.006327
     H   14   0.688122   0.125157   0.109444   0.037962   0.045236   0.067426
     H   15   0.724295   0.034263   0.060579   0.020027   0.023017   0.002735
     H   16   0.666149   0.031682   0.093853   0.019577   0.028892   0.003647
     C   17   3.343442   0.398417   0.870491   0.156759   0.131265   0.015485
     H   18   0.719349   0.033038   0.090697   0.044760   0.024969   0.001634
     H   19   0.684909   0.031846   0.135471   0.061680   0.035363   0.005209
     H   20   0.663354   0.033244   0.097776   0.021597   0.021889   0.004139
     H   21   0.555476   0.950697   0.376618   0.114392   0.197966   1.584742
     O   22   1.995745   1.028268   1.150822   0.338575   0.398438   0.547173
     H   23   0.176688   0.583998   0.156752   0.052467   0.220563   0.129217


                  O  7       O  8       C  9       H 10       H 11       H 12
 ------------------------------------------------------------------------------
     O    7  10.103801
     O    8   2.216761  12.724401
     C    9   1.223631   1.224654  11.172919
     H   10   0.070667   0.044969   3.296855   4.125878
     H   11   0.057800   0.062040   3.259688   0.442446   4.093869
     H   12   0.048115   0.063430   3.333862   0.446988   0.460024   4.158537
     C   13   0.008807   0.002788   0.002043   0.000503   0.000565   0.000676
     H   14   0.099663   0.023540   0.012382   0.001263   0.001638   0.002338
     H   15   0.003439   0.001469   0.000850   0.000313   0.000326   0.000179
     H   16   0.005512   0.001633   0.000934   0.000297   0.000299   0.000250
     C   17   0.012006   0.010813   0.002649   0.000668   0.000743   0.000804
     H   18   0.003792   0.001069   0.000703   0.000302   0.000305   0.000224
     H   19   0.006615   0.002725   0.001589   0.000297   0.000378   0.000371
     H   20   0.005589   0.002483   0.001092   0.000356   0.000373   0.000223
     H   21   2.007861   0.340420   0.245153   0.024951   0.033170   0.035131
     O   22   2.136425   0.155860   0.116680   0.009408   0.014506   0.016412
     H   23   0.211052   0.042561   0.024086   0.002926   0.003174   0.004128


                  C 13       H 14       H 15       H 16       C 17       H 18
 ------------------------------------------------------------------------------
     C   13  11.312244
     H   14   3.366109   4.197893
     H   15   3.345150   0.465939   4.164021
     H   16   3.373051   0.464571   0.468140   4.192497
     C   17   0.683749   0.042003   0.009577   0.013605  11.306415
     H   18   0.010732   0.002512   0.008124   0.004909   3.361929   4.162743
     H   19   0.040407   0.005497   0.001568   0.002311   3.377253   0.456890
     H   20   0.013259   0.004127   0.004567   0.019330   3.367272   0.464012
     H   21   0.012364   0.121847   0.006019   0.011759   0.016928   0.006914
     O   22   0.041974   0.231225   0.018836   0.033039   0.085398   0.018276
     H   23   0.036018   0.178905   0.004886   0.020792   0.006816   0.002613


                  H 19       H 20       H 21       O 22       H 23
 ------------------------------------------------------------------
     H   19   4.197171
     H   20   0.459429   4.185204
     H   21   0.011722   0.011350   2.125486
     O   22   0.018545   0.023113   0.763857   5.857969
     H   23   0.003384   0.004637   0.433740   4.023952   4.367658


          HEAT OF FORMATION =    -297.664604 KCALS/MOLE


          TRIVIAL VIBRATIONS, SHOULD BE ZERO

  35.6428=TX -34.4446=TY   3.3554=TZ  -3.5549=RX  13.1973=RY -14.1996=RZ


      MOLECULAR POINT GROUP   :   C1  


           EIGENVECTORS  


   Root No.       1         2         3         4         5         6         7         8

                 1 A       2 A       3 A       4 A       5 A       6 A       7 A       8 A   

                  -1.2      -0.1      -0.0      -0.0      -0.0       0.0       0.0       0.0
  
           1   -0.5543   -0.0321    0.0160   -0.0183   -0.0223   -0.0003    0.0129    0.0157
           2    0.0969   -0.0465    0.0031    0.0148   -0.0188   -0.0165   -0.0498   -0.0127
           3    0.0045   -0.0060   -0.0153    0.0082    0.0167   -0.0343    0.0344   -0.0207
           4    0.5807   -0.0309    0.0186   -0.0290   -0.0168    0.0196   -0.0057    0.0313
           5    0.0347    0.0150   -0.0551    0.0385   -0.0116   -0.0391   -0.0803   -0.1568
           6   -0.0208   -0.0108    0.0030    0.1374    0.0754   -0.0837    0.0845    0.0070
           7   -0.1124   -0.0044    0.0698   -0.0419   -0.0157    0.0194    0.0678    0.1867
           8   -0.1137   -0.0409    0.0141    0.0118   -0.0182   -0.0169   -0.0342    0.0209
           9    0.0189   -0.0700   -0.0532   -0.0221   -0.0272   -0.0311    0.0690    0.0016
          10    0.0566   -0.0949    0.0944   -0.3132   -0.0738    0.1390   -0.1711    0.2725
          11    0.0134   -0.0055    0.0429   -0.0280    0.0064    0.0016   -0.1225    0.0094
          12    0.0278   -0.0905   -0.0727    0.0122   -0.0400   -0.0461    0.1305    0.0054
          13    0.0600    0.1619    0.0776    0.2304    0.0552   -0.1030    0.3561    0.2379
          14    0.0634   -0.0797   -0.0118    0.0531   -0.0430   -0.0342    0.0550    0.0514
          15   -0.0055   -0.1230   -0.0701   -0.0460   -0.0537   -0.0208    0.0696    0.0077
          16    0.0259    0.0964    0.0049    0.0654    0.0705   -0.0203    0.0240    0.0678
          17   -0.0313   -0.0457   -0.0246   -0.0511   -0.0814   -0.0667    0.1129   -0.0853
          18    0.0414    0.0963   -0.0258   -0.0045   -0.0040    0.0101    0.0134    0.0286
          19   -0.0111    0.0716    0.0225   -0.0525   -0.0528   -0.0777    0.0717    0.0093
          20   -0.0643    0.0225   -0.1467    0.0969    0.1276    0.1546   -0.1900   -0.1701
          21   -0.0573    0.0817   -0.0768    0.1363    0.1525    0.1244   -0.1255    0.0402
          22   -0.0348    0.0576    0.0042    0.1887    0.2014    0.0527   -0.0375    0.1552
          23    0.0048   -0.0933    0.0089   -0.2107   -0.3407   -0.3392    0.4178   -0.1673
          24   -0.0018    0.0388   -0.0082   -0.0380   -0.0889   -0.1036    0.1463    0.0173
          25   -0.0186    0.0703   -0.0169    0.0402    0.0290   -0.0439    0.0292    0.0039
          26    0.0051   -0.0281    0.0802   -0.0067    0.0386    0.0463    0.0521    0.1419
          27   -0.0093    0.0640    0.0182   -0.1056   -0.0659    0.0425   -0.0396    0.0081
          28    0.0070    0.0968    0.0326    0.0995    0.1179   -0.0095    0.0178    0.1112
          29    0.0120   -0.0408   -0.1731    0.0484   -0.0058    0.1828    0.0699    0.3586
          30   -0.0077    0.0266   -0.3112   -0.1127   -0.2138    0.1505   -0.0052    0.1231
          31   -0.0010    0.0772   -0.0186    0.0223   -0.0137   -0.1602    0.0727   -0.1996
          32    0.0087   -0.0325   -0.0642    0.0189    0.0052    0.1076    0.0661    0.2315
          33   -0.0096    0.0850    0.4938   -0.1802    0.0693   -0.0866   -0.1077   -0.1492
          34   -0.0028    0.0458   -0.0756   -0.0232   -0.0492    0.0061    0.0155    0.0436
          35    0.0044    0.0074    0.5769   -0.0565    0.2160   -0.0565   -0.0291    0.0431
          36   -0.0082    0.0501   -0.0318   -0.1226   -0.1031    0.0641   -0.0383    0.0265
          37   -0.0513   -0.0869   -0.0258    0.1126    0.0344   -0.0444    0.0289   -0.1342
          38   -0.0073   -0.0940   -0.0167   -0.0113   -0.0257   -0.0205    0.0226    0.0584
          39   -0.0326    0.0401    0.0109   -0.0235   -0.0003   -0.0135   -0.0148   -0.0091
          40    0.0517   -0.2428   -0.1468   -0.0745    0.3797   -0.0067    0.1902   -0.2580
          41    0.0284   -0.0913    0.0265    0.1663   -0.2470   -0.0635   -0.0438    0.0968
          42    0.0230   -0.0200   -0.0184   -0.0133    0.0352   -0.0209    0.0217   -0.0399
          43   -0.0432   -0.0976   -0.0331    0.1095    0.0513   -0.0438    0.0353   -0.1484
          44   -0.0668   -0.1544   -0.1045   -0.3260    0.3110    0.0469    0.2104    0.0891
          45   -0.1284    0.1465    0.1043    0.0446   -0.2490   -0.0194   -0.1273    0.1315
          46    0.0279   -0.0353    0.0580    0.4122   -0.2938   -0.1072   -0.1527   -0.1620
          47    0.0211   -0.0755    0.0097    0.0800   -0.1259   -0.0399   -0.0329    0.0515
          48    0.0255    0.0292   -0.0320   -0.1250    0.1962    0.0076    0.0213   -0.1034
          49   -0.0272   -0.0088   -0.0129   -0.1401   -0.0832    0.0657   -0.1060   -0.0556
          50   -0.0095    0.0030    0.0572    0.0221    0.0029    0.0195   -0.0642   -0.0039
          51    0.0120    0.0261    0.0078   -0.0192    0.0106    0.0033   -0.0045   -0.0348
          52   -0.0227   -0.0053   -0.0121   -0.1501   -0.0928    0.0850   -0.1112   -0.0695
          53   -0.0566    0.0306    0.2098    0.1338   -0.0669    0.3999    0.2007   -0.1168
          54    0.1085    0.0631    0.0682   -0.0564   -0.0827    0.2777    0.0496   -0.1683
          55    0.0203    0.0260    0.0979   -0.1229   -0.1923    0.4523    0.0534   -0.2155
          56    0.0193    0.0186    0.0066   -0.0383    0.0619   -0.1783   -0.2329    0.0689
          57   -0.0264    0.0007   -0.0178    0.0061    0.0310   -0.0734    0.0124    0.0019
          58    0.0340   -0.0302   -0.1519   -0.2445   -0.0135   -0.2943   -0.3597    0.0542
          59    0.0223   -0.0053    0.0082   -0.0147    0.0268   -0.1066   -0.1530    0.0346
          60   -0.0389    0.0449   -0.0069   -0.0285    0.0822   -0.1525   -0.0972    0.0416
          61    0.3110    0.2341    0.0195   -0.0393   -0.0048   -0.0479    0.0801    0.0636
          62    0.1923    0.0564   -0.1335    0.0505    0.0626    0.0725   -0.1341   -0.2009
          63    0.0789    0.1410   -0.0338    0.1503    0.1370    0.0395   -0.0167    0.0865
          64   -0.2847   -0.0218    0.0044   -0.0214   -0.0106    0.0144    0.0026    0.0150
          65   -0.0545    0.1103   -0.1377    0.0257    0.0325    0.0015   -0.1015   -0.2276
          66   -0.0176   -0.2211    0.0248    0.1919    0.0716   -0.0351   -0.0011    0.0163
          67   -0.0110   -0.2466   -0.0268   -0.0100   -0.0040    0.1048   -0.1142   -0.0249
          68   -0.1230    0.5697   -0.1760   -0.0173    0.0936   -0.0551    0.0607   -0.1148
          69    0.0235   -0.3926    0.0430    0.2105    0.0508    0.0015   -0.0748   -0.0178


   Root No.       9        10        11        12        13        14        15        16

                 9 A      10 A      11 A      12 A      13 A      14 A      15 A      16 A   

                   0.0       0.0       0.1       0.1       0.1       0.2       0.2       0.3
  
           1   -0.0297    0.0277    0.0419   -0.0120   -0.0015    0.0268    0.0714   -0.0276
           2   -0.0421    0.0068   -0.0823   -0.0207   -0.0111    0.1816    0.0529   -0.0087
           3   -0.0703   -0.0638    0.0401   -0.0350   -0.0147   -0.0068    0.1521    0.0877
           4    0.0018    0.0023    0.0810   -0.0216    0.0860    0.0277    0.1540    0.0220
           5   -0.0657    0.0193   -0.1305    0.1402   -0.1134    0.2429   -0.0765    0.0055
           6    0.0062   -0.1309   -0.0186    0.0485   -0.3691   -0.1268    0.0479   -0.1507
           7    0.0347    0.0139    0.2354   -0.1085   -0.1206    0.0344   -0.0563    0.0151
           8   -0.0322    0.0064   -0.0493   -0.0234   -0.0345    0.1673    0.0197   -0.0074
           9   -0.0511   -0.0550    0.0475   -0.0362    0.0849    0.0348   -0.0687   -0.0438
          10    0.3307   -0.4486    0.3169   -0.1462   -0.2542    0.0912   -0.2140   -0.0390
          11    0.0121   -0.0894   -0.0638   -0.0197   -0.1554    0.1348    0.2924    0.1429
          12   -0.0881    0.0177    0.0572   -0.0422    0.1720    0.0565   -0.2448   -0.1403
          13   -0.2098    0.4771    0.3367   -0.1588   -0.2058    0.0503   -0.1072    0.1119
          14   -0.0692    0.1047   -0.0016   -0.0507    0.0776    0.2180   -0.2726   -0.1317
          15   -0.0306   -0.0829    0.0541   -0.0391    0.1701    0.0585   -0.2407   -0.1434
          16    0.0467   -0.0499   -0.1003    0.1643    0.0732   -0.0116    0.0042   -0.0334
          17    0.1364    0.0480    0.1405    0.0208    0.0138   -0.0464    0.0681   -0.1363
          18    0.1878    0.0568   -0.0893   -0.1352    0.0762    0.0703    0.0646   -0.0456
          19   -0.0638   -0.0861   -0.0685    0.2210    0.0401    0.0096   -0.0264    0.0837
          20    0.1162    0.1386    0.4196    0.0072    0.0207   -0.0691    0.1767   -0.2459
          21    0.2674    0.1131   -0.0502   -0.1860    0.1194    0.0589    0.0990   -0.1563
          22    0.1413   -0.0233   -0.1976    0.0796    0.1413    0.0153    0.0175   -0.1403
          23    0.2738    0.0135   -0.0134    0.0109    0.0123   -0.0126   -0.0268    0.0325
          24    0.2966    0.0490   -0.2125   -0.1704    0.1062    0.0987    0.0134    0.0005
          25    0.0519   -0.0406   -0.0514    0.1958    0.0762   -0.0278    0.0065   -0.0584
          26   -0.0264   -0.0184   -0.0203    0.0118    0.0166   -0.0078    0.0228   -0.0628
          27   -0.0732    0.0016    0.0120    0.0506    0.0269    0.0032    0.0209   -0.0282
          28    0.0846   -0.0487   -0.1739    0.1055    0.1016    0.0421   -0.0029    0.0283
          29   -0.1222   -0.0709   -0.1347    0.0050    0.0136    0.0278   -0.0080    0.0162
          30   -0.2134   -0.0463    0.0300    0.1528   -0.0044   -0.0458    0.0022   -0.0582
          31    0.2546    0.0356    0.0783    0.1668    0.1036   -0.0671    0.1079   -0.2666
          32   -0.0578   -0.0376   -0.0600    0.0026    0.0105    0.0074    0.0136   -0.0250
          33   -0.1035    0.0118    0.0544    0.1045    0.0256   -0.0238   -0.0177   -0.0110
          34   -0.1611   -0.0982    0.0028    0.3705    0.0365   -0.1137   -0.0526   -0.0716
          35   -0.0623   -0.0175   -0.0352    0.0243    0.0189   -0.0014   -0.0262    0.0113
          36   -0.1383   -0.0169    0.0281    0.1070    0.0156   -0.0251    0.0034   -0.0395
          37   -0.1075   -0.1235   -0.0105   -0.1434   -0.0376    0.0206    0.0458   -0.0220
          38   -0.0061    0.0102   -0.0503   -0.0186   -0.0186   -0.0357    0.1104    0.0223
          39   -0.0615   -0.0139    0.0429    0.0026    0.0035    0.1230    0.1112    0.0627
          40   -0.1574   -0.1801   -0.0510   -0.2092   -0.0329   -0.0175    0.0199    0.0182
          41    0.0096   -0.0511   -0.0351   -0.0707   -0.0213   -0.3059    0.2246    0.1300
          42   -0.0744   -0.0660    0.0345   -0.0450    0.0031   -0.0059    0.1567    0.1264
          43   -0.1140   -0.1371   -0.0158   -0.1581   -0.0388    0.0161    0.0375   -0.0218
          44    0.0207    0.1040   -0.0503    0.0586   -0.0448   -0.1435    0.2248    0.0380
          45   -0.0013    0.0996    0.0987    0.1115    0.0295    0.2074    0.1874    0.0665
          46   -0.1298   -0.2269   -0.0181   -0.2295   -0.0242    0.0692    0.0081   -0.0214
          47   -0.0116   -0.0209   -0.0545   -0.0431   -0.0176   -0.0366    0.1160    0.0289
          48   -0.1114   -0.0142    0.0115   -0.0039    0.0108    0.4555    0.0074    0.0011
          49   -0.0207    0.1733   -0.1115   -0.0661   -0.0858   -0.0096   -0.0048   -0.0287
          50   -0.0505   -0.0018   -0.0383   -0.0527    0.0747   -0.0073   -0.0546   -0.0465
          51   -0.0729   -0.0274    0.0212   -0.0613    0.0168   -0.1216    0.0581    0.0564
          52   -0.0204    0.1958   -0.1364   -0.0746   -0.1102   -0.0277   -0.0205   -0.0300
          53   -0.0191   -0.0973    0.0180   -0.0212    0.1682   -0.0581   -0.0948   -0.0897
          54   -0.0529    0.0681   -0.1070   -0.0981   -0.0706   -0.2452   -0.0355    0.0602
          55    0.0147    0.2123   -0.2049   -0.0719   -0.1591   -0.0587   -0.0725   -0.0472
          56   -0.0818    0.0511   -0.0333   -0.1158    0.1643   -0.2416   -0.2483   -0.1311
          57   -0.0737   -0.0741    0.0626   -0.0296    0.0041    0.0101    0.1863    0.1070
          58   -0.0575    0.2753   -0.1646   -0.1168   -0.1498   -0.0257   -0.0446   -0.0393
          59   -0.0640    0.0336   -0.0559   -0.0717    0.0641   -0.0208   -0.0796   -0.0571
          60   -0.1057   -0.0411    0.0972   -0.1071    0.1676   -0.3937   -0.0980   -0.0086
          61   -0.0311   -0.0669    0.0116    0.1493    0.0280   -0.0298    0.1199   -0.0661
          62    0.0803    0.0730    0.3289    0.1170   -0.0488   -0.0215   -0.0193    0.0734
          63    0.2890    0.0678   -0.1104   -0.1130   -0.0681   -0.0381   -0.0616    0.0725
          64    0.0050    0.0082    0.0850    0.0386    0.1022   -0.0224    0.0995    0.0148
          65   -0.0075   -0.0054    0.0479    0.1921   -0.0372    0.1232   -0.1615    0.0887
          66    0.1410    0.0187   -0.0791    0.2109   -0.2929   -0.1152   -0.1750    0.0873
          67    0.1368    0.1082    0.1149    0.0256    0.4319    0.0084   -0.0900    0.6195
          68    0.0695   -0.1989   -0.0459   -0.0823   -0.1526   -0.0948   -0.2539    0.3524
          69    0.1344    0.1282   -0.0250    0.3137   -0.2126   -0.0289   -0.1687    0.0972


   Root No.      17        18        19        20        21        22        23        24

                17 A      18 A      19 A      20 A      21 A      22 A      23 A      24 A   

                   0.3       0.4       0.6       0.6       0.8       0.8       0.9       0.9
  
           1   -0.0540   -0.1930    0.0662    0.0416    0.0186    0.0063    0.0097   -0.0177
           2   -0.1150    0.0609   -0.0214   -0.0366   -0.0006    0.0010   -0.0048    0.0126
           3    0.0603    0.0462   -0.0014    0.0060    0.0174    0.0055    0.0095    0.0040
           4   -0.1546   -0.2449    0.1965    0.1786   -0.1153   -0.0522   -0.0827   -0.0539
           5    0.3646   -0.1696    0.1862    0.4235   -0.0542   -0.0632   -0.0247   -0.0826
           6   -0.2397   -0.1737    0.0320   -0.0649   -0.3582   -0.1545   -0.2650   -0.1691
           7    0.0477   -0.0174   -0.0007   -0.0116    0.0042    0.0017    0.0036   -0.0172
           8   -0.0704    0.0981   -0.0696   -0.0764   -0.0018   -0.0075   -0.0156    0.0071
           9    0.0026   -0.0108    0.0088    0.0105    0.0585    0.0018    0.0135    0.0114
          10    0.1761    0.0721   -0.0146    0.0311   -0.0076   -0.0066    0.0202    0.0009
          11   -0.0010    0.1602   -0.0592   -0.0541    0.0603   -0.0213   -0.0427    0.0207
          12   -0.0518   -0.0564    0.0127    0.0052    0.0108    0.0111    0.0336    0.0041
          13    0.1875    0.1300   -0.0299    0.0165   -0.0089   -0.0058   -0.0286   -0.0090
          14   -0.1303    0.0775   -0.0767   -0.0834   -0.0988   -0.0030   -0.0147    0.0094
          15   -0.0559   -0.0522    0.0009   -0.0084    0.0019    0.0047    0.0241    0.0059
          16    0.0355    0.0338    0.0051   -0.0531    0.0127    0.0036    0.0066   -0.0060
          17   -0.0578    0.1104   -0.0752    0.1032    0.0042   -0.0004    0.0036   -0.0051
          18    0.0928   -0.1475   -0.1185   -0.0390   -0.0184   -0.0100   -0.0299   -0.0759
          19    0.0598   -0.1858   -0.1687   -0.0920    0.0021   -0.0054   -0.0140   -0.0564
          20   -0.0853    0.0219    0.0204   -0.1728    0.0074   -0.0063   -0.0123   -0.0875
          21    0.1028    0.0307    0.0716   -0.0654   -0.0585   -0.0236   -0.0558   -0.0879
          22    0.1282    0.2327    0.1374    0.0442   -0.1474   -0.0480   -0.1344   -0.1087
          23    0.0093    0.0584    0.2158   -0.1672    0.0139    0.0045    0.0112    0.0154
          24    0.1716   -0.0755    0.0951   -0.1322   -0.0877   -0.0318   -0.0886   -0.1076
          25    0.0354    0.0814    0.0089   -0.0706    0.0061    0.0053    0.0077    0.0188
          26   -0.0088    0.0611   -0.1127    0.1460   -0.0092   -0.0028   -0.0066   -0.0016
          27    0.0230   -0.0459   -0.1359   -0.0022    0.0050    0.0030    0.0030   -0.0053
          28    0.1380   -0.1479   -0.0748   -0.4023    0.0993    0.0633    0.1206    0.2606
          29    0.0556   -0.0534   -0.1298   -0.0715    0.0549    0.0474    0.0871    0.2646
          30   -0.0319    0.1213   -0.0511    0.1424   -0.0252   -0.0052   -0.0181    0.0161
          31   -0.0263    0.2194   -0.4495    0.3934    0.0200    0.0316    0.0543    0.1904
          32    0.0059    0.0011   -0.0617    0.0814   -0.0118   -0.0150   -0.0266   -0.0990
          33    0.0089    0.0604    0.0117   -0.1111    0.0201    0.0311    0.0505    0.2072
          34   -0.0514    0.3969    0.4777   -0.1096   -0.0060   -0.0102   -0.0135   -0.0747
          35    0.0021    0.0638    0.0357    0.1052   -0.0263   -0.0227   -0.0398   -0.1247
          36   -0.0016    0.0647    0.0104   -0.0145   -0.0033   -0.0020   -0.0060   -0.0285
          37   -0.0256   -0.0713    0.0587    0.0432    0.0009   -0.0633    0.0766    0.0258
          38   -0.0198    0.0189   -0.0119   -0.0264    0.0797   -0.0438   -0.0258   -0.0167
          39   -0.0109    0.0253    0.0076    0.0099   -0.0266    0.0321   -0.0333    0.0559
          40    0.0578    0.0517    0.0041    0.0139   -0.2401    0.0789    0.0474    0.3004
          41    0.1224    0.0511   -0.0287   -0.0204   -0.0575    0.2061   -0.3152    0.0943
          42    0.0848    0.0888   -0.0217    0.0014   -0.1967    0.2204   -0.1921    0.2350
          43   -0.0141   -0.0465    0.0418    0.0283    0.0226   -0.0423    0.0636    0.0030
          44   -0.0050   -0.1424    0.1090    0.0771    0.2331   -0.3031    0.2201   -0.0385
          45   -0.1117   -0.1835    0.1714    0.1447   -0.2269   -0.2047    0.2058    0.3609
          46   -0.0129    0.0577   -0.0018   -0.0241    0.2892   -0.2371    0.1620   -0.0660
          47   -0.0126    0.0525   -0.0259   -0.0431    0.1744   -0.0987   -0.0018   -0.0477
          48   -0.1754    0.1396   -0.0735   -0.0980    0.3135   -0.0445   -0.3243   -0.0985
          49   -0.0403   -0.0714    0.0540    0.0436    0.0488    0.0974   -0.0302   -0.0041
          50   -0.0721   -0.0114   -0.0114   -0.0235   -0.0623    0.0479    0.0468   -0.0105
          51    0.0852    0.0371   -0.0132   -0.0001    0.0140    0.0329    0.0523   -0.0510
          52   -0.0331   -0.0341    0.0209    0.0107    0.0165    0.0315    0.0037   -0.0214
          53   -0.0857   -0.1852    0.1075    0.0886   -0.0234    0.4286    0.1453   -0.1291
          54    0.1569    0.2281   -0.1836   -0.1536   -0.2094   -0.3361    0.3316   -0.1909
          55   -0.0292   -0.0005    0.0091    0.0012    0.1510   -0.0282   -0.3108    0.1908
          56   -0.0392   -0.0746   -0.0121   -0.0220   -0.1371   -0.3080   -0.0834    0.1943
          57    0.0679    0.0363    0.0085    0.0192    0.0073    0.2938    0.2660   -0.2658
          58   -0.0582    0.0315   -0.0100   -0.0331   -0.0676    0.3313    0.1652   -0.1407
          59   -0.0815    0.0153   -0.0296   -0.0467   -0.1079    0.1331    0.1237   -0.0595
          60    0.1787   -0.1358    0.0812    0.1291    0.3907    0.0123   -0.2502   -0.0044
          61   -0.1083   -0.2439   -0.2118   -0.0621    0.1087    0.0140    0.0376   -0.1695
          62    0.0470   -0.1299    0.1416   -0.2781    0.0469    0.0468    0.0462    0.1709
          63   -0.1977    0.1433    0.2791    0.2244    0.2270    0.0713    0.2126    0.1957
          64   -0.1060   -0.1403   -0.0311   -0.0748   -0.0941   -0.0608   -0.0858   -0.1226
          65    0.4389   -0.0911   -0.0300    0.0215   -0.0512   -0.0263   -0.0358   -0.0646
          66   -0.2082   -0.0696   -0.0902   -0.0000    0.0625    0.0576    0.0211    0.0098
          67   -0.1520    0.0899   -0.0875    0.0871   -0.1137   -0.1050   -0.0792   -0.1231
          68   -0.2613    0.0065   -0.0601    0.0757   -0.0327    0.0068   -0.0343   -0.0222
          69    0.0492   -0.0709   -0.1019   -0.0034    0.0824    0.0348    0.0397   -0.0210


   Root No.      25        26        27        28        29        30        31        32

                25 A      26 A      27 A      28 A      29 A      30 A      31 A      32 A   

                   0.9       0.9       1.1       1.1       1.2       1.3       1.4       1.5
  
           1    0.0021   -0.0144   -0.1292    0.0092    0.1486   -0.1129   -0.0259    0.0108
           2   -0.0106    0.0015    0.0997   -0.0521    0.0631   -0.0452   -0.0143    0.0010
           3   -0.0081   -0.0065   -0.0043    0.0003    0.0178   -0.0132    0.1070   -0.1150
           4    0.1783    0.0016   -0.0301    0.0002    0.0565   -0.0530   -0.0789   -0.0348
           5    0.2245   -0.2681   -0.0428   -0.0136    0.0648   -0.0073   -0.1442   -0.1401
           6    0.3758    0.1176    0.0835   -0.1790   -0.1409    0.0919    0.2097    0.0952
           7   -0.0064    0.0240   -0.0700    0.0151    0.0394   -0.0383    0.0357    0.0119
           8   -0.0238   -0.0224    0.1319   -0.0890    0.1123   -0.0711    0.0101    0.0182
           9   -0.0242   -0.0179   -0.0203    0.0064    0.0588   -0.0419    0.1654   -0.1969
          10    0.0008   -0.0370   -0.0018    0.0175   -0.0502    0.0464   -0.0449    0.0194
          11   -0.0282   -0.0234    0.2004   -0.1151    0.1839   -0.1292    0.1584   -0.2104
          12   -0.0160   -0.0116   -0.0518    0.0203    0.0142   -0.0083    0.0752   -0.0690
          13    0.0232   -0.0100    0.0076    0.0128   -0.0451    0.0332    0.0306   -0.0859
          14   -0.0025   -0.0181    0.2413   -0.1337    0.0761   -0.0403   -0.1872    0.2199
          15   -0.0192   -0.0154    0.0090   -0.0169    0.0595   -0.0395    0.0693   -0.0673
          16   -0.0322    0.0104   -0.0000    0.0345    0.0709   -0.0016    0.0758    0.0870
          17    0.0306   -0.1211    0.0424    0.0813   -0.0916   -0.1262    0.0384    0.0430
          18   -0.1204    0.0250   -0.0186   -0.0986   -0.0844   -0.0456   -0.0541   -0.0616
          19   -0.1106    0.0850   -0.0420   -0.0259    0.0647   -0.1069    0.1169    0.1337
          20   -0.0172   -0.3499    0.0785    0.0732    0.0606    0.1972   -0.0357   -0.0324
          21   -0.0407   -0.0772    0.0240   -0.0476   -0.0351    0.1224   -0.0823   -0.0868
          22   -0.0353    0.2601    0.1820    0.4343    0.0525   -0.0961    0.0015   -0.0072
          23    0.0449   -0.0704    0.0224    0.0623    0.0921    0.1012    0.0233    0.0275
          24   -0.1008    0.1530    0.0370    0.0347   -0.0006    0.0388   -0.0892   -0.1030
          25    0.0166   -0.0105   -0.0095   -0.0190    0.0472    0.0257    0.0536    0.0694
          26    0.0010    0.0094    0.0362    0.0824   -0.1723   -0.2696    0.0341    0.0293
          27   -0.0328   -0.0103   -0.0480   -0.1568   -0.1202   -0.1077   -0.0051    0.0031
          28    0.2747   -0.1822   -0.0577   -0.2574   -0.1041    0.0913   -0.0905   -0.0828
          29    0.3137    0.0170    0.0328    0.0794    0.0910    0.1886   -0.0768   -0.0939
          30    0.0082    0.1988   -0.0016    0.0964    0.3682    0.3556    0.0469    0.0588
          31    0.1427    0.1953   -0.0675   -0.1788   -0.0690    0.0455   -0.1024   -0.1140
          32   -0.1359   -0.0242   -0.0164   -0.0548   -0.2130   -0.3226    0.0638    0.0715
          33    0.3254   -0.0640    0.1687    0.4131   -0.0053   -0.1144    0.0445    0.0355
          34   -0.0844   -0.1172   -0.0353   -0.1877   -0.1779   -0.0107   -0.1239   -0.1421
          35   -0.2252    0.1554   -0.1449   -0.3264    0.2097    0.3624   -0.0470   -0.0416
          36   -0.0481   -0.0482   -0.0423   -0.1897   -0.2477   -0.1906   -0.0674   -0.0710
          37   -0.0125    0.0089   -0.0406    0.0105    0.0820   -0.0777   -0.1528    0.0536
          38    0.0043    0.0120    0.0319   -0.0221    0.0401   -0.0291   -0.0378    0.0663
          39   -0.0330   -0.0164   -0.0301    0.0147   -0.0113    0.0114    0.1267   -0.1192
          40   -0.2228   -0.0634    0.1543   -0.0327   -0.0529    0.0584   -0.0314    0.1278
          41   -0.0213   -0.0687   -0.3245    0.1091   -0.0108   -0.0010   -0.2259    0.2031
          42   -0.1407   -0.0944   -0.1320    0.0617   -0.0932    0.0870    0.1483   -0.0632
          43   -0.0028    0.0019   -0.0639    0.0081    0.1232   -0.1102   -0.1522    0.0345
          44   -0.0042    0.1291   -0.0486    0.1185   -0.2474    0.1653    0.0340   -0.0428
          45   -0.2284    0.0426    0.1607    0.0332   -0.1661    0.1074   -0.2105    0.1897
          46   -0.0173    0.1071    0.0021    0.0867   -0.2510    0.1865    0.1550   -0.0780
          47    0.0062    0.0436    0.0515   -0.0026   -0.0574    0.0490    0.0582    0.0351
          48    0.0932    0.0424   -0.3542    0.1523   -0.1076    0.0579   -0.2183    0.2033
          49    0.0059    0.0127   -0.0333    0.0137    0.0848   -0.0802   -0.0331   -0.1412
          50   -0.0064   -0.0005    0.0254   -0.0250    0.0501   -0.0373    0.0516   -0.0306
          51    0.0171    0.0025    0.0225   -0.0137    0.0345   -0.0277    0.0900   -0.1210
          52    0.0129    0.0012   -0.0563    0.0091    0.1291   -0.1140   -0.0892   -0.1154
          53    0.0412    0.0921   -0.0938    0.1024   -0.1984    0.1292    0.0038   -0.0084
          54    0.0784   -0.0621   -0.1327    0.0041    0.1042   -0.0639   -0.2076    0.2181
          55   -0.0763    0.0070    0.1998   -0.0752   -0.0652    0.0601    0.1851   -0.0384
          56   -0.0775   -0.0763   -0.3194    0.1065    0.0536   -0.0548    0.1430   -0.2446
          57    0.1004    0.0486    0.1003   -0.0463    0.1226   -0.1017   -0.0301   -0.1121
          58    0.0332    0.0856   -0.0088    0.0520   -0.2367    0.1777    0.0337    0.1307
          59    0.0030    0.0248    0.0394   -0.0144   -0.0584    0.0510    0.0850    0.0692
          60    0.0411    0.0283    0.4018   -0.1487    0.0216   -0.0042   -0.2010    0.2037
          61   -0.3242   -0.2905    0.0724    0.1717    0.1125    0.0663    0.0776    0.0630
          62   -0.0389    0.5608   -0.0897   -0.0655    0.0868   -0.2282   -0.0569   -0.0438
          63    0.0577   -0.1333   -0.2025   -0.1379    0.1860   -0.1259    0.3191    0.3626
          64    0.0828   -0.0263   -0.0553   -0.0503    0.1299   -0.0706    0.0911    0.1142
          65   -0.0378    0.0106   -0.0288   -0.0064   -0.0758    0.0766    0.2980    0.2771
          66   -0.1360   -0.0554    0.0237    0.1110    0.0354   -0.0161   -0.2115   -0.1513
          67    0.1518   -0.0493    0.0829   -0.0485   -0.0889    0.0811    0.0685   -0.0164
          68   -0.0401   -0.0132    0.0751    0.1056   -0.0588    0.0416   -0.1758   -0.1725
          69   -0.1489   -0.0461    0.0073    0.0872   -0.0104    0.0283   -0.0248   -0.0328


   Root No.      33        34        35        36        37        38        39        40

                33 A      34 A      35 A      36 A      37 A      38 A      39 A      40 A   

                   1.6       1.6       1.8       1.8       2.0       2.2       2.8       2.9
  
           1   -0.0058   -0.0016   -0.1126    0.0636    0.1765    0.0464   -0.0096    0.1085
           2   -0.0035    0.0070    0.0407   -0.0475   -0.0102    0.0137   -0.0107    0.0523
           3    0.0575   -0.0790    0.0176   -0.0080   -0.0224   -0.0103    0.2051    0.0103
           4   -0.0125    0.0234    0.0139    0.0416    0.0561    0.5137    0.0578   -0.0383
           5    0.0028   -0.0740   -0.3617    0.1108    0.0356   -0.2509   -0.0191   -0.0064
           6    0.0210    0.0662    0.0818   -0.0508   -0.0359   -0.2582   -0.0932    0.0531
           7    0.0206    0.0010    0.0052    0.1069    0.1241    0.1242   -0.1000    0.2040
           8    0.0046   -0.0019   -0.0575   -0.1171    0.0538   -0.0035   -0.0161    0.0387
           9    0.2665   -0.1210    0.0280   -0.0068   -0.0293    0.0337   -0.2182   -0.0574
          10   -0.0481   -0.0027   -0.0054    0.0077   -0.0528   -0.0836    0.0594   -0.0564
          11    0.3329   -0.0946    0.0026   -0.2856   -0.0048    0.1100   -0.2243   -0.0934
          12    0.0731   -0.0639    0.0185    0.0761   -0.0075   -0.0174   -0.1213    0.0259
          13    0.0696   -0.0202    0.0040    0.0007   -0.0644   -0.0276   -0.0286   -0.0862
          14   -0.3243    0.1216   -0.0687   -0.3007    0.0431   -0.0072    0.2429   -0.0141
          15    0.0795   -0.0558   -0.0045   -0.0700    0.0153    0.0462   -0.1086   -0.0382
          16   -0.0057    0.0028   -0.0738   -0.0029   -0.0928   -0.0478    0.0058   -0.2025
          17   -0.0031    0.0048   -0.0401    0.0019   -0.1228    0.0350   -0.0015    0.0328
          18    0.0047   -0.0097    0.0409   -0.0025    0.1802   -0.0831    0.0101   -0.1442
          19   -0.0103    0.0048   -0.0950    0.0010    0.0841   -0.0736    0.0229   -0.1246
          20   -0.0008   -0.0034   -0.0400    0.0065   -0.0941    0.0031   -0.0015    0.0491
          21    0.0055   -0.0014    0.0709   -0.0027    0.0923    0.0089    0.0167   -0.2566
          22    0.0004   -0.0112   -0.0912    0.0150   -0.2106    0.0597   -0.0239    0.3552
          23   -0.0011    0.0026   -0.0319    0.0003   -0.1170    0.0221   -0.0070    0.0431
          24    0.0077   -0.0133    0.0464    0.0038    0.1573   -0.0273    0.0020    0.0535
          25   -0.0065    0.0053   -0.1086    0.0046   -0.2141    0.0119    0.0112   -0.2839
          26   -0.0002    0.0015    0.0260   -0.0058    0.0824   -0.0323    0.0061   -0.1084
          27   -0.0041    0.0015   -0.1026    0.0133   -0.2495    0.0667   -0.0092    0.1128
          28    0.0015   -0.0013   -0.0796    0.0160   -0.3111    0.0944   -0.0129    0.0699
          29    0.0096   -0.0038    0.1619   -0.0102    0.3273   -0.0374    0.0012    0.1371
          30   -0.0054    0.0026   -0.0902    0.0040   -0.1958    0.0132    0.0012   -0.1397
          31    0.0088   -0.0050    0.0952   -0.0014    0.1484   -0.0018   -0.0015    0.0366
          32   -0.0053    0.0035   -0.0780    0.0015   -0.1333   -0.0109    0.0082   -0.2713
          33   -0.0007    0.0025    0.0523   -0.0096    0.1206   -0.0420    0.0085   -0.1513
          34    0.0127   -0.0080    0.1726   -0.0104    0.3417   -0.0585    0.0087   -0.0824
          35    0.0000    0.0004   -0.0140    0.0039   -0.0603    0.0231   -0.0038    0.0679
          36    0.0020   -0.0034   -0.0334    0.0136   -0.1523    0.0861   -0.0245    0.4334
          37    0.0194   -0.2634    0.1914   -0.1130   -0.0985   -0.0542    0.0910    0.0213
          38    0.2181    0.1050    0.0568    0.2354   -0.0021   -0.0289    0.1876    0.0585
          39   -0.1101   -0.0244   -0.0986   -0.1204    0.0633    0.0413    0.2152    0.1130
          40    0.1345    0.2503   -0.0651    0.2266    0.0243   -0.0320   -0.1164   -0.0597
          41   -0.0781   -0.1022    0.0941   -0.0438   -0.0538   -0.0567   -0.1817   -0.0807
          42   -0.2615    0.0859   -0.2700   -0.2035    0.1523    0.0633    0.0417    0.1238
          43    0.0132   -0.3436    0.2312   -0.1701   -0.1165   -0.0773    0.2406    0.0857
          44   -0.2517   -0.0768   -0.0182   -0.2077   -0.0342    0.0159   -0.0735   -0.0361
          45    0.0981    0.0131    0.1346    0.0637   -0.1103   -0.0494   -0.0592   -0.0614
          46   -0.1846    0.1442   -0.1706   -0.0680    0.0549    0.0487   -0.1481   -0.0509
          47    0.2140    0.2824   -0.0504    0.3645    0.0554   -0.0099    0.3163    0.1077
          48    0.0563    0.0356    0.0584    0.1202   -0.0332   -0.0323   -0.0693   -0.0487
          49   -0.0638    0.3104    0.1392   -0.0796   -0.0900   -0.0544   -0.0759   -0.0073
          50   -0.2363   -0.1040    0.0732    0.2287    0.0038    0.0251   -0.1931    0.0120
          51   -0.1194   -0.0312    0.0929    0.1145   -0.0733   -0.0596    0.2545   -0.0660
          52   -0.0751    0.3963    0.1456   -0.1138   -0.0832   -0.0642   -0.2826    0.0268
          53    0.2680    0.1043   -0.0291   -0.2042   -0.0409   -0.0303    0.0679   -0.0166
          54    0.1075   -0.0201   -0.1601   -0.0438    0.1291    0.0744   -0.0648    0.0459
          55   -0.1315   -0.2932    0.0295    0.1997   -0.0156   -0.0167    0.1361   -0.0421
          56    0.0443    0.1153    0.0944   -0.0259   -0.0843   -0.0769    0.2055   -0.0529
          57   -0.3089    0.1471    0.2141    0.2089   -0.1240   -0.0738    0.0704   -0.0965
          58    0.2490   -0.1622   -0.1364   -0.1096    0.0417    0.0051    0.1661   -0.0099
          59   -0.1865   -0.3333   -0.0089    0.3287    0.0635    0.0758   -0.3144    0.0291
          60    0.0631    0.0451   -0.0770   -0.1114    0.0464    0.0369   -0.0920    0.0340
          61    0.0020   -0.0178    0.0464   -0.0342    0.1503   -0.3293   -0.0517    0.2223
          62   -0.0038   -0.0425   -0.1952    0.0263    0.0859   -0.2237   -0.0158    0.0155
          63   -0.0226    0.0356   -0.0268   -0.0296    0.0430   -0.0780   -0.0095    0.1003
          64   -0.0135    0.0173   -0.1664    0.0502    0.1888    0.2800    0.0953   -0.1442
          65    0.0015    0.0886    0.4372   -0.0900    0.0359    0.2803    0.0057    0.0656
          66   -0.0135   -0.0162   -0.1087    0.0472    0.0170    0.1510    0.0341   -0.0745
          67    0.0257   -0.0256    0.0307   -0.0306   -0.0411   -0.2629   -0.0436    0.0580
          68   -0.0011   -0.0006    0.0070    0.0297   -0.0289    0.1646    0.0209   -0.0296
          69    0.0036    0.0043    0.1156   -0.0060    0.0167    0.1098    0.0104    0.0285


   Root No.      41        42        43        44        45        46        47        48

                41 A      42 A      43 A      44 A      45 A      46 A      47 A      48 A   

                   3.1       3.4       3.6       4.6       5.4       5.8       6.4       7.0
  
           1   -0.0382    0.0932   -0.0179    0.3725    0.3821    0.2821    0.0275    0.1810
           2   -0.1504   -0.1001    0.0073   -0.3264    0.2040    0.1021    0.0039    0.0785
           3   -0.0106   -0.0014    0.0015   -0.0178   -0.0233   -0.0159    0.4484   -0.0082
           4   -0.0211    0.0468    0.0055    0.0672    0.0991    0.0988    0.0089    0.1212
           5    0.0497    0.0572   -0.0012   -0.0486   -0.0745   -0.0627   -0.0016   -0.0622
           6   -0.0398    0.0259    0.0048    0.0300    0.0181    0.0155   -0.0255    0.0086
           7   -0.2835    0.6442    0.1064   -0.2612   -0.2716   -0.1550    0.0065   -0.0559
           8   -0.0504    0.0073    0.0080   -0.3609    0.1943    0.0590    0.0018   -0.0382
           9    0.0519   -0.0813   -0.0125    0.0303    0.0166    0.0103   -0.0766    0.0046
          10    0.0629   -0.2352   -0.0347    0.0255    0.0983    0.0505    0.0110    0.0145
          11    0.1749    0.1193   -0.0021    0.1780   -0.0694   -0.0231   -0.0935   -0.0081
          12   -0.1025   -0.1125    0.0012   -0.3538    0.1936    0.0717   -0.0478   -0.0023
          13    0.0886   -0.2152   -0.0320    0.0845    0.0444    0.0316   -0.0269    0.0234
          14    0.1422    0.1553   -0.0014    0.2107   -0.0603   -0.0209    0.0911   -0.0132
          15    0.1073    0.1358    0.0010    0.3301   -0.2017   -0.0800   -0.0478   -0.0073
          16   -0.1048    0.0335   -0.1430   -0.0424   -0.2359    0.3913   -0.0004   -0.0071
          17    0.0461   -0.0688    0.7313    0.0289   -0.0116    0.1182    0.0015   -0.1003
          18   -0.0184   -0.0386    0.3594   -0.0006   -0.0227   -0.0086   -0.0018    0.1193
          19    0.1250   -0.1177    0.0843   -0.1511   -0.2917   -0.0061   -0.0055    0.4641
          20    0.0527   -0.0173   -0.1685   -0.0702   -0.0903   -0.1640   -0.0041    0.3827
          21   -0.1460    0.0514   -0.0931    0.0068   -0.0896    0.3250    0.0032   -0.3031
          22    0.1434   -0.0285    0.0368    0.0025    0.0350   -0.0704   -0.0002    0.0133
          23   -0.0192    0.0346   -0.2385   -0.0035   -0.0361    0.1062    0.0008   -0.0799
          24    0.0555   -0.0223   -0.0718   -0.0125    0.0804   -0.2837   -0.0025    0.2110
          25   -0.1664    0.0438    0.0326   -0.0054   -0.1060    0.1771   -0.0013    0.1023
          26   -0.0532    0.0182   -0.0856    0.0022   -0.0123    0.0548    0.0005   -0.0576
          27    0.0247    0.0034   -0.0467   -0.0058   -0.0123   -0.0233   -0.0009    0.1058
          28   -0.0545    0.0384    0.1319    0.0729    0.2070   -0.2158    0.0015   -0.1115
          29    0.1381   -0.0580   -0.0256   -0.0559   -0.1510    0.1526   -0.0010    0.0844
          30   -0.1188    0.0428    0.0929    0.0532    0.1413   -0.1415    0.0010   -0.0811
          31    0.0011    0.0211   -0.1899    0.0064    0.0592   -0.1032   -0.0001    0.0042
          32   -0.2009    0.0895   -0.2512    0.0530    0.2003   -0.2963    0.0001    0.0174
          33   -0.0765    0.0247   -0.0422    0.0146    0.0536   -0.0800    0.0001    0.0026
          34   -0.0104   -0.0104    0.1227    0.0145    0.0720   -0.1281   -0.0002    0.0272
          35    0.0330   -0.0132    0.0485   -0.0002   -0.0054    0.0097    0.0001   -0.0010
          36    0.1983   -0.0354   -0.1771   -0.0475   -0.1711    0.2835    0.0004   -0.0818
          37   -0.0615   -0.0463    0.0015   -0.0052    0.0218    0.0284    0.1099    0.0637
          38   -0.0976   -0.0573   -0.0012    0.0130    0.0259    0.0241    0.1186    0.0370
          39   -0.2201   -0.1120    0.0019    0.0063    0.0234    0.0340    0.3117    0.0723
          40    0.1443    0.0733   -0.0037   -0.0211    0.0472    0.0165    0.0943   -0.0049
          41    0.1697    0.0912   -0.0024   -0.0390    0.0502    0.0183    0.1038    0.0006
          42   -0.2316   -0.1232   -0.0003    0.0706   -0.0673   -0.0321   -0.3424   -0.0236
          43   -0.2133   -0.1578    0.0047    0.0234   -0.2183   -0.1336   -0.2811   -0.1052
          44    0.0341   -0.0004    0.0008   -0.0243   -0.0255   -0.0171   -0.0275   -0.0096
          45    0.0698   -0.0005    0.0012   -0.0287   -0.0630   -0.0423   -0.0643   -0.0304
          46    0.0973    0.0602   -0.0005   -0.0367    0.0444    0.0200    0.0435    0.0056
          47   -0.1907   -0.1358   -0.0057    0.2074   -0.1592   -0.0717   -0.2067   -0.0351
          48    0.0952    0.0421   -0.0026    0.0458   -0.0204   -0.0108   -0.0340   -0.0113
          49   -0.0322   -0.0476    0.0003   -0.0069    0.0171    0.0263   -0.0812    0.0683
          50   -0.0665   -0.0771   -0.0032    0.0110    0.0261    0.0255   -0.1189    0.0414
          51    0.1797    0.1479    0.0039   -0.0121   -0.0382   -0.0390    0.3170   -0.0638
          52   -0.1686   -0.2103   -0.0032    0.0310   -0.2139   -0.1348    0.2649   -0.1130
          53    0.0194   -0.0045    0.0013   -0.0227   -0.0323   -0.0227    0.0354   -0.0166
          54   -0.0519    0.0079   -0.0016    0.0231    0.0769    0.0512   -0.0776    0.0374
          55    0.1223    0.1004    0.0011   -0.0205    0.0445    0.0216   -0.1094    0.0044
          56    0.1440    0.1162    0.0032   -0.0430    0.0488    0.0222   -0.1119    0.0049
          57    0.2059    0.1387    0.0024   -0.0598    0.0761    0.0383   -0.3321    0.0168
          58    0.0712    0.0886    0.0031   -0.0479    0.0529    0.0247   -0.0544    0.0081
          59   -0.1281   -0.1817   -0.0126    0.2108   -0.1538   -0.0720    0.2029   -0.0372
          60   -0.0853   -0.0480    0.0021   -0.0476    0.0199    0.0102   -0.0342    0.0089
          61    0.0265    0.0636   -0.0454    0.0992    0.1706   -0.0056    0.0074   -0.2778
          62    0.0040    0.0181    0.0055    0.0363    0.0539    0.0396    0.0031   -0.1487
          63    0.1105   -0.0317   -0.0133   -0.0167   -0.0016   -0.0829    0.0017    0.0664
          64    0.3162   -0.2698   -0.0648   -0.2239   -0.0701   -0.2222   -0.0128   -0.4358
          65   -0.0128   -0.0023   -0.0089    0.0403    0.0663   -0.0077    0.0032   -0.0468
          66    0.0551   -0.0280   -0.0063   -0.0551   -0.0852   -0.0642    0.0083   -0.0069
          67   -0.0445    0.0319    0.0039    0.0227    0.0120    0.0058   -0.0018    0.0099
          68   -0.0379    0.0097    0.0023    0.0030    0.0120    0.0260   -0.0017    0.0076
          69   -0.0525    0.0140   -0.0049    0.0473    0.0966    0.0645   -0.0045   -0.0340


   Root No.      49        50        51        52        53        54        55        56

                49 A      50 A      51 A      52 A      53 A      54 A      55 A      56 A   

                   8.4       8.6       8.7       8.8       9.0       9.0       9.2       9.4
  
           1   -0.0355    0.0016   -0.1185   -0.1874   -0.0030    0.0038   -0.0183   -0.0303
           2    0.0845   -0.0015    0.0373    0.0735    0.0024    0.0264    0.0015   -0.0010
           3   -0.0081    0.0002   -0.0023    0.0129   -0.0014    0.0118    0.0005    0.0009
           4   -0.0730    0.0028   -0.0541   -0.1047   -0.0001   -0.0027   -0.0217   -0.0114
           5   -0.0129    0.0005    0.0150    0.0324    0.0051    0.0050    0.0060    0.0036
           6   -0.0073    0.0001   -0.0130    0.0080   -0.0005   -0.0005   -0.0005    0.0002
           7    0.0174   -0.0002    0.0366    0.0558   -0.0108   -0.0101    0.0040    0.0207
           8   -0.1190    0.0024   -0.0984   -0.1840   -0.0585   -0.1174   -0.0092    0.0114
           9    0.0051   -0.0002    0.0005   -0.0041    0.0118    0.0002    0.0000   -0.0049
          10   -0.0042   -0.0000   -0.0085   -0.0193   -0.0009   -0.0027   -0.0010   -0.0067
          11   -0.0223    0.0006   -0.0142   -0.0349   -0.0060   -0.0534   -0.0027    0.0101
          12   -0.0811    0.0018   -0.0837   -0.1553   -0.0384   -0.1339   -0.0099    0.0087
          13    0.0325   -0.0008   -0.0012    0.0068    0.0151    0.0190    0.0006   -0.0085
          14   -0.0406    0.0009   -0.0111   -0.0191   -0.0295   -0.0296   -0.0021    0.0079
          15    0.0776   -0.0017    0.0842    0.1607    0.0850    0.1021    0.0104   -0.0001
          16   -0.0008   -0.0174   -0.0022   -0.0054   -0.0006    0.0006   -0.0061    0.0023
          17    0.0088   -0.1400    0.0006    0.0041    0.0005    0.0009    0.0312    0.0020
          18   -0.0198   -0.0476   -0.0046   -0.0099   -0.0015   -0.0009   -0.0722   -0.0047
          19   -0.0487    0.0004    0.0006    0.0026    0.0019    0.0010   -0.1641    0.0026
          20   -0.0485    0.0460   -0.0049   -0.0127    0.0001   -0.0010   -0.0824   -0.0033
          21    0.0579   -0.0219    0.0048    0.0126   -0.0005    0.0017    0.0362    0.0057
          22   -0.0034   -0.0145    0.0007    0.0011    0.0007    0.0002    0.0694    0.0023
          23    0.0112    0.0219    0.0017    0.0036    0.0002    0.0003    0.0489    0.0029
          24   -0.0292    0.0464   -0.0024   -0.0075   -0.0001   -0.0009   -0.0735   -0.0048
          25   -0.0580   -0.0670   -0.0125   -0.0282   -0.0018   -0.0040    0.1063   -0.0138
          26    0.0389    0.7401    0.0059    0.0033   -0.0014   -0.0006   -0.2674   -0.0050
          27   -0.0469    0.2797   -0.0076   -0.0246    0.0039   -0.0020    0.7464    0.0101
          28    0.0385    0.1235    0.0068    0.0147   -0.0005    0.0014   -0.2032    0.0010
          29   -0.0335   -0.1517   -0.0060   -0.0122    0.0007   -0.0010    0.2120   -0.0000
          30    0.0309    0.0932    0.0055    0.0123   -0.0007    0.0011   -0.2178   -0.0004
          31    0.0016   -0.0792    0.0006    0.0026    0.0000    0.0003   -0.0045    0.0011
          32   -0.0073   -0.4630   -0.0008    0.0055    0.0004    0.0011    0.0186    0.0024
          33    0.0024   -0.1439   -0.0007    0.0013   -0.0002    0.0005   -0.0276   -0.0000
          34   -0.0026    0.0654    0.0002   -0.0009    0.0008    0.0000    0.0964    0.0027
          35    0.0020   -0.0493   -0.0011   -0.0012   -0.0002    0.0002   -0.0138   -0.0008
          36    0.0189   -0.2145    0.0016    0.0085   -0.0026    0.0007   -0.3841   -0.0074
          37    0.1618   -0.0078    0.6693    0.0487   -0.0280   -0.3410    0.0155   -0.0532
          38    0.0605   -0.0009    0.1521    0.1442   -0.2919    0.5748    0.0153   -0.3731
          39    0.1825   -0.0031   -0.0794    0.2550    0.2089    0.1578    0.0081    0.4737
          40   -0.0144    0.0008   -0.1066    0.0384    0.0667    0.0195   -0.0013    0.1152
          41   -0.0010    0.0006   -0.0963    0.0377    0.0912   -0.0235   -0.0014    0.1502
          42   -0.0452   -0.0001    0.1878   -0.0983   -0.1640   -0.0240    0.0013   -0.2865
          43   -0.1300    0.0054   -0.4396   -0.0433    0.0093    0.1920   -0.0089    0.0094
          44    0.0004    0.0000   -0.0104   -0.0066    0.0136   -0.0278   -0.0004    0.0164
          45   -0.0230    0.0007   -0.0269   -0.0115   -0.0096    0.0030   -0.0003   -0.0230
          46   -0.0055    0.0005   -0.0409    0.0192   -0.0461    0.1285    0.0009   -0.0529
          47   -0.0145   -0.0008    0.0116   -0.0981    0.1656   -0.4035   -0.0065    0.1894
          48   -0.0190    0.0004   -0.0001   -0.0186   -0.0104   -0.0128   -0.0007   -0.0230
          49    0.1864   -0.0016   -0.2541    0.5644   -0.2935   -0.3046    0.0236   -0.1002
          50    0.1306   -0.0028   -0.0008    0.1992    0.6585    0.0621    0.0132   -0.3305
          51   -0.1534    0.0043   -0.2315   -0.1255    0.0336   -0.2902   -0.0080   -0.4583
          52   -0.1561    0.0017    0.1491   -0.3797    0.1617    0.1578   -0.0142    0.0281
          53   -0.0156    0.0004    0.0089   -0.0235   -0.0255    0.0027   -0.0009    0.0159
          54    0.0336   -0.0004   -0.0110    0.0531   -0.0204   -0.0037    0.0017    0.0198
          55   -0.0086   -0.0004    0.0821   -0.0791   -0.0311    0.0902   -0.0030    0.1240
          56   -0.0074   -0.0002    0.0791   -0.0645   -0.0847    0.0825   -0.0028    0.1519
          57    0.0149   -0.0013    0.1615   -0.0887   -0.0937    0.1723   -0.0029    0.2690
          58    0.0063   -0.0004    0.0293   -0.0276    0.1568    0.0467   -0.0003   -0.0463
          59   -0.0598    0.0017   -0.0558   -0.0223   -0.4378   -0.0980   -0.0034    0.1533
          60    0.0135   -0.0003    0.0159    0.0154   -0.0002    0.0174    0.0008    0.0241
          61    0.0505   -0.0073   -0.0057   -0.0047   -0.0000    0.0005    0.0672    0.0016
          62    0.0160   -0.0037   -0.0001    0.0040    0.0007    0.0005    0.0343    0.0015
          63   -0.0145    0.0093    0.0013    0.0057    0.0024    0.0006   -0.0148    0.0022
          64   -0.0430   -0.0028    0.0889    0.1746    0.0114    0.0057    0.0580    0.0204
          65    0.2294   -0.0071   -0.0539   -0.1229   -0.0202   -0.0038    0.0234   -0.0202
          66    0.5713   -0.0157   -0.1207   -0.2695   -0.0499   -0.0043    0.0315   -0.0462
          67    0.0885   -0.0026   -0.0205   -0.0484   -0.0084   -0.0022    0.0046   -0.0081
          68   -0.1999    0.0056    0.0417    0.0946    0.0167    0.0030   -0.0114    0.0150
          69   -0.5610    0.0146    0.1209    0.2679    0.0485    0.0039   -0.0246    0.0450


   Root No.      57        58        59        60        61        62        63

                57 A      58 A      59 A      60 A      61 A      62 A      63 A   

                   9.8      11.8      12.1      15.4      19.4      21.2      23.9
  
           1   -0.0201    0.0334    0.0942   -0.0034   -0.0645    0.0002    0.0012
           2   -0.0036    0.0136    0.7732    0.0015   -0.1462   -0.0025   -0.0018
           3    0.0009    0.7765   -0.0175    0.0006   -0.0040   -0.0175    0.0001
           4   -0.0248    0.0019   -0.0583   -0.0248    0.0935   -0.0013   -0.0055
           5    0.0088   -0.0022    0.0062    0.0082   -0.0141    0.0012    0.0010
           6   -0.0008   -0.0059   -0.0019    0.0006    0.0019    0.0039    0.0005
           7    0.0046    0.0019    0.0206    0.0019   -0.0839    0.0779   -0.0007
           8   -0.0044    0.0011   -0.2377    0.0000    0.6936    0.0179    0.0044
           9   -0.0000   -0.0525    0.0063    0.0008   -0.0039    0.7817   -0.0042
          10   -0.0015    0.0088    0.0016    0.0003   -0.0101   -0.0123    0.0001
          11   -0.0020   -0.0636   -0.1324   -0.0025   -0.2735   -0.2293   -0.0005
          12   -0.0077   -0.0259   -0.2797   -0.0066   -0.4004   -0.3671   -0.0007
          13   -0.0014   -0.0150    0.0587   -0.0046    0.0766   -0.0673   -0.0008
          14    0.0001    0.0569   -0.1186    0.0032   -0.2527    0.2126   -0.0012
          15    0.0084   -0.0141    0.2755    0.0075    0.4060   -0.3796    0.0055
          16   -0.3268    0.0001   -0.0082    0.6129    0.0035   -0.0019   -0.2643
          17   -0.0654   -0.0001    0.0009   -0.0430    0.0009   -0.0018   -0.3242
          18    0.0382    0.0002   -0.0050    0.3656   -0.0011    0.0021    0.6089
          19   -0.2748   -0.0001    0.0005   -0.4552   -0.0031    0.0015    0.0056
          20   -0.0037    0.0001   -0.0032    0.1013   -0.0017    0.0004    0.0241
          21   -0.1892    0.0000    0.0053   -0.4739   -0.0021    0.0012   -0.0411
          22   -0.0720    0.0001    0.0004   -0.0540   -0.0017    0.0016    0.2286
          23   -0.1070    0.0000    0.0004   -0.0632   -0.0013    0.0018    0.2927
          24    0.1963    0.0001   -0.0009    0.1142    0.0026   -0.0034   -0.5567
          25    0.7796    0.0001    0.0027   -0.0988   -0.0002    0.0003    0.0297
          26    0.1116    0.0001   -0.0002   -0.0079    0.0004   -0.0001    0.0117
          27   -0.1042    0.0000    0.0004   -0.0023   -0.0002    0.0000   -0.0205
          28   -0.1268    0.0001    0.0003   -0.0287   -0.0001    0.0003   -0.0004
          29    0.0944    0.0000    0.0001    0.0018    0.0002   -0.0002   -0.0037
          30   -0.0812   -0.0000   -0.0001   -0.0028   -0.0002   -0.0001    0.0058
          31   -0.0450    0.0001    0.0002   -0.0111   -0.0000    0.0004    0.0084
          32   -0.0943    0.0000    0.0002   -0.0178    0.0002   -0.0000    0.0092
          33   -0.0259    0.0000    0.0001   -0.0005   -0.0002   -0.0001    0.0037
          34   -0.0762    0.0001   -0.0001    0.0009   -0.0000    0.0004    0.0168
          35    0.0115    0.0001   -0.0000   -0.0027    0.0001   -0.0001    0.0027
          36    0.1475   -0.0000   -0.0001    0.0102   -0.0001   -0.0000   -0.0089
          37    0.0084   -0.1125   -0.1002   -0.0001    0.0271    0.0004   -0.0001
          38    0.0009   -0.1506   -0.1846   -0.0022   -0.0130   -0.0218   -0.0002
          39    0.0186   -0.3944   -0.1447    0.0018   -0.0045   -0.0060    0.0003
          40    0.0037   -0.0253    0.0053    0.0057    0.0001    0.0018    0.0015
          41    0.0042   -0.0344    0.0137    0.0046    0.0009   -0.0012    0.0013
          42   -0.0074    0.0368    0.0162   -0.0017   -0.0038   -0.0025   -0.0003
          43   -0.0042    0.0308    0.0283    0.0002   -0.0049   -0.0004    0.0000
          44    0.0001   -0.0036    0.0051   -0.0007    0.0014   -0.0011   -0.0002
          45   -0.0005    0.0073   -0.0047   -0.0001    0.0030   -0.0005   -0.0002
          46   -0.0008   -0.0057   -0.0137    0.0002   -0.0018   -0.0014    0.0000
          47    0.0003    0.0237    0.0242   -0.0006    0.0035    0.0035   -0.0002
          48   -0.0010    0.0105   -0.0217    0.0001    0.0013   -0.0016   -0.0001
          49    0.0107    0.0922   -0.1038    0.0012    0.0314    0.0026   -0.0008
          50    0.0044    0.1377   -0.1807   -0.0002   -0.0148    0.0171   -0.0002
          51   -0.0174   -0.3953    0.1633   -0.0007    0.0058   -0.0093   -0.0002
          52   -0.0059   -0.0352    0.0354   -0.0002   -0.0064   -0.0027    0.0000
          53   -0.0001    0.0023    0.0048    0.0000    0.0022    0.0027   -0.0001
          54    0.0006    0.0105    0.0034   -0.0002   -0.0029    0.0022   -0.0001
          55    0.0008    0.0252    0.0053    0.0001   -0.0020   -0.0030   -0.0001
          56    0.0017    0.0357    0.0127    0.0006    0.0001    0.0043    0.0001
          57    0.0043    0.0318   -0.0171   -0.0000    0.0042    0.0005   -0.0000
          58   -0.0006    0.0055   -0.0107   -0.0000   -0.0023    0.0016    0.0000
          59   -0.0006   -0.0182    0.0191   -0.0000    0.0039   -0.0023   -0.0002
          60    0.0007    0.0108    0.0216    0.0002   -0.0013   -0.0016   -0.0001
          61    0.0859    0.0012   -0.0027   -0.0489    0.0128   -0.0008   -0.0367
          62    0.0231    0.0005   -0.0011   -0.0099    0.0065   -0.0006   -0.0188
          63    0.0120    0.0002    0.0007   -0.0241    0.0014   -0.0007    0.0070
          64    0.0823   -0.0074    0.0496    0.0991   -0.0699    0.0009    0.0151
          65    0.0305    0.0025   -0.0074    0.0399    0.0095   -0.0002    0.0074
          66    0.0230    0.0090   -0.0092    0.0134    0.0019   -0.0011    0.0010
          67    0.0049   -0.0001   -0.0052    0.0073    0.0060    0.0011    0.0023
          68   -0.0106   -0.0016    0.0053   -0.0104   -0.0062   -0.0003   -0.0030
          69   -0.0152   -0.0056    0.0098   -0.0022   -0.0033   -0.0004    0.0003


          FORCE CONSTANTS IN MILLIDYNES/ANGSTROM (= 10**5 DYNES/CM)

  -1.18798  -0.05447  -0.00497  -0.00215  -0.00076   0.00382   0.00508   0.01304
   0.02657   0.03574   0.05065   0.06631   0.14691   0.19627   0.24271   0.30215
   0.32349   0.36133   0.59214   0.62237   0.80488   0.83742   0.85250   0.88003
   0.91774   0.93453   1.06213   1.10064   1.23807   1.27745   1.43230   1.47546
   1.56550   1.58716   1.75253   1.83094   2.01356   2.21722   2.82027   2.89774
   3.14018   3.44592   3.61694   4.60922   5.38453   5.79013   6.44942   6.95979
   8.43792   8.64831   8.72745   8.80735   9.00300   9.04510   9.22134   9.41050
   9.83734  11.76332  12.12402  15.35951  19.35573  21.17414  23.90427


           ASSOCIATED EIGENVECTORS




    ROOT NO.    1           2           3           4           5           6

            -1.18798    -0.05447    -0.00497    -0.00215    -0.00076     0.00382
  
         1  -0.55429    -0.03208     0.01598    -0.01825    -0.02229    -0.00032
         2   0.09689    -0.04655     0.00312     0.01477    -0.01883    -0.01646
         3   0.00452    -0.00598    -0.01535     0.00817     0.01675    -0.03432
         4   0.58073    -0.03090     0.01862    -0.02899    -0.01682     0.01963
         5   0.03474     0.01502    -0.05509     0.03845    -0.01157    -0.03905
         6  -0.02084    -0.01083     0.00303     0.13741     0.07537    -0.08372
         7  -0.11241    -0.00439     0.06985    -0.04192    -0.01568     0.01944
         8  -0.11369    -0.04092     0.01406     0.01175    -0.01824    -0.01694
         9   0.01894    -0.07001    -0.05316    -0.02208    -0.02715    -0.03112
        10   0.05660    -0.09486     0.09438    -0.31322    -0.07380     0.13897
        11   0.01336    -0.00547     0.04285    -0.02801     0.00642     0.00156
        12   0.02783    -0.09049    -0.07270     0.01217    -0.03997    -0.04606
        13   0.05996     0.16195     0.07756     0.23037     0.05517    -0.10300
        14   0.06341    -0.07967    -0.01177     0.05307    -0.04303    -0.03423
        15  -0.00551    -0.12300    -0.07005    -0.04596    -0.05369    -0.02079
        16   0.02589     0.09638     0.00493     0.06540     0.07046    -0.02033
        17  -0.03126    -0.04568    -0.02463    -0.05107    -0.08136    -0.06666
        18   0.04137     0.09631    -0.02584    -0.00450    -0.00397     0.01009
        19  -0.01109     0.07158     0.02254    -0.05246    -0.05281    -0.07767
        20  -0.06427     0.02253    -0.14670     0.09691     0.12756     0.15458
        21  -0.05728     0.08169    -0.07676     0.13628     0.15252     0.12437
        22  -0.03476     0.05757     0.00423     0.18871     0.20144     0.05273
        23   0.00481    -0.09329     0.00889    -0.21074    -0.34073    -0.33916
        24  -0.00183     0.03880    -0.00818    -0.03796    -0.08893    -0.10357
        25  -0.01856     0.07028    -0.01691     0.04016     0.02898    -0.04387
        26   0.00509    -0.02811     0.08017    -0.00672     0.03856     0.04626
        27  -0.00929     0.06400     0.01820    -0.10564    -0.06594     0.04247
        28   0.00695     0.09676     0.03257     0.09949     0.11789    -0.00945
        29   0.01204    -0.04085    -0.17308     0.04843    -0.00579     0.18283
        30  -0.00770     0.02658    -0.31116    -0.11271    -0.21377     0.15046
        31  -0.00104     0.07720    -0.01858     0.02233    -0.01373    -0.16024
        32   0.00866    -0.03255    -0.06420     0.01889     0.00519     0.10757
        33  -0.00960     0.08498     0.49383    -0.18018     0.06925    -0.08662
        34  -0.00283     0.04584    -0.07565    -0.02318    -0.04920     0.00606
        35   0.00444     0.00742     0.57691    -0.05650     0.21598    -0.05653
        36  -0.00824     0.05005    -0.03178    -0.12259    -0.10311     0.06406
        37  -0.05134    -0.08691    -0.02576     0.11256     0.03444    -0.04442
        38  -0.00731    -0.09403    -0.01669    -0.01125    -0.02570    -0.02051
        39  -0.03255     0.04012     0.01086    -0.02350    -0.00026    -0.01355
        40   0.05174    -0.24284    -0.14681    -0.07448     0.37972    -0.00665
        41   0.02842    -0.09130     0.02649     0.16633    -0.24696    -0.06354
        42   0.02300    -0.01998    -0.01844    -0.01335     0.03523    -0.02086
        43  -0.04317    -0.09761    -0.03307     0.10946     0.05133    -0.04377
        44  -0.06677    -0.15443    -0.10447    -0.32599     0.31104     0.04688
        45  -0.12839     0.14653     0.10435     0.04463    -0.24899    -0.01941
        46   0.02793    -0.03529     0.05796     0.41223    -0.29382    -0.10723
        47   0.02108    -0.07549     0.00966     0.08004    -0.12590    -0.03994
        48   0.02552     0.02917    -0.03202    -0.12501     0.19616     0.00758
        49  -0.02717    -0.00883    -0.01292    -0.14005    -0.08320     0.06574
        50  -0.00952     0.00304     0.05721     0.02206     0.00286     0.01948
        51   0.01200     0.02608     0.00776    -0.01917     0.01063     0.00330
        52  -0.02269    -0.00528    -0.01214    -0.15007    -0.09284     0.08505
        53  -0.05658     0.03062     0.20975     0.13382    -0.06691     0.39994
        54   0.10852     0.06312     0.06818    -0.05638    -0.08273     0.27771
        55   0.02027     0.02596     0.09792    -0.12295    -0.19229     0.45230
        56   0.01935     0.01858     0.00662    -0.03833     0.06194    -0.17830
        57  -0.02637     0.00068    -0.01783     0.00614     0.03099    -0.07343
        58   0.03398    -0.03023    -0.15190    -0.24450    -0.01346    -0.29429
        59   0.02227    -0.00529     0.00816    -0.01473     0.02681    -0.10663
        60  -0.03889     0.04491    -0.00689    -0.02855     0.08218    -0.15254
        61   0.31098     0.23406     0.01950    -0.03930    -0.00483    -0.04789
        62   0.19235     0.05640    -0.13350     0.05049     0.06255     0.07253
        63   0.07886     0.14103    -0.03380     0.15032     0.13701     0.03950
        64  -0.28472    -0.02177     0.00445    -0.02138    -0.01064     0.01439
        65  -0.05445     0.11026    -0.13773     0.02565     0.03250     0.00145
        66  -0.01756    -0.22114     0.02476     0.19193     0.07164    -0.03510
        67  -0.01096    -0.24659    -0.02676    -0.00997    -0.00401     0.10483
        68  -0.12304     0.56975    -0.17603    -0.01733     0.09360    -0.05514
        69   0.02351    -0.39263     0.04301     0.21052     0.05077     0.00154




    ROOT NO.    7           8           9          10          11          12

             0.00508     0.01304     0.02657     0.03574     0.05065     0.06631
  
         1   0.01291     0.01566    -0.02965     0.02772     0.04186    -0.01198
         2  -0.04982    -0.01269    -0.04208     0.00676    -0.08232    -0.02072
         3   0.03440    -0.02069    -0.07032    -0.06376     0.04013    -0.03499
         4  -0.00573     0.03127     0.00181     0.00231     0.08103    -0.02158
         5  -0.08026    -0.15682    -0.06568     0.01926    -0.13050     0.14024
         6   0.08450     0.00695     0.00623    -0.13094    -0.01858     0.04854
         7   0.06780     0.18672     0.03469     0.01391     0.23542    -0.10853
         8  -0.03424     0.02091    -0.03220     0.00644    -0.04925    -0.02339
         9   0.06900     0.00156    -0.05111    -0.05497     0.04746    -0.03624
        10  -0.17114     0.27253     0.33068    -0.44859     0.31688    -0.14621
[...]
 EFFECTIVE MASS      5.7381
 FORCE CONSTANT      0.2312

 VIBRATION         29   29A           ATOM PAIR      ENERGY CONTRIBUTION    RADIAL
 FREQUENCY          1003.81         C 17 -- H 19         +13.7% ( 54.9%)     14.3%
 TRANSITION DIPOLE   1.4121         C  6 -- C  9          +9.7% ( 46.2%)     95.1%
 TRAVEL (Ang.)       0.3956         O  7 -- H 21          +8.0% ( 42.0%)      0.4%
 REDUCED MASS        0.4292         C 17 -- H 20          +7.4% ( 40.3%)      5.9%
 EFFECTIVE MASS      6.0224
 FORCE CONSTANT      0.2548

 VIBRATION         30   30A           ATOM PAIR      ENERGY CONTRIBUTION    RADIAL
 FREQUENCY          1013.80         C 17 -- H 20         +27.4% ( 71.0%)     13.4%
 TRANSITION DIPOLE   0.4204         C 17 -- H 18         +19.4% ( 59.8%)     11.3%
 TRAVEL (Ang.)       0.3914         C 17 -- H 19         +11.0% ( 45.0%)      1.6%
 REDUCED MASS        0.4343         C 13 -- H 15         +10.6% ( 44.2%)     11.1%
 EFFECTIVE MASS      3.8755
 FORCE CONSTANT      0.2630

 VIBRATION         31   31A           ATOM PAIR      ENERGY CONTRIBUTION    RADIAL
 FREQUENCY          1017.39         C 13 -- H 16         +19.2% ( 62.1%)      9.5%
 TRANSITION DIPOLE   0.9475         C 13 -- H 15         +10.8% ( 46.7%)     12.6%
 TRAVEL (Ang.)       0.4195         C 17 -- H 19         +10.8% ( 46.6%)     27.4%
 REDUCED MASS        0.3766         C 13 -- H 14          +9.3% ( 43.2%)      9.5%
 EFFECTIVE MASS      5.5383
 FORCE CONSTANT      0.2297

 VIBRATION         32   32A           ATOM PAIR      ENERGY CONTRIBUTION    RADIAL
 FREQUENCY          1024.05         C  9 -- H 10         +30.5% ( 72.0%)     12.7%
 TRANSITION DIPOLE   1.0587         C  9 -- H 11         +26.6% ( 67.2%)     17.2%
 TRAVEL (Ang.)       0.2741         C  9 -- H 12         +16.0% ( 52.2%)      1.2%
 REDUCED MASS        0.8766         C  6 -- C  9         +15.7% ( 51.6%)      4.6%
 EFFECTIVE MASS      4.7392
 FORCE CONSTANT      0.5416

 VIBRATION         33   33A           ATOM PAIR      ENERGY CONTRIBUTION    RADIAL
 FREQUENCY          1025.78         C  9 -- H 12         +30.2% ( 73.8%)     27.3%
 TRANSITION DIPOLE   1.2548         C  9 -- H 10         +18.2% ( 57.2%)      1.8%
 TRAVEL (Ang.)       0.2925         C  9 -- H 11         +17.4% ( 56.0%)      4.6%
 REDUCED MASS        0.7682         C  6 -- C  9         +13.7% ( 49.7%)     12.4%
 EFFECTIVE MASS      5.1432
 FORCE CONSTANT      0.4762

 VIBRATION         34   34A           ATOM PAIR      ENERGY CONTRIBUTION    RADIAL
 FREQUENCY          1065.67         O  7 -- H 21         +19.8% ( 60.0%)     21.2%
 TRANSITION DIPOLE   1.3435         C  6 -- C  9         +12.0% ( 46.7%)     90.7%
 TRAVEL (Ang.)       0.2534         H 21 -- O 22         +11.4% ( 45.6%)     15.9%
 REDUCED MASS        0.9851         C  6 -- O  7         +10.0% ( 42.7%)     94.3%
 EFFECTIVE MASS      7.9973
 FORCE CONSTANT      0.6591

 VIBRATION         35   35A           ATOM PAIR      ENERGY CONTRIBUTION    RADIAL
 FREQUENCY          1134.98         O 22 -- H 23         +23.6% ( 55.0%)      0.2%
 TRANSITION DIPOLE   1.4905         O  7 -- H 21         +16.9% ( 46.5%)     20.0%
 TRAVEL (Ang.)       0.4663         H 21 -- O 22         +16.6% ( 46.0%)      0.7%
 REDUCED MASS        0.2732         C 13 -- H 15          +8.2% ( 32.4%)      6.0%
 EFFECTIVE MASS      2.5684
 FORCE CONSTANT      0.2073

 VIBRATION         36   36A           ATOM PAIR      ENERGY CONTRIBUTION    RADIAL
 FREQUENCY          1157.04         O  7 -- H 21         +13.9% ( 46.9%)      7.2%
 TRANSITION DIPOLE   4.0406         H 21 -- O 22         +11.9% ( 43.4%)      6.6%
 TRAVEL (Ang.)       0.3160         C  1 -- H  2         +11.1% ( 41.9%)     44.6%
 REDUCED MASS        0.5834         C  1 -- C 13          +6.7% ( 32.6%)     12.3%
 EFFECTIVE MASS      5.7073
 FORCE CONSTANT      0.4602

 VIBRATION         37   37A           ATOM PAIR      ENERGY CONTRIBUTION    RADIAL
 FREQUENCY          1208.37         C  9 -- H 11         +46.7% ( 59.0%)      0.3%
 TRANSITION DIPOLE   0.8216         C  9 -- H 10         +33.6% ( 50.1%)      3.7%
 TRAVEL (Ang.)       0.3755         C  9 -- H 12         +14.5% ( 32.9%)     22.4%
 REDUCED MASS        0.3957         C  6 -- C  9          +4.6% ( 18.4%)      0.7%
 EFFECTIVE MASS      1.4954
 FORCE CONSTANT      0.3404

 VIBRATION         38   38A           ATOM PAIR      ENERGY CONTRIBUTION    RADIAL
 FREQUENCY          1235.95         O  7 -- H 21         +26.8% ( 62.7%)      4.4%
 TRANSITION DIPOLE   1.3723         H 21 -- O 22         +21.5% ( 56.1%)      0.0%
 TRAVEL (Ang.)       0.4379         C  1 -- H  2          +6.3% ( 30.3%)      0.9%
 REDUCED MASS        0.2845         C  1 -- C 17          +4.3% ( 25.1%)     49.4%
 EFFECTIVE MASS      3.7613
 FORCE CONSTANT      0.2560

 VIBRATION         39   39A           ATOM PAIR      ENERGY CONTRIBUTION    RADIAL
 FREQUENCY          1240.07         C  9 -- H 12         +30.5% ( 52.5%)      0.0%
 TRANSITION DIPOLE   1.0160         C  9 -- H 10         +16.2% ( 38.3%)      3.7%
 TRAVEL (Ang.)       0.4598         C  9 -- H 11         +15.2% ( 37.0%)     12.3%
 REDUCED MASS        0.2572         O  7 -- H 21         +12.4% ( 33.5%)      5.5%
 EFFECTIVE MASS      1.8360         H 21 -- O 22         +10.3% ( 30.5%)      0.2%
 FORCE CONSTANT      0.2330

 VIBRATION         40   40A           ATOM PAIR      ENERGY CONTRIBUTION    RADIAL
 FREQUENCY          1262.46         C 17 -- H 18         +39.5% ( 59.6%)      0.1%
 TRANSITION DIPOLE   0.8153         C 17 -- H 19         +21.2% ( 43.6%)      7.2%
 TRAVEL (Ang.)       0.3866         C 17 -- H 20         +12.2% ( 33.2%)     19.5%
 REDUCED MASS        0.3573         C  1 -- C 17          +7.2% ( 25.5%)      1.8%
 EFFECTIVE MASS      2.2897
 FORCE CONSTANT      0.3355

 VIBRATION         41   41A           ATOM PAIR      ENERGY CONTRIBUTION    RADIAL
 FREQUENCY          1270.79         C 17 -- H 20         +30.0% ( 50.3%)      0.8%
 TRANSITION DIPOLE   0.5624         C 17 -- H 19         +24.6% ( 45.5%)      3.6%
 TRAVEL (Ang.)       0.4562         C 17 -- H 18         +10.2% ( 29.3%)     22.7%
 REDUCED MASS        0.2550         C 13 -- H 14          +7.8% ( 25.6%)      3.3%
 EFFECTIVE MASS      1.9194
 FORCE CONSTANT      0.2426

 VIBRATION         42   42A           ATOM PAIR      ENERGY CONTRIBUTION    RADIAL
 FREQUENCY          1276.90         C 13 -- H 15         +23.6% ( 55.6%)      0.0%
 TRANSITION DIPOLE   0.8096         C  1 -- C 17         +13.7% ( 42.3%)     95.8%
 TRAVEL (Ang.)       0.3254         C  1 -- C 13         +11.9% ( 39.5%)      1.3%
 REDUCED MASS        0.4987         C 13 -- H 16         +10.2% ( 36.6%)     11.5%
 EFFECTIVE MASS      4.1198
 FORCE CONSTANT      0.4791

 VIBRATION         43   43A           ATOM PAIR      ENERGY CONTRIBUTION    RADIAL
 FREQUENCY          1280.61         C 13 -- H 14         +34.2% ( 49.2%)      0.4%
 TRANSITION DIPOLE   0.6575         C 13 -- H 16         +26.5% ( 43.3%)      2.0%
 TRAVEL (Ang.)       0.4717         C 13 -- H 15         +14.3% ( 31.8%)     14.0%
 REDUCED MASS        0.2366         C 17 -- H 19          +7.4% ( 22.8%)      0.4%
 EFFECTIVE MASS      1.3654
 FORCE CONSTANT      0.2286

 VIBRATION         44   44A           ATOM PAIR      ENERGY CONTRIBUTION    RADIAL
 FREQUENCY          1292.33         C  1 -- C 13         +23.3% ( 76.6%)     93.6%
 TRANSITION DIPOLE   0.6682         C  1 -- C 17         +20.1% ( 71.3%)     74.8%
 TRAVEL (Ang.)       0.1289         C  1 -- H  2         +13.5% ( 58.4%)      0.2%
 REDUCED MASS        3.1401         C  1 -- N  3         +13.5% ( 58.4%)      1.8%
 EFFECTIVE MASS      9.4948
 FORCE CONSTANT      3.0898

 VIBRATION         45   45A           ATOM PAIR      ENERGY CONTRIBUTION    RADIAL
 FREQUENCY          1310.69         C  1 -- C 17         +17.6% ( 59.0%)     45.4%
 TRANSITION DIPOLE   1.1600         C  1 -- C 13         +16.1% ( 56.3%)     37.8%
 TRAVEL (Ang.)       0.1606         C  1 -- H  2         +14.5% ( 53.5%)      3.2%
 REDUCED MASS        1.9951         C  1 -- N  3         +12.9% ( 50.4%)     92.2%
 EFFECTIVE MASS      8.8484
 FORCE CONSTANT      2.0194

 VIBRATION         46   46A           ATOM PAIR      ENERGY CONTRIBUTION    RADIAL
 FREQUENCY          1327.95         C  9 -- H 10         +30.2% ( 60.7%)      2.4%
 TRANSITION DIPOLE   1.3715         C  9 -- H 12         +30.0% ( 60.4%)      2.0%
 TRAVEL (Ang.)       0.2801         C  9 -- H 11         +19.2% ( 48.4%)      1.7%
 REDUCED MASS        0.6472         C  6 -- C  9         +12.6% ( 39.3%)     97.9%
 EFFECTIVE MASS      3.1906
 FORCE CONSTANT      0.6725

 VIBRATION         47   47A           ATOM PAIR      ENERGY CONTRIBUTION    RADIAL
 FREQUENCY          1382.58         C 17 -- H 19         +24.8% ( 49.4%)      0.3%
 TRANSITION DIPOLE   0.7850         C 17 -- H 18         +20.8% ( 45.2%)      0.5%
 TRAVEL (Ang.)       0.3679         C 17 -- H 20         +19.6% ( 43.9%)      1.0%
 REDUCED MASS        0.3604         C  1 -- C 13          +7.3% ( 26.7%)     35.4%
 EFFECTIVE MASS      2.2662
 FORCE CONSTANT      0.4059

 VIBRATION         48   48A           ATOM PAIR      ENERGY CONTRIBUTION    RADIAL
 FREQUENCY          1384.22         C 13 -- H 15         +21.5% ( 46.7%)      0.5%
 TRANSITION DIPOLE   0.5286         C 13 -- H 16         +21.1% ( 46.1%)      0.8%
 TRAVEL (Ang.)       0.4416         C 13 -- H 14         +19.6% ( 44.5%)      1.3%
 REDUCED MASS        0.2498         C  1 -- C 17          +4.5% ( 21.4%)     28.5%
 EFFECTIVE MASS      2.4171
 FORCE CONSTANT      0.2820

 VIBRATION         49   49A           ATOM PAIR      ENERGY CONTRIBUTION    RADIAL
 FREQUENCY          1426.87         C  6 -- O  7         +35.9% ( 79.8%)     86.4%
 TRANSITION DIPOLE   3.4986         C  6 -- C  9         +19.5% ( 58.8%)     59.9%
 TRAVEL (Ang.)       0.1158         C  6 -- O  8         +18.4% ( 57.0%)      0.3%
 REDUCED MASS        3.5213         O  7 -- H 21          +9.3% ( 40.7%)     95.7%
 EFFECTIVE MASS     10.2785
 FORCE CONSTANT      4.2240

 VIBRATION         50   50A           ATOM PAIR      ENERGY CONTRIBUTION    RADIAL
 FREQUENCY          1560.04         N  3 -- O  4         +28.7% ( 73.0%)     75.9%
 TRANSITION DIPOLE   6.3911         C  1 -- N  3         +21.9% ( 63.8%)     95.5%
 TRAVEL (Ang.)       0.1046         N  3 -- O  5         +19.2% ( 59.7%)     28.9%
 REDUCED MASS        3.9497         O  4 -- O  5          +6.8% ( 35.5%)     97.2%
 EFFECTIVE MASS     12.2661
 FORCE CONSTANT      5.6635

 VIBRATION         51   51A           ATOM PAIR      ENERGY CONTRIBUTION    RADIAL
 FREQUENCY          1565.37         N  3 -- O  5         +39.7% ( 89.6%)     94.9%
 TRANSITION DIPOLE   9.9266         N  3 -- O  4         +30.9% ( 79.1%)     75.2%
 TRAVEL (Ang.)       0.0797         C  1 -- N  3         +21.5% ( 66.0%)      5.8%
 REDUCED MASS        6.7836         O  4 -- O  5          +6.6% ( 36.4%)      7.9%
 EFFECTIVE MASS     14.4645
 FORCE CONSTANT      9.7936

 VIBRATION         52   52A           ATOM PAIR      ENERGY CONTRIBUTION    RADIAL
 FREQUENCY          1708.30         C  6 -- O  8         +45.6% ( 89.3%)     99.1%
 TRANSITION DIPOLE   5.4838         C  6 -- C  9         +20.2% ( 59.5%)     50.5%
 TRAVEL (Ang.)       0.0955         C  6 -- O  7         +19.5% ( 58.3%)     21.0%
 REDUCED MASS        4.3264         O  7 -- H 21          +3.9% ( 26.1%)     90.8%
 EFFECTIVE MASS     11.3817
 FORCE CONSTANT      7.4388

 VIBRATION         53   53A           ATOM PAIR      ENERGY CONTRIBUTION    RADIAL
 FREQUENCY          1950.87         O  7 -- H 21         +37.4% ( 70.9%)     98.1%
 TRANSITION DIPOLE   4.7275         H 21 -- O 22         +32.7% ( 66.3%)     98.9%
 TRAVEL (Ang.)       0.2188         C  6 -- O  8          +9.9% ( 36.4%)     90.1%
 REDUCED MASS        0.7217         C  6 -- O  7          +6.6% ( 29.7%)     44.9%
 EFFECTIVE MASS      3.4698
 FORCE CONSTANT      1.6183

 VIBRATION         54   54A           ATOM PAIR      ENERGY CONTRIBUTION    RADIAL
 FREQUENCY          2634.60         C  9 -- H 11         +62.0% ( 81.3%)     99.3%
 TRANSITION DIPOLE   1.1107         C  9 -- H 10         +32.9% ( 59.2%)     95.0%
 TRAVEL (Ang.)       0.2248         C  9 -- H 12          +4.3% ( 21.4%)     53.7%
 REDUCED MASS        0.5064         C  6 -- C  9          +0.8% (  9.3%)      0.0%
 EFFECTIVE MASS      1.4313
 FORCE CONSTANT      2.0711

 VIBRATION         55   55A           ATOM PAIR      ENERGY CONTRIBUTION    RADIAL
 FREQUENCY          2647.71         C  9 -- H 12         +57.0% ( 78.0%)     99.2%
 TRANSITION DIPOLE   1.0188         C  9 -- H 10         +35.1% ( 61.2%)     95.2%
 TRAVEL (Ang.)       0.2331         C  9 -- H 11          +6.9% ( 27.0%)     66.5%
 REDUCED MASS        0.4687         C  6 -- C  9          +0.9% (  9.8%)      0.0%
 EFFECTIVE MASS      1.4482
 FORCE CONSTANT      1.9358

 VIBRATION         56   56A           ATOM PAIR      ENERGY CONTRIBUTION    RADIAL
 FREQUENCY          2655.40         C 13 -- H 15         +50.5% ( 73.2%)     98.9%
 TRANSITION DIPOLE   1.1949         C 13 -- H 14         +35.0% ( 61.0%)     96.6%
 TRAVEL (Ang.)       0.2538         O 22 -- H 23         +10.1% ( 32.7%)     99.9%
 REDUCED MASS        0.3943         C 13 -- H 16          +2.0% ( 14.4%)     32.0%
 EFFECTIVE MASS      1.4277
 FORCE CONSTANT      1.6380

 VIBRATION         57   57A           ATOM PAIR      ENERGY CONTRIBUTION    RADIAL
 FREQUENCY          2658.88         C 17 -- H 18         +65.7% ( 83.6%)     99.5%
 TRANSITION DIPOLE   0.8413         C 17 -- H 20         +23.1% ( 49.5%)     91.4%
 TRAVEL (Ang.)       0.2235         C 17 -- H 19          +9.1% ( 31.1%)     74.9%
 REDUCED MASS        0.5076         C  1 -- C 17          +0.8% (  9.5%)      0.0%
 EFFECTIVE MASS      1.4413
 FORCE CONSTANT      2.1143

 VIBRATION         58   58A           ATOM PAIR      ENERGY CONTRIBUTION    RADIAL
 FREQUENCY          2663.88         C 13 -- H 16         +37.5% ( 63.1%)     99.4%
 TRANSITION DIPOLE   0.7742         C 17 -- H 19         +17.2% ( 42.8%)     98.9%
 TRAVEL (Ang.)       0.3348         C 13 -- H 14         +12.5% ( 36.5%)     88.8%
 REDUCED MASS        0.2258         C 13 -- H 15         +12.4% ( 36.3%)     88.4%
 EFFECTIVE MASS      1.4349         C 17 -- H 20         +12.1% ( 35.8%)     96.4%
 FORCE CONSTANT      0.9441

 VIBRATION         59   59A           ATOM PAIR      ENERGY CONTRIBUTION    RADIAL
 FREQUENCY          2665.47         C 17 -- H 19         +37.6% ( 63.2%)     98.7%
 TRANSITION DIPOLE   0.8421         C 17 -- H 20         +30.2% ( 56.7%)     97.1%
 TRAVEL (Ang.)       0.3051         C 13 -- H 16         +15.2% ( 40.2%)     99.3%
 REDUCED MASS        0.2717         C 13 -- H 14          +7.1% ( 27.4%)     92.4%
 EFFECTIVE MASS      1.4493
 FORCE CONSTANT      1.1374

 VIBRATION         60   60A           ATOM PAIR      ENERGY CONTRIBUTION    RADIAL
 FREQUENCY          2705.85         O 22 -- H 23         +72.7% ( 85.0%)    100.0%
 TRANSITION DIPOLE   0.8610         C 13 -- H 16         +12.6% ( 35.4%)     96.9%
 TRAVEL (Ang.)       0.2154         C 13 -- H 14          +7.8% ( 27.8%)     94.4%
 REDUCED MASS        0.5370         C 13 -- H 15          +5.4% ( 23.2%)     87.3%
 EFFECTIVE MASS      1.3948
 FORCE CONSTANT      2.3165

 VIBRATION         61   61A           ATOM PAIR      ENERGY CONTRIBUTION    RADIAL
 FREQUENCY          2770.64         C  9 -- H 12         +38.6% ( 59.3%)     96.4%
 TRANSITION DIPOLE   0.6412         C  9 -- H 10         +30.8% ( 53.0%)     95.0%
 TRAVEL (Ang.)       0.2725         C  9 -- H 11         +30.0% ( 52.3%)     94.9%
 REDUCED MASS        0.3278         C  6 -- C  9          +0.3% (  5.2%)     99.0%
 EFFECTIVE MASS      1.1539
 FORCE CONSTANT      1.4824

 VIBRATION         62   62A           ATOM PAIR      ENERGY CONTRIBUTION    RADIAL
 FREQUENCY          2777.43         C 17 -- H 19         +35.1% ( 56.8%)     95.8%
 TRANSITION DIPOLE   0.4986         C 17 -- H 20         +33.8% ( 55.7%)     95.7%
 TRAVEL (Ang.)       0.2745         C 17 -- H 18         +30.1% ( 52.6%)     94.9%
 REDUCED MASS        0.3223         C 13 -- H 14          +0.3% (  5.4%)     97.3%
 EFFECTIVE MASS      1.1375
 FORCE CONSTANT      1.4647

 VIBRATION         63   63A           ATOM PAIR      ENERGY CONTRIBUTION    RADIAL
 FREQUENCY          2785.75         C 13 -- H 14         +37.1% ( 58.3%)     96.7%
 TRANSITION DIPOLE   0.6109         C 13 -- H 16         +32.6% ( 54.7%)     95.7%
 TRAVEL (Ang.)       0.2807         C 13 -- H 15         +26.0% ( 48.8%)     94.2%
 REDUCED MASS        0.3071         O 22 -- H 23          +3.2% ( 17.1%)    100.0%
 EFFECTIVE MASS      1.1464
 FORCE CONSTANT      1.4042

      SYMMETRY NUMBER FOR POINT-GROUP C1  =  1


          SYSTEM IS A GROUND STATE



 Title: ASE calculation


          MOLECULE IS NOT LINEAR

          THERE ARE 63 GENUINE VIBRATIONS IN THIS SYSTEM
          THIS THERMODYNAMICS CALCULATION IS LIMITED TO
          MOLECULES WHICH HAVE NO INTERNAL ROTATIONS




                    CALCULATED THERMODYNAMIC PROPERTIES
                                          *
   TEMP. (K)   PARTITION FUNCTION   H.O.F.    ENTHALPY  HEAT CAPACITY ENTROPY
                                   KCAL/MOL   CAL/MOLE    CAL/K/MOL  CAL/K/MOL


 298.00  VIB.     0.7769D+06                  7474.3070    44.3857    52.0340
         ROT.     0.1990D+07                   888.2803     2.9808    31.8023
         INT.     0.1546D+13                  8362.5873    47.3665    83.8363
         TRA.     0.2089D+28                  1480.4672     4.9680    41.2473
         TOT.                     -297.665    9843.0545    52.3345   125.0835

   *: NOTE: HEATS OF FORMATION ARE RELATIVE TO THE
            ELEMENTS IN THEIR STANDARD STATE AT 298K
              (=  Standard Enthalpy of Formation).

            Hvib:  Zero-point energy is not included.
                   frequencies of less than zero cm-1 are not included.
            Hrot = (3/2)RT
            Htra = (3/2)RT + pV = (5/2)RT

            Heat capacity is Cp, not Cv

          For more information, see: HTTP://OpenMOPAC.net/Manual/thermochemistry.html


           FORCE CONSTANT IN CARTESIAN COORDINATES (Millidynes/A)

    ATOM   CHEMICAL       X               Y               Z
   NUMBER   SYMBOL  FORCE CONSTANT  FORCE CONSTANT  FORCE CONSTANT

      1       C        2.677161        8.819721        8.628980
      2       H        1.099462        0.780460        0.822982
      3       N        3.267477       11.580572       13.451489
      4       O        0.347782        4.050059        8.442390
      5       O        0.550416        3.670965        8.638434
      6       C       10.034730        5.062866       11.682966
      7       O        6.698687        1.943950        5.735284
      8       O        2.349667        2.657063        9.120823
      9       C        7.151310        5.818462        6.340739
     10       H        2.047818        1.693247        1.501170
     11       H        0.792582        3.571940        0.768527
     12       H        1.047807        0.525651        3.691120
     13       C        5.894933        6.658309        6.872394
     14       H        1.006879        1.192487        3.204702
     15       H        4.019805        0.598974        0.737242
     16       H        0.867289        3.824445        0.704525
     17       C        6.017150        6.556377        6.912115
     18       H        3.956501        0.603300        0.778049
     19       H        1.082132        1.288730        3.026369
     20       H        0.930797        3.714839        0.707792
     21       H        1.469909        0.765925        0.755860
     22       O        3.454705        1.843107        4.346342
     23       H        0.689461        0.595137        3.306806

 **********************
 *                    *
 * JOB ENDED NORMALLY *
 *                    *
 **********************



 TOTAL JOB TIME:             5.32 SECONDS

 == MOPAC DONE ==
