
                                        *****************
                                        * O   R   C   A *
                                        *****************

                                            #,                                       
                                            ###                                      
                                            ####                                     
                                            #####                                    
                                            ######                                   
                                           ########,                                 
                                     ,,################,,,,,                         
                               ,,#################################,,                 
                          ,,##########################################,,             
                       ,#########################################, ''#####,          
                    ,#############################################,,   '####,        
                  ,##################################################,,,,####,       
                ,###########''''           ''''###############################       
              ,#####''   ,,,,##########,,,,          '''####'''          '####       
            ,##' ,,,,###########################,,,                        '##       
           ' ,,###''''                  '''############,,,                           
         ,,##''                                '''############,,,,        ,,,,,,###''
      ,#''                                            '''#######################'''  
     '                                                          ''''####''''         
             ,#######,   #######,   ,#######,      ##                                
            ,#'     '#,  ##    ##  ,#'     '#,    #''#        ######   ,####,        
            ##       ##  ##   ,#'  ##            #'  '#       #        #'  '#        
            ##       ##  #######   ##           ,######,      #####,   #    #        
            '#,     ,#'  ##    ##  '#,     ,#' ,#      #,         ##   #,  ,#        
             '#######'   ##     ##  '#######'  #'      '#     #####' # '####'        



                  #######################################################
                  #                        -***-                        #
                  #          Department of theory and spectroscopy      #
                  #    Directorship and core code : Frank Neese         #
                  #        Max Planck Institute fuer Kohlenforschung    #
                  #                Kaiser Wilhelm Platz 1               #
                  #                 D-45470 Muelheim/Ruhr               #
                  #                      Germany                        #
                  #                                                     #
                  #                  All rights reserved                #
                  #                        -***-                        #
                  #######################################################


                         Program Version 5.0.0 -  RELEASE  -
                                (SVN: $Rev: 19529$)
                ($Date: 2021-06-28 11:36:33 +0200 (Mo, 28 Jun 2021) $)


 With contributions from (in alphabetic order):
   Daniel Aravena         : Magnetic Suceptibility
   Michael Atanasov       : Ab Initio Ligand Field Theory (pilot matlab implementation)
   Alexander A. Auer      : GIAO ZORA, VPT2 properties, NMR spectrum
   Ute Becker             : Parallelization
   Giovanni Bistoni       : ED, misc. LED, open-shell LED, HFLD
   Martin Brehm           : Molecular dynamics
   Dmytro Bykov           : SCF Hessian
   Vijay G. Chilkuri      : MRCI spin determinant printing, contributions to CSF-ICE
   Dipayan Datta          : RHF DLPNO-CCSD density
   Achintya Kumar Dutta   : EOM-CC, STEOM-CC
   Dmitry Ganyushin       : Spin-Orbit,Spin-Spin,Magnetic field MRCI
   Miquel Garcia          : C-PCM Hessian, Gaussian charge scheme
   Yang Guo               : DLPNO-NEVPT2, F12-NEVPT2, CIM, IAO-localization
   Andreas Hansen         : Spin unrestricted coupled pair/coupled cluster methods
   Benjamin Helmich-Paris : MC-RPA, TRAH-SCF, COSX integrals
   Lee Huntington         : MR-EOM, pCC
   Robert Izsak           : Overlap fitted RIJCOSX, COSX-SCS-MP3, EOM
   Marcus Kettner         : VPT2
   Christian Kollmar      : KDIIS, OOCD, Brueckner-CCSD(T), CCSD density, CASPT2, CASPT2-K
   Simone Kossmann        : Meta GGA functionals, TD-DFT gradient, OOMP2, MP2 Hessian
   Martin Krupicka        : Initial AUTO-CI
   Lucas Lang             : DCDCAS
   Marvin Lechner         : AUTO-CI (C++ implementation), FIC-MRCC
   Dagmar Lenk            : GEPOL surface, SMD
   Dimitrios Liakos       : Extrapolation schemes; Compound Job, initial MDCI parallelization
   Dimitrios Manganas     : Further ROCIS development; embedding schemes
   Dimitrios Pantazis     : SARC Basis sets
   Anastasios Papadopoulos: AUTO-CI, single reference methods and gradients
   Taras Petrenko         : DFT Hessian,TD-DFT gradient, ASA, ECA, R-Raman, ABS, FL, XAS/XES, NRVS
   Peter Pinski           : DLPNO-MP2, DLPNO-MP2 Gradient
   Christoph Reimann      : Effective Core Potentials
   Marius Retegan         : Local ZFS, SOC
   Christoph Riplinger    : Optimizer, TS searches, QM/MM, DLPNO-CCSD(T), (RO)-DLPNO pert. Triples
   Tobias Risthaus        : Range-separated hybrids, TD-DFT gradient, RPA, STAB
   Michael Roemelt        : Original ROCIS implementation
   Masaaki Saitow         : Open-shell DLPNO-CCSD energy and density
   Barbara Sandhoefer     : DKH picture change effects
   Avijit Sen             : IP-ROCIS
   Kantharuban Sivalingam : CASSCF convergence, NEVPT2, FIC-MRCI
   Bernardo de Souza      : ESD, SOC TD-DFT
   Georgi Stoychev        : AutoAux, RI-MP2 NMR
   Willem Van den Heuvel  : Paramagnetic NMR
   Boris Wezisla          : Elementary symmetry handling
   Frank Wennmohs         : Technical directorship


 We gratefully acknowledge several colleagues who have allowed us to
 interface, adapt or use parts of their codes:
   Stefan Grimme, W. Hujo, H. Kruse, P. Pracht,  : VdW corrections, initial TS optimization,
                  C. Bannwarth, S. Ehlert          DFT functionals, gCP, sTDA/sTD-DF
   Ed Valeev, F. Pavosevic, A. Kumar             : LibInt (2-el integral package), F12 methods
   Garnet Chan, S. Sharma, J. Yang, R. Olivares  : DMRG
   Ulf Ekstrom                                   : XCFun DFT Library
   Mihaly Kallay                                 : mrcc  (arbitrary order and MRCC methods)
   Jiri Pittner, Ondrej Demel                    : Mk-CCSD
   Frank Weinhold                                : gennbo (NPA and NBO analysis)
   Christopher J. Cramer and Donald G. Truhlar   : smd solvation model
   Lars Goerigk                                  : TD-DFT with DH, B97 family of functionals
   V. Asgeirsson, H. Jonsson                     : NEB implementation
   FAccTs GmbH                                   : IRC, NEB, NEB-TS, DLPNO-Multilevel, CI-OPT
                                                   MM, QMMM, 2- and 3-layer-ONIOM, Crystal-QMMM,
                                                   LR-CPCM, SF, NACMEs, symmetry and pop. for TD-DFT,
                                                   nearIR, NL-DFT gradient (VV10), updates on ESD,
                                                   ML-optimized integration grids
   S Lehtola, MJT Oliveira, MAL Marques          : LibXC Library
   Liviu Ungur et al                             : ANISO software


 Your calculation uses the libint2 library for the computation of 2-el integrals
 For citations please refer to: http://libint.valeyev.net

 Your ORCA version has been built with support for libXC version: 5.1.0
 For citations please refer to: https://tddft.org/programs/libxc/

 This ORCA versions uses:
   CBLAS   interface :  Fast vector & matrix operations
   LAPACKE interface :  Fast linear algebra routines
   SCALAPACK package :  Parallel linear algebra routines
   Shared memory     :  Shared parallel matrices
   BLAS/LAPACK       :  OpenBLAS 0.3.15  USE64BITINT DYNAMIC_ARCH NO_AFFINITY Sandybridge SINGLE_THREADED
        Core in use  :  Sandybridge
   Copyright (c) 2011-2014, The OpenBLAS Project


Your calculation utilizes the atom-pairwise dispersion correction
with the Becke-Johnson damping scheme (D3BJ)
Cite in your paper:
S.Grimme, S.Ehrlich, L.Goerigk, J Comput Chem, (2011), 32, 1456–1465 
S.Grimme, J.Antony, S.Ehrlich and H.Krieg, J.Chem.Phys., 132, (2010), 154104 
   

================================================================================

----- Orbital basis set information -----
Your calculation utilizes the basis: def2-TZVP
   F. Weigend and R. Ahlrichs, Phys. Chem. Chem. Phys. 7, 3297 (2005).

----- AuxJ basis set information -----
Your calculation utilizes the auxiliary basis: def2/J
   F. Weigend, Phys. Chem. Chem. Phys. 8, 1057 (2006).

================================================================================
                                        WARNINGS
                       Please study these warnings very carefully!
================================================================================

WARNING: Gradients needed for Numerical Frequencies
  ===> : Setting RunTyp to EnGrad

WARNING: The environment variable RSH_COMMAND is not set!
  ===> : All Displacements for the Numerical Hessian calculation
         will be started on localhost

INFO   : the flag for use of the SHARK integral package has been found!

================================================================================
                                       INPUT FILE
================================================================================
NAME = /home/rudenko/mopac_kie/for_orca/CH3NO2_H2O_near/orca/freq_H/f_H.inp
|  1> !  NUMFREQ B3LYP def2-TZVP CPCM D3 
|  2> %pal nprocs 18 end
|  3> %cpcm epsilon 78.4 end 
|  4> *xyz 0 1 
|  5> C   -0.53107882415903 0.1244830703653 -0.29602729637898
|  6> H   -0.4455058924261 -0.52076333183192 -1.16266662340365
|  7> H   -0.22618834119085 1.14285118051914 -0.53333661637302
|  8> H   0.02802052962853 -0.24487330826329 0.55699944389906
|  9> N   -1.96948740274969 0.19862370432579 0.09272880013286
| 10> O   -2.23102486144438 0.59780006334372 1.21687339963828
| 11> O   -2.80921615726499 -0.11781926598491 -0.73493715412691
| 12> H   2.89225232325362 -0.71670250807139 -0.41305417501593
| 13> O   2.69866579541036 -0.7001583408464 0.53263424046079
| 14> H   2.59356283094253 0.23655873644394 0.74078598116752
| 15> *
| 16> 
| 17>                          ****END OF INPUT****
================================================================================

                     *******************************
                     * Energy+Gradient Calculation *
                     *******************************

---------------------------------
CARTESIAN COORDINATES (ANGSTROEM)
---------------------------------
  C     -0.531079    0.124483   -0.296027
  H     -0.445506   -0.520763   -1.162667
  H     -0.226188    1.142851   -0.533337
  H      0.028021   -0.244873    0.556999
  N     -1.969487    0.198624    0.092729
  O     -2.231025    0.597800    1.216873
  O     -2.809216   -0.117819   -0.734937
  H      2.892252   -0.716703   -0.413054
  O      2.698666   -0.700158    0.532634
  H      2.593563    0.236559    0.740786

----------------------------
CARTESIAN COORDINATES (A.U.)
----------------------------
  NO LB      ZA    FRAG     MASS         X           Y           Z
   0 C     6.0000    0    12.011   -1.003594    0.235239   -0.559411
   1 H     1.0000    0     1.008   -0.841884   -0.984100   -2.197122
   2 H     1.0000    0     1.008   -0.427434    2.159676   -1.007860
   3 H     1.0000    0     1.008    0.052951   -0.462743    1.052576
   4 N     7.0000    0    14.007   -3.721792    0.375344    0.175232
   5 O     8.0000    0    15.999   -4.216026    1.129678    2.299557
   6 O     8.0000    0    15.999   -5.308649   -0.222646   -1.388830
   7 H     1.0000    0     1.008    5.465565   -1.354371   -0.780559
   8 O     8.0000    0    15.999    5.099739   -1.323108    1.006533
   9 H     1.0000    0     1.008    4.901123    0.447031    1.399883

--------------------------------
INTERNAL COORDINATES (ANGSTROEM)
--------------------------------
 C      0   0   0     0.000000000000     0.00000000     0.00000000
 H      1   0   0     1.083849329630     0.00000000     0.00000000
 H      1   2   0     1.089195816986   111.11880557     0.00000000
 H      1   2   3     1.084744597345   112.66763538   235.76451471
 N      1   2   3     1.491860373876   108.30479410   116.36971368
 O      5   1   2     1.221247185666   117.55451289   162.38136368
 O      5   1   2     1.220783136540   118.27228115   341.06171450
 H      4   1   2     3.060629115880   106.59452478    53.24650354
 O      8   4   1     0.965440848731    59.95021451   165.78076204
 H      9   8   4     0.965304440675   104.45873891   283.43926719

---------------------------
INTERNAL COORDINATES (A.U.)
---------------------------
 C      0   0   0     0.000000000000     0.00000000     0.00000000
 H      1   0   0     2.048178403435     0.00000000     0.00000000
 H      1   2   0     2.058281800315   111.11880557     0.00000000
 H      1   2   3     2.049870214232   112.66763538   235.76451471
 N      1   2   3     2.819207536676   108.30479410   116.36971368
 O      5   1   2     2.307822722730   117.55451289   162.38136368
 O      5   1   2     2.306945796969   118.27228115   341.06171450
 H      4   1   2     5.783750826519   106.59452478    53.24650354
 O      8   4   1     1.824418802602    59.95021451   165.78076204
 H      9   8   4     1.824161028733   104.45873891   283.43926719

---------------------
BASIS SET INFORMATION
---------------------
There are 4 groups of distinct atoms

 Group   1 Type C   : 11s6p2d1f contracted to 5s3p2d1f pattern {62111/411/11/1}
 Group   2 Type H   : 5s1p contracted to 3s1p pattern {311/1}
 Group   3 Type N   : 11s6p2d1f contracted to 5s3p2d1f pattern {62111/411/11/1}
 Group   4 Type O   : 11s6p2d1f contracted to 5s3p2d1f pattern {62111/411/11/1}

Atom   0C    basis set group =>   1
Atom   1H    basis set group =>   2
Atom   2H    basis set group =>   2
Atom   3H    basis set group =>   2
Atom   4N    basis set group =>   3
Atom   5O    basis set group =>   4
Atom   6O    basis set group =>   4
Atom   7H    basis set group =>   2
Atom   8O    basis set group =>   4
Atom   9H    basis set group =>   2
---------------------------------
AUXILIARY/J BASIS SET INFORMATION
---------------------------------
There are 4 groups of distinct atoms

 Group   1 Type C   : 12s5p4d2f1g contracted to 6s4p3d1f1g pattern {711111/2111/211/2/1}
 Group   2 Type H   : 5s2p1d contracted to 3s1p1d pattern {311/2/1}
 Group   3 Type N   : 12s5p4d2f1g contracted to 6s4p3d1f1g pattern {711111/2111/211/2/1}
 Group   4 Type O   : 12s5p4d2f1g contracted to 6s4p3d1f1g pattern {711111/2111/211/2/1}

Atom   0C    basis set group =>   1
Atom   1H    basis set group =>   2
Atom   2H    basis set group =>   2
Atom   3H    basis set group =>   2
Atom   4N    basis set group =>   3
Atom   5O    basis set group =>   4
Atom   6O    basis set group =>   4
Atom   7H    basis set group =>   2
Atom   8O    basis set group =>   4
Atom   9H    basis set group =>   2


           ************************************************************
           *        Program running with 18 parallel MPI-processes    *
           *              working on a common directory               *
           ************************************************************
------------------------------------------------------------------------------
                           ORCA GTO INTEGRAL CALCULATION
                           -- RI-GTO INTEGRALS CHOSEN --
------------------------------------------------------------------------------
------------------------------------------------------------------------------
                   ___                                                        
                  /   \      - P O W E R E D   B Y -                         
                 /     \                                                     
                 |  |  |   _    _      __       _____    __    __             
                 |  |  |  | |  | |    /  \     |  _  \  |  |  /  |          
                  \  \/   | |  | |   /    \    | | | |  |  | /  /          
                 / \  \   | |__| |  /  /\  \   | |_| |  |  |/  /          
                |  |  |   |  __  | /  /__\  \  |    /   |      \           
                |  |  |   | |  | | |   __   |  |    \   |  |\   \          
                \     /   | |  | | |  |  |  |  | |\  \  |  | \   \       
                 \___/    |_|  |_| |__|  |__|  |_| \__\ |__|  \__/        
                                                                              
                      - O R C A' S   B I G   F R I E N D -                    
                                      &                                       
                       - I N T E G R A L  F E E D E R -                       
                                                                              
 v1 FN, 2020, v2 2021                                                         
------------------------------------------------------------------------------


Reading SHARK input file /home/rudenko/mopac_kie/for_orca/CH3NO2_H2O_near/orca/freq_H/f_H.SHARKINP.tmp ... ok
----------------------
SHARK INTEGRAL PACKAGE
----------------------

Number of atoms                             ...     10
Number of basis functions                   ...    185
Number of shells                            ...     75
Maximum angular momentum                    ...      3
Integral batch strategy                     ... SHARK/LIBINT Hybrid
RI-J (if used) integral strategy            ... SPLIT-RIJ (Revised 2003 algorithm where possible)
Printlevel                                  ...      1
Contraction scheme used                     ... SEGMENTED contraction
Coulomb Range Separation                    ... NOT USED
Exchange Range Separation                   ... NOT USED
Finite Nucleus Model                        ... NOT USED
Auxiliary Coulomb fitting basis             ... AVAILABLE
   # of basis functions in Aux-J            ...    300
   # of shells in Aux-J                     ...    100
   Maximum angular momentum in Aux-J        ...      4
Auxiliary J/K fitting basis                 ... NOT available
Auxiliary Correlation fitting basis         ... NOT available
Auxiliary 'external' fitting basis          ... NOT available
Integral threshold                          ...     2.500000e-11
Primitive cut-off                           ...     2.500000e-12
Primitive pair pre-selection threshold      ...     2.500000e-12

Calculating pre-screening integrals         ... done (  0.1 sec) Dimension = 75
Organizing shell pair data                  ... done (  0.0 sec)
Shell pair information
Total number of shell pairs                 ...      2850
Shell pairs after pre-screening             ...      2466
Total number of primitive shell pairs       ...      8640
Primitive shell pairs kept                  ...      5763
          la=0 lb=0:    700 shell pairs
          la=1 lb=0:    715 shell pairs
          la=1 lb=1:    194 shell pairs
          la=2 lb=0:    336 shell pairs
          la=2 lb=1:    173 shell pairs
          la=2 lb=2:     46 shell pairs
          la=3 lb=0:    166 shell pairs
          la=3 lb=1:     84 shell pairs
          la=3 lb=2:     40 shell pairs
          la=3 lb=3:     12 shell pairs

Calculating one electron integrals          ... done (  0.0 sec)
Calculating RI/J V-Matrix + Cholesky decomp.... done (  0.0 sec)
Calculating Nuclear repulsion               ... done (  0.0 sec) ENN=    171.769599700458 Eh

SHARK setup successfully completed in   0.2 seconds

Maximum memory used throughout the entire GTOINT-calculation: 13.8 MB


           ************************************************************
           *        Program running with 18 parallel MPI-processes    *
           *              working on a common directory               *
           ************************************************************
-------------------------------------------------------------------------------
                                 ORCA SCF
-------------------------------------------------------------------------------

------------
SCF SETTINGS
------------
Hamiltonian:
 Density Functional     Method          .... DFT(GTOs)
 Exchange Functional    Exchange        .... B88
   X-Alpha parameter    XAlpha          ....  0.666667
   Becke's b parameter  XBeta           ....  0.004200
 Correlation Functional Correlation     .... LYP
 LDA part of GGA corr.  LDAOpt          .... VWN-5
 Gradients option       PostSCFGGA      .... off
 Hybrid DFT is turned on
   Fraction HF Exchange ScalHFX         ....  0.200000
   Scaling of DF-GGA-X  ScalDFX         ....  0.720000
   Scaling of DF-GGA-C  ScalDFC         ....  0.810000
   Scaling of DF-LDA-C  ScalLDAC        ....  1.000000
   Perturbative correction              ....  0.000000
   Density functional embedding theory  .... OFF
   NL short-range parameter             ....  4.800000
 RI-approximation to the Coulomb term is turned on
   Number of AuxJ basis functions       .... 300
   RIJ-COSX (HFX calculated with COS-X)).... on


General Settings:
 Integral files         IntName         .... /home/rudenko/mopac_kie/for_orca/CH3NO2_H2O_near/orca/freq_H/f_H
 Hartree-Fock type      HFTyp           .... RHF
 Total Charge           Charge          ....    0
 Multiplicity           Mult            ....    1
 Number of Electrons    NEL             ....   42
 Basis Dimension        Dim             ....  185
 Nuclear Repulsion      ENuc            ....    171.7695997005 Eh

Convergence Acceleration:
 DIIS                   CNVDIIS         .... on
   Start iteration      DIISMaxIt       ....    12
   Startup error        DIISStart       ....  0.200000
   # of expansion vecs  DIISMaxEq       ....     5
   Bias factor          DIISBfac        ....   1.050
   Max. coefficient     DIISMaxC        ....  10.000
 Trust-Rad. Augm. Hess. CNVTRAH         .... auto
   Auto Start mean grad. ratio tolernc. ....  1.125000
   Auto Start start iteration           ....    20
   Auto Start num. interpolation iter.  ....    10
   Max. Number of Micro iterations      ....    16
   Max. Number of Macro iterations      .... Maxiter - #DIIS iter
   Number of Davidson start vectors     ....     2
   Converg. threshold I  (grad. norm)   ....   1.000e-05
   Converg. threshold II (energy diff.) ....   1.000e-08
   Grad. Scal. Fac. for Micro threshold ....   0.100
   Minimum threshold for Micro iter.    ....   0.010
   NR start threshold (gradient norm)   ....   0.001
   Initial trust radius                 ....   0.400
   Minimum AH scaling param. (alpha)    ....   1.000
   Maximum AH scaling param. (alpha)    .... 1000.000
   Orbital update algorithm             .... Taylor
   White noise on init. David. guess    .... on
   Maximum white noise                  ....   0.010
   Quad. conv. algorithm                .... NR
 SOSCF                  CNVSOSCF        .... on
   Start iteration      SOSCFMaxIt      ....   150
   Startup grad/error   SOSCFStart      ....  0.003300
 Level Shifting         CNVShift        .... on
   Level shift para.    LevelShift      ....    0.2500
   Turn off err/grad.   ShiftErr        ....    0.0010
 Zerner damping         CNVZerner       .... off
 Static damping         CNVDamp         .... on
   Fraction old density DampFac         ....    0.7000
   Max. Damping (<1)    DampMax         ....    0.9800
   Min. Damping (>=0)   DampMin         ....    0.0000
   Turn off err/grad.   DampErr         ....    0.1000
 Fernandez-Rico         CNVRico         .... off

SCF Procedure:
 Maximum # iterations   MaxIter         ....   125
 SCF integral mode      SCFMode         .... Direct
   Integral package                     .... SHARK and LIBINT hybrid scheme
 Reset frequency        DirectResetFreq ....    20
 Integral Threshold     Thresh          ....  2.500e-11 Eh
 Primitive CutOff       TCut            ....  2.500e-12 Eh

Convergence Tolerance:
 Convergence Check Mode ConvCheckMode   .... Total+1el-Energy
 Convergence forced     ConvForced      .... 0
 Energy Change          TolE            ....  1.000e-08 Eh
 1-El. energy change                    ....  1.000e-05 Eh
 Orbital Gradient       TolG            ....  1.000e-05
 Orbital Rotation angle TolX            ....  1.000e-05
 DIIS Error             TolErr          ....  5.000e-07


Diagonalization of the overlap matrix:
Smallest eigenvalue                        ... 8.293e-04
Time for diagonalization                   ...    0.008 sec
Threshold for overlap eigenvalues          ... 1.000e-08
Number of eigenvalues below threshold      ... 0
Time for construction of square roots      ...    0.006 sec
Total time needed                          ...    0.015 sec

Time for model grid setup =    0.051 sec

------------------------------
INITIAL GUESS: MODEL POTENTIAL
------------------------------
Loading Hartree-Fock densities                     ... done
Calculating cut-offs                               ... done
Initializing the effective Hamiltonian             ... done
Setting up the integral package (SHARK)            ... done
Starting the Coulomb interaction                   ... done (   0.0 sec)
Reading the grid                                   ... done
Mapping shells                                     ... done
Starting the XC term evaluation                    ... done (   0.0 sec)
  promolecular density results
     # of electrons  =     41.998261642
     EX              =    -37.761006266
     EC              =     -1.456088223
     EX+EC           =    -39.217094489
Transforming the Hamiltonian                       ... done (   0.0 sec)
Diagonalizing the Hamiltonian                      ... done (   0.0 sec)
Back transforming the eigenvectors                 ... done (   0.0 sec)
Now organizing SCF variables                       ... done
                      ------------------
                      INITIAL GUESS DONE (   0.1 sec)
                      ------------------
-------------------
DFT GRID GENERATION
-------------------

General Integration Accuracy     IntAcc      ... 4.388
Radial Grid Type                 RadialGrid  ... OptM3 with GC (2021)
Angular Grid (max. ang.)         AngularGrid ... 4 (Lebedev-302)
Angular grid pruning method      GridPruning ... 4 (adaptive)
Weight generation scheme         WeightScheme... Becke
Basis function cutoff            BFCut       ... 1.0000e-11
Integration weight cutoff        WCut        ... 1.0000e-14
Angular grids for H and He will be reduced by one unit
Partially contracted basis set               ... off
Rotationally invariant grid construction     ... off

Total number of grid points                  ...    46842
Total number of batches                      ...      737
Average number of points per batch           ...       63
Average number of grid points per atom       ...     4684
Time for grid setup =    0.256 sec

--------------------
COSX GRID GENERATION
--------------------

GRIDX 1
-------
General Integration Accuracy     IntAcc      ... 3.816
Radial Grid Type                 RadialGrid  ... OptM3 with GC (2021)
Angular Grid (max. ang.)         AngularGrid ... 1 (Lebedev-50)
Angular grid pruning method      GridPruning ... 4 (adaptive)
Weight generation scheme         WeightScheme... Becke
Basis function cutoff            BFCut       ... 1.0000e-11
Integration weight cutoff        WCut        ... 1.0000e-14
Angular grids for H and He will be reduced by one unit
Partially contracted basis set               ... on
Rotationally invariant grid construction     ... off

Total number of grid points                  ...     6011
Total number of batches                      ...       99
Average number of points per batch           ...       60
Average number of grid points per atom       ...      601
UseSFitting                                  ... on

GRIDX 2
-------
General Integration Accuracy     IntAcc      ... 4.020
Radial Grid Type                 RadialGrid  ... OptM3 with GC (2021)
Angular Grid (max. ang.)         AngularGrid ... 2 (Lebedev-110)
Angular grid pruning method      GridPruning ... 4 (adaptive)
Weight generation scheme         WeightScheme... Becke
Basis function cutoff            BFCut       ... 1.0000e-11
Integration weight cutoff        WCut        ... 1.0000e-14
Angular grids for H and He will be reduced by one unit
Partially contracted basis set               ... on
Rotationally invariant grid construction     ... off

Total number of grid points                  ...    13195
Total number of batches                      ...      212
Average number of points per batch           ...       62
Average number of grid points per atom       ...     1320
UseSFitting                                  ... on

GRIDX 3
-------
General Integration Accuracy     IntAcc      ... 4.338
Radial Grid Type                 RadialGrid  ... OptM3 with GC (2021)
Angular Grid (max. ang.)         AngularGrid ... 3 (Lebedev-194)
Angular grid pruning method      GridPruning ... 4 (adaptive)
Weight generation scheme         WeightScheme... Becke
Basis function cutoff            BFCut       ... 1.0000e-11
Integration weight cutoff        WCut        ... 1.0000e-14
Angular grids for H and He will be reduced by one unit
Partially contracted basis set               ... on
Rotationally invariant grid construction     ... off

Total number of grid points                  ...    29094
Total number of batches                      ...      460
Average number of points per batch           ...       63
Average number of grid points per atom       ...     2909
UseSFitting                                  ... on

Time for X-Grid setup             =    0.241 sec


--------------------
CPCM SOLVATION MODEL
--------------------
CPCM parameters:
  Epsilon                                         ...      78.4000
  Refrac                                          ...       1.3300
  Rsolv                                           ...       1.3000
  Surface type                                    ... GAUSSIAN VDW
  Epsilon function type                           ...         CPCM
Radii:
 Radius for C  used is    3.8550 Bohr (=   2.0400 Ang.)
 Radius for H  used is    2.4944 Bohr (=   1.3200 Ang.)
 Radius for N  used is    3.5149 Bohr (=   1.8600 Ang.)
 Radius for O  used is    3.4469 Bohr (=   1.8240 Ang.)
Calculating surface                               ...        done! (  0.0s)
GEPOL surface points                              ...          685
GEPOL Volume                                      ...     687.4290
GEPOL Surface-area                                ...     478.2540
Calculating surface distance matrix               ...        done! (  0.0s)
Performing Cholesky decomposition & store         ...        done! (  0.1s)
Overall time for CPCM initialization              ...                 0.1s
--------------
SCF ITERATIONS
--------------
ITER       Energy         Delta-E        Max-DP      RMS-DP      [F,P]     Damp
               ***  Starting incremental Fock matrix formation  ***
  0   -321.1991601107   0.000000000000 0.05558177  0.00147190  0.3364037 0.7000
  1   -321.3243194731  -0.125159362416 0.03176168  0.00088538  0.1314855 0.7000
                               ***Turning on DIIS***
  2   -321.3630110912  -0.038691618143 0.03406403  0.00113131  0.0339193 0.0000
  3   -321.4380097911  -0.074998699877 0.02231818  0.00058952  0.0789268 0.0000
  4   -321.4488887087  -0.010878917546 0.00686138  0.00019178  0.0167165 0.0000
                      *** Initiating the SOSCF procedure ***
                           *** Shutting down DIIS ***
                      *** Re-Reading the Fockian *** 
                      *** Removing any level shift *** 
ITER      Energy       Delta-E        Grad      Rot      Max-DP    RMS-DP
  5   -321.44962632  -0.0007376131  0.000796  0.000796  0.002068  0.000055
               *** Restarting incremental Fock matrix formation ***
  6   -321.44963267  -0.0000063451  0.000637  0.001084  0.001819  0.000044
  7   -321.44962299   0.0000096731  0.001279  0.000997  0.000765  0.000020
  8   -321.44963946  -0.0000164646  0.000121  0.000215  0.000192  0.000005
  9   -321.44963920   0.0000002626  0.000177  0.000158  0.000130  0.000003
 10   -321.44963960  -0.0000004019  0.000038  0.000130  0.000069  0.000002
 11   -321.44963956   0.0000000372  0.000084  0.000092  0.000051  0.000001
 12   -321.44963961  -0.0000000459  0.000004  0.000006  0.000011  0.000000
 13   -321.44963961  -0.0000000007  0.000005  0.000003  0.000006  0.000000
                 **** Energy Check signals convergence ****
              ***Rediagonalizing the Fockian in SOSCF/NRSCF***

               *****************************************************
               *                     SUCCESS                       *
               *           SCF CONVERGED AFTER  14 CYCLES          *
               *****************************************************

Old exchange energy                            =     -7.622331116 Eh
New exchange energy                            =     -7.622324596 Eh
Exchange energy change after final integration =      0.000006520 Eh
Total energy after final integration           =   -321.449633088 Eh
Final COS-X integration done in                =     0.446 sec

----------------
TOTAL SCF ENERGY
----------------

Total Energy       :         -321.44963309 Eh           -8747.08921 eV

Components:
Nuclear Repulsion  :          171.76959970 Eh            4674.08843 eV
Electronic Energy  :         -493.21923279 Eh          -13421.17764 eV
One Electron Energy:         -779.74900482 Eh          -21218.04913 eV
Two Electron Energy:          286.52977203 Eh            7796.87148 eV
Max COSX asymmetry :            0.00000077 Eh               0.00002 eV
CPCM Dielectric    :           -0.02479375 Eh              -0.67467 eV

Virial components:
Potential Energy   :         -641.66276940 Eh          -17460.53163 eV
Kinetic Energy     :          320.21313631 Eh            8713.44242 eV
Virial Ratio       :            2.00386148


DFT components:
N(Alpha)           :       21.000011562100 electrons
N(Beta)            :       21.000011562100 electrons
N(Total)           :       42.000023124200 electrons
E(X)               :      -30.411779632700 Eh       
E(C)               :       -1.722442912586 Eh       
E(XC)              :      -32.134222545286 Eh       
DFET-embed. en.    :        0.000000000000 Eh       
CPCM Solvation Model Properties:
Surface-charge          :           -0.01359147
Charge-correction       :            0.00016062 Eh               0.00437 eV
Free-energy (cav+disp)  :  This term is not implemented in the current solvation scheme

---------------
SCF CONVERGENCE
---------------

  Last Energy change         ...   -5.8486e-10  Tolerance :   1.0000e-08
  Last MAX-Density change    ...    9.9920e-16  Tolerance :   1.0000e-07
  Last RMS-Density change    ...    2.1008e-17  Tolerance :   5.0000e-09
  Last Orbital Gradient      ...    2.0072e-07  Tolerance :   1.0000e-05
  Last Orbital Rotation      ...    3.2579e-07  Tolerance :   1.0000e-05

             **** THE GBW FILE WAS UPDATED (/home/rudenko/mopac_kie/for_orca/CH3NO2_H2O_near/orca/freq_H/f_H.gbw) ****
             **** DENSITY /home/rudenko/mopac_kie/for_orca/CH3NO2_H2O_near/orca/freq_H/f_H.scfp WAS UPDATED ****
             **** ENERGY FILE WAS UPDATED (/home/rudenko/mopac_kie/for_orca/CH3NO2_H2O_near/orca/freq_H/f_H.en.tmp) ****
             **** THE GBW FILE WAS UPDATED (/home/rudenko/mopac_kie/for_orca/CH3NO2_H2O_near/orca/freq_H/f_H.gbw) ****
             **** DENSITY /home/rudenko/mopac_kie/for_orca/CH3NO2_H2O_near/orca/freq_H/f_H.scfp WAS UPDATED ****
----------------
ORBITAL ENERGIES
----------------

  NO   OCC          E(Eh)            E(eV) 
   0   2.0000     -19.171271      -521.6768 
   1   2.0000     -19.170171      -521.6469 
   2   2.0000     -19.124061      -520.3922 
   3   2.0000     -14.558817      -396.1655 
   4   2.0000     -10.219327      -278.0820 
   5   2.0000      -1.242739       -33.8167 
   6   2.0000      -1.068746       -29.0821 
   7   2.0000      -1.007794       -27.4235 
   8   2.0000      -0.812578       -22.1114 
   9   2.0000      -0.624243       -16.9865 
  10   2.0000      -0.555279       -15.1099 
  11   2.0000      -0.544315       -14.8116 
  12   2.0000      -0.534036       -14.5319 
  13   2.0000      -0.525237       -14.2924 
  14   2.0000      -0.438508       -11.9324 
  15   2.0000      -0.421136       -11.4597 
  16   2.0000      -0.392493       -10.6803 
  17   2.0000      -0.331920        -9.0320 
  18   2.0000      -0.325704        -8.8629 
  19   2.0000      -0.315460        -8.5841 
  20   2.0000      -0.308531        -8.3956 
  21   0.0000      -0.081179        -2.2090 
  22   0.0000       0.026268         0.7148 
  23   0.0000       0.068348         1.8599 
  24   0.0000       0.101647         2.7660 
  25   0.0000       0.112354         3.0573 
  26   0.0000       0.127519         3.4700 
  27   0.0000       0.135922         3.6986 
  28   0.0000       0.174667         4.7529 
  29   0.0000       0.203069         5.5258 
  30   0.0000       0.223510         6.0820 
  31   0.0000       0.245346         6.6762 
  32   0.0000       0.305514         8.3135 
  33   0.0000       0.330052         8.9812 
  34   0.0000       0.352040         9.5795 
  35   0.0000       0.369475        10.0539 
  36   0.0000       0.377498        10.2722 
  37   0.0000       0.406995        11.0749 
  38   0.0000       0.426839        11.6149 
  39   0.0000       0.431650        11.7458 
  40   0.0000       0.437300        11.8995 
  41   0.0000       0.442968        12.0538 
  42   0.0000       0.454862        12.3774 
  43   0.0000       0.476174        12.9574 
  44   0.0000       0.492255        13.3949 
  45   0.0000       0.516983        14.0678 
  46   0.0000       0.527412        14.3516 
  47   0.0000       0.533862        14.5271 
  48   0.0000       0.564788        15.3687 
  49   0.0000       0.567835        15.4516 
  50   0.0000       0.593384        16.1468 
  51   0.0000       0.612788        16.6748 
  52   0.0000       0.653587        17.7850 
  53   0.0000       0.690325        18.7847 
  54   0.0000       0.785691        21.3797 
  55   0.0000       0.828260        22.5381 
  56   0.0000       0.878299        23.8997 
  57   0.0000       0.925790        25.1920 
  58   0.0000       0.989694        26.9309 
  59   0.0000       1.017553        27.6890 
  60   0.0000       1.139724        31.0135 
  61   0.0000       1.153286        31.3825 
  62   0.0000       1.177283        32.0355 
  63   0.0000       1.214823        33.0570 
  64   0.0000       1.287304        35.0293 
  65   0.0000       1.314944        35.7814 
  66   0.0000       1.363548        37.1040 
  67   0.0000       1.382595        37.6223 
  68   0.0000       1.475976        40.1633 
  69   0.0000       1.490788        40.5664 
  70   0.0000       1.506230        40.9866 
  71   0.0000       1.544050        42.0157 
  72   0.0000       1.547653        42.1138 
  73   0.0000       1.576425        42.8967 
  74   0.0000       1.606522        43.7157 
  75   0.0000       1.611157        43.8418 
  76   0.0000       1.657651        45.1070 
  77   0.0000       1.683433        45.8085 
  78   0.0000       1.737298        47.2743 
  79   0.0000       1.761313        47.9278 
  80   0.0000       1.765474        48.0410 
  81   0.0000       1.901172        51.7335 
  82   0.0000       1.910477        51.9867 
  83   0.0000       1.935330        52.6630 
  84   0.0000       1.964297        53.4513 
  85   0.0000       2.013521        54.7907 
  86   0.0000       2.016527        54.8725 
  87   0.0000       2.046935        55.6999 
  88   0.0000       2.104015        57.2532 
  89   0.0000       2.108466        57.3743 
  90   0.0000       2.123029        57.7706 
  91   0.0000       2.175510        59.1986 
  92   0.0000       2.194977        59.7284 
  93   0.0000       2.229765        60.6750 
  94   0.0000       2.260716        61.5172 
  95   0.0000       2.290724        62.3338 
  96   0.0000       2.311606        62.9020 
  97   0.0000       2.353666        64.0465 
  98   0.0000       2.396806        65.2204 
  99   0.0000       2.497687        67.9655 
 100   0.0000       2.537058        69.0369 
 101   0.0000       2.565794        69.8188 
 102   0.0000       2.569878        69.9299 
 103   0.0000       2.579295        70.1862 
 104   0.0000       2.596913        70.6656 
 105   0.0000       2.612444        71.0882 
 106   0.0000       2.656932        72.2988 
 107   0.0000       2.664463        72.5037 
 108   0.0000       2.712757        73.8179 
 109   0.0000       2.721090        74.0446 
 110   0.0000       2.819921        76.7339 
 111   0.0000       2.868093        78.0448 
 112   0.0000       2.903040        78.9957 
 113   0.0000       2.986805        81.2751 
 114   0.0000       3.003566        81.7312 
 115   0.0000       3.042941        82.8026 
 116   0.0000       3.144235        85.5590 
 117   0.0000       3.216069        87.5137 
 118   0.0000       3.222951        87.7009 
 119   0.0000       3.340084        90.8883 
 120   0.0000       3.394139        92.3592 
 121   0.0000       3.453886        93.9850 
 122   0.0000       3.477583        94.6298 
 123   0.0000       3.558225        96.8242 
 124   0.0000       3.649466        99.3070 
 125   0.0000       3.720592       101.2425 
 126   0.0000       3.756010       102.2062 
 127   0.0000       3.919795       106.6631 
 128   0.0000       3.974223       108.1441 
 129   0.0000       4.016735       109.3009 
 130   0.0000       4.081712       111.0690 
 131   0.0000       4.143842       112.7597 
 132   0.0000       4.261723       115.9674 
 133   0.0000       4.395163       119.5985 
 134   0.0000       4.533941       123.3748 
 135   0.0000       4.548289       123.7652 
 136   0.0000       4.604440       125.2932 
 137   0.0000       4.664762       126.9346 
 138   0.0000       4.748785       129.2210 
 139   0.0000       4.798693       130.5791 
 140   0.0000       4.879162       132.7687 
 141   0.0000       5.055566       137.5689 
 142   0.0000       5.075743       138.1180 
 143   0.0000       5.095508       138.6558 
 144   0.0000       5.112338       139.1138 
 145   0.0000       5.125902       139.4829 
 146   0.0000       5.130343       139.6037 
 147   0.0000       5.198275       141.4523 
 148   0.0000       5.270981       143.4307 
 149   0.0000       5.284216       143.7908 
 150   0.0000       5.303398       144.3128 
 151   0.0000       5.374130       146.2375 
 152   0.0000       5.401159       146.9730 
 153   0.0000       5.454536       148.4255 
 154   0.0000       5.554742       151.1522 
 155   0.0000       5.599527       152.3709 
 156   0.0000       5.673889       154.3944 
 157   0.0000       5.921539       161.1333 
 158   0.0000       6.015344       163.6858 
 159   0.0000       6.201050       168.7392 
 160   0.0000       6.220730       169.2747 
 161   0.0000       6.258935       170.3143 
 162   0.0000       6.308805       171.6713 
 163   0.0000       6.309740       171.6968 
 164   0.0000       6.323549       172.0725 
 165   0.0000       6.337342       172.4478 
 166   0.0000       6.364106       173.1761 
 167   0.0000       6.400010       174.1531 
 168   0.0000       6.420279       174.7047 
 169   0.0000       6.625408       180.2865 
 170   0.0000       6.835078       185.9919 
 171   0.0000       6.854632       186.5240 
 172   0.0000       6.897144       187.6808 
 173   0.0000       6.911293       188.0658 
 174   0.0000       6.992902       190.2865 
 175   0.0000       7.066845       192.2986 
 176   0.0000       7.207705       196.1316 
 177   0.0000       7.239620       197.0001 
 178   0.0000       7.290205       198.3766 
 179   0.0000       7.368256       200.5004 
 180   0.0000      22.310054       607.0874 
 181   0.0000      32.294188       878.7695 
 182   0.0000      43.244631      1176.7462 
 183   0.0000      43.883695      1194.1361 
 184   0.0000      43.906177      1194.7478 

                    ********************************
                    * MULLIKEN POPULATION ANALYSIS *
                    ********************************

-----------------------
MULLIKEN ATOMIC CHARGES
-----------------------
   0 C :   -0.264856
   1 H :    0.164833
   2 H :    0.180851
   3 H :    0.168491
   4 N :    0.428512
   5 O :   -0.347586
   6 O :   -0.349265
   7 H :    0.360847
   8 O :   -0.703878
   9 H :    0.362051
Sum of atomic charges:   -0.0000000

--------------------------------
MULLIKEN REDUCED ORBITAL CHARGES
--------------------------------
  0 C s       :     3.295911  s :     3.295911
      pz      :     1.078633  p :     2.914948
      px      :     0.744111
      py      :     1.092204
      dz2     :     0.008123  d :     0.048828
      dxz     :     0.012205
      dyz     :     0.005948
      dx2y2   :     0.013716
      dxy     :     0.008836
      f0      :     0.000348  f :     0.005169
      f+1     :     0.000868
      f-1     :     0.000747
      f+2     :     0.001180
      f-2     :     0.000198
      f+3     :     0.000994
      f-3     :     0.000834
  1 H s       :     0.813582  s :     0.813582
      pz      :     0.010667  p :     0.021585
      px      :     0.003260
      py      :     0.007659
  2 H s       :     0.797290  s :     0.797290
      pz      :     0.004839  p :     0.021860
      px      :     0.004633
      py      :     0.012389
  3 H s       :     0.809534  s :     0.809534
      pz      :     0.009585  p :     0.021976
      px      :     0.006956
      py      :     0.005434
  4 N s       :     3.316794  s :     3.316794
      pz      :     0.894568  p :     3.002268
      px      :     1.050290
      py      :     1.057410
      dz2     :     0.069262  d :     0.238040
      dxz     :     0.064596
      dyz     :     0.047695
      dx2y2   :     0.030227
      dxy     :     0.026259
      f0      :     0.002801  f :     0.014386
      f+1     :     0.003578
      f-1     :     0.001686
      f+2     :     0.002209
      f-2     :     0.002139
      f+3     :     0.001005
      f-3     :     0.000967
  5 O s       :     3.876290  s :     3.876290
      pz      :     1.199097  p :     4.426916
      px      :     1.834693
      py      :     1.393126
      dz2     :     0.016149  d :     0.041112
      dxz     :     0.008837
      dyz     :     0.012493
      dx2y2   :     0.001868
      dxy     :     0.001766
      f0      :     0.001062  f :     0.003267
      f+1     :     0.000700
      f-1     :     0.000866
      f+2     :     0.000286
      f-2     :     0.000293
      f+3     :     0.000034
      f-3     :     0.000026
  6 O s       :     3.879216  s :     3.879216
      pz      :     1.478669  p :     4.425569
      px      :     1.526665
      py      :     1.420234
      dz2     :     0.007685  d :     0.041210
      dxz     :     0.014109
      dyz     :     0.006383
      dx2y2   :     0.005808
      dxy     :     0.007225
      f0      :     0.000389  f :     0.003270
      f+1     :     0.000893
      f-1     :     0.000169
      f+2     :     0.000672
      f-2     :     0.000715
      f+3     :     0.000201
      f-3     :     0.000231
  7 H s       :     0.593270  s :     0.593270
      pz      :     0.019475  p :     0.045883
      px      :     0.016026
      py      :     0.010382
  8 O s       :     3.809065  s :     3.809065
      pz      :     1.451141  p :     4.874062
      px      :     1.923885
      py      :     1.499036
      dz2     :     0.009287  d :     0.019459
      dxz     :     0.001509
      dyz     :     0.000932
      dx2y2   :     0.006431
      dxy     :     0.001300
      f0      :     0.000450  f :     0.001293
      f+1     :     0.000197
      f-1     :     0.000023
      f+2     :     0.000118
      f-2     :     0.000028
      f+3     :     0.000098
      f-3     :     0.000378
  9 H s       :     0.592049  s :     0.592049
      pz      :     0.010983  p :     0.045899
      px      :     0.015230
      py      :     0.019687


                     *******************************
                     * LOEWDIN POPULATION ANALYSIS *
                     *******************************

----------------------
LOEWDIN ATOMIC CHARGES
----------------------
   0 C :   -0.239120
   1 H :    0.132401
   2 H :    0.144848
   3 H :    0.130809
   4 N :   -0.067623
   5 O :   -0.061474
   6 O :   -0.058960
   7 H :    0.174379
   8 O :   -0.328401
   9 H :    0.173140

-------------------------------
LOEWDIN REDUCED ORBITAL CHARGES
-------------------------------
  0 C s       :     2.871097  s :     2.871097
      pz      :     1.102145  p :     3.084277
      px      :     0.869601
      py      :     1.112532
      dz2     :     0.038526  d :     0.250255
      dxz     :     0.059825
      dyz     :     0.036306
      dx2y2   :     0.074445
      dxy     :     0.041153
      f0      :     0.003401  f :     0.033491
      f+1     :     0.006105
      f-1     :     0.002648
      f+2     :     0.005252
      f-2     :     0.002186
      f+3     :     0.007635
      f-3     :     0.006264
  1 H s       :     0.803213  s :     0.803213
      pz      :     0.031779  p :     0.064386
      px      :     0.009171
      py      :     0.023436
  2 H s       :     0.790599  s :     0.790599
      pz      :     0.014800  p :     0.064553
      px      :     0.012721
      py      :     0.037032
  3 H s       :     0.803460  s :     0.803460
      pz      :     0.030117  p :     0.065731
      px      :     0.018728
      py      :     0.016885
  4 N s       :     2.952690  s :     2.952690
      pz      :     1.102530  p :     3.292949
      px      :     1.173364
      py      :     1.017056
      dz2     :     0.222694  d :     0.749296
      dxz     :     0.215879
      dyz     :     0.142591
      dx2y2   :     0.092893
      dxy     :     0.075240
      f0      :     0.013182  f :     0.072687
      f+1     :     0.019838
      f-1     :     0.008573
      f+2     :     0.010333
      f-2     :     0.011503
      f+3     :     0.004764
      f-3     :     0.004494
  5 O s       :     3.504250  s :     3.504250
      pz      :     1.336777  p :     4.447490
      px      :     1.737081
      py      :     1.373632
      dz2     :     0.039637  d :     0.098705
      dxz     :     0.024015
      dyz     :     0.027402
      dx2y2   :     0.003790
      dxy     :     0.003860
      f0      :     0.003417  f :     0.011029
      f+1     :     0.002506
      f-1     :     0.003057
      f+2     :     0.000892
      f-2     :     0.001023
      f+3     :     0.000068
      f-3     :     0.000065
  6 O s       :     3.504543  s :     3.504543
      pz      :     1.509704  p :     4.444593
      px      :     1.547599
      py      :     1.387291
      dz2     :     0.019003  d :     0.098789
      dxz     :     0.036208
      dyz     :     0.014142
      dx2y2   :     0.015495
      dxy     :     0.013941
      f0      :     0.001361  f :     0.011035
      f+1     :     0.002911
      f-1     :     0.000688
      f+2     :     0.002378
      f-2     :     0.002167
      f+3     :     0.000742
      f-3     :     0.000789
  7 H s       :     0.666391  s :     0.666391
      pz      :     0.082766  p :     0.159229
      px      :     0.046816
      py      :     0.029648
  8 O s       :     3.460002  s :     3.460002
      pz      :     1.461457  p :     4.837216
      px      :     1.865801
      py      :     1.509958
      dz2     :     0.016069  d :     0.028842
      dxz     :     0.001592
      dyz     :     0.001039
      dx2y2   :     0.009435
      dxy     :     0.000707
      f0      :     0.000948  f :     0.002342
      f+1     :     0.000273
      f-1     :     0.000234
      f+2     :     0.000178
      f-2     :     0.000013
      f+3     :     0.000075
      f-3     :     0.000622
  9 H s       :     0.667431  s :     0.667431
      pz      :     0.030447  p :     0.159429
      px      :     0.045238
      py      :     0.083744


                      *****************************
                      * MAYER POPULATION ANALYSIS *
                      *****************************

  NA   - Mulliken gross atomic population
  ZA   - Total nuclear charge
  QA   - Mulliken gross atomic charge
  VA   - Mayer's total valence
  BVA  - Mayer's bonded valence
  FA   - Mayer's free valence

  ATOM       NA         ZA         QA         VA         BVA        FA
  0 C      6.2649     6.0000    -0.2649     3.7887     3.7887    -0.0000
  1 H      0.8352     1.0000     0.1648     0.9698     0.9698    -0.0000
  2 H      0.8191     1.0000     0.1809     0.9609     0.9609    -0.0000
  3 H      0.8315     1.0000     0.1685     0.9827     0.9827    -0.0000
  4 N      6.5715     7.0000     0.4285     4.1096     4.1096    -0.0000
  5 O      8.3476     8.0000    -0.3476     1.8836     1.8836     0.0000
  6 O      8.3493     8.0000    -0.3493     1.8947     1.8947    -0.0000
  7 H      0.6392     1.0000     0.3608     0.8852     0.8852     0.0000
  8 O      8.7039     8.0000    -0.7039     1.7974     1.7974    -0.0000
  9 H      0.6379     1.0000     0.3621     0.8841     0.8841     0.0000

  Mayer bond orders larger than 0.100000
B(  0-C ,  1-H ) :   0.9528 B(  0-C ,  2-H ) :   0.9359 B(  0-C ,  3-H ) :   0.9435 
B(  0-C ,  4-N ) :   0.8762 B(  4-N ,  5-O ) :   1.6111 B(  4-N ,  6-O ) :   1.6162 
B(  5-O ,  6-O ) :   0.2112 B(  7-H ,  8-O ) :   0.8800 B(  8-O ,  9-H ) :   0.8789 


-------
TIMINGS
-------

Total SCF time: 0 days 0 hours 0 min 8 sec 

Total time                  ....       8.751 sec
Sum of individual times     ....       8.394 sec  ( 95.9%)

Fock matrix formation       ....       7.504 sec  ( 85.8%)
  Split-RI-J                ....       0.652 sec  (  8.7% of F)
  Chain of spheres X        ....       3.533 sec  ( 47.1% of F)
  XC integration            ....       0.936 sec  ( 12.5% of F)
    Basis function eval.    ....       0.205 sec  ( 21.9% of XC)
    Density eval.           ....       0.148 sec  ( 15.8% of XC)
    XC-Functional eval.     ....       0.047 sec  (  5.0% of XC)
    XC-Potential eval.      ....       0.142 sec  ( 15.2% of XC)
Diagonalization             ....       0.083 sec  (  0.9%)
Density matrix formation    ....       0.011 sec  (  0.1%)
Population analysis         ....       0.011 sec  (  0.1%)
Initial guess               ....       0.063 sec  (  0.7%)
Orbital Transformation      ....       0.000 sec  (  0.0%)
Orbital Orthonormalization  ....       0.000 sec  (  0.0%)
DIIS solution               ....       0.078 sec  (  0.9%)
SOSCF solution              ....       0.095 sec  (  1.1%)
Grid generation             ....       0.548 sec  (  6.3%)

Maximum memory used throughout the entire SCF-calculation: 65.0 MB


-------------------------------------------------------------------------------
                          DFT DISPERSION CORRECTION                            
                                                                               
                              DFTD3 V3.1  Rev 1                                
                          USING Becke-Johnson damping                          
-------------------------------------------------------------------------------
The B3LYP functional is recognized
Active option DFTDOPT                   ...         4   

molecular C6(AA) [au] = 741.705897 


            DFT-D V3
 parameters
 s6 scaling factor         :     1.0000 
 a1 scaling factor         :     0.3981 
 s8 scaling factor         :     1.9889 
 a2 scaling factor         :     4.4211 
 ad hoc parameters k1-k3   :    16.0000     1.3333    -4.0000 

 Edisp/kcal,au: -4.789391968873  -0.007632381113 
 E6   /kcal   :  -2.432382873 
 E8   /kcal   :  -2.357009096 
 % E8         :  49.213117465 

-------------------------   ----------------
Dispersion correction           -0.007632381
-------------------------   ----------------


-------------------------   --------------------
FINAL SINGLE POINT ENERGY      -321.457265468662
-------------------------   --------------------



           ************************************************************
           *        Program running with 18 parallel MPI-processes    *
           *              working on a common directory               *
           ************************************************************
------------------------------------------------------------------------------
                         ORCA SCF GRADIENT CALCULATION
------------------------------------------------------------------------------

 ... reading COSX grid (gridx3)
Gradient of the Kohn-Sham DFT energy:
Kohn-Sham wavefunction type      ... RKS
Hartree-Fock exchange scaling    ...    0.200
Number of operators              ...    1
Number of atoms                  ...   10
Basis set dimensions             ...  185
Integral neglect threshold       ... 2.5e-11
Integral primitive cutoff        ... 2.5e-12
SHARK Integral package           ... ON

Nuc. rep. gradient       (SHARK) ... done (  0.0 sec)
HCore & Overlap gradient (SHARK) ... done (  0.0 sec)
RI-J gradient            (SHARK) ... done (  0.2 sec)
COSX-gradient                    ... done (  0.7 sec)
Exchange-correlation gradient    ... done
Dispersion correction            ... done

------------------
CARTESIAN GRADIENT
------------------

   1   C   :   -0.000048850   -0.000040540    0.000036896
   2   H   :   -0.000003873    0.000025970   -0.000021362
   3   H   :   -0.000017597   -0.000009303   -0.000052323
   4   H   :   -0.000055274    0.000148470    0.000125657
   5   N   :   -0.000008266   -0.000355563    0.000095495
   6   O   :   -0.000011157    0.000081049   -0.000033307
   7   O   :   -0.000003669    0.000136637   -0.000036347
   8   H   :    0.000311215   -0.000032566    0.000066046
   9   O   :   -0.000316379    0.000021739   -0.000280116
  10   H   :    0.000079967   -0.000116360    0.000043976

Difference to translation invariance:
           :   -0.0000738825   -0.0001404676   -0.0000553838

Difference to rotation invariance:
           :    0.0002157053    0.0003880265   -0.0003483482

Norm of the cartesian gradient     ...    0.0007191366
RMS gradient                       ...    0.0001312958
MAX gradient                       ...    0.0003555627

-------
TIMINGS
-------

Total SCF gradient time            ...        1.946 sec

One electron gradient       ....       0.024 sec  (  1.2%)
RI-J Coulomb gradient       ....       0.216 sec  ( 11.1%)
COSX gradient               ....       0.673 sec  ( 34.6%)
XC gradient                 ....       0.236 sec  ( 12.1%)
CPCM gradient               ....       0.139 sec  (  7.2%)
   A-Matrix (El+Nuc)        ....       0.035 sec  (  1.8%)
   Potential                ....       0.105 sec  (  5.4%)

Maximum memory used throughout the entire SCFGRAD-calculation: 39.5 MB

                            ***************************************
                            *     ORCA property calculations      *
                            ***************************************

                                    ---------------------
                                    Active property flags
                                    ---------------------
   (+) Dipole Moment


------------------------------------------------------------------------------
                       ORCA ELECTRIC PROPERTIES CALCULATION
------------------------------------------------------------------------------

Dipole Moment Calculation                       ... on
Quadrupole Moment Calculation                   ... off
Polarizability Calculation                      ... off
GBWName                                         ... /home/rudenko/mopac_kie/for_orca/CH3NO2_H2O_near/orca/freq_H/f_H.gbw
Electron density file                           ... /home/rudenko/mopac_kie/for_orca/CH3NO2_H2O_near/orca/freq_H/f_H.scfp
The origin for moment calculation is the CENTER OF MASS  = (-1.590745,  0.015559  0.314519)

-------------
DIPOLE MOMENT
-------------
                                X             Y             Z
Electronic contribution:     -6.65118       0.77173       0.49335
Nuclear contribution   :      8.48801      -0.13776      -1.53463
                        -----------------------------------------
Total Dipole Moment    :      1.83683       0.63397      -1.04129
                        -----------------------------------------
Magnitude (a.u.)       :      2.20457
Magnitude (Debye)      :      5.60358



--------------------
Rotational spectrum 
--------------------
 
Rotational constants in cm-1:     0.375005     0.047571     0.043180 
Rotational constants in MHz : 11242.352604  1426.156839  1294.516908 

 Dipole components along the rotational axes: 
x,y,z [a.u.] :    -1.633222     0.813139    -1.237550 
x,y,z [Debye]:    -4.151321     2.066835    -3.145601 

 

----------------------------------------------------------------------------
                           ORCA NUMERICAL FREQUENCIES
                              (18-process run)
----------------------------------------------------------------------------

Number of atoms                ... 10
Central differences            ... used
Number of displacements        ... 60
Numerical increment            ... 5.000e-03 bohr
IR-spectrum generation         ... on
Raman-spectrum generation      ... off
Surface Crossing Hessian       ... off

The output will be reduced. Please look at the following files:
SCF program output             ... >/home/rudenko/mopac_kie/for_orca/CH3NO2_H2O_near/orca/freq_H/f_H.lastscf
Integral program output        ... >/home/rudenko/mopac_kie/for_orca/CH3NO2_H2O_near/orca/freq_H/f_H.lastint
Gradient program output        ... >/home/rudenko/mopac_kie/for_orca/CH3NO2_H2O_near/orca/freq_H/f_H.lastgrad
Dipole moment program output   ... >/home/rudenko/mopac_kie/for_orca/CH3NO2_H2O_near/orca/freq_H/f_H.lastmom
AutoCI program output          ... >/home/rudenko/mopac_kie/for_orca/CH3NO2_H2O_near/orca/freq_H/f_H.lastautoci

	<< Calculating on displaced geometry   8 (of  60) >>
	<< Calculating on displaced geometry   6 (of  60) >>
	<< Calculating on displaced geometry   4 (of  60) >>
	<< Calculating on displaced geometry   7 (of  60) >>
	<< Calculating on displaced geometry   5 (of  60) >>
	<< Calculating on displaced geometry  14 (of  60) >>
	<< Calculating on displaced geometry   1 (of  60) >>
	<< Calculating on displaced geometry  10 (of  60) >>
	<< Calculating on displaced geometry   3 (of  60) >>
	<< Calculating on displaced geometry   2 (of  60) >>
	<< Calculating on displaced geometry  18 (of  60) >>
	<< Calculating on displaced geometry  11 (of  60) >>
	<< Calculating on displaced geometry  15 (of  60) >>
	<< Calculating on displaced geometry  13 (of  60) >>
	<< Calculating on displaced geometry   9 (of  60) >>
	<< Calculating on displaced geometry  17 (of  60) >>
	<< Calculating on displaced geometry  16 (of  60) >>
	<< Calculating on displaced geometry  12 (of  60) >>
	<< Calculating on displaced geometry  19 (of  60) >>
	<< Calculating on displaced geometry  20 (of  60) >>
	<< Calculating on displaced geometry  21 (of  60) >>
	<< Calculating on displaced geometry  22 (of  60) >>
	<< Calculating on displaced geometry  23 (of  60) >>
	<< Calculating on displaced geometry  24 (of  60) >>
	<< Calculating on displaced geometry  25 (of  60) >>
	<< Calculating on displaced geometry  26 (of  60) >>
	<< Calculating on displaced geometry  27 (of  60) >>
	<< Calculating on displaced geometry  30 (of  60) >>
	<< Calculating on displaced geometry  29 (of  60) >>
	<< Calculating on displaced geometry  31 (of  60) >>
	<< Calculating on displaced geometry  28 (of  60) >>
	<< Calculating on displaced geometry  32 (of  60) >>
	<< Calculating on displaced geometry  33 (of  60) >>
	<< Calculating on displaced geometry  34 (of  60) >>
	<< Calculating on displaced geometry  35 (of  60) >>
	<< Calculating on displaced geometry  36 (of  60) >>
	<< Calculating on displaced geometry  37 (of  60) >>
	<< Calculating on displaced geometry  38 (of  60) >>
	<< Calculating on displaced geometry  39 (of  60) >>
	<< Calculating on displaced geometry  40 (of  60) >>
	<< Calculating on displaced geometry  41 (of  60) >>
	<< Calculating on displaced geometry  42 (of  60) >>
	<< Calculating on displaced geometry  43 (of  60) >>
	<< Calculating on displaced geometry  44 (of  60) >>
	<< Calculating on displaced geometry  45 (of  60) >>
	<< Calculating on displaced geometry  46 (of  60) >>
	<< Calculating on displaced geometry  47 (of  60) >>
	<< Calculating on displaced geometry  48 (of  60) >>
	<< Calculating on displaced geometry  49 (of  60) >>
	<< Calculating on displaced geometry  50 (of  60) >>
	<< Calculating on displaced geometry  51 (of  60) >>
	<< Calculating on displaced geometry  52 (of  60) >>
	<< Calculating on displaced geometry  53 (of  60) >>
	<< Calculating on displaced geometry  54 (of  60) >>
	<< Calculating on displaced geometry  55 (of  60) >>
	<< Calculating on displaced geometry  56 (of  60) >>
	<< Calculating on displaced geometry  57 (of  60) >>
	<< Calculating on displaced geometry  58 (of  60) >>
	<< Calculating on displaced geometry  59 (of  60) >>
	<< Calculating on displaced geometry  60 (of  60) >>

-----------------------
VIBRATIONAL FREQUENCIES
-----------------------

Scaling factor for frequencies =  1.000000000 (already applied!)

   0:         0.00 cm**-1
   1:         0.00 cm**-1
   2:         0.00 cm**-1
   3:         0.00 cm**-1
   4:         0.00 cm**-1
   5:         0.00 cm**-1
   6:       -78.41 cm**-1 ***imaginary mode***
   7:       -28.59 cm**-1 ***imaginary mode***
   8:       -21.47 cm**-1 ***imaginary mode***
   9:        37.12 cm**-1
  10:        55.82 cm**-1
  11:        63.77 cm**-1
  12:       164.67 cm**-1
  13:       485.73 cm**-1
  14:       621.67 cm**-1
  15:       663.89 cm**-1
  16:       929.42 cm**-1
  17:      1110.45 cm**-1
  18:      1137.16 cm**-1
  19:      1397.28 cm**-1
  20:      1436.94 cm**-1
  21:      1438.96 cm**-1
  22:      1457.96 cm**-1
  23:      1565.63 cm**-1
  24:      1593.63 cm**-1
  25:      3080.98 cm**-1
  26:      3172.29 cm**-1
  27:      3209.30 cm**-1
  28:      3763.07 cm**-1
  29:      3846.36 cm**-1


------------
NORMAL MODES
------------

These modes are the cartesian displacements weighted by the diagonal matrix
M(i,i)=1/sqrt(m[i]) where m[i] is the mass of the displaced atom
Thus, these vectors are normalized but *not* orthogonal

                  0          1          2          3          4          5    
      0       0.000000   0.000000   0.000000   0.000000   0.000000   0.000000
      1       0.000000   0.000000   0.000000   0.000000   0.000000   0.000000
      2       0.000000   0.000000   0.000000   0.000000   0.000000   0.000000
      3       0.000000   0.000000   0.000000   0.000000   0.000000   0.000000
      4       0.000000   0.000000   0.000000   0.000000   0.000000   0.000000
      5       0.000000   0.000000   0.000000   0.000000   0.000000   0.000000
      6       0.000000   0.000000   0.000000   0.000000   0.000000   0.000000
      7       0.000000   0.000000   0.000000   0.000000   0.000000   0.000000
      8       0.000000   0.000000   0.000000   0.000000   0.000000   0.000000
      9       0.000000   0.000000   0.000000   0.000000   0.000000   0.000000
     10       0.000000   0.000000   0.000000   0.000000   0.000000   0.000000
     11       0.000000   0.000000   0.000000   0.000000   0.000000   0.000000
     12       0.000000   0.000000   0.000000   0.000000   0.000000   0.000000
     13       0.000000   0.000000   0.000000   0.000000   0.000000   0.000000
     14       0.000000   0.000000   0.000000   0.000000   0.000000   0.000000
     15       0.000000   0.000000   0.000000   0.000000   0.000000   0.000000
     16       0.000000   0.000000   0.000000   0.000000   0.000000   0.000000
     17       0.000000   0.000000   0.000000   0.000000   0.000000   0.000000
     18       0.000000   0.000000   0.000000   0.000000   0.000000   0.000000
     19       0.000000   0.000000   0.000000   0.000000   0.000000   0.000000
     20       0.000000   0.000000   0.000000   0.000000   0.000000   0.000000
     21       0.000000   0.000000   0.000000   0.000000   0.000000   0.000000
     22       0.000000   0.000000   0.000000   0.000000   0.000000   0.000000
     23       0.000000   0.000000   0.000000   0.000000   0.000000   0.000000
     24       0.000000   0.000000   0.000000   0.000000   0.000000   0.000000
     25       0.000000   0.000000   0.000000   0.000000   0.000000   0.000000
     26       0.000000   0.000000   0.000000   0.000000   0.000000   0.000000
     27       0.000000   0.000000   0.000000   0.000000   0.000000   0.000000
     28       0.000000   0.000000   0.000000   0.000000   0.000000   0.000000
     29       0.000000   0.000000   0.000000   0.000000   0.000000   0.000000
                  6          7          8          9         10         11    
      0       0.000124   0.001302   0.048463  -0.008240  -0.051108   0.070321
      1       0.008187   0.252707   0.159454  -0.028864   0.106539  -0.003991
      2      -0.006121  -0.188208   0.169058  -0.060790  -0.060160   0.017419
      3      -0.000714  -0.030365   0.206141  -0.037061   0.001881   0.127999
      4       0.018215   0.553267   0.129938  -0.129983  -0.243826  -0.400933
      5      -0.013765  -0.413922   0.207144   0.010830   0.204302   0.316898
      6      -0.007176  -0.089445  -0.039294  -0.042343  -0.269571  -0.092522
      7       0.012235   0.357843   0.182520  -0.051914   0.061244  -0.075656
      8       0.001334   0.150145   0.155732  -0.205775  -0.542322  -0.506839
      9       0.007110   0.109188   0.002089   0.040667   0.083593   0.160304
     10       0.003149  -0.004945   0.256287   0.087663   0.579136   0.487937
     11      -0.012840  -0.367073   0.241254  -0.042923   0.053229   0.165360
     12       0.001511   0.035118   0.001390   0.007282  -0.040993   0.070961
     13      -0.002478   0.009215   0.016843  -0.007487   0.009172  -0.016779
     14       0.000097  -0.019585   0.022278  -0.008241  -0.000446   0.015546
     15       0.004383   0.107720  -0.155578   0.051589  -0.035128   0.052860
     16      -0.042026  -0.023431   0.054958  -0.033164  -0.038673  -0.048011
     17       0.014737   0.009202  -0.027595   0.010970   0.017105   0.022407
     18      -0.000722  -0.013691   0.118773  -0.025565  -0.044077   0.082491
     19       0.031085  -0.157695  -0.134686   0.041630  -0.001732   0.019296
     20      -0.010488   0.094001  -0.038597   0.006185   0.006239  -0.010939
     21      -0.074168  -0.040527  -0.653982  -0.917294   0.320411   0.138405
     22      -0.700706  -0.072989  -0.164112   0.065766  -0.052717   0.060081
     23       0.040102   0.099516  -0.232833  -0.144915   0.071092   0.043470
     24      -0.004613  -0.128580   0.014335   0.026942   0.136217  -0.280956
     25       0.036230  -0.066108  -0.076940   0.021311  -0.065166   0.037638
     26       0.041548   0.081455  -0.097763   0.048983   0.033539  -0.041950
     27       0.067582   0.096047   0.244891   0.112358   0.137416   0.152889
     28       0.202607  -0.048297  -0.052052   0.003814  -0.065154   0.067657
     29      -0.670136   0.115211  -0.093013   0.171898   0.033899   0.041336
                 12         13         14         15         16         17    
      0      -0.013972  -0.051470   0.112667   0.436883   0.376559   0.035801
      1      -0.029822  -0.074812  -0.011351  -0.008762  -0.004290   0.039171
      2       0.001848  -0.198301  -0.028013  -0.111011  -0.096405   0.149772
      3      -0.035743  -0.549839  -0.068712   0.458105   0.285315  -0.683765
      4       0.036050  -0.045882  -0.268343   0.066345  -0.052339   0.095504
      5      -0.049242  -0.267147   0.142743  -0.170880  -0.079031   0.036776
      6       0.025881   0.018650   0.713956   0.122788   0.304507   0.002194
      7      -0.022436  -0.121632  -0.229623   0.095359   0.004262  -0.050873
      8       0.085787  -0.311192  -0.156653  -0.060567  -0.117016  -0.285596
      9      -0.020567   0.264075  -0.275582   0.547929   0.324995   0.547076
     10      -0.113421  -0.220678  -0.189331   0.032130  -0.079092  -0.172440
     11      -0.029150  -0.464514   0.152185  -0.165336  -0.094059  -0.274591
     12      -0.016249   0.044274  -0.002235   0.055103  -0.388826   0.004208
     13      -0.002974   0.053052   0.329990  -0.163117   0.003513   0.015521
     14      -0.002569   0.142090  -0.121614   0.038267   0.112647   0.001331
     15      -0.012908  -0.207597  -0.060475  -0.258838   0.116213   0.029625
     16       0.005477   0.033469  -0.134323   0.015660   0.146353  -0.019602
     17      -0.004504   0.100632   0.027474  -0.112122   0.383757  -0.052862
     18      -0.022377   0.225528  -0.046660  -0.184553  -0.114122  -0.051594
     19       0.011830   0.000111  -0.103313   0.121935  -0.138255  -0.015178
     20      -0.002864  -0.009534   0.090191   0.187194  -0.391194  -0.027568
     21       0.117346  -0.003207  -0.000945  -0.006454  -0.002454  -0.001141
     22      -0.030490   0.001338  -0.002331   0.001811  -0.000761   0.000179
     23       0.023413  -0.001407   0.000900  -0.001410  -0.000645  -0.000795
     24      -0.006088  -0.000215   0.000402  -0.000834  -0.001315   0.000809
     25       0.010504   0.000544   0.000577  -0.000319   0.000126  -0.000105
     26      -0.003018  -0.000709   0.001022   0.000204  -0.000340  -0.000069
     27       0.962056  -0.012780   0.013918  -0.043075  -0.008578  -0.013581
     28       0.085551  -0.000516   0.001995  -0.003454  -0.000288  -0.001103
     29       0.147717  -0.001957   0.000746  -0.005589  -0.002411  -0.001244
                 18         19         20         21         22         23    
      0      -0.011671   0.128761  -0.043016   0.015500   0.022568  -0.017608
      1       0.151423   0.009867   0.020312   0.000613  -0.049420  -0.011741
      2      -0.034798  -0.024409   0.047200   0.054272  -0.001132  -0.033208
      3      -0.262506  -0.409701   0.616082   0.081782  -0.306280   0.510852
      4      -0.278876  -0.154153   0.193918   0.413345   0.422508   0.140696
      5       0.259618   0.044384  -0.036950  -0.260810  -0.377543  -0.086494
      6       0.677694  -0.613844   0.169931  -0.190140   0.341369  -0.168524
      7      -0.092644   0.220868  -0.176763  -0.098682  -0.141532  -0.026855
      8      -0.139547  -0.013902  -0.494769  -0.654652  -0.056168  -0.292838
      9      -0.417570  -0.461269   0.173875  -0.383425  -0.122800  -0.347266
     10      -0.274488  -0.278378  -0.337789  -0.277734   0.548264  -0.244808
     11       0.050508   0.225176  -0.256736   0.172474   0.343590   0.084738
     12       0.008105  -0.105849  -0.190403   0.090604  -0.061092   0.151808
     13      -0.134557   0.013841   0.002059  -0.030705  -0.015016   0.180972
     14       0.048587   0.020197   0.017269  -0.066055   0.039709   0.490219
     15       0.004285   0.027211   0.035307  -0.030210   0.016905   0.037513
     16       0.020652  -0.021690  -0.026370   0.030078  -0.011017  -0.076736
     17      -0.016759  -0.057974  -0.077221   0.079667  -0.042722  -0.215752
     18      -0.002701   0.062546   0.103195  -0.029982   0.025541  -0.156716
     19       0.023960   0.015179   0.029441  -0.006098   0.009125  -0.064849
     20      -0.010578   0.042479   0.076407  -0.015862   0.014551  -0.169878
     21       0.000705   0.000524  -0.000006   0.000340   0.000361  -0.000203
     22      -0.000495   0.000738  -0.001067   0.000423   0.003672  -0.001854
     23       0.000655   0.000731  -0.000243   0.000311   0.000329   0.000387
     24      -0.000450  -0.000753  -0.000000  -0.000111  -0.000457  -0.000521
     25       0.000196   0.000239   0.000147   0.000066  -0.000367   0.000343
     26       0.000078  -0.000016  -0.000125   0.000059   0.000131  -0.000235
     27       0.010137   0.008216   0.000171   0.004856   0.000914   0.005709
     28       0.000783   0.000572  -0.000003   0.000353   0.000475  -0.000231
     29       0.000907   0.000004   0.001217   0.000218  -0.003464   0.002355
                 24         25         26         27         28         29    
      0       0.000276  -0.040149  -0.013804  -0.023002   0.000035   0.000006
      1      -0.000223  -0.019379   0.089051  -0.024664  -0.000002   0.000013
      2      -0.000120   0.012694  -0.020900  -0.090819  -0.000038  -0.000041
      3      -0.002179   0.034503   0.031287  -0.054126  -0.000242  -0.000013
      4       0.001628  -0.285373  -0.256367   0.457892  -0.000119   0.000050
      5      -0.001680  -0.373500  -0.365127   0.605840  -0.000196   0.000089
      6       0.000926   0.202541  -0.186011   0.013401   0.000024  -0.000013
      7      -0.000468   0.689330  -0.614066   0.058295   0.000283   0.000014
      8      -0.000113  -0.160397   0.140140  -0.029006  -0.000153  -0.000051
      9      -0.001857   0.242065   0.307503   0.322298  -0.000886   0.000160
     10       0.002943  -0.170975  -0.191987  -0.223132  -0.000003  -0.000200
     11       0.002267   0.382054   0.478212   0.502881   0.000587   0.000430
     12      -0.000210  -0.000708   0.000996  -0.001067  -0.000032  -0.000001
     13      -0.000175  -0.000041  -0.000158  -0.000612  -0.000009  -0.000000
     14      -0.000050   0.000223   0.000014  -0.001283   0.000063   0.000013
     15       0.000070   0.000227   0.000047   0.000004   0.000015   0.000004
     16      -0.000042  -0.000150   0.000070   0.000103  -0.000004   0.000000
     17      -0.000014  -0.000339   0.000063   0.000672  -0.000026  -0.000002
     18       0.000170   0.000445  -0.000047   0.000584   0.000033   0.000006
     19       0.000108   0.000032   0.000144   0.000442   0.000002  -0.000001
     20       0.000108   0.000242  -0.000282   0.000636  -0.000010   0.000001
     21       0.040984   0.000181   0.000302   0.000234   0.146128  -0.138965
     22      -0.703966  -0.000050   0.000011   0.000009  -0.056396   0.011149
     23       0.025348   0.000094  -0.000204  -0.000312  -0.699281   0.680300
     24       0.005371  -0.000108  -0.000141  -0.000144  -0.003937   0.013671
     25       0.054970   0.000048   0.000014   0.000056  -0.038243  -0.044471
     26      -0.043967  -0.000069  -0.000045  -0.000018   0.031945  -0.052642
     27      -0.127298   0.000007  -0.000184   0.000066  -0.083253  -0.078375
     28      -0.168576  -0.000340  -0.000127  -0.000208   0.663411   0.694708
     29       0.672663   0.000041   0.000005   0.000122   0.192166   0.155104


-----------
IR SPECTRUM
-----------

 Mode   freq       eps      Int      T**2         TX        TY        TZ
       cm**-1   L/(mol*cm) km/mol    a.u.
----------------------------------------------------------------------------
  9:     37.12   0.022935  115.90  0.192805  (-0.433761 -0.000361 -0.068236)
 10:     55.82   0.001141    5.77  0.006377  ( 0.047477  0.058787 -0.025837)
 11:     63.77   0.011412   57.67  0.055847  ( 0.231404  0.018422  0.044271)
 12:    164.67   0.044538  225.08  0.084403  ( 0.286021  0.001401  0.050915)
 13:    485.73   0.000583    2.95  0.000374  (-0.000805 -0.007345 -0.017884)
 14:    621.67   0.001650    8.34  0.000828  ( 0.017402  0.019416 -0.012182)
 15:    663.89   0.006713   33.93  0.003156  ( 0.054106 -0.012220 -0.008875)
 16:    929.42   0.002993   15.13  0.001005  (-0.030070 -0.000779  0.010005)
 17:   1110.45   0.004390   22.18  0.001234  ( 0.012019  0.011671  0.030869)
 18:   1137.16   0.000835    4.22  0.000229  (-0.008113 -0.009497  0.008549)
 19:   1397.28   0.015866   80.18  0.003543  (-0.058730 -0.009282  0.002828)
 20:   1436.94   0.016399   82.88  0.003561  (-0.056169 -0.010747 -0.017059)
 21:   1438.96   0.022559  114.00  0.004892  ( 0.012135 -0.011783 -0.067869)
 22:   1457.96   0.006438   32.53  0.001378  (-0.016138  0.032388  0.008279)
 23:   1565.63   0.119201  602.39  0.023759  ( 0.040471  0.050977  0.139724)
 24:   1593.63   0.024227  122.44  0.004744  (-0.003883 -0.053934  0.042665)
 25:   3080.98   0.000288    1.46  0.000029  ( 0.005179  0.001455  0.000524)
 26:   3172.29   0.000231    1.17  0.000023  (-0.002391 -0.002261  0.003449)
 27:   3209.30   0.000453    2.29  0.000044  ( 0.006421 -0.001675  0.000107)
 28:   3763.07   0.004969   25.11  0.000412  ( 0.004512  0.015476 -0.012338)
 29:   3846.36   0.021837  110.35  0.001772  (-0.008164  0.026444  0.031713)

* The epsilon (eps) is given for a Dirac delta lineshape.
** The dipole moment derivative (T) already includes vibrational overlap.

The first frequency considered to be a vibration is 9
The total number of vibrations considered is 21


--------------------------
THERMOCHEMISTRY AT 298.15K
--------------------------

Temperature         ... 298.15 K
Pressure            ... 1.00 atm
Total Mass          ... 79.06 AMU

Throughout the following assumptions are being made:
  (1) The electronic state is orbitally nondegenerate
  (2) There are no thermally accessible electronically excited states
  (3) Hindered rotations indicated by low frequency modes are not
      treated as such but are treated as vibrations and this may
      cause some error
  (4) All equations used are the standard statistical mechanics
      equations for an ideal gas
  (5) All vibrations are strictly harmonic

freq.      37.12  E(vib)   ...       0.54 
freq.      55.82  E(vib)   ...       0.52 
freq.      63.77  E(vib)   ...       0.51 
freq.     164.67  E(vib)   ...       0.39 
freq.     485.73  E(vib)   ...       0.15 
freq.     621.67  E(vib)   ...       0.09 
freq.     663.89  E(vib)   ...       0.08 
freq.     929.42  E(vib)   ...       0.03 
freq.    1110.45  E(vib)   ...       0.02 
freq.    1137.16  E(vib)   ...       0.01 
freq.    1397.28  E(vib)   ...       0.00 
freq.    1436.94  E(vib)   ...       0.00 
freq.    1438.96  E(vib)   ...       0.00 
freq.    1457.96  E(vib)   ...       0.00 
freq.    1565.63  E(vib)   ...       0.00 
freq.    1593.63  E(vib)   ...       0.00 
freq.    3080.98  E(vib)   ...       0.00 
freq.    3172.29  E(vib)   ...       0.00 
freq.    3209.30  E(vib)   ...       0.00 
freq.    3763.07  E(vib)   ...       0.00 
freq.    3846.36  E(vib)   ...       0.00 

------------
INNER ENERGY
------------

The inner energy is: U= E(el) + E(ZPE) + E(vib) + E(rot) + E(trans)
    E(el)   - is the total energy from the electronic structure calculation
              = E(kin-el) + E(nuc-el) + E(el-el) + E(nuc-nuc)
    E(ZPE)  - the the zero temperature vibrational energy from the frequency calculation
    E(vib)  - the the finite temperature correction to E(ZPE) due to population
              of excited vibrational states
    E(rot)  - is the rotational thermal energy
    E(trans)- is the translational thermal energy

Summary of contributions to the inner energy U:
Electronic energy                ...   -321.45726547 Eh
Zero point energy                ...      0.07115196 Eh      44.65 kcal/mol
Thermal vibrational correction   ...      0.00374779 Eh       2.35 kcal/mol
Thermal rotational correction    ...      0.00141627 Eh       0.89 kcal/mol
Thermal translational correction ...      0.00141627 Eh       0.89 kcal/mol
-----------------------------------------------------------------------
Total thermal energy                   -321.37953317 Eh


Summary of corrections to the electronic energy:
(perhaps to be used in another calculation)
Total thermal correction                  0.00658034 Eh       4.13 kcal/mol
Non-thermal (ZPE) correction              0.07115196 Eh      44.65 kcal/mol
-----------------------------------------------------------------------
Total correction                          0.07773229 Eh      48.78 kcal/mol


--------
ENTHALPY
--------

The enthalpy is H = U + kB*T
                kB is Boltzmann's constant
Total free energy                 ...   -321.37953317 Eh 
Thermal Enthalpy correction       ...      0.00094421 Eh       0.59 kcal/mol
-----------------------------------------------------------------------
Total Enthalpy                    ...   -321.37858897 Eh


Note: Only C1 symmetry has been detected, increase convergence thresholds 
      if your molecule has a higher symmetry. Symmetry factor of 1.0 is   
      used for the rotational entropy correction. 
 

Note: Rotational entropy computed according to Herzberg 
Infrared and Raman Spectra, Chapter V,1, Van Nostrand Reinhold, 1945 
Point Group:  C1, Symmetry Number:   1  
Rotational constants in cm-1:     0.375005     0.047571     0.043180 

Vibrational entropy computed according to the QRRHO of S. Grimme
Chem.Eur.J. 2012 18 9955


-------
ENTROPY
-------

The entropy contributions are T*S = T*(S(el)+S(vib)+S(rot)+S(trans))
     S(el)   - electronic entropy
     S(vib)  - vibrational entropy
     S(rot)  - rotational entropy
     S(trans)- translational entropy
The entropies will be listed as multiplied by the temperature to get
units of energy

Electronic entropy                ...      0.00000000 Eh      0.00 kcal/mol
Vibrational entropy               ...      0.00718142 Eh      4.51 kcal/mol
Rotational entropy                ...      0.01289509 Eh      8.09 kcal/mol
Translational entropy             ...      0.01853838 Eh     11.63 kcal/mol
-----------------------------------------------------------------------
Final entropy term                ...      0.03861489 Eh     24.23 kcal/mol

In case the symmetry of your molecule has not been determined correctly
or in case you have a reason to use a different symmetry number we print 
out the resulting rotational entropy values for sn=1,12 :
 --------------------------------------------------------
|  sn= 1 | S(rot)=       0.01289509 Eh      8.09 kcal/mol|
|  sn= 2 | S(rot)=       0.01224063 Eh      7.68 kcal/mol|
|  sn= 3 | S(rot)=       0.01185780 Eh      7.44 kcal/mol|
|  sn= 4 | S(rot)=       0.01158618 Eh      7.27 kcal/mol|
|  sn= 5 | S(rot)=       0.01137549 Eh      7.14 kcal/mol|
|  sn= 6 | S(rot)=       0.01120334 Eh      7.03 kcal/mol|
|  sn= 7 | S(rot)=       0.01105780 Eh      6.94 kcal/mol|
|  sn= 8 | S(rot)=       0.01093172 Eh      6.86 kcal/mol|
|  sn= 9 | S(rot)=       0.01082051 Eh      6.79 kcal/mol|
|  sn=10 | S(rot)=       0.01072103 Eh      6.73 kcal/mol|
|  sn=11 | S(rot)=       0.01063104 Eh      6.67 kcal/mol|
|  sn=12 | S(rot)=       0.01054889 Eh      6.62 kcal/mol|
 --------------------------------------------------------


-------------------
GIBBS FREE ENERGY
-------------------

The Gibbs free energy is G = H - T*S

Total enthalpy                    ...   -321.37858897 Eh 
Total entropy correction          ...     -0.03861489 Eh    -24.23 kcal/mol
-----------------------------------------------------------------------
Final Gibbs free energy         ...   -321.41720385 Eh

For completeness - the Gibbs free energy minus the electronic energy
G-E(el)                           ...      0.04006162 Eh     25.14 kcal/mol



Timings for individual modules:

Sum of individual times         ...      254.853 sec (=   4.248 min)
GTO integral calculation        ...        1.182 sec (=   0.020 min)   0.5 %
SCF iterations                  ...       18.566 sec (=   0.309 min)   7.3 %
SCF Gradient evaluation         ...        4.508 sec (=   0.075 min)   1.8 %
Numerical frequency calculation ...      230.598 sec (=   3.843 min)  90.5 %
                             ****ORCA TERMINATED NORMALLY****
TOTAL RUN TIME: 0 days 0 hours 4 minutes 3 seconds 772 msec
