 *******************************************************************************
 **                                                                           **
 **                              MOPAC v22.0.6                                **
 **                                                                           **
 *******************************************************************************
 **          Digital Object Identifier (DOI): 10.5281/zenodo.6511958          **
 **    Visit the DOI location for information on how to cite this program.    **
 *******************************************************************************

                              PM7 CALCULATION RESULTS

 *******************************************************************************
 *  CALCULATION DONE:                                Tue Mar 26 11:59:23 2024  *
 *  PM7        - The PM7 Hamiltonian to be used
 *  SINGLET    - SPIN STATE DEFINED AS A SINGLET
 *
 *
 *
 *                 CHARGE ON SYSTEM = -1
 *
 *
 *
 *  EPS=78.4   - USE ANDREAS KLAMT'S COSMO IMPLICIT SOLVATION MODEL
 *  T=         - A TIME OF 14.0 DAYS REQUESTED
 *  DUMP=N     - RESTART FILE WRITTEN EVERY 30.0 MINUTES REQUESTED
 *  RELSCF     - DEFAULT SCF CRITERION MULTIPLIED BY 1.0000
 *              (DEFAULT SCF CRITERION = 0.00010)
 *  ITRY=      - DO A MAXIMUM OF 15000 ITERATIONS FOR SCF
 *  AUX        - OUTPUT AUXILIARY INFORMATION
 *  BONDS      - FINAL BOND-ORDER MATRIX TO BE PRINTED
 *******************************************************************************
PM7 BONDS AUX DUMP=30M ITRY=15000 T=14D CHARGE=-1 SINGLET eps=78.4 RELSCF=1
 Title: ASE calculation

   ATOM   CHEMICAL          X               Y               Z
  NUMBER   SYMBOL      (ANGSTROMS)     (ANGSTROMS)     (ANGSTROMS)

     1       C          0.73968000  *  -0.77747000  *   0.02337000  *
     2       H          3.05113000  *  -1.07398000  *   0.13724000  *
     3       N          0.71630000  *  -1.40868000  *   1.18471000  *
     4       O          0.68229000  *  -2.67778000  *   1.26558000  *
     5       O          0.75259000  *  -0.78026000  *   2.29021000  *
     6       C          6.69405000  *  -3.20487000  *   0.48301000  *
     7       O          5.98075000  *  -2.35884000  *   1.24215000  *
     8       O          6.29534000  *  -3.54008000  *  -0.61376000  *
     9       C          7.94153000  *  -3.63471000  *   1.15104000  *
    10       H          8.69389000  *  -3.98805000  *   0.42554000  *
    11       H          7.76147000  *  -4.46767000  *   1.85541000  *
    12       H          8.41021000  *  -2.82609000  *   1.73902000  *
    13       C          0.73208000  *   0.70995000  *  -0.03037000  *
    14       H          1.17497000  *   1.16919000  *   0.86587000  *
    15       H         -0.29249000  *   1.10206000  *  -0.11676000  *
    16       H          1.29277000  *   1.08713000  *  -0.89744000  *
    17       C          0.66983000  *  -1.53445000  *  -1.25643000  *
    18       H         -0.35182000  *  -1.53421000  *  -1.66545000  *
    19       H          0.97073000  *  -2.58690000  *  -1.14487000  *
    20       H          1.32086000  *  -1.09028000  *  -2.02342000  *
    21       H          5.16358000  *  -1.94964000  *   0.79037000  *
    22       O          4.03592000  *  -0.99613000  *   0.01181000  *
    23       H          4.23846000  *  -0.10552000  *   0.33956000  *



          CARTESIAN COORDINATES 

    NO.       ATOM           X           Y           Z

     1         C          0.7397     -0.7775      0.0234
     2         H          3.0511     -1.0740      0.1372
     3         N          0.7163     -1.4087      1.1847
     4         O          0.6823     -2.6778      1.2656
     5         O          0.7526     -0.7803      2.2902
     6         C          6.6940     -3.2049      0.4830
     7         O          5.9808     -2.3588      1.2422
     8         O          6.2953     -3.5401     -0.6138
     9         C          7.9415     -3.6347      1.1510
    10         H          8.6939     -3.9880      0.4255
    11         H          7.7615     -4.4677      1.8554
    12         H          8.4102     -2.8261      1.7390
    13         C          0.7321      0.7100     -0.0304
    14         H          1.1750      1.1692      0.8659
    15         H         -0.2925      1.1021     -0.1168
    16         H          1.2928      1.0871     -0.8974
    17         C          0.6698     -1.5345     -1.2564
    18         H         -0.3518     -1.5342     -1.6655
    19         H          0.9707     -2.5869     -1.1449
    20         H          1.3209     -1.0903     -2.0234
    21         H          5.1636     -1.9496      0.7904
    22         O          4.0359     -0.9961      0.0118
    23         H          4.2385     -0.1055      0.3396

 General Reference for PM7:
 "Optimization of Parameters for Semiempirical Methods VI: More Modifications to the 
 NDDO Approximations and Re-optimization of Parameters", J. J. P. Stewart, J. Mol. Mod., 1:32, 19 (2013)
 https://link.springer.com/article/10.1007/s00894-012-1667-x

           Empirical Formula: C5 H12 N O5  =    23 atoms



      MOLECULAR POINT GROUP   :   C1  


 SINGLET STATE CALCULATION


      RHF CALCULATION, NO. OF DOUBLY OCCUPIED LEVELS = 34


          Geometry optimization using EF
  SCF CRITERION =    0.1000E-03

          DIAGONAL MATRIX USED AS START HESSIAN

 CYCLE:     1 TIME:   0.035 TIME LEFT:  2.00W  GRAD.:    21.762 HEAT: -314.0680
 CYCLE:     2 TIME:   0.020 TIME LEFT:  2.00W  GRAD.:     9.407 HEAT: -314.2271
 CYCLE:     3 TIME:   0.188 TIME LEFT:  2.00W  GRAD.:     9.275 HEAT: -314.2662
 CYCLE:     4 TIME:   0.047 TIME LEFT:  2.00W  GRAD.:    11.524 HEAT: -314.2838
 CYCLE:     5 TIME:   0.027 TIME LEFT:  2.00W  GRAD.:     6.859 HEAT: -314.3133
 CYCLE:     6 TIME:   0.148 TIME LEFT:  2.00W  GRAD.:     3.759 HEAT: -314.3287
 CYCLE:     7 TIME:   0.066 TIME LEFT:  2.00W  GRAD.:     3.351 HEAT: -314.3355
 CYCLE:     8 TIME:   0.094 TIME LEFT:  2.00W  GRAD.:     8.690 HEAT: -314.3982
 CYCLE:     9 TIME:   0.102 TIME LEFT:  2.00W  GRAD.:     3.478 HEAT: -314.4336
 CYCLE:    10 TIME:   0.082 TIME LEFT:  2.00W  GRAD.:     2.976 HEAT: -314.4405
 CYCLE:    11 TIME:   0.094 TIME LEFT:  2.00W  GRAD.:     2.612 HEAT: -314.4390
 CYCLE:    12 TIME:   0.426 TIME LEFT:  2.00W  GRAD.:     2.588 HEAT: -314.4404
 CYCLE:    13 TIME:   0.121 TIME LEFT:  2.00W  GRAD.:     7.028 HEAT: -314.4757
 CYCLE:    14 TIME:   0.086 TIME LEFT:  2.00W  GRAD.:    10.551 HEAT: -314.4834
 CYCLE:    15 TIME:   0.043 TIME LEFT:  2.00W  GRAD.:     9.599 HEAT: -314.5069
 CYCLE:    16 TIME:   0.176 TIME LEFT:  2.00W  GRAD.:     5.118 HEAT: -314.5258
 CYCLE:    17 TIME:   0.113 TIME LEFT:  2.00W  GRAD.:     2.875 HEAT: -314.5348
 CYCLE:    18 TIME:   0.039 TIME LEFT:  2.00W  GRAD.:     2.644 HEAT: -314.5444
 CYCLE:    19 TIME:   0.090 TIME LEFT:  2.00W  GRAD.:     2.333 HEAT: -314.5503
 CYCLE:    20 TIME:   0.031 TIME LEFT:  2.00W  GRAD.:     8.391 HEAT: -314.5935
 CYCLE:    21 TIME:   0.023 TIME LEFT:  2.00W  GRAD.:     7.892 HEAT: -314.7086
 CYCLE:    22 TIME:   0.105 TIME LEFT:  2.00W  GRAD.:     3.918 HEAT: -314.7230
 CYCLE:    23 TIME:   0.035 TIME LEFT:  2.00W  GRAD.:     5.266 HEAT: -314.7361
 CYCLE:    24 TIME:   0.066 TIME LEFT:  2.00W  GRAD.:     3.320 HEAT: -314.7708
 CYCLE:    25 TIME:   0.156 TIME LEFT:  2.00W  GRAD.:     1.745 HEAT: -314.7851
 CYCLE:    26 TIME:   0.039 TIME LEFT:  2.00W  GRAD.:     1.476 HEAT: -314.7878
 CYCLE:    27 TIME:   0.387 TIME LEFT:  2.00W  GRAD.:     1.379 HEAT: -314.7937
 CYCLE:    28 TIME:   0.297 TIME LEFT:  2.00W  GRAD.:     4.251 HEAT: -314.8684
 CYCLE:    29 TIME:   0.188 TIME LEFT:  2.00W  GRAD.:     3.067 HEAT: -314.8732
 CYCLE:    30 TIME:   0.395 TIME LEFT:  2.00W  GRAD.:     2.863 HEAT: -314.8741
 CYCLE:    31 TIME:   0.355 TIME LEFT:  2.00W  GRAD.:     2.743 HEAT: -314.8747

     TRUST RADIUS NOW LESS THAN  0.00010 OPTIMIZATION TERMINATING
      THE GEOMETRY MAY NOT BE COMPLETELY OPTIMIZED
      (TO CONTINUE, ADD 'LET DDMIN=0.0' TO THE KEYWORD LINE)

 -------------------------------------------------------------------------------
 PM7 BONDS AUX DUMP=30M ITRY=15000 T=14D CHARGE=-1 SINGLET eps=78.4 RELSCF=1
 Title: ASE calculation



     GEOMETRY OPTIMISED USING EIGENVECTOR FOLLOWING (EF).     
     SCF FIELD WAS ACHIEVED                                   


                              PM7 CALCULATION
                                                       MOPAC v22.0.6 Linux
                                                       Tue Mar 26 11:59:28 2024




          FINAL HEAT OF FORMATION =       -314.87470 KCAL/MOL =   -1317.43574 KJ/MOL
          VAN DER WAALS AREA      =        220.92 SQUARE ANGSTROMS



          DIELECTRIC ENERGY       =         -3.75306 EV
          COSMO AREA              =        220.92 SQUARE ANGSTROMS
          COSMO VOLUME            =        210.45 CUBIC ANGSTROMS

          GRADIENT NORM           =          2.74275          =       0.57190 PER ATOM
          IONIZATION POTENTIAL    =          8.333124 EV
          HOMO LUMO ENERGIES (EV) =         -8.333  0.830
          NO. OF FILLED LEVELS    =         34
          MOLECULAR WEIGHT        =        166.1535         POINT GROUP:  C1  

          MOLECULAR DIMENSIONS (Angstroms)

            Atom       Atom       Distance
            H    15    H    10    10.30704
            H    12    H    18     4.35004
            O     4    H    16     3.95967


          SCF CALCULATIONS        =        100

          WALL-CLOCK TIME         =      5.102 SECONDS
          COMPUTATION TIME        =          1 MINUTE AND 0.222 SECONDS



       FINAL  POINT  AND  DERIVATIVES

   PARAMETER     ATOM    TYPE            VALUE        GRADIENT
      1          1  C    CARTESIAN X     0.750444     -0.186419  KCAL/ANGSTROM
      2          1  C    CARTESIAN Y    -0.785705     -0.229702  KCAL/ANGSTROM
      3          1  C    CARTESIAN Z     0.021035     -0.149327  KCAL/ANGSTROM
      4          2  H    CARTESIAN X     3.070394     -0.426476  KCAL/ANGSTROM
      5          2  H    CARTESIAN Y    -1.108926      0.755637  KCAL/ANGSTROM
      6          2  H    CARTESIAN Z     0.399093      1.240119  KCAL/ANGSTROM
      7          3  N    CARTESIAN X     0.742959     -0.181997  KCAL/ANGSTROM
      8          3  N    CARTESIAN Y    -1.418602     -0.201249  KCAL/ANGSTROM
      9          3  N    CARTESIAN Z     1.180822     -0.261830  KCAL/ANGSTROM
     10          4  O    CARTESIAN X     0.700518     -0.771228  KCAL/ANGSTROM
     11          4  O    CARTESIAN Y    -2.688364     -0.476256  KCAL/ANGSTROM
     12          4  O    CARTESIAN Z     1.260902      0.214914  KCAL/ANGSTROM
     13          5  O    CARTESIAN X     0.807016      0.473204  KCAL/ANGSTROM
     14          5  O    CARTESIAN Y    -0.791977     -0.009491  KCAL/ANGSTROM
     15          5  O    CARTESIAN Z     2.287590     -0.384191  KCAL/ANGSTROM
     16          6  C    CARTESIAN X     6.679084      0.122274  KCAL/ANGSTROM
     17          6  C    CARTESIAN Y    -3.185900     -0.136167  KCAL/ANGSTROM
     18          6  C    CARTESIAN Z     0.472492     -0.101588  KCAL/ANGSTROM
     19          7  O    CARTESIAN X     5.977972      0.122317  KCAL/ANGSTROM
     20          7  O    CARTESIAN Y    -2.310279     -0.019158  KCAL/ANGSTROM
     21          7  O    CARTESIAN Z     1.207855      0.397489  KCAL/ANGSTROM
     22          8  O    CARTESIAN X     6.292205     -0.048140  KCAL/ANGSTROM
     23          8  O    CARTESIAN Y    -3.524052     -0.364609  KCAL/ANGSTROM
     24          8  O    CARTESIAN Z    -0.628071     -0.398940  KCAL/ANGSTROM
     25          9  C    CARTESIAN X     7.901540      0.182800  KCAL/ANGSTROM
     26          9  C    CARTESIAN Y    -3.643956     -0.328121  KCAL/ANGSTROM
     27          9  C    CARTESIAN Z     1.169594      0.382890  KCAL/ANGSTROM
     28         10  H    CARTESIAN X     8.668181      0.581904  KCAL/ANGSTROM
     29         10  H    CARTESIAN Y    -4.007417     -0.211125  KCAL/ANGSTROM
     30         10  H    CARTESIAN Z     0.463783      0.055655  KCAL/ANGSTROM
     31         11  H    CARTESIAN X     7.689504      0.562029  KCAL/ANGSTROM
     32         11  H    CARTESIAN Y    -4.478464      0.266695  KCAL/ANGSTROM
     33         11  H    CARTESIAN Z     1.862266     -0.134193  KCAL/ANGSTROM
     34         12  H    CARTESIAN X     8.368180     -0.100035  KCAL/ANGSTROM
     35         12  H    CARTESIAN Y    -2.848183     -0.022495  KCAL/ANGSTROM
     36         12  H    CARTESIAN Z     1.775733     -0.218004  KCAL/ANGSTROM
     37         13  C    CARTESIAN X     0.757665      0.034669  KCAL/ANGSTROM
     38         13  C    CARTESIAN Y     0.702555      0.282018  KCAL/ANGSTROM
     39         13  C    CARTESIAN Z    -0.031121     -0.033183  KCAL/ANGSTROM
     40         14  H    CARTESIAN X     1.192495     -0.067630  KCAL/ANGSTROM
     41         14  H    CARTESIAN Y     1.157725      0.063951  KCAL/ANGSTROM
     42         14  H    CARTESIAN Z     0.871056     -0.024488  KCAL/ANGSTROM
     43         15  H    CARTESIAN X    -0.261754     -0.338077  KCAL/ANGSTROM
     44         15  H    CARTESIAN Y     1.104955      0.117590  KCAL/ANGSTROM
     45         15  H    CARTESIAN Z    -0.132090      0.077554  KCAL/ANGSTROM
     46         16  H    CARTESIAN X     1.335920     -0.115437  KCAL/ANGSTROM
     47         16  H    CARTESIAN Y     1.073449      0.078236  KCAL/ANGSTROM
     48         16  H    CARTESIAN Z    -0.889767     -0.127640  KCAL/ANGSTROM
     49         17  C    CARTESIAN X     0.679148      0.176755  KCAL/ANGSTROM
     50         17  C    CARTESIAN Y    -1.537812      0.103784  KCAL/ANGSTROM
     51         17  C    CARTESIAN Z    -1.261371     -0.324301  KCAL/ANGSTROM
     52         18  H    CARTESIAN X    -0.337608      0.014727  KCAL/ANGSTROM
     53         18  H    CARTESIAN Y    -1.520579     -0.089968  KCAL/ANGSTROM
     54         18  H    CARTESIAN Z    -1.680455      0.081237  KCAL/ANGSTROM
     55         19  H    CARTESIAN X     0.964704      0.092431  KCAL/ANGSTROM
     56         19  H    CARTESIAN Y    -2.594213      0.177554  KCAL/ANGSTROM
     57         19  H    CARTESIAN Z    -1.149608      0.021111  KCAL/ANGSTROM
     58         20  H    CARTESIAN X     1.347322     -0.159778  KCAL/ANGSTROM
     59         20  H    CARTESIAN Y    -1.101286      0.018497  KCAL/ANGSTROM
     60         20  H    CARTESIAN Z    -2.017814      0.152370  KCAL/ANGSTROM
     61         21  H    CARTESIAN X     5.156762     -0.850821  KCAL/ANGSTROM
     62         21  H    CARTESIAN Y    -1.902049      0.082460  KCAL/ANGSTROM
     63         21  H    CARTESIAN Z     0.753526     -0.111332  KCAL/ANGSTROM
     64         22  O    CARTESIAN X     3.961477      0.326005  KCAL/ANGSTROM
     65         22  O    CARTESIAN Y    -1.008784      0.365979  KCAL/ANGSTROM
     66         22  O    CARTESIAN Z     0.028748     -0.469212  KCAL/ANGSTROM
     67         23  H    CARTESIAN X     4.203032      0.559208  KCAL/ANGSTROM
     68         23  H    CARTESIAN Y    -0.088057     -0.222842  KCAL/ANGSTROM
     69         23  H    CARTESIAN Z     0.219063      0.115934  KCAL/ANGSTROM




   ATOM   CHEMICAL          X               Y               Z
  NUMBER   SYMBOL      (ANGSTROMS)     (ANGSTROMS)     (ANGSTROMS)

     1       C          0.75044404  *  -0.78570466  *   0.02103457  *
     2       H          3.07039379  *  -1.10892561  *   0.39909250  *
     3       N          0.74295913  *  -1.41860221  *   1.18082238  *
     4       O          0.70051795  *  -2.68836421  *   1.26090177  *
     5       O          0.80701594  *  -0.79197741  *   2.28758975  *
     6       C          6.67908426  *  -3.18590003  *   0.47249205  *
     7       O          5.97797221  *  -2.31027909  *   1.20785516  *
     8       O          6.29220528  *  -3.52405171  *  -0.62807149  *
     9       C          7.90153989  *  -3.64395568  *   1.16959412  *
    10       H          8.66818125  *  -4.00741729  *   0.46378325  *
    11       H          7.68950416  *  -4.47846382  *   1.86226587  *
    12       H          8.36817952  *  -2.84818268  *   1.77573284  *
    13       C          0.75766480  *   0.70255462  *  -0.03112131  *
    14       H          1.19249533  *   1.15772524  *   0.87105636  *
    15       H         -0.26175437  *   1.10495474  *  -0.13208974  *
    16       H          1.33592032  *   1.07344930  *  -0.88976674  *
    17       C          0.67914793  *  -1.53781198  *  -1.26137119  *
    18       H         -0.33760841  *  -1.52057931  *  -1.68045536  *
    19       H          0.96470436  *  -2.59421268  *  -1.14960816  *
    20       H          1.34732232  *  -1.10128601  *  -2.01781357  *
    21       H          5.15676179  *  -1.90204893  *   0.75352551  *
    22       O          3.96147653  *  -1.00878417  *   0.02874811  *
    23       H          4.20303200  *  -0.08805741  *   0.21906321  *

                             CARTESIAN COORDINATES

   1    C        0.750444041    -0.785704656     0.021034568
   2    H        3.070393793    -1.108925607     0.399092501
   3    N        0.742959131    -1.418602208     1.180822382
   4    O        0.700517947    -2.688364210     1.260901768
   5    O        0.807015936    -0.791977414     2.287589747
   6    C        6.679084258    -3.185900026     0.472492051
   7    O        5.977972212    -2.310279093     1.207855159
   8    O        6.292205280    -3.524051710    -0.628071494
   9    C        7.901539885    -3.643955681     1.169594121
  10    H        8.668181251    -4.007417292     0.463783247
  11    H        7.689504164    -4.478463825     1.862265865
  12    H        8.368179525    -2.848182681     1.775732837
  13    C        0.757664805     0.702554619    -0.031121312
  14    H        1.192495328     1.157725240     0.871056358
  15    H       -0.261754374     1.104954744    -0.132089744
  16    H        1.335920324     1.073449296    -0.889766743
  17    C        0.679147931    -1.537811977    -1.261371193
  18    H       -0.337608413    -1.520579309    -1.680455361
  19    H        0.964704357    -2.594212684    -1.149608162
  20    H        1.347322325    -1.101286010    -2.017813569
  21    H        5.156761795    -1.902048925     0.753525508
  22    O        3.961476526    -1.008784170     0.028748106
  23    H        4.203032001    -0.088057412     0.219063214


           Empirical Formula: C5 H12 N O5  =    23 atoms



      MOLECULAR POINT GROUP   :   C1  


                  EIGENVALUES  
 -35.51016 -31.46201 -29.90498 -29.41036 -27.64474 -27.48995 -26.64137 -24.16544
 -23.93580 -20.87261 -18.99508 -18.05282 -17.67898 -16.81298 -16.32686 -16.18926
 -16.18522 -16.11098 -14.87994 -14.03613 -13.93414 -13.61343 -13.58245 -13.54438
 -13.17075 -13.10079 -12.52809 -12.37046 -12.21378 -11.60846 -10.73801 -10.54840
 -10.34617  -8.33312   0.83012   1.45823   1.99140   2.33038   3.44486   3.89028
   4.08454   4.54495   4.75663   5.20722   5.32412   5.88893   5.89256   5.90651
   5.93079   5.95587   6.06802   6.23322   6.49882   6.51008   7.04445   7.22771


              NET ATOMIC CHARGES AND DIPOLE CONTRIBUTIONS

  ATOM NO.   TYPE          CHARGE      No. of ELECS.   s-Pop       p-Pop       
    1          C          -0.201384        4.2014     1.03957     3.16182
    2          H           0.374717        0.6253     0.62528
    3          N           0.633012        4.3670     1.42387     2.94312
    4          O          -0.756918        6.7569     1.94709     4.80983
    5          O          -0.762263        6.7623     1.94717     4.81509
    6          C           0.753878        3.2461     1.10282     2.14330
    7          O          -0.613562        6.6136     1.83791     4.77565
    8          O          -0.653754        6.6538     1.87559     4.77816
    9          C          -0.543272        4.5433     1.06126     3.48201
   10          H           0.196487        0.8035     0.80351
   11          H           0.210167        0.7898     0.78983
   12          H           0.201911        0.7981     0.79809
   13          C          -0.416631        4.4166     1.04441     3.37223
   14          H           0.158663        0.8413     0.84134
   15          H           0.147764        0.8522     0.85224
   16          H           0.155106        0.8449     0.84489
   17          C          -0.413176        4.4132     1.04411     3.36907
   18          H           0.148112        0.8519     0.85189
   19          H           0.160638        0.8394     0.83936
   20          H           0.154825        0.8452     0.84518
   21          H           0.407960        0.5920     0.59204
   22          O          -0.727286        6.7273     1.81063     4.91666
   23          H           0.385008        0.6150     0.61499
 DIPOLE           X         Y         Z       TOTAL
 POINT-CHG.    11.740     2.991    -4.346    12.871
 HYBRID        -0.659     0.172     0.393     0.787
 SUM           11.081     3.163    -3.953    12.182


          ATOMIC ORBITAL ELECTRON POPULATIONS

     Atom    s        px        py        pz   
    1  C   1.03957   1.33956   0.95440   0.86785
    2  H   0.62528
    3  N   1.42387   1.03154   0.93395   0.97763
    4  O   1.94709   1.81707   1.04404   1.94872
    5  O   1.94717   1.81709   1.71313   1.28487
    6  C   1.10282   0.76133   0.65344   0.72854
    7  O   1.83791   1.55615   1.62576   1.59374
    8  O   1.87559   1.75274   1.67078   1.35464
    9  C   1.06126   1.08756   1.20683   1.18762
   10  H   0.80351
   11  H   0.78983
   12  H   0.79809
   13  C   1.04441   1.17732   1.01066   1.18424
   14  H   0.84134
   15  H   0.85224
   16  H   0.84489
   17  C   1.04411   1.17592   1.14265   1.05050
   18  H   0.85189
   19  H   0.83936
   20  H   0.84518
   21  H   0.59204
   22  O   1.81063   1.52942   1.51632   1.87092
   23  H   0.61499

          BONDING CONTRIBUTION OF EACH M.O.

  1.4210  1.3288  1.0319  1.0588  1.7657  1.0264  1.7949  1.1449  1.8991  1.5452
  1.1580  1.5758  1.1712  1.1954  1.1888  1.5247  1.8187  1.3952  0.8487  1.4461
  1.5533  1.3462  1.9032  1.3996  1.9086  1.8381  0.2749  0.5597  1.9536  0.5922
  0.3651  0.4379  0.2524  1.1467 -1.7958 -2.5299 -2.0783 -2.1410 -1.9495 -1.8079
 -1.9619 -1.8551 -1.9872 -1.9182 -1.9126 -1.9380 -1.8272 -1.9458 -1.9541 -1.9839
 -1.9548 -1.7176 -1.8704 -1.9237 -1.9079 -1.9096





            (VALENCIES)   BOND ORDERS

     1  C     (3.835)     3  N 1.498    13  C 1.004    17  C 1.004     4  O 0.158     5  O 0.156

     2  H     (0.860)    22  O 0.846

     3  N     (3.807)     1  C 1.498     4  O 1.131     5  O 1.129

     4  O     (1.441)     3  N 1.131     1  C 0.158     5  O 0.129    13  C 0.014

     5  O     (1.437)     3  N 1.129     1  C 0.156     4  O 0.129    17  C 0.014

     6  C     (3.699)     8  O 1.645     7  O 1.039     9  C 0.989    11  H 0.011

     7  O     (1.992)     6  C 1.039    21  H 0.748     8  O 0.144     9  C 0.025    22  O 0.023

     8  O     (1.857)     6  C 1.645     7  O 0.144     9  C 0.046

     9  C     (3.887)     6  C 0.989    10  H 0.943    12  H 0.941    11  H 0.928     8  O 0.046     7  O 0.025
                         21  H 0.013

    10  H     (0.961)     9  C 0.943

    11  H     (0.956)     9  C 0.928     6  C 0.011

    12  H     (0.959)     9  C 0.941

    13  C     (3.926)     1  C 1.004    16  H 0.964    14  H 0.964    15  H 0.963     4  O 0.014

    14  H     (0.975)    13  C 0.964

    15  H     (0.978)    13  C 0.963

    16  H     (0.976)    13  C 0.964

    17  C     (3.926)     1  C 1.004    18  H 0.964    20  H 0.964    19  H 0.963     5  O 0.014

    18  H     (0.978)    17  C 0.964

    19  H     (0.974)    17  C 0.963

    20  H     (0.976)    17  C 0.964

    21  H     (0.834)     7  O 0.748    22  O 0.061     9  C 0.013

    22  O     (1.786)    23  H 0.848     2  H 0.846    21  H 0.061     7  O 0.023

    23  H     (0.852)    22  O 0.848


 **********************
 *                    *
 * JOB ENDED NORMALLY *
 *                    *
 **********************



 TOTAL JOB TIME:             5.11 SECONDS

 == MOPAC DONE ==
