 *******************************************************************************
 **                                                                           **
 **                              MOPAC v22.0.6                                **
 **                                                                           **
 *******************************************************************************
 **          Digital Object Identifier (DOI): 10.5281/zenodo.6511958          **
 **    Visit the DOI location for information on how to cite this program.    **
 *******************************************************************************

                              PM7 CALCULATION RESULTS

 *******************************************************************************
 *  CALCULATION DONE:                                Tue Mar 26 11:42:28 2024  *
 *  PM7        - The PM7 Hamiltonian to be used
 *  SINGLET    - SPIN STATE DEFINED AS A SINGLET
 *
 *
 *
 *                 CHARGE ON SYSTEM = 0
 *
 *
 *
 *  EPS=78.4   - USE ANDREAS KLAMT'S COSMO IMPLICIT SOLVATION MODEL
 *  LET        - OVERRIDE SOME SAFETY CHECKS
 *  THREADS    - USE A MAXIMUM OF 30 THREADS
 *  T=         - A TIME OF 14.0 DAYS REQUESTED
 *  DUMP=N     - RESTART FILE WRITTEN EVERY 30.0 MINUTES REQUESTED
 *  RELSCF     - DEFAULT SCF CRITERION MULTIPLIED BY 1.0000
 *              (DEFAULT SCF CRITERION = 0.00010)
 *  ITRY=      - DO A MAXIMUM OF 15000 ITERATIONS FOR SCF
 *  AUX        - OUTPUT AUXILIARY INFORMATION
 *  ISOTOPE    - SAVE THE FORCE MATRIX FOR USE LATER
 *  BONDS      - FINAL BOND-ORDER MATRIX TO BE PRINTED
 *  LARGE      - EXPANDED OUTPUT TO BE PRINTED
 *  THERMO     - THERMODYNAMIC QUANTITIES TO BE CALCULATED
 *******************************************************************************
PM7 AUX LARGE THERMO(298,298) LET ISOTOPE BONDS DUMP=30M ITRY=15000 T=14D THREADS=30 CHARGE=0 SINGLET eps=78.4 RELSCF=1
 Title: ASE calculation

   ATOM   CHEMICAL          X               Y               Z
  NUMBER   SYMBOL      (ANGSTROMS)     (ANGSTROMS)     (ANGSTROMS)

     1       C          0.00652530  *  -0.95890232  *  -0.65256311  *
     2       H         -0.81918470  *  -1.59961334  *  -0.97488291  *
     3       N          1.00138648  *  -2.99205021  *   0.19408790  *
     4       O          0.20370711  *  -3.64639975  *  -0.49512430  *
     5       O          1.77306134  *  -3.61000860  *   0.94556972  *
     6       H          0.80249648  *   1.02407492  *  -0.68336758  *
     7       C          1.04874890  *  -1.61586092  *   0.12099490  *
     8       D          2.45397666  *  -1.08295713  *  -0.29488628  *
     9       H          1.46089197  *  -1.08898273  *   0.99835509  *
    10       C          0.01340622  *   0.34244878  *  -0.95040417  *
    11       H         -0.78489365  *   0.82850158  *  -1.48982800  *
    12       C          6.64832174  *   0.56810520  *  -0.20927851  *
    13       C          7.75582230  *   1.38546983  *  -0.47084069  *
    14       C          7.53905937  *   2.65710506  *  -1.03089212  *
    15       C          6.21955280  *   3.07016438  *  -1.23318185  *
    16       C          5.16522771  *   2.20026940  *  -0.94959191  *
    17       N          5.37720632  *   0.95571786  *  -0.46790838  *
    18       H          6.77658103  *  -0.43781303  *   0.21918889  *
    19       H          6.00718566  *   4.06708643  *  -1.62640466  *
    20       H          4.11719516  *   2.49682499  *  -1.11607228  *
    21       C          9.12956343  *   0.89319066  *  -0.18521491  *
    22       H          9.82050557  *   1.70233460  *   0.10753263  *
    23       H          9.57632272  *   0.41901330  *  -1.07622126  *
    24       H          9.16077542  *   0.14866886  *   0.62231529  *
    25       C          8.66813592  *   3.53828291  *  -1.41805684  *
    26       H          8.33897196  *   4.48370483  *  -1.88149452  *
    27       H          9.33833162  *   3.04464344  *  -2.14585527  *
    28       H          9.30201104  *   3.80979577  *  -0.55573334  *
    29       H          4.25826231  *   0.01574204  *  -0.36100261  *
    30       O          3.61879760  *  -0.95154079  *  -0.32787549  *
    31       H          3.91398535  *  -1.43207236  *  -1.11832358  *


                                Isotopes Used

              Atom:    8  H  Default mass  1.0079,  mass used:  2.0140 amu


          CARTESIAN COORDINATES 

    NO.       ATOM           X           Y           Z

     1         C          0.0065     -0.9589     -0.6526
     2         H         -0.8192     -1.5996     -0.9749
     3         N          1.0014     -2.9921      0.1941
     4         O          0.2037     -3.6464     -0.4951
     5         O          1.7731     -3.6100      0.9456
     6         H          0.8025      1.0241     -0.6834
     7         C          1.0487     -1.6159      0.1210
     8         H          2.4540     -1.0830     -0.2949
     9         H          1.4609     -1.0890      0.9984
    10         C          0.0134      0.3424     -0.9504
    11         H         -0.7849      0.8285     -1.4898
    12         C          6.6483      0.5681     -0.2093
    13         C          7.7558      1.3855     -0.4708
    14         C          7.5391      2.6571     -1.0309
    15         C          6.2196      3.0702     -1.2332
    16         C          5.1652      2.2003     -0.9496
    17         N          5.3772      0.9557     -0.4679
    18         H          6.7766     -0.4378      0.2192
    19         H          6.0072      4.0671     -1.6264
    20         H          4.1172      2.4968     -1.1161
    21         C          9.1296      0.8932     -0.1852
    22         H          9.8205      1.7023      0.1075
    23         H          9.5763      0.4190     -1.0762
    24         H          9.1608      0.1487      0.6223
    25         C          8.6681      3.5383     -1.4181
    26         H          8.3390      4.4837     -1.8815
    27         H          9.3383      3.0446     -2.1459
    28         H          9.3020      3.8098     -0.5557
    29         H          4.2583      0.0157     -0.3610
    30         O          3.6188     -0.9515     -0.3279
    31         H          3.9140     -1.4321     -1.1183

 General Reference for PM7:
 "Optimization of Parameters for Semiempirical Methods VI: More Modifications to the 
 NDDO Approximations and Re-optimization of Parameters", J. J. P. Stewart, J. Mol. Mod., 1:32, 19 (2013)
 https://link.springer.com/article/10.1007/s00894-012-1667-x

           Empirical Formula: C10 H16 N2 O3  =    31 atoms



      MOLECULAR POINT GROUP   :   C1  


 SINGLET STATE CALCULATION


      RHF CALCULATION, NO. OF DOUBLY OCCUPIED LEVELS = 42

  SCF CRITERION =    0.1000E-03


          HEAT OF FORMATION =     -51.288116 KCALS/MOLE


          CARTESIAN COORDINATE DERIVATIVES

   NUMBER  ATOM         X            Y            Z

     1       C      3.988937     0.590518     0.517448
     2       H     -2.373435     0.589314     0.776288
     3       N      3.523988     0.713516     0.087532
     4       O      0.533573    -0.896552     2.808288
     5       O      2.031922    -0.351560    -0.720244
     6       H      0.571098    -0.039790    -0.694143
     7       C     -0.970861    -0.417006    -2.915414
     8       H      7.526789    -1.542662     3.739350
     9       H      0.738807     0.275680     1.619814
    10       C      1.326296     1.555592    -0.176077
    11       H      0.661814    -0.537118     0.885329
    12       C     -1.488377    -0.574058    -0.224939
    13       C      0.313831    -1.450392     0.472552
    14       C     -0.957003     0.122605    -0.850353
    15       C     -1.430504     0.785312     0.104671
    16       C     -1.849649     0.870251    -0.434542
    17       N     -3.212900     0.389611    -0.791123
    18       H     -0.645450    -0.041380     0.331936
    19       H     -0.443352    -0.246450     0.047399
    20       H      0.112524    -0.567773     0.459235
    21       C     -1.495726     1.720939    -0.485546
    22       H     -0.989284    -0.173025    -0.640063
    23       H     -0.291832     0.029705     0.226764
    24       H     -0.784298    -0.749447    -0.590186
    25       C     -0.508317     1.196997    -0.237634
    26       H      0.207789    -1.340588    -0.183354
    27       H     -0.259792     0.253660    -0.746182
    28       H     -0.405684     0.261375    -0.489797
    29       H     -0.487403     0.927729    -1.508450
    30       O     -0.493680    -1.316955    -2.602686
    31       H     -2.448611    -0.037710     2.214678

 DIPOLE           X         Y         Z       TOTAL
 POINT-CHG.   -18.657    -5.996    -8.078    21.196
 HYBRID         0.005     0.280    -0.110     0.301
 SUM          -18.652    -5.716    -8.187    21.156


          GRADIENT NORM =  14.30650



 ** GRADIENT IS VERY LARGE, BUT SINCE "LET" IS USED, CALCULATION WILL CONTINUE


                              **** WARNING ****

           GRADIENT IS VERY LARGE FOR A THERMO CALCULATION
           RESULTS ARE LIKELY TO BE INACCURATE IF THERE ARE
           ANY LOW-LYING VIBRATIONS (LESS THAN ABOUT 400CM-1)
           GRADIENT NORM SHOULD BE LESS THAN ABOUT 1.1 FOR THERMO
           TO GIVE ACCURATE RESULTS


          TIME FOR SCF CALCULATION =    0.08

          TIME FOR DERIVATIVES     =    0.03

          MOLECULAR WEIGHT =  213.25



          ROTATIONAL CONSTANTS IN CM(-1)

          A =    0.04113586   B =    0.00545622   C =    0.00488127



           PRINCIPAL MOMENTS OF INERTIA IN UNITS OF 10**(-40)*GRAM-CM**2

          A =      680.4951   B =     5130.4323   C =     5734.7262


          ORIENTATION OF MOLECULE IN FORCE CALCULATION

    NO.       ATOM         X         Y         Z

     1          C       3.7764   -1.2811    1.5897
     2          H       4.8701   -1.2811    1.5897
     3          N       3.9669    1.1280    1.5897
     4          O       5.1555    1.0147    1.2525
     5          O       3.5248    2.2673    1.8108
     6          H       2.0229   -2.4981    1.4856
     7          C       3.1465    0.0254    1.7016
     8          H       1.8960    0.1086    0.7738
     9          H       2.2681    0.1287    2.3612
    10          C       3.0967   -2.4274    1.5117
    11          H       3.5736   -3.3946    1.4702
    12          C      -2.2631    0.8062   -0.8205
    13          C      -3.5009    0.5797   -1.4365
    14          C      -3.9172   -0.7469   -1.6477
    15          C      -3.1034   -1.7758   -1.1663
    16          C      -1.8814   -1.4740   -0.5627
    17          N      -1.4543   -0.2007   -0.4144
    18          H      -1.8969    1.8297   -0.6467
    19          H      -3.4112   -2.8187   -1.2723
    20          H      -1.2148   -2.2683   -0.1900
    21          C      -4.3338    1.7286   -1.8806
    22          H      -5.4158    1.5195   -1.8212
    23          H      -4.1308    1.9841   -2.9351
    24          H      -4.1592    2.6398   -1.2919
    25          C      -5.1717   -1.0612   -2.3747
    26          H      -5.3405   -2.1445   -2.4967
    27          H      -5.1740   -0.6234   -3.3900
    28          H      -6.0634   -0.6550   -1.8658
    29          H      -0.0904    0.0603    0.0532
    30          O       0.9493    0.5420    0.2341
    31          H       1.2409    0.7686   -0.6639


    FIRST DERIVATIVES WILL BE USED IN THE CALCULATION OF SECOND DERIVATIVES

          ESTIMATED TIME TO COMPLETE CALCULATION =       20.34 SECONDS

    FOR POINT-GROUP C1   THERE ARE   1 UNIQUE SYMMETRY FUNCTIONS.

 STEP:   1 TIME =     0.08 SECS, INTEGRAL =      0.08 TIME LEFT:1209599.81
 STEP:   2 TIME =     0.08 SECS, INTEGRAL =      0.16 TIME LEFT:1209599.73
 STEP:   3 TIME =     0.08 SECS, INTEGRAL =      0.25 TIME LEFT:1209599.64
 STEP:   4 TIME =     0.08 SECS, INTEGRAL =      0.33 TIME LEFT:1209599.56
 STEP:   5 TIME =     0.08 SECS, INTEGRAL =      0.41 TIME LEFT:1209599.48
 STEP:   6 TIME =     0.08 SECS, INTEGRAL =      0.49 TIME LEFT:1209599.40
 STEP:   7 TIME =     0.09 SECS, INTEGRAL =      0.58 TIME LEFT:1209599.31
 STEP:   8 TIME =     0.08 SECS, INTEGRAL =      0.66 TIME LEFT:1209599.23
 STEP:   9 TIME =     0.08 SECS, INTEGRAL =      0.74 TIME LEFT:1209599.15
 STEP:  10 TIME =     0.08 SECS, INTEGRAL =      0.82 TIME LEFT:1209599.07
 STEP:  11 TIME =     0.09 SECS, INTEGRAL =      0.91 TIME LEFT:1209598.98
 STEP:  12 TIME =     0.08 SECS, INTEGRAL =      0.99 TIME LEFT:1209598.90
 STEP:  13 TIME =     0.08 SECS, INTEGRAL =      1.07 TIME LEFT:1209598.82
 STEP:  14 TIME =     0.08 SECS, INTEGRAL =      1.16 TIME LEFT:1209598.73
 STEP:  15 TIME =     0.08 SECS, INTEGRAL =      1.24 TIME LEFT:1209598.65
 STEP:  16 TIME =     0.08 SECS, INTEGRAL =      1.32 TIME LEFT:1209598.57
 STEP:  17 TIME =     0.08 SECS, INTEGRAL =      1.40 TIME LEFT:1209598.49
 STEP:  18 TIME =     0.08 SECS, INTEGRAL =      1.48 TIME LEFT:1209598.41
 STEP:  19 TIME =     0.08 SECS, INTEGRAL =      1.57 TIME LEFT:1209598.32
 STEP:  20 TIME =     0.08 SECS, INTEGRAL =      1.65 TIME LEFT:1209598.24
 STEP:  21 TIME =     0.08 SECS, INTEGRAL =      1.73 TIME LEFT:1209598.16
 STEP:  22 TIME =     0.08 SECS, INTEGRAL =      1.81 TIME LEFT:1209598.08
 STEP:  23 TIME =     0.08 SECS, INTEGRAL =      1.89 TIME LEFT:1209598.00
 STEP:  24 TIME =     0.08 SECS, INTEGRAL =      1.98 TIME LEFT:1209597.91
 STEP:  25 TIME =     0.08 SECS, INTEGRAL =      2.06 TIME LEFT:1209597.83
 STEP:  26 TIME =     0.08 SECS, INTEGRAL =      2.14 TIME LEFT:1209597.75
 STEP:  27 TIME =     0.08 SECS, INTEGRAL =      2.22 TIME LEFT:1209597.67
 STEP:  28 TIME =     0.09 SECS, INTEGRAL =      2.31 TIME LEFT:1209597.58
 STEP:  29 TIME =     0.08 SECS, INTEGRAL =      2.39 TIME LEFT:1209597.50
 STEP:  30 TIME =     0.08 SECS, INTEGRAL =      2.47 TIME LEFT:1209597.42
 STEP:  31 TIME =     0.08 SECS, INTEGRAL =      2.55 TIME LEFT:1209597.34
 STEP:  32 TIME =     0.08 SECS, INTEGRAL =      2.64 TIME LEFT:1209597.25
 STEP:  33 TIME =     0.08 SECS, INTEGRAL =      2.72 TIME LEFT:1209597.17
 STEP:  34 TIME =     0.08 SECS, INTEGRAL =      2.80 TIME LEFT:1209597.09
 STEP:  35 TIME =     0.09 SECS, INTEGRAL =      2.89 TIME LEFT:1209597.00
 STEP:  36 TIME =     0.08 SECS, INTEGRAL =      2.97 TIME LEFT:1209596.92
 STEP:  37 TIME =     0.08 SECS, INTEGRAL =      3.05 TIME LEFT:1209596.84
 STEP:  38 TIME =     0.08 SECS, INTEGRAL =      3.13 TIME LEFT:1209596.76
 STEP:  39 TIME =     0.08 SECS, INTEGRAL =      3.21 TIME LEFT:1209596.68
 STEP:  40 TIME =     0.08 SECS, INTEGRAL =      3.30 TIME LEFT:1209596.59
 STEP:  41 TIME =     0.08 SECS, INTEGRAL =      3.38 TIME LEFT:1209596.51
 STEP:  42 TIME =     0.08 SECS, INTEGRAL =      3.46 TIME LEFT:1209596.43
 STEP:  43 TIME =     0.08 SECS, INTEGRAL =      3.54 TIME LEFT:1209596.35
 STEP:  44 TIME =     0.08 SECS, INTEGRAL =      3.62 TIME LEFT:1209596.27
 STEP:  45 TIME =     0.08 SECS, INTEGRAL =      3.71 TIME LEFT:1209596.18
 STEP:  46 TIME =     0.08 SECS, INTEGRAL =      3.79 TIME LEFT:1209596.10
 STEP:  47 TIME =     0.08 SECS, INTEGRAL =      3.87 TIME LEFT:1209596.02
 STEP:  48 TIME =     0.08 SECS, INTEGRAL =      3.95 TIME LEFT:1209595.94
 STEP:  49 TIME =     0.08 SECS, INTEGRAL =      4.04 TIME LEFT:1209595.86
 STEP:  50 TIME =     0.08 SECS, INTEGRAL =      4.12 TIME LEFT:1209595.77
 STEP:  51 TIME =     0.09 SECS, INTEGRAL =      4.20 TIME LEFT:1209595.69
 STEP:  52 TIME =     0.08 SECS, INTEGRAL =      4.29 TIME LEFT:1209595.61
 STEP:  53 TIME =     0.08 SECS, INTEGRAL =      4.37 TIME LEFT:1209595.52
 STEP:  54 TIME =     0.08 SECS, INTEGRAL =      4.45 TIME LEFT:1209595.44
 STEP:  55 TIME =     0.08 SECS, INTEGRAL =      4.53 TIME LEFT:1209595.36
 STEP:  56 TIME =     0.08 SECS, INTEGRAL =      4.61 TIME LEFT:1209595.28
 STEP:  57 TIME =     0.08 SECS, INTEGRAL =      4.70 TIME LEFT:1209595.20
 STEP:  58 TIME =     0.08 SECS, INTEGRAL =      4.78 TIME LEFT:1209595.11
 STEP:  59 TIME =     0.08 SECS, INTEGRAL =      4.86 TIME LEFT:1209595.03
 STEP:  60 TIME =     0.08 SECS, INTEGRAL =      4.94 TIME LEFT:1209594.95
 STEP:  61 TIME =     0.08 SECS, INTEGRAL =      5.02 TIME LEFT:1209594.87
 STEP:  62 TIME =     0.08 SECS, INTEGRAL =      5.11 TIME LEFT:1209594.79
 STEP:  63 TIME =     0.08 SECS, INTEGRAL =      5.19 TIME LEFT:1209594.70
 STEP:  64 TIME =     0.08 SECS, INTEGRAL =      5.27 TIME LEFT:1209594.62
 STEP:  65 TIME =     0.08 SECS, INTEGRAL =      5.35 TIME LEFT:1209594.54
 STEP:  66 TIME =     0.08 SECS, INTEGRAL =      5.43 TIME LEFT:1209594.46
 STEP:  67 TIME =     0.08 SECS, INTEGRAL =      5.52 TIME LEFT:1209594.38
 STEP:  68 TIME =     0.08 SECS, INTEGRAL =      5.60 TIME LEFT:1209594.29
 STEP:  69 TIME =     0.08 SECS, INTEGRAL =      5.68 TIME LEFT:1209594.21
 STEP:  70 TIME =     0.08 SECS, INTEGRAL =      5.76 TIME LEFT:1209594.13
 STEP:  71 TIME =     0.08 SECS, INTEGRAL =      5.84 TIME LEFT:1209594.05
 STEP:  72 TIME =     0.08 SECS, INTEGRAL =      5.93 TIME LEFT:1209593.96
 STEP:  73 TIME =     0.08 SECS, INTEGRAL =      6.01 TIME LEFT:1209593.88
 STEP:  74 TIME =     0.08 SECS, INTEGRAL =      6.09 TIME LEFT:1209593.80
 STEP:  75 TIME =     0.08 SECS, INTEGRAL =      6.17 TIME LEFT:1209593.72
 STEP:  76 TIME =     0.08 SECS, INTEGRAL =      6.25 TIME LEFT:1209593.64
 STEP:  77 TIME =     0.08 SECS, INTEGRAL =      6.34 TIME LEFT:1209593.55
 STEP:  78 TIME =     0.08 SECS, INTEGRAL =      6.42 TIME LEFT:1209593.47
 STEP:  79 TIME =     0.08 SECS, INTEGRAL =      6.50 TIME LEFT:1209593.39
 STEP:  80 TIME =     0.08 SECS, INTEGRAL =      6.58 TIME LEFT:1209593.31
 STEP:  81 TIME =     0.08 SECS, INTEGRAL =      6.66 TIME LEFT:1209593.23
 STEP:  82 TIME =     0.08 SECS, INTEGRAL =      6.75 TIME LEFT:1209593.14
 STEP:  83 TIME =     0.08 SECS, INTEGRAL =      6.83 TIME LEFT:1209593.06
 STEP:  84 TIME =     0.08 SECS, INTEGRAL =      6.91 TIME LEFT:1209592.98
 STEP:  85 TIME =     0.08 SECS, INTEGRAL =      6.99 TIME LEFT:1209592.90
 STEP:  86 TIME =     0.08 SECS, INTEGRAL =      7.07 TIME LEFT:1209592.82
 STEP:  87 TIME =     0.08 SECS, INTEGRAL =      7.16 TIME LEFT:1209592.73
 STEP:  88 TIME =     0.08 SECS, INTEGRAL =      7.24 TIME LEFT:1209592.65
 STEP:  89 TIME =     0.08 SECS, INTEGRAL =      7.32 TIME LEFT:1209592.57
 STEP:  90 TIME =     0.08 SECS, INTEGRAL =      7.40 TIME LEFT:1209592.49
 STEP:  91 TIME =     0.08 SECS, INTEGRAL =      7.48 TIME LEFT:1209592.41
 STEP:  92 TIME =     0.08 SECS, INTEGRAL =      7.57 TIME LEFT:1209592.32
 STEP:  93 TIME =     0.08 SECS, INTEGRAL =      7.65 TIME LEFT:1209592.24

(To convert to Hartree/Bohr^2, multiply by (10^(-21) x N x a0^2)/(4.184 x 627.51) =  0.0642)


           FORCE MATRIX IN MILLIDYNES/ANGSTROM


                  C  1       H  2       N  3       O  4       O  5       H  6
 ------------------------------------------------------------------------------
     C    1  17.222957
     H    2   3.376526   4.297839
     N    3   1.335432   0.143316  18.878782
     O    4   0.130650   0.073514   8.341085  11.180370
     O    5   0.151352   0.034992   8.209749   2.449964  11.075489
     H    6   0.821857   0.127318   0.047349   0.015876   0.021367   4.296626
     C    7   4.405122   0.726386   4.681575   1.854642   1.831986   0.077899
     H    8   0.407450   0.027511   1.353313   0.369926   0.370933   0.031485
     H    9   0.671963   0.029423   0.987163   0.113449   0.097922   0.012970
     C   10  10.151065   0.827463   0.202935   0.057541   0.080594   3.536840
     H   11   0.843773   0.064372   0.051799   0.015902   0.018850   0.465461
     C   12   0.004739   0.000746   0.006617   0.003722   0.002496   0.002780
     C   13   0.001446   0.000550   0.006647   0.001638   0.002840   0.001733
     C   14   0.000966   0.000542   0.003478   0.001032   0.001823   0.001354
     C   15   0.002149   0.000674   0.007941   0.003192   0.002725   0.001901
     C   16   0.003058   0.000778   0.009058   0.003190   0.003756   0.009311
     N   17   0.023134   0.002422   0.103140   0.037557   0.026798   0.003539
     H   18   0.000837   0.000285   0.007020   0.001513   0.003593   0.000593
     H   19   0.001175   0.000300   0.002561   0.001344   0.001012   0.001047
     H   20   0.002141   0.000563   0.003232   0.001309   0.001461   0.013324
     C   21   0.000800   0.000347   0.001319   0.000473   0.000533   0.000801
     H   22   0.000404   0.000240   0.001735   0.000990   0.000721   0.000214
     H   23   0.000313   0.000242   0.002371   0.001128   0.000946   0.000286
     H   24   0.000466   0.000141   0.002033   0.000645   0.001156   0.000259
     C   25   0.000815   0.000407   0.001951   0.000779   0.000912   0.000935
     H   26   0.000440   0.000131   0.001308   0.000733   0.000486   0.000238
     H   27   0.000322   0.000269   0.001895   0.000870   0.000734   0.000383
     H   28   0.000320   0.000229   0.001563   0.000682   0.000697   0.000296
     H   29   0.057327   0.005807   0.261899   0.086431   0.075373   0.010717
     O   30   0.145572   0.014544   0.703536   0.221220   0.199573   0.018415
     H   31   0.016524   0.001941   0.076461   0.027265   0.024166   0.005507


                  C  7       H  8       H  9       C 10       H 11       C 12
 ------------------------------------------------------------------------------
     C    7  13.052912
     H    8   1.519064   1.529873
     H    9   3.184921   0.438836   4.115669
     C   10   1.116894   0.105333   0.033022  15.718142
     H   11   0.129054   0.021642   0.009614   3.507448   4.278013
     C   12   0.018580   0.032027   0.003987   0.006374   0.009323  14.857883
     C   13   0.011238   0.021476   0.001704   0.001107   0.000662   5.538122
     C   14   0.006348   0.016745   0.001546   0.001505   0.000675   2.090674
     C   15   0.015858   0.028663   0.001661   0.002638   0.001036   1.323249
     C   16   0.016994   0.031073   0.003878   0.008200   0.000785   2.489923
     N   17   0.190949   0.304335   0.031947   0.007034   0.001904   6.384575
     H   18   0.008678   0.014554   0.001430   0.001147   0.000547   3.281224
     H   19   0.003597   0.004783   0.000476   0.000934   0.000615   0.012526
     H   20   0.007980   0.015281   0.001178   0.013761   0.000945   0.143721
     C   21   0.002499   0.007443   0.001115   0.000874   0.000476   0.795322
     H   22   0.001667   0.002855   0.000280   0.000461   0.000252   0.039600
     H   23   0.002402   0.002598   0.000483   0.000498   0.000144   0.024745
     H   24   0.001656   0.001821   0.000543   0.000446   0.000138   0.039678
     C   25   0.001684   0.008154   0.001306   0.001045   0.000426   0.124932
     H   26   0.001521   0.002638   0.000294   0.000446   0.000251   0.013570
     H   27   0.001813   0.002287   0.000358   0.000558   0.000161   0.019108
     H   28   0.001568   0.002833   0.000347   0.000422   0.000134   0.017459
     H   29   0.490240   0.814542   0.083319   0.024345   0.003543   0.272052
     O   30   1.543113   1.756240   0.138208   0.061475   0.011102   0.090234
     H   31   0.141225   0.484836   0.028589   0.020405   0.001006   0.014327


                  C 13       C 14       C 15       C 16       N 17       H 18
 ------------------------------------------------------------------------------
     C   13  15.720531
     C   14   5.426239  15.833151
     C   15   1.859428   5.889305  14.994006
     C   16   1.269932   2.120348   5.850542  15.215783
     N   17   2.288522   1.443919   2.352531   6.577158  14.788003
     H   18   0.678541   0.098475   0.033633   0.137339   0.882621   4.195239
     H   19   0.091428   0.737815   3.396560   0.764797   0.103595   0.012894
     H   20   0.023874   0.092630   0.678547   3.284435   0.881382   0.015628
     C   21   3.784782   0.769655   0.095799   0.028151   0.107745   0.025192
     H   22   0.731037   0.034363   0.010159   0.004588   0.010086   0.003768
     H   23   0.761141   0.024035   0.013343   0.007395   0.016497   0.010009
     H   24   0.734227   0.036372   0.010077   0.005192   0.014456   0.016673
     C   25   0.795746   3.788047   0.873760   0.123466   0.068138   0.016102
     H   26   0.041054   0.747579   0.031963   0.009026   0.008847   0.002057
     H   27   0.033370   0.769184   0.032162   0.018368   0.012813   0.003144
     H   28   0.028873   0.752300   0.032117   0.017681   0.011330   0.002957
     H   29   0.082587   0.071836   0.124071   0.272683   0.721946   0.060811
     O   30   0.041360   0.040332   0.062312   0.086818   1.103221   0.030451
     H   31   0.007436   0.005759   0.007669   0.011974   0.093643   0.004527


                  H 19       H 20       C 21       H 22       H 23       H 24
 ------------------------------------------------------------------------------
     H   19   4.309406
     H   20   0.030438   4.190372
     C   21   0.012027   0.017986  11.334041
     H   22   0.002456   0.002497   3.298173   4.122172
     H   23   0.003026   0.003362   3.279753   0.460652   4.117581
     H   24   0.001853   0.002096   3.352162   0.450309   0.450229   4.172685
     C   25   0.041002   0.015889   0.085873   0.024009   0.012956   0.008435
     H   26   0.025864   0.002477   0.007201   0.002531   0.001789   0.000624
     H   27   0.006871   0.002460   0.007487   0.016195   0.007179   0.002500
     H   28   0.017118   0.002355   0.013221   0.023600   0.004538   0.002733
     H   29   0.024689   0.063247   0.045014   0.004388   0.011637   0.010959
     O   30   0.011866   0.030321   0.022570   0.002491   0.006280   0.005882
     H   31   0.001376   0.003959   0.002975   0.000616   0.001516   0.000784


                  C 25       H 26       H 27       H 28       H 29       O 30
 ------------------------------------------------------------------------------
     C   25  11.312376
     H   26   3.338466   4.145174
     H   27   3.259663   0.441807   4.098593
     H   28   3.267346   0.447479   0.459763   4.103788
     H   29   0.042898   0.005986   0.009030   0.006574   1.167211
     O   30   0.022375   0.003788   0.005065   0.004416   0.970773   6.428180
     H   31   0.003101   0.000576   0.001276   0.000574   0.519278   3.702630


                  H 31
 ------------------
     H   31   4.142409


          HEAT OF FORMATION =     -51.288116 KCALS/MOLE


          TRIVIAL VIBRATIONS, SHOULD BE ZERO

 -19.9527=TX  38.8429=TY  34.1366=TZ -30.4851=RX  36.8124=RY  40.6339=RZ


      MOLECULAR POINT GROUP   :   C1  


           EIGENVECTORS  


   Root No.       1         2         3         4         5         6         7         8

                 1 A       2 A       3 A       4 A       5 A       6 A       7 A       8 A   

                  -1.1      -0.0      -0.0      -0.0      -0.0      -0.0      -0.0      -0.0
  
           1   -0.0620    0.1371    0.0140    0.0335   -0.0617    0.0072   -0.0506    0.1229
           2    0.0138   -0.0233   -0.0196   -0.0067   -0.0049    0.0187    0.0047    0.0666
           3   -0.0552   -0.0265   -0.1118    0.1114    0.1536   -0.0557    0.0204    0.1393
           4   -0.0596    0.1386    0.0130    0.0338   -0.0621    0.0071   -0.0510    0.1241
           5    0.0596   -0.0783    0.0010    0.0262   -0.0951    0.0899    0.0262    0.1390
           6    0.0262   -0.1410   -0.3717    0.3393    0.3034   -0.1750   -0.0118    0.2389
           7   -0.0549    0.1630   -0.0151   -0.0390    0.1277   -0.1241   -0.0608   -0.0446
           8    0.0427   -0.0212   -0.0097   -0.0025   -0.0271    0.0397    0.0132    0.0724
           9   -0.1009    0.1065   -0.1011    0.0015   -0.1115    0.0879    0.0087   -0.1256
          10   -0.0659    0.2799   -0.0758    0.0048    0.1240   -0.0643    0.0171   -0.0734
          11   -0.0459    0.0120    0.0266    0.0006   -0.1679    0.1151   -0.0102    0.1279
          12    0.0459    0.4599   -0.3226    0.1569   -0.0764    0.2793    0.3031   -0.2540
          13   -0.0101    0.0572    0.0125   -0.0962    0.2259   -0.2324   -0.1173   -0.0973
          14   -0.0090   -0.0050   -0.0325    0.0018    0.0384    0.0039    0.0203    0.0606
          15   -0.0003   -0.1299    0.0720   -0.1471   -0.2433    0.0230   -0.1845   -0.1516
          16   -0.0116    0.0725    0.0015    0.0928   -0.1460    0.0715   -0.0315    0.2157
          17   -0.0235    0.0435   -0.0417   -0.0554    0.1359   -0.0934   -0.0319   -0.0610
          18   -0.0186    0.1650    0.4575   -0.3291   -0.0555    0.1961    0.1776    0.0182
          19   -0.2871    0.2178    0.0081   -0.0248    0.0351   -0.0787   -0.0879    0.0424
          20   -0.0027   -0.0126   -0.0267   -0.0217    0.0559   -0.0218    0.0013    0.0342
          21   -0.3117    0.0009   -0.0548   -0.0045   -0.0019   -0.0317   -0.0711    0.0162
          22    0.5197   -0.1606    0.0138    0.0734    0.0223    0.0643    0.1275   -0.0745
          23   -0.0252   -0.0090   -0.0560   -0.0934    0.0161   -0.0229   -0.0146   -0.1123
          24    0.2520   -0.0425   -0.0567   -0.0798   -0.0312   -0.0432   -0.1021    0.0211
          25    0.0293   -0.0592    0.0866   -0.0480    0.0200   -0.0792   -0.0822    0.0132
          26   -0.0074   -0.0050   -0.0477   -0.0169    0.1974   -0.1034    0.0065    0.0423
          27    0.1732   -0.3725    0.0512   -0.0345   -0.0464   -0.0101   -0.0522   -0.0291
          28   -0.0076    0.0765    0.0081    0.0856   -0.1438    0.0710   -0.0305    0.2071
          29   -0.0118    0.0019   -0.0389   -0.0228    0.0489   -0.0283   -0.0147    0.0179
          30   -0.0072    0.0672    0.2119   -0.1012    0.0833    0.0812    0.1407    0.1186
          31    0.0103    0.0283   -0.0010    0.1296   -0.2148    0.1226   -0.0174    0.2810
          32   -0.0050   -0.0186   -0.0413   -0.0041    0.0100   -0.0021   -0.0106    0.0502
          33    0.0268    0.0337    0.2094   -0.0498    0.1624    0.0770    0.1989    0.2028
          34   -0.0639   -0.0865    0.0130    0.0814   -0.0343    0.0595    0.0387   -0.0327
          35   -0.0098   -0.0314   -0.0283   -0.0392   -0.0211    0.0018    0.0119   -0.0777
          36   -0.0101    0.0108   -0.0022   -0.1374    0.0812   -0.0614   -0.0364    0.0902
          37   -0.0498   -0.0723    0.0119    0.0361   -0.0221    0.0353    0.0091   -0.0185
          38   -0.0023   -0.0160   -0.0106   -0.0138   -0.0193    0.0145    0.0101   -0.0026
          39   -0.0243   -0.0261   -0.0077   -0.0591    0.0570   -0.0148    0.0217    0.0302
          40   -0.0248   -0.0724    0.0060   -0.0283    0.0213    0.0119    0.0075   -0.0609
          41   -0.0076   -0.0126   -0.0042   -0.0039   -0.0181    0.0200    0.0108    0.0240
          42   -0.0112   -0.0370   -0.0335    0.0149   -0.0406   -0.0046    0.0231   -0.0434
          43   -0.0461   -0.0870   -0.0009   -0.0634    0.0769    0.0101    0.0677   -0.1055
          44   -0.0281   -0.0203   -0.0184   -0.0178   -0.0272    0.0089    0.0075   -0.0297
          45   -0.0254   -0.0320   -0.0513    0.0479   -0.1557   -0.0246   -0.0822   -0.0796
          46   -0.0602   -0.1029    0.0010   -0.0343    0.0788    0.0287    0.1099   -0.1072
          47   -0.0104   -0.0167   -0.0371   -0.0459   -0.0287   -0.0090    0.0009   -0.1016
          48   -0.0117    0.0033   -0.0490   -0.0011   -0.1601   -0.0553   -0.1698   -0.0426
          49   -0.1269   -0.1005    0.0085    0.0403    0.0176    0.0493    0.0807   -0.0704
          50   -0.0172   -0.0269   -0.0413   -0.0571   -0.0234   -0.0119    0.0082   -0.1228
          51    0.0017    0.0315   -0.0275   -0.1013   -0.0283   -0.0727   -0.1253    0.0449
          52   -0.0180   -0.0810    0.0158    0.1328   -0.0769    0.0802    0.0243   -0.0065
          53   -0.0276   -0.0379   -0.0331   -0.0453   -0.0216   -0.0018    0.0139   -0.0992
          54   -0.0006    0.0250    0.0215   -0.2092    0.1745   -0.0805   -0.0128    0.1629
          55   -0.0292   -0.0821   -0.0090   -0.1122    0.1103   -0.0086    0.0732   -0.1413
          56   -0.0192   -0.0172   -0.0145   -0.0088   -0.0300    0.0129    0.0058   -0.0132
          57   -0.0204   -0.0463   -0.0648    0.1041   -0.2262   -0.0141   -0.0931   -0.1339
          58   -0.0217   -0.1046   -0.0015   -0.0657    0.1194    0.0226    0.1524   -0.1325
          59    0.0241   -0.0141   -0.0456   -0.0549   -0.0338   -0.0170   -0.0033   -0.1391
          60   -0.0080    0.0062   -0.0608    0.0350   -0.2435   -0.0600   -0.2518   -0.0801
          61   -0.0275   -0.0523    0.0183    0.0436   -0.0545    0.0063    0.0055    0.0498
          62    0.0091   -0.0040    0.0012    0.0035   -0.0251    0.0124    0.0194    0.0474
          63   -0.0141   -0.0338    0.0109   -0.0288    0.1039    0.0368    0.0512    0.0314
          64   -0.0218   -0.0545    0.0172    0.0416   -0.0512    0.0074    0.0079    0.0382
          65    0.0103    0.0061    0.0038    0.0250    0.0171    0.1193   -0.0681    0.0900
          66   -0.0071   -0.0536   -0.0001    0.0161    0.3241    0.4576   -0.2328   -0.0343
          67   -0.0105   -0.0272    0.0254    0.0050   -0.2390   -0.3353    0.2216    0.1169
          68    0.0090    0.0011    0.0213    0.0042   -0.1376   -0.2179    0.2253    0.0738
          69   -0.0068   -0.0266    0.0170   -0.0351    0.0402   -0.0844    0.1415    0.0502
          70   -0.0066   -0.0477    0.0179    0.0843    0.0884    0.2946   -0.1969    0.0582
          71   -0.0020   -0.0123   -0.0107   -0.0022    0.0268    0.1143   -0.0725    0.0199
          72   -0.0024   -0.0228    0.0294   -0.0311   -0.0210   -0.2075    0.2544    0.0706
          73   -0.0234   -0.0711    0.0061   -0.0561    0.0073   -0.0106   -0.0493   -0.0657
          74   -0.0047   -0.0042    0.0128    0.0140   -0.0024    0.0447    0.0002    0.0967
          75   -0.0127   -0.0446   -0.0402    0.0562   -0.0230    0.0251    0.1254   -0.0667
          76   -0.0119   -0.0685    0.0019   -0.0673   -0.0084   -0.0367   -0.0465   -0.0947
          77   -0.0045   -0.0034    0.0150    0.0161   -0.0002    0.0480   -0.0015    0.1069
          78   -0.0071   -0.0527   -0.0555    0.0497   -0.0209    0.0313    0.1329   -0.1196
          79   -0.0092   -0.0671    0.0115   -0.0919    0.0024   -0.0229   -0.1445   -0.0520
          80   -0.0011    0.0062    0.0263    0.0248   -0.0021    0.0428    0.0041    0.1458
          81   -0.0074   -0.0387   -0.0343    0.0611   -0.0231    0.0237    0.1275   -0.0448
          82   -0.0127   -0.0678    0.0070   -0.0355    0.0192    0.0090   -0.0131   -0.0553
          83   -0.0016   -0.0089    0.0098    0.0115    0.0120    0.0676   -0.0190    0.0936
          84   -0.0041   -0.0360   -0.0367    0.0942   -0.0144    0.0407    0.2045   -0.0455
          85    0.5770    0.3200   -0.0073   -0.0066    0.0324   -0.0527   -0.0777    0.0156
          86    0.1122    0.0303   -0.0648   -0.1079   -0.0101   -0.0366   -0.0207   -0.1528
          87    0.1663    0.1906   -0.0293   -0.1343   -0.0129   -0.1293   -0.2209    0.0805
          88    0.0187   -0.0020   -0.0747   -0.0485    0.0031    0.0342    0.0531   -0.0273
          89   -0.0223    0.2118    0.0223   -0.0475    0.0217   -0.0980   -0.1139   -0.1240
          90   -0.0136    0.0774    0.1665    0.1273    0.0189   -0.1275   -0.1703   -0.0089
          91   -0.0320   -0.0234   -0.1338   -0.1007   -0.0173    0.0529    0.0611   -0.0246
          92    0.0081    0.0860    0.4826    0.5404    0.1154   -0.1106   -0.0092   -0.2731
          93   -0.0113   -0.0154    0.2640    0.2678    0.0333   -0.1072   -0.1144   -0.0562


   Root No.       9        10        11        12        13        14        15        16

                 9 A      10 A      11 A      12 A      13 A      14 A      15 A      16 A   

                   0.0       0.0       0.0       0.0       0.0       0.1       0.1       0.1
  
           1    0.0022    0.0915    0.0226   -0.0285    0.0448   -0.0524    0.0570    0.1662
           2   -0.0094   -0.0940    0.0362   -0.0105    0.0246   -0.0467   -0.0409   -0.0350
           3   -0.0248    0.1107    0.0092   -0.0822   -0.0602    0.0091    0.0500    0.0053
           4    0.0024    0.0942    0.0221   -0.0288    0.0444   -0.0537    0.0512    0.1543
           5    0.0178   -0.0371    0.0089    0.0119    0.0165   -0.0472   -0.0829   -0.1043
           6   -0.0046    0.1861   -0.0340   -0.0906   -0.1635    0.0181   -0.0048    0.0547
           7   -0.0480   -0.0129    0.0424   -0.0681    0.0709   -0.1614   -0.1063   -0.0276
           8   -0.0023   -0.0991    0.0317    0.0011    0.0298   -0.0162    0.0191    0.0577
           9   -0.0319   -0.0283    0.1346   -0.0546   -0.0811   -0.1101   -0.0511    0.0136
          10   -0.0162   -0.0488   -0.0183   -0.0192    0.1324   -0.1515   -0.0969   -0.0240
          11    0.0119   -0.0578    0.0695    0.0041   -0.0423    0.0679    0.1546    0.2637
          12    0.0780   -0.1746   -0.1031    0.1233    0.1746   -0.1235   -0.0846   -0.0361
          13   -0.0954   -0.0237    0.0883   -0.1301    0.0363   -0.2877   -0.2923   -0.2112
          14   -0.0070   -0.1106    0.0147    0.0004    0.0619   -0.0274   -0.0058   -0.0255
          15   -0.1177    0.0292    0.3534   -0.2068   -0.3779   -0.2663   -0.2507    0.1007
          16    0.0357    0.1814   -0.0180   -0.0052    0.0207   -0.0623   -0.0638   -0.0573
          17   -0.0569   -0.2228    0.0978   -0.0451    0.0536   -0.0377    0.1603    0.3714
          18   -0.0430    0.0091   -0.0179   -0.0737    0.0647   -0.0181    0.0552   -0.0530
          19   -0.0340    0.0360    0.0642   -0.0606    0.0434   -0.0473    0.0686    0.1345
          20   -0.0225   -0.1191    0.0387   -0.0220    0.0288   -0.0567   -0.0539   -0.0496
          21   -0.0554    0.0457    0.1402   -0.0768    0.0024    0.0046    0.1327   -0.0218
          22    0.0283   -0.0681   -0.1000    0.0195    0.0211   -0.2385   -0.1767    0.1779
          23   -0.0227   -0.0894    0.0446    0.0060   -0.0435    0.0462   -0.1298   -0.3082
          24   -0.0513    0.0512    0.1163    0.0202    0.4029    0.0421    0.1631   -0.1606
          25   -0.0367    0.0144    0.0454   -0.0257    0.1999   -0.1421    0.0311    0.0799
          26   -0.0381   -0.1255    0.0120   -0.0456    0.0404   -0.0709   -0.0991   -0.1482
          27   -0.0517    0.0123    0.1073   -0.0152    0.2326   -0.1219    0.0820   -0.0770
          28    0.0336    0.1721   -0.0153   -0.0057    0.0256   -0.0618   -0.0491   -0.0297
          29   -0.0280   -0.1401    0.0623   -0.0235    0.0361   -0.0425    0.0228    0.0775
          30   -0.0231    0.0838   -0.0574   -0.0820   -0.0351   -0.0071   -0.0166    0.0016
          31    0.0606    0.2495   -0.0487    0.0136    0.0085   -0.0761   -0.1807   -0.2913
          32   -0.0159   -0.1060    0.0508   -0.0140    0.0309   -0.0488   -0.0302   -0.0417
          33   -0.0031    0.1381   -0.1475   -0.0906   -0.1157   -0.0098   -0.1516    0.0587
          34   -0.0354   -0.1044    0.0248   -0.0797    0.0152    0.1050   -0.0061   -0.0077
          35    0.0127    0.1513   -0.0660    0.0213    0.0304   -0.0156   -0.0080    0.0449
          36    0.0933   -0.0484   -0.0735    0.2539   -0.1100   -0.0746    0.0170    0.0324
          37   -0.0238   -0.0866    0.0133    0.0074    0.0066    0.1063   -0.0362    0.0149
          38    0.0061    0.0682   -0.0343    0.0099    0.0180   -0.0122   -0.0017    0.0324
          39    0.0743   -0.0507   -0.0665    0.0887   -0.0885   -0.0763    0.0728   -0.0093
          40    0.0014   -0.0140   -0.0415    0.0311    0.0082    0.1178   -0.0568    0.0465
          41    0.0023    0.0378   -0.0218    0.0065    0.0139   -0.0131    0.0008    0.0260
          42    0.0421   -0.0200   -0.0260    0.0532   -0.0756   -0.0797    0.1108   -0.0480
          43    0.0109    0.0678   -0.0036    0.0592    0.0172    0.1330   -0.0705    0.0541
          44    0.0033    0.0937   -0.0438    0.0046    0.0221   -0.0175    0.0006    0.0267
          45    0.0270   -0.0467   -0.1373   -0.0012   -0.0743   -0.1120    0.1354   -0.0692
          46    0.0117    0.0581    0.0255    0.0507   -0.0099    0.0452    0.0463   -0.0256
          47    0.0089    0.1805   -0.0692    0.0079    0.0272   -0.0071   -0.0032    0.0432
          48    0.0213   -0.0656   -0.1820    0.0132   -0.0242    0.0602   -0.0979    0.0811
          49   -0.0105   -0.0352    0.0162   -0.0382   -0.0136    0.0271    0.0594   -0.0297
          50    0.0132    0.2047   -0.0771    0.0185    0.0321   -0.0074   -0.0071    0.0436
          51    0.0468   -0.0441   -0.0933    0.1702   -0.0354    0.0752   -0.1219    0.0861
          52   -0.0542   -0.1743    0.0332   -0.1588    0.0314    0.1545   -0.0184   -0.0193
          53    0.0142    0.1751   -0.0739    0.0229    0.0356   -0.0199   -0.0102    0.0469
          54    0.1273   -0.0464   -0.0499    0.4177   -0.1692   -0.1553    0.0469    0.0460
          55    0.0321    0.1395   -0.0067    0.0938    0.0333    0.1934   -0.1554    0.1225
          56   -0.0004    0.0721   -0.0386   -0.0002    0.0174   -0.0234    0.0117    0.0186
          57    0.0039   -0.0423   -0.1696   -0.0642   -0.0913   -0.2263    0.3030   -0.1903
          58    0.0321    0.1206    0.0449    0.1092   -0.0351   -0.0178    0.1444   -0.0872
          59    0.0112    0.2244   -0.0873    0.0062    0.0310    0.0098   -0.0115    0.0563
          60   -0.0094   -0.0863   -0.2575   -0.0919    0.0321    0.2062   -0.2936    0.2212
          61   -0.0127   -0.1534    0.0627    0.1189   -0.0465    0.0832   -0.0045   -0.0546
          62    0.0038    0.0067   -0.0063   -0.0019    0.0070    0.0192    0.0029   -0.0266
          63    0.0484   -0.0849   -0.0887   -0.1478   -0.0185    0.0495    0.0255   -0.0356
          64   -0.0152   -0.1422    0.0531    0.0991   -0.0376    0.0900   -0.0103   -0.0426
          65    0.0022   -0.0445    0.0493    0.0967   -0.0403    0.0091    0.0328   -0.1138
          66   -0.0051   -0.0562   -0.0882   -0.2031    0.0104    0.1065   -0.0021   -0.0426
          67    0.0342   -0.1890    0.0795    0.2288   -0.1016    0.0236    0.0403   -0.0806
          68    0.0084   -0.0344   -0.0452   -0.2225    0.0714    0.1295   -0.0399   -0.0459
          69    0.0577   -0.1025   -0.0957   -0.1856   -0.0122    0.0688    0.0227   -0.0458
          70   -0.0443   -0.1883    0.1112    0.1537   -0.0707    0.1233    0.0062   -0.1452
          71    0.0030    0.0451    0.0000    0.0987   -0.0155   -0.0403    0.0182    0.0025
          72    0.0592   -0.1354   -0.1141   -0.3178    0.0242    0.1360   -0.0018   -0.0614
          73    0.0419   -0.0317   -0.1509    0.0163   -0.0164    0.0527    0.0117    0.0085
          74    0.0017   -0.0477    0.0093    0.0028    0.0027   -0.0200   -0.0059    0.0406
          75   -0.0280    0.0464    0.1466    0.0811   -0.0271    0.0362   -0.0058    0.0109
          76   -0.1976    0.0089   -0.2973    0.0555   -0.0379    0.0270    0.0688   -0.0294
          77   -0.0065   -0.0600    0.0100    0.0033    0.0007   -0.0230   -0.0070    0.0453
          78    0.3798    0.1024    0.3431    0.0223    0.0199    0.0984   -0.0799    0.0441
          79    0.3667   -0.0992   -0.1962   -0.0624   -0.0511   -0.0543    0.1298   -0.0543
          80   -0.4106   -0.0912   -0.1566    0.0693   -0.0354   -0.0534    0.0374    0.0306
          81   -0.2106    0.0285    0.0761    0.1118   -0.0433    0.0261    0.0094    0.0082
          82    0.0466   -0.0257   -0.0494    0.0261    0.0048    0.1177   -0.0608    0.0546
          83    0.4390   -0.0644    0.2020   -0.0703    0.0321    0.0092   -0.0585    0.0748
          84   -0.3766    0.0710    0.1705    0.1600   -0.0113    0.1294   -0.0997    0.0715
          85   -0.0523    0.0269    0.1408   -0.1530   -0.2667    0.1417    0.2522    0.0511
          86    0.0031    0.1940   -0.0336    0.0191   -0.0485    0.1178    0.0376   -0.1362
          87   -0.0196    0.0233    0.0733    0.1059    0.0835    0.2655   -0.1054   -0.0079
          88   -0.0155    0.0361   -0.0019   -0.0734   -0.0901   -0.0629    0.0802    0.1188
          89   -0.0216    0.0789    0.0808   -0.0195   -0.2163    0.2924    0.0913   -0.2836
          90   -0.0130    0.0509    0.0871    0.0746    0.2522    0.0873    0.0536   -0.0160
          91   -0.0487    0.1003    0.0573   -0.1450    0.0127   -0.0717    0.3375    0.0335
          92    0.0790    0.0113   -0.0648    0.0641   -0.2225   -0.0538    0.0054    0.0160
          93    0.0101    0.0437    0.0444    0.0882    0.3153   -0.0381    0.0875    0.0386


   Root No.      17        18        19        20        21        22        23        24

                17 A      18 A      19 A      20 A      21 A      22 A      23 A      24 A   

                   0.1       0.2       0.2       0.2       0.2       0.3       0.3       0.5
  
           1   -0.0467    0.0550    0.0143    0.0009    0.1289   -0.0038    0.1097    0.1395
           2    0.0024   -0.0208   -0.0123   -0.0096   -0.0663   -0.0161   -0.0593    0.0825
           3    0.0198   -0.1236   -0.1307   -0.0280    0.0118   -0.0448    0.0671   -0.0117
           4   -0.0440    0.0508    0.0134    0.0007    0.1272   -0.0027    0.1068    0.1375
           5    0.0181   -0.0402   -0.0202   -0.0138   -0.0998   -0.0302   -0.0512    0.3614
           6   -0.0113   -0.0006   -0.0736   -0.0169    0.0491   -0.0629    0.3364   -0.0424
           7   -0.0160    0.0115    0.0170   -0.0030    0.0112    0.0022    0.0200   -0.0993
           8   -0.0154    0.0216    0.0105   -0.0010   -0.0282   -0.0069   -0.0265   -0.1352
           9   -0.0060   -0.0343   -0.0348   -0.0052    0.0317    0.0092   -0.0514    0.0071
          10   -0.0158    0.0166    0.0256    0.0013    0.0343    0.0100   -0.0007   -0.1092
          11   -0.0562    0.1138    0.0466    0.0127    0.0582    0.0118    0.0346   -0.4555
          12    0.0011   -0.0170    0.0109    0.0103    0.0817    0.0278   -0.0914    0.0296
          13    0.0047   -0.0381   -0.0049   -0.0205   -0.1141   -0.0293   -0.0501    0.1968
          14    0.0087   -0.0435   -0.0258   -0.0085   -0.0461   -0.0079   -0.0808   -0.0345
          15   -0.0875    0.1886    0.0862   -0.0048   -0.1235   -0.0396    0.0494   -0.0419
          16    0.0063   -0.0075    0.0021   -0.0024    0.0415    0.0026    0.0368    0.1068
          17   -0.0986    0.1052    0.0173   -0.0022    0.1336   -0.0301    0.1117    0.4655
          18    0.0436   -0.2326   -0.2486   -0.0641   -0.0532   -0.1385    0.4002    0.0068
          19   -0.0337    0.0269    0.0043    0.0000    0.0809    0.0143    0.0163   -0.1991
          20    0.0050   -0.0224   -0.0106   -0.0087   -0.0791   -0.0118   -0.0669   -0.0624
          21    0.0484   -0.2342   -0.1633   -0.0242    0.0767    0.0154   -0.1567   -0.0015
          22   -0.0457    0.0376   -0.0881   -0.0028    0.0954   -0.0662    0.2184   -0.1243
          23    0.0881    0.0818    0.1763    0.0864    0.3321    0.2096    0.4229   -0.1730
          24    0.0171    0.1168    0.3443    0.0432   -0.1949    0.0572    0.2255   -0.0108
          25   -0.0135   -0.0527    0.0124    0.0261    0.3699    0.1006   -0.1093   -0.1854
          26    0.0284   -0.0913   -0.0686   -0.0312   -0.2306   -0.0568   -0.1293   -0.3080
          27    0.0649   -0.2906   -0.1053    0.0189    0.4569    0.1344   -0.2751    0.0477
          28    0.0000   -0.0030   -0.0004   -0.0031    0.0530   -0.0019    0.0599    0.1380
          29   -0.0235    0.0047   -0.0114   -0.0090   -0.0225   -0.0206   -0.0242    0.1002
          30    0.0008   -0.0044   -0.0142   -0.0052    0.0189   -0.0090    0.0271    0.0011
          31    0.0646   -0.0928   -0.0268   -0.0099   -0.0771    0.0048   -0.0641   -0.0426
          32    0.0081   -0.0531   -0.0418   -0.0168   -0.0874   -0.0274   -0.0637    0.0370
          33   -0.0643    0.3697    0.3637    0.0857    0.1236    0.1733   -0.3846    0.0322
          34    0.0634    0.0567   -0.0622    0.0377   -0.0500    0.1202    0.0155    0.0073
          35   -0.0281    0.0149   -0.0482   -0.0079   -0.0350    0.0152   -0.0131   -0.0102
          36    0.0138   -0.0573    0.0250   -0.0031   -0.0253    0.0752    0.0097    0.0065
          37    0.0576    0.0310   -0.0692    0.1868   -0.0525    0.0686    0.0101    0.0147
          38   -0.0442    0.0087   -0.0769    0.0025   -0.0662    0.1722    0.0122    0.0074
          39    0.0592    0.0039    0.0581   -0.3031   -0.0076    0.1046    0.0141   -0.0039
          40    0.0564    0.0044   -0.0407    0.1640   -0.0561    0.0047   -0.0065    0.0147
          41   -0.0503    0.0042   -0.0781    0.0058   -0.0665    0.2040    0.0202    0.0068
          42    0.0582    0.0784    0.0102   -0.2951   -0.0047    0.0496   -0.0039    0.0051
          43    0.0450   -0.0046    0.0087    0.0072   -0.0162   -0.0770   -0.0189   -0.0063
          44   -0.0611    0.0015   -0.0579    0.0091   -0.0346    0.0997    0.0075   -0.0090
          45    0.0237    0.0824   -0.0243   -0.0254    0.0011   -0.0461   -0.0111    0.0026
          46    0.0461    0.0790   -0.0334    0.0233   -0.0102   -0.0702   -0.0142   -0.0059
          47   -0.0426    0.0016   -0.0306   -0.0162   -0.0073   -0.0585   -0.0285   -0.0239
          48    0.0319   -0.0884    0.0619   -0.0415   -0.0067   -0.0139   -0.0017    0.0089
          49    0.0506    0.0466   -0.0216    0.0394   -0.0176    0.0294    0.0087   -0.0172
          50   -0.0435    0.0062   -0.0226   -0.0224   -0.0012   -0.0927   -0.0309   -0.0222
          51    0.0187   -0.0621    0.0025   -0.0312   -0.0015    0.0200   -0.0059    0.0193
          52    0.0985    0.1034   -0.1018   -0.1465   -0.0892    0.3271    0.0466    0.0555
          53   -0.0356    0.0121   -0.0330   -0.0160   -0.0130   -0.0618   -0.0259   -0.0275
          54   -0.0295   -0.1389    0.0154    0.4402   -0.0798    0.1108    0.0268    0.0054
          55    0.0627   -0.0711    0.1040   -0.2089    0.0204   -0.2046   -0.0504   -0.0331
          56   -0.0626    0.0089   -0.0776    0.0365   -0.0491    0.1558    0.0175   -0.0002
          57    0.0018    0.2230   -0.1405    0.3500    0.0163   -0.2300   -0.0379   -0.0145
          58    0.0471    0.1932   -0.0937   -0.0386    0.0034   -0.1935   -0.0594   -0.0031
          59   -0.0382    0.0018   -0.0154   -0.0312   -0.0051   -0.1731   -0.0645   -0.0368
          60    0.0465   -0.2901    0.2040    0.0393   -0.0235   -0.0437    0.0086   -0.0197
          61   -0.0789   -0.0053    0.0191    0.0434    0.0062   -0.0431    0.0025    0.0081
          62   -0.1819   -0.0199   -0.0255   -0.0185   -0.0173    0.0527    0.0007    0.0007
          63   -0.0360   -0.0006    0.0330   -0.0887    0.0102    0.0015    0.0033   -0.0039
          64   -0.0552    0.0023   -0.0012    0.0806   -0.0083   -0.0143    0.0059    0.0129
          65   -0.3722   -0.0665    0.0974   -0.2014    0.0755   -0.1699   -0.0262   -0.0239
          66   -0.0871    0.0067   -0.0067    0.0625    0.0011   -0.0242   -0.0007    0.0057
          67   -0.0846   -0.0254    0.1104   -0.2032    0.0438   -0.0874    0.0010   -0.0046
          68   -0.2655   -0.0180   -0.0657    0.2206   -0.0022   -0.0689   -0.0199    0.0074
          69   -0.0584   -0.0032    0.0389   -0.0707    0.0212   -0.0399   -0.0027   -0.0043
          70   -0.2976   -0.0462    0.1064    0.0082    0.0885   -0.2858   -0.0281   -0.0020
          71   -0.1177   -0.0133   -0.0369   -0.1086   -0.0501    0.1774    0.0169    0.0025
          72   -0.0939   -0.0012    0.0301    0.0603    0.0427   -0.1412   -0.0157   -0.0043
          73    0.0134    0.0304   -0.0477    0.0457   -0.0584    0.0519   -0.0036    0.0169
          74    0.2035    0.0326   -0.0075    0.0130   -0.0145    0.0189    0.0034    0.0049
          75    0.0257    0.0244   -0.0087   -0.0901   -0.0280    0.0453   -0.0030    0.0083
          76   -0.2077    0.0324   -0.1266   -0.0483   -0.1228    0.3005    0.0186    0.0290
          77    0.2709    0.0408    0.0143    0.0128    0.0037   -0.0489   -0.0041    0.0019
          78   -0.1188   -0.0291   -0.0636    0.0386   -0.0837    0.1914    0.0158    0.0191
          79    0.1176    0.1192   -0.0203   -0.2322   -0.0270    0.0098   -0.0195    0.0228
          80    0.3742    0.0757    0.0465   -0.0719    0.0298   -0.1354   -0.0190    0.0012
          81    0.0889    0.0388    0.0113   -0.1190   -0.0132   -0.0108   -0.0117    0.0079
          82    0.0987    0.0041   -0.0296    0.2033   -0.0578   -0.0485   -0.0167    0.0254
          83    0.3567    0.0310    0.0380    0.0964    0.0163   -0.1466   -0.0154    0.0048
          84    0.0693   -0.0249   -0.0073    0.1369   -0.0471   -0.0157   -0.0116    0.0216
          85    0.0553   -0.1469   -0.0898   -0.0133   -0.1080    0.0646   -0.1973   -0.0527
          86    0.0291    0.0036    0.1682    0.0297    0.1274   -0.0984    0.0807    0.1576
          87    0.0020    0.2568   -0.3382   -0.0452    0.0637   -0.0678   -0.0957   -0.0215
          88    0.0092   -0.1247   -0.0032    0.0050   -0.0068   -0.0244   -0.0245   -0.0422
          89    0.1152    0.0043    0.0747    0.0492    0.1954    0.1121   -0.0020    0.0684
          90   -0.0125    0.1658   -0.0505   -0.0194   -0.0985   -0.0409   -0.0386   -0.0261
          91    0.0421   -0.2831    0.4232    0.0589   -0.2326    0.0411   -0.0134    0.0012
          92    0.0285   -0.1859    0.0767    0.0200    0.0501    0.0326    0.0232    0.0121
          93   -0.0304    0.0776    0.1147   -0.0051   -0.2152   -0.0464    0.0156   -0.0285


   Root No.      25        26        27        28        29        30        31        32

                25 A      26 A      27 A      28 A      29 A      30 A      31 A      32 A   

                   0.5       0.6       0.6       0.6       0.7       0.8       0.8       0.9
  
           1   -0.0315   -0.0027   -0.0048    0.0050    0.0103   -0.0111    0.0010    0.0409
           2   -0.0027   -0.0054   -0.0024   -0.0056   -0.0067    0.0074   -0.0008   -0.0297
           3   -0.0091   -0.0205   -0.0626    0.0322    0.1578   -0.0447    0.0003    0.0869
           4   -0.0339   -0.0031   -0.0071    0.0072    0.0156   -0.0140    0.0012    0.0505
           5   -0.0288   -0.0292   -0.0167   -0.0281   -0.0250    0.0322   -0.0019   -0.0574
           6    0.0312    0.0590    0.1421   -0.0621   -0.2636    0.0586   -0.0003   -0.1081
           7    0.0045    0.0168    0.0172    0.0076   -0.0193   -0.0065    0.0011    0.0228
           8    0.0390    0.0152    0.0270   -0.0083   -0.0287    0.0062   -0.0003   -0.0230
           9   -0.0276   -0.0226   -0.0566    0.0292    0.1122   -0.0210   -0.0009    0.0073
          10    0.0215    0.0307    0.0531   -0.0085   -0.0824    0.0052    0.0015    0.0153
          11    0.0829    0.0491    0.0766   -0.0083   -0.0759   -0.0003    0.0013    0.0267
          12    0.0347    0.0252    0.0734   -0.0342   -0.1196    0.0225    0.0005   -0.0172
          13   -0.0160   -0.0005    0.0083   -0.0086   -0.0375    0.0121   -0.0002   -0.0417
          14    0.0159   -0.0015   -0.0055    0.0000    0.0140    0.0050   -0.0013   -0.0487
          15    0.0447    0.0333    0.0866   -0.0313   -0.1315    0.0165    0.0015    0.0172
          16   -0.0255   -0.0057   -0.0085    0.0043    0.0107   -0.0080    0.0009    0.0434
          17   -0.0710   -0.0236   -0.0286    0.0008    0.0222   -0.0084    0.0004    0.0379
          18    0.0258    0.0382    0.0922   -0.0447   -0.1635    0.0342   -0.0000   -0.0591
          19   -0.0003    0.0099   -0.0094    0.0254    0.0376   -0.0191    0.0011    0.0355
          20    0.0182    0.0069    0.0114   -0.0033   -0.0180    0.0063   -0.0005   -0.0273
          21   -0.0688   -0.0621   -0.1676    0.0857    0.3116   -0.0675   -0.0001    0.0899
          22    0.1728   -0.0603   -0.1125   -0.0294    0.3821   -0.0207   -0.0112   -0.1601
          23   -0.2883   -0.0682   -0.2073    0.1127    0.2364   -0.0199   -0.0060   -0.1236
          24   -0.2080    0.0037   -0.0550    0.1171   -0.1353   -0.0514    0.0192    0.4035
          25    0.0600    0.0808    0.1648   -0.0482   -0.2675    0.0389    0.0018   -0.0270
          26    0.0989    0.0284    0.0363    0.0007    0.0101   -0.0371    0.0046    0.2054
          27   -0.0026    0.0283    0.0563   -0.0085   -0.0964    0.0101    0.0012    0.0062
          28   -0.0281   -0.0060   -0.0065    0.0017    0.0048   -0.0064    0.0009    0.0420
          29   -0.0072   -0.0055   -0.0046   -0.0033    0.0022    0.0037   -0.0007   -0.0289
          30   -0.0044   -0.0042   -0.0198    0.0108    0.0535   -0.0183    0.0002    0.0377
          31    0.0028   -0.0035   -0.0100    0.0070    0.0218   -0.0048   -0.0004   -0.0176
          32    0.0058   -0.0053   -0.0064   -0.0019    0.0104    0.0049   -0.0015   -0.0611
          33   -0.0283   -0.0187   -0.0494    0.0200    0.0562   -0.0032   -0.0005   -0.0137
          34    0.0341   -0.0500   -0.0581   -0.1126   -0.0056    0.0077    0.0114    0.0366
          35   -0.0354   -0.0657   -0.0607   -0.0089   -0.0761   -0.0785    0.0073   -0.0193
          36    0.0508   -0.0328   -0.0325    0.1783   -0.0617    0.0338    0.0030   -0.0760
          37    0.0567    0.0152   -0.1284   -0.0379   -0.0703   -0.0362    0.0063    0.0037
          38   -0.0144    0.0169    0.0256    0.0024    0.0074    0.0275   -0.0111    0.0061
          39    0.0139   -0.1904    0.0804    0.0207    0.0015    0.0251   -0.0072   -0.0169
          40   -0.0432   -0.0163    0.1209    0.0579    0.0117   -0.0194    0.0188    0.0124
          41    0.0227   -0.0345   -0.0205   -0.0145   -0.0205   -0.0339    0.0326   -0.0072
          42   -0.0270    0.1647   -0.0587   -0.0733    0.0032   -0.0050    0.0018   -0.0228
          43   -0.0462   -0.0306    0.0348   -0.0363    0.0354    0.0694    0.0031    0.0481
          44    0.0348   -0.0769   -0.0852   -0.0157   -0.0204    0.0112    0.0098   -0.0164
          45   -0.0066    0.0848   -0.0545    0.0743   -0.0347    0.0469    0.0020   -0.0791
          46   -0.0310   -0.0282    0.0295   -0.1006    0.0611    0.0858   -0.0005    0.0675
          47   -0.0235   -0.0932   -0.1063   -0.0112   -0.0635   -0.0508   -0.0008   -0.0292
          48    0.0267    0.0817   -0.0618    0.2029   -0.0642    0.0683    0.0015   -0.1021
          49   -0.0032   -0.1139   -0.0091   -0.2196    0.0849    0.0363   -0.0011    0.0382
          50   -0.0363   -0.0709   -0.0757    0.0019   -0.0534   -0.0634    0.0044   -0.0247
          51    0.1416    0.1171   -0.1673    0.4389   -0.1244    0.0498    0.0041   -0.1236
          52    0.1434   -0.0175    0.0067    0.1020   -0.0527    0.3820    0.0473    0.1497
          53   -0.0565   -0.1030   -0.0961   -0.0058   -0.0880   -0.2399   -0.0074   -0.0965
          54   -0.0428    0.0623   -0.0258   -0.3115    0.0426    0.1579    0.0275    0.1316
          55   -0.1074    0.0391   -0.1521   -0.0270   -0.0226    0.4346   -0.0296   -0.0395
          56    0.0546   -0.0835   -0.0486   -0.0172   -0.0142   -0.1127    0.0245   -0.0039
          57   -0.0386   -0.1574    0.0459    0.0292    0.0250    0.2362   -0.0166    0.0548
          58   -0.0866    0.0455   -0.0318    0.1522   -0.0993    0.1519    0.0137    0.0407
          59   -0.1497   -0.1172   -0.0951   -0.0512   -0.1454   -0.0348    0.0117    0.0527
          60   -0.1409   -0.0752    0.0878   -0.3253    0.0716    0.0537    0.0010    0.1305
          61    0.0528   -0.0069   -0.1205   -0.0218   -0.0814   -0.0508   -0.0388   -0.0141
          62   -0.0360    0.0474    0.0513    0.0142    0.0374    0.0671   -0.0699    0.0093
          63    0.0165   -0.1676    0.0542   -0.0106   -0.0024   -0.0027   -0.0238    0.0141
          64    0.0777   -0.0026   -0.1922   -0.0376   -0.1387   -0.0883   -0.1159   -0.0245
          65   -0.1586    0.0110    0.3653    0.0759    0.2719    0.2046    0.2238    0.0705
          66    0.0567   -0.1343   -0.0853   -0.0238   -0.1226   -0.0954   -0.3071    0.0307
          67    0.0515   -0.3780    0.0244   -0.0570   -0.1157   -0.1574   -0.2522    0.0581
          68   -0.0687    0.4600   -0.1061    0.0448    0.0286    0.1660   -0.2751   -0.0527
          69    0.0110   -0.1395    0.0390   -0.0068   -0.0153   -0.0001   -0.1149    0.0114
          70    0.0124    0.1114   -0.1589   -0.0185   -0.0947   -0.1623    0.2080   -0.0798
          71   -0.0358   -0.0429    0.1154    0.0067    0.0566    0.1757   -0.3649    0.0385
          72    0.0196   -0.0539   -0.0237    0.0055   -0.0236   -0.1315    0.3468   -0.0117
          73   -0.0513    0.0194    0.1403    0.0739    0.0172   -0.0524    0.0252   -0.0170
          74    0.0095   -0.0207   -0.0185   -0.0124   -0.0278   -0.0166    0.0795   -0.0096
          75   -0.0359    0.1423   -0.0224   -0.0853    0.0161   -0.0402    0.0060    0.0094
          76   -0.0344    0.0088    0.1194    0.0320   -0.0401   -0.0995    0.3961   -0.0761
          77   -0.0002   -0.0076   -0.0119   -0.0044   -0.0131   -0.0037    0.0001   -0.0021
          78   -0.0140    0.0874   -0.0280   -0.0974   -0.0319   -0.0921    0.2429    0.0191
          79   -0.1338    0.4326    0.1050   -0.1476    0.1215   -0.3369   -0.2195    0.0394
          80   -0.0411    0.1545   -0.0640   -0.1235   -0.0002   -0.0242    0.1692    0.0338
          81   -0.0584    0.2177   -0.0358   -0.1282    0.0275   -0.0463    0.0441    0.0262
          82   -0.1060   -0.0516    0.3998    0.2830    0.0672   -0.1450   -0.0636   -0.0761
          83   -0.0335   -0.0735    0.1277    0.1273   -0.0080    0.0354    0.1622   -0.0695
          84   -0.0922    0.0493    0.3045    0.1740    0.0826   -0.2351   -0.2118   -0.0519
          85   -0.2811   -0.0603   -0.0426   -0.0255   -0.0752    0.0176   -0.0067   -0.0715
          86    0.6035    0.1012    0.1783   -0.0726    0.0673   -0.0529    0.0100    0.2523
          87    0.1890   -0.0288   -0.1028    0.0829    0.1970   -0.0353    0.0132    0.2080
          88    0.1422   -0.0203   -0.0945    0.0552    0.1780   -0.0302    0.0050    0.1138
          89    0.1065   -0.0078    0.1171   -0.1756   -0.0362    0.0647   -0.0163   -0.2926
          90    0.0638   -0.0619    0.0514   -0.1928    0.1151    0.0439   -0.0200   -0.3305
          91    0.2271    0.0480   -0.0772    0.1224    0.1432    0.0274   -0.0046   -0.2132
          92   -0.0047    0.0458   -0.0720    0.1845   -0.0435   -0.0408    0.0173    0.2903
          93    0.0790   -0.0256   -0.0043   -0.0661    0.1172    0.0326   -0.0134   -0.2718


   Root No.      33        34        35        36        37        38        39        40

                33 A      34 A      35 A      36 A      37 A      38 A      39 A      40 A   

                   0.9       0.9       1.0       1.0       1.1       1.2       1.2       1.3
  
           1    0.0088    0.0520    0.0083   -0.0379   -0.0098   -0.0324    0.0114   -0.0012
           2   -0.0080   -0.0874    0.0018    0.0102    0.0187   -0.0217    0.0050   -0.0024
           3    0.0190    0.1093    0.0463   -0.1275   -0.0228   -0.1248    0.0364    0.0082
           4    0.0110    0.0664    0.0099   -0.0458   -0.0118   -0.0410    0.0143   -0.0009
           5    0.0028    0.3770   -0.1105    0.4028    0.2201   -0.0749    0.0016   -0.0018
           6   -0.0221   -0.1113   -0.0495    0.1432    0.0416    0.0756   -0.0251   -0.0045
           7    0.0032    0.0075   -0.0010    0.0213    0.0338   -0.0438    0.0072    0.0033
           8   -0.0081   -0.1013   -0.0007    0.0458    0.0856   -0.1362    0.0327   -0.0108
           9   -0.0006   -0.0193    0.0237   -0.0104    0.0333   -0.0841    0.0192    0.0133
          10    0.0025    0.0193   -0.0140    0.0403    0.0275   -0.0105   -0.0006    0.0000
          11    0.0034    0.0141   -0.0086    0.0483    0.0720   -0.1057    0.0247   -0.0045
          12   -0.0017    0.0271   -0.0185    0.0159   -0.0284    0.0670   -0.0128   -0.0027
          13   -0.0128   -0.1404   -0.0068    0.0791    0.1153   -0.1634    0.0366   -0.0115
          14   -0.0154   -0.1729    0.0044    0.0749    0.1379   -0.2185    0.0508   -0.0113
          15    0.0050    0.0621   -0.0147   -0.0191   -0.0546    0.0877   -0.0150   -0.0027
          16    0.0125    0.1675   -0.0084    0.0158    0.0051   -0.0340    0.0107    0.0048
          17    0.0102    0.0283    0.0347   -0.2270   -0.2424    0.2857   -0.0610    0.0133
          18   -0.0125   -0.0746   -0.0249    0.0549   -0.0012    0.0759   -0.0235   -0.0043
          19    0.0032   -0.0341    0.0100    0.0153    0.0620   -0.0962    0.0195   -0.0001
          20   -0.0083   -0.0874   -0.0022    0.0453    0.0623   -0.0827    0.0177   -0.0025
          21    0.0143    0.0216    0.0541   -0.0765    0.0491   -0.1691    0.0389    0.0079
          22   -0.0177    0.0494    0.0703   -0.0740   -0.0164   -0.0953    0.0232    0.0051
          23   -0.0226    0.0400    0.0275    0.0797   -0.0275    0.0818   -0.0348    0.0984
          24    0.0593   -0.0482   -0.0545   -0.1011    0.0677   -0.0992    0.0394   -0.1327
          25   -0.0046    0.0236   -0.0397    0.0837   -0.0103    0.1035   -0.0283    0.0093
          26    0.0557    0.5470   -0.0041   -0.1816   -0.2409    0.2731   -0.0570    0.0075
          27    0.0008    0.0157   -0.0082    0.0038   -0.0247    0.0480   -0.0111    0.0072
          28    0.0133    0.1753   -0.0116    0.0142   -0.0072   -0.0044    0.0033    0.0051
          29   -0.0102   -0.1595    0.0158   -0.0313    0.0076   -0.0283    0.0077   -0.0058
          30    0.0085    0.0490    0.0216   -0.0635   -0.0121   -0.0713    0.0203    0.0077
          31   -0.0099   -0.3062    0.0639   -0.2745   -0.2244    0.2553   -0.0528    0.0052
          32   -0.0226   -0.4085    0.0546   -0.1754   -0.0959    0.0897   -0.0172   -0.0066
          33   -0.0029   -0.0516    0.0011    0.0077    0.0037    0.0234   -0.0107   -0.0044
          34   -0.0332   -0.0144   -0.0646    0.0146    0.0104    0.0252   -0.0789   -0.0963
          35   -0.0620    0.0046   -0.1092   -0.0417   -0.0124   -0.0314   -0.0068    0.1555
          36   -0.0355    0.0291   -0.0019   -0.0329   -0.0104    0.0199    0.1841   -0.0443
          37   -0.0218   -0.0063   -0.0573    0.0277   -0.0786   -0.0390   -0.0830   -0.0735
          38   -0.0269   -0.0005   -0.0464   -0.0110   -0.0052   -0.0016    0.0021   -0.0127
          39   -0.0241    0.0166   -0.0082   -0.0846    0.1623    0.1141    0.1824   -0.0098
          40    0.0231   -0.0093    0.0291    0.0583   -0.0921   -0.0101    0.1066   -0.0335
          41   -0.0316   -0.0001   -0.0574   -0.0111    0.0045    0.0126    0.0035   -0.0495
          42   -0.0024    0.0187    0.0171   -0.0944    0.1661    0.0298   -0.1787   -0.0434
          43    0.0080   -0.0226    0.0036    0.0762   -0.0417    0.0692    0.1284   -0.1528
          44   -0.0435   -0.0032   -0.1365   -0.0138    0.0005    0.0237    0.0070   -0.1613
          45   -0.0102    0.0408    0.0243   -0.1038    0.0800   -0.0634   -0.2041   -0.1337
          46    0.0038   -0.0238    0.0149    0.0541    0.0286    0.0939    0.0638   -0.2212
          47   -0.0328   -0.0009   -0.1530   -0.0387   -0.0058   -0.0229   -0.0112    0.1109
          48   -0.0206    0.0433    0.0367   -0.0428   -0.0560   -0.0929   -0.0734   -0.1642
          49    0.0159   -0.0200   -0.0759   -0.0020    0.1015    0.0920   -0.0223   -0.2013
          50   -0.0346    0.0005   -0.0911   -0.0207   -0.0086   -0.0145    0.0038    0.0692
          51   -0.0259    0.0248   -0.0174    0.0618   -0.1973   -0.0643    0.0902   -0.1047
          52   -0.3630    0.0199   -0.0605   -0.0988   -0.0429   -0.1230    0.0375    0.3828
          53    0.0570   -0.0004   -0.1329   -0.0087   -0.0015    0.0308    0.0097   -0.0162
          54   -0.1630   -0.0068   -0.0470   -0.0511    0.0221   -0.0698   -0.1590    0.1705
          55    0.2837   -0.0082   -0.3777   -0.1349   -0.0035   -0.0632   -0.0734    0.0967
          56   -0.1533   -0.0003   -0.0268    0.0339    0.0044    0.0632    0.0365   -0.3225
          57    0.1652   -0.0422   -0.1949    0.0369   -0.0762    0.0340    0.1656    0.1085
          58   -0.2809    0.0475    0.4879    0.0908   -0.0256    0.0042   -0.0343   -0.1692
          59   -0.3176    0.0324    0.2867    0.0257    0.0102   -0.0278   -0.0475    0.3174
          60   -0.1070   -0.0123    0.2130    0.0636    0.0727    0.0977    0.0386   -0.0737
          61    0.0056    0.0038   -0.0166   -0.0003   -0.0352   -0.0270   -0.0749   -0.1149
          62    0.0138   -0.0029   -0.0070    0.0075   -0.0098    0.0058    0.0006   -0.0657
          63   -0.0041   -0.0015   -0.0074   -0.0261    0.0901    0.0992    0.1773   -0.0129
          64    0.0347    0.0103    0.0023   -0.0226   -0.0160   -0.0289   -0.0797   -0.1238
          65   -0.0800   -0.0435   -0.0823    0.1695   -0.2423   -0.1036   -0.1940   -0.1099
          66    0.1718   -0.0189    0.1223    0.1004   -0.2076   -0.1876   -0.2769    0.0845
          67    0.1492   -0.0259    0.1036    0.0812   -0.1403   -0.1205   -0.1246    0.1777
          68    0.1434    0.0310    0.1775   -0.0622    0.1365    0.0456    0.0481    0.0627
          69    0.0537    0.0022    0.0611   -0.0340    0.1224    0.1077    0.2110    0.0776
          70   -0.1148    0.0424   -0.0478   -0.1890    0.2830    0.1542    0.2900    0.1539
          71    0.1508   -0.0068    0.1110    0.0146    0.0695    0.0934    0.1440   -0.0805
          72   -0.1783   -0.0065   -0.1833    0.0144   -0.1168   -0.0756   -0.1262   -0.0919
          73    0.0379    0.0016    0.0278    0.0156   -0.0444   -0.0145    0.0927   -0.0198
          74    0.0344    0.0010   -0.0056   -0.0114    0.0100    0.0080    0.0043    0.0010
          75    0.0131   -0.0040   -0.0004   -0.0203    0.0760    0.0266   -0.1532   -0.0292
          76    0.3823    0.0144    0.1991   -0.0793    0.1754    0.0087   -0.2083    0.1591
          77   -0.0403    0.0022   -0.0471   -0.0178    0.0152    0.0185    0.0015   -0.0530
          78    0.2248   -0.0325    0.1130    0.1620   -0.2730   -0.0790    0.3169    0.1182
          79   -0.1413   -0.0383   -0.2033    0.0666   -0.1210   -0.0304    0.0299    0.1157
          80    0.1967   -0.0320    0.1251    0.1577   -0.2401   -0.0681    0.2611    0.0888
          81    0.0825   -0.0167    0.0590    0.0454   -0.0158   -0.0025   -0.0728    0.0006
          82    0.0187    0.0206   -0.0078   -0.0655    0.0428   -0.0242    0.0500    0.0748
          83    0.1991    0.0296    0.1482   -0.1231    0.2448    0.0351   -0.2679    0.0501
          84   -0.1514    0.0099   -0.1857   -0.0906    0.0778   -0.0016   -0.0677    0.0987
          85   -0.0008    0.0187   -0.0273   -0.0542   -0.0091   -0.0762    0.0386   -0.0752
          86    0.0428   -0.0170    0.0623   -0.1774    0.0551   -0.2085    0.0474   -0.0150
          87    0.0259   -0.1532   -0.0619    0.3407    0.1317    0.3576   -0.1411    0.1224
          88    0.0192   -0.0484   -0.0166    0.0295    0.0732   -0.0178    0.0017   -0.0694
          89   -0.0290    0.1055    0.0151   -0.0672   -0.0827   -0.0110    0.0203   -0.0526
          90   -0.0407    0.0902    0.0470   -0.1012   -0.0520   -0.1041    0.0399   -0.0281
          91   -0.0361   -0.0424    0.0063    0.2945   -0.0284    0.2897   -0.1042    0.1712
          92    0.0366   -0.0885   -0.0432    0.1040    0.0605    0.0902   -0.0327    0.0101
          93   -0.0410    0.0389    0.0381    0.0291   -0.0477    0.0253   -0.0090    0.0622


   Root No.      41        42        43        44        45        46        47        48

                41 A      42 A      43 A      44 A      45 A      46 A      47 A      48 A   

                   1.5       1.5       1.5       1.6       1.7       1.8       1.9       2.0
  
           1   -0.0610   -0.0674    0.0246   -0.0004   -0.0084   -0.2536   -0.0062    0.0028
           2   -0.0389   -0.0565    0.0229   -0.0032   -0.0241   -0.1304   -0.0051    0.0021
           3   -0.0176    0.0777   -0.0542    0.0310    0.4477   -0.0137    0.0158    0.0066
           4   -0.0806   -0.0903    0.0332   -0.0008   -0.0233   -0.3902   -0.0109    0.0037
           5    0.2890    0.3895   -0.1465    0.0174   -0.0171    0.0470   -0.0008   -0.0047
           6    0.0311   -0.0143    0.0174   -0.0142   -0.2047    0.0117   -0.0074   -0.0043
           7    0.1146    0.1741   -0.0716    0.0109   -0.0194    0.0575   -0.0085   -0.0098
           8   -0.1252   -0.1607    0.0611   -0.0059    0.0507    0.0997    0.0102    0.0029
           9   -0.0060   -0.0052    0.0023   -0.0040   -0.1567    0.0539   -0.0176   -0.0075
          10    0.1269    0.1897   -0.0774    0.0128    0.0355    0.0551   -0.0026   -0.0068
          11    0.0465    0.0938   -0.0413    0.0100    0.0670    0.2423    0.0057   -0.0074
          12   -0.0409   -0.0608    0.0258   -0.0022    0.0647   -0.0286    0.0085    0.0080
          13   -0.1147   -0.1410    0.0507   -0.0036    0.0763    0.1695    0.0117   -0.0003
          14   -0.2173   -0.2898    0.1112   -0.0137    0.0331    0.1857    0.0123    0.0035
          15   -0.0135   -0.0142    0.0066    0.0020    0.0838   -0.0671    0.0075    0.0093
          16   -0.1676   -0.2290    0.0889   -0.0117   -0.0081   -0.0059   -0.0016    0.0044
          17    0.0245    0.0039    0.0024   -0.0044    0.0141    0.4311    0.0120   -0.0022
          18    0.0110   -0.0438    0.0276   -0.0166   -0.2652    0.0224   -0.0106   -0.0096
          19    0.0796    0.1162   -0.0453    0.0042   -0.0778    0.0267   -0.0071   -0.0063
          20   -0.0601   -0.0789    0.0292   -0.0030    0.0191    0.0492    0.0009    0.0008
          21    0.0394    0.0585   -0.0216   -0.0041   -0.2738    0.0588   -0.0218   -0.0179
          22    0.0132    0.0401   -0.0184    0.0026   -0.0648   -0.0088    0.0130   -0.0121
          23    0.0035   -0.0012   -0.0062   -0.0004   -0.0133   -0.0169   -0.0439    0.0067
          24    0.0406    0.0350    0.0034   -0.0044   -0.0263    0.0033    0.0487   -0.0048
          25    0.0539    0.0671   -0.0270    0.0058    0.1147   -0.0424    0.0037    0.0106
          26   -0.0547   -0.1189    0.0541   -0.0152   -0.1564   -0.1279   -0.0079   -0.0007
          27   -0.0295   -0.0475    0.0181   -0.0033   -0.0169   -0.0065   -0.0026    0.0007
          28   -0.1232   -0.1726    0.0687   -0.0102   -0.0235    0.0695    0.0003    0.0025
          29    0.0066    0.0173   -0.0075    0.0029   -0.0276   -0.3502   -0.0107    0.0015
          30   -0.0221    0.0603   -0.0482    0.0329    0.5967   -0.0250    0.0264    0.0203
          31    0.1199    0.1473   -0.0519    0.0038    0.0091    0.3098    0.0098   -0.0017
          32    0.1396    0.2043   -0.0810    0.0148    0.0305   -0.4212   -0.0094    0.0021
          33    0.0286   -0.0093    0.0132   -0.0148   -0.2701   -0.0096   -0.0143   -0.0117
          34    0.0590   -0.0740   -0.0224    0.0463    0.0198   -0.0099    0.1552   -0.2123
          35    0.0257    0.0041    0.0722    0.1109   -0.0039   -0.0055    0.1814   -0.0277
          36   -0.1348    0.1193    0.0185    0.0422   -0.0458    0.0044    0.1498    0.3609
          37   -0.0154   -0.0111   -0.0242    0.0754    0.0009   -0.0068    0.1578   -0.1936
          38   -0.0060   -0.0052   -0.0093   -0.0042    0.0110    0.0000   -0.0512    0.0123
          39    0.0031   -0.0100   -0.0162    0.0470   -0.0162    0.0002    0.1387    0.3011
          40   -0.0087    0.0130    0.0248    0.0400    0.0001   -0.0049    0.1500   -0.1230
          41   -0.0168   -0.0038   -0.0264   -0.0691    0.0139   -0.0001   -0.0633    0.0260
          42    0.0413   -0.0390   -0.0018    0.0202    0.0063   -0.0038    0.1154    0.1608
          43   -0.1471    0.1536    0.1524   -0.0538    0.0074   -0.0007    0.0225   -0.0156
          44    0.0461    0.0084    0.1236   -0.1633    0.0423    0.0020   -0.2393    0.0490
          45    0.3621   -0.2684   -0.0361   -0.0509    0.0420   -0.0066    0.0192    0.0315
          46   -0.0799    0.0934    0.1278   -0.0918    0.0195   -0.0018    0.0148    0.1103
          47    0.0499    0.0026    0.0921    0.0396   -0.0022    0.0008   -0.0111   -0.0042
          48    0.2231   -0.1488   -0.0029   -0.0830    0.0290   -0.0028   -0.0452   -0.2269
          49    0.1165   -0.0803    0.0326   -0.0397    0.0143   -0.0030    0.0726    0.0839
          50    0.0312    0.0211    0.1049    0.0254   -0.0010   -0.0001    0.0252   -0.0032
          51   -0.2010    0.1863    0.0851   -0.0190   -0.0221    0.0009   -0.0031   -0.2019
          52    0.0171    0.0736    0.1545    0.0311   -0.0193    0.0030    0.0275    0.0747
          53    0.0082   -0.0161    0.0386    0.1847   -0.0026   -0.0136    0.4082   -0.0756
          54    0.1233   -0.0653    0.0523   -0.0006    0.0163   -0.0027   -0.0176   -0.1351
          55    0.0427   -0.0901   -0.1447   -0.1010    0.0230    0.0013   -0.1782    0.0386
          56    0.0621    0.0521    0.2796   -0.2330    0.0672    0.0011   -0.2985    0.0649
          57   -0.2213    0.1373   -0.0304   -0.0227   -0.0094    0.0035   -0.0724    0.0108
          58   -0.0048   -0.0511   -0.1415   -0.1114    0.0136   -0.0001   -0.0654   -0.0669
          59   -0.0450   -0.0185   -0.1489    0.1117   -0.0345    0.0043   -0.0703    0.0248
          60   -0.1281    0.0673   -0.0365   -0.0413   -0.0021    0.0025    0.0024    0.1272
          61   -0.0770   -0.0167   -0.1543    0.2352   -0.0274    0.0053   -0.0025    0.1179
          62   -0.0489   -0.0278   -0.1312    0.1494   -0.0033    0.0080   -0.2189    0.0233
          63    0.0134   -0.0541   -0.0720    0.1135    0.0080   -0.0013   -0.0487   -0.2528
          64   -0.1099   -0.0243   -0.2269    0.3373   -0.0379    0.0107   -0.0883    0.2049
          65    0.0023    0.0110    0.0338    0.0139   -0.0121   -0.0065    0.2428   -0.0351
          66    0.0037    0.0579    0.0979   -0.1524   -0.0044    0.0011    0.0172    0.1823
          67    0.0574    0.0379    0.1554   -0.2431    0.0245   -0.0022   -0.0514   -0.0471
          68    0.0286    0.0461    0.1226   -0.1293   -0.0135   -0.0037    0.2096    0.1938
          69    0.0674   -0.0376    0.0439   -0.0314    0.0185   -0.0074    0.0672   -0.3541
          70    0.0585   -0.0038    0.0908   -0.1473    0.0270   -0.0014   -0.0840   -0.0732
          71   -0.0342   -0.0754   -0.1934    0.2835   -0.0039    0.0064   -0.2113   -0.2118
          72   -0.0710   -0.0123   -0.1367    0.1552   -0.0081    0.0088   -0.2153    0.0998
          73    0.1344   -0.0840    0.0354    0.0705    0.0118   -0.0053    0.1232    0.0583
          74   -0.1052   -0.0205   -0.2819   -0.2605   -0.0137   -0.0024    0.1282   -0.0258
          75   -0.1613    0.1363    0.0959    0.0526   -0.0019   -0.0018    0.0528   -0.1255
          76   -0.1822    0.0942   -0.1192   -0.1379   -0.0216    0.0042   -0.0681   -0.0582
          77   -0.1166   -0.0242   -0.3074   -0.2981   -0.0107   -0.0063    0.2420   -0.0444
          78    0.1498   -0.1434   -0.1626   -0.1047   -0.0044    0.0017   -0.0187    0.0808
          79   -0.1263    0.0765   -0.0508   -0.0761   -0.0099    0.0053   -0.1489   -0.0754
          80    0.1945   -0.0915    0.0901    0.0957    0.0059    0.0042   -0.1414    0.0864
          81   -0.0557    0.1388    0.3143    0.2631    0.0078    0.0000   -0.0394   -0.1220
          82    0.2561   -0.1357    0.1197    0.1605    0.0178    0.0002   -0.0635    0.1833
          83   -0.0870    0.1256    0.1951    0.1190   -0.0010    0.0050   -0.1516   -0.0445
          84   -0.0757   -0.0064   -0.1929   -0.1908   -0.0126    0.0050   -0.1139    0.0211
          85    0.0184    0.0523    0.0230   -0.0085   -0.0644    0.0203   -0.0059   -0.0101
          86    0.0284    0.0574   -0.0699    0.0190   -0.1006    0.0278   -0.0145   -0.0127
          87    0.0525   -0.1403   -0.0141    0.0042    0.0854   -0.0166    0.0062    0.0606
          88    0.0755    0.0373   -0.0038   -0.0082   -0.1182    0.0213    0.0525    0.0013
          89   -0.0425   -0.0215    0.0205    0.0042    0.0713   -0.0221    0.0604   -0.0101
          90    0.0067    0.0454    0.0037   -0.0036   -0.0638    0.0133    0.0056   -0.0084
          91   -0.0455   -0.0950   -0.0031    0.0090    0.1085   -0.0229   -0.0217    0.0152
          92    0.0116   -0.0264   -0.0033    0.0012    0.0153   -0.0078    0.0103    0.0097
          93   -0.0187    0.0005   -0.0001   -0.0002   -0.0015    0.0020   -0.0328    0.0008


[...]
 FREQUENCY          1242.69         C 21 -- H 22         +34.2% ( 52.7%)      0.0%
 TRANSITION DIPOLE   0.5728         C 21 -- H 23         +19.6% ( 40.0%)      8.6%
 TRAVEL (Ang.)       0.4659         C 21 -- H 24         +15.5% ( 35.5%)      4.8%
 REDUCED MASS        0.2500         C 16 -- H 20          +4.1% ( 18.2%)     14.2%
 EFFECTIVE MASS      1.8126
 FORCE CONSTANT      0.2275

 VIBRATION         55   55A           ATOM PAIR      ENERGY CONTRIBUTION    RADIAL
 FREQUENCY          1259.40         C 25 -- H 26         +36.3% ( 54.7%)      0.0%
 TRANSITION DIPOLE   0.7113         C 25 -- H 28         +22.4% ( 43.0%)      1.5%
 TRAVEL (Ang.)       0.4256         C 25 -- H 27         +17.0% ( 37.5%)     12.5%
 REDUCED MASS        0.2956         C 14 -- C 25          +3.4% ( 16.7%)     35.7%
 EFFECTIVE MASS      1.8575
 FORCE CONSTANT      0.2762

 VIBRATION         56   56A           ATOM PAIR      ENERGY CONTRIBUTION    RADIAL
 FREQUENCY          1261.28         C  1 -- C  7         +15.2% ( 50.0%)     44.1%
 TRANSITION DIPOLE   1.6453         C  7 -- H  9         +13.5% ( 47.2%)     13.6%
 TRAVEL (Ang.)       0.2788         C  7 -- H  8         +11.7% ( 43.9%)      7.7%
 REDUCED MASS        0.6877         C  1 -- C 10          +8.6% ( 37.5%)      0.9%
 EFFECTIVE MASS      6.5526
 FORCE CONSTANT      0.6446

 VIBRATION         57   57A           ATOM PAIR      ENERGY CONTRIBUTION    RADIAL
 FREQUENCY          1270.15         C 16 -- H 20         +15.1% ( 56.7%)      0.2%
 TRANSITION DIPOLE   0.3084         C 13 -- C 21         +13.2% ( 53.0%)     91.6%
 TRAVEL (Ang.)       0.2372         C 14 -- C 25         +11.8% ( 50.1%)     99.4%
 REDUCED MASS        0.9438         C 13 -- C 14         +11.1% ( 48.5%)      6.9%
 EFFECTIVE MASS      8.0887         C 12 -- C 13         +10.4% ( 46.9%)     40.9%
 FORCE CONSTANT      0.8971

 VIBRATION         58   58A           ATOM PAIR      ENERGY CONTRIBUTION    RADIAL
 FREQUENCY          1306.95         C 12 -- H 18         +29.5% ( 64.4%)      0.0%
 TRANSITION DIPOLE   0.6122         C 15 -- H 19         +19.9% ( 52.9%)      0.4%
 TRAVEL (Ang.)       0.3575         C 14 -- C 25          +7.8% ( 33.2%)     56.4%
 REDUCED MASS        0.4037         C 15 -- C 16          +6.0% ( 29.1%)     94.4%
 EFFECTIVE MASS      3.5079
 FORCE CONSTANT      0.4063

 VIBRATION         59   59A           ATOM PAIR      ENERGY CONTRIBUTION    RADIAL
 FREQUENCY          1336.12         C  1 -- C  7         +19.2% ( 56.2%)     99.3%
 TRANSITION DIPOLE   1.1663         C  7 -- H  9         +18.8% ( 55.6%)      0.9%
 TRAVEL (Ang.)       0.1971         C  7 -- H  8         +14.5% ( 48.9%)      0.4%
 REDUCED MASS        1.2997         N  3 -- C  7         +14.3% ( 48.6%)     62.3%
 EFFECTIVE MASS      5.9890         H  6 -- C 10         +12.4% ( 45.1%)      0.1%
 FORCE CONSTANT      1.3671

 VIBRATION         60   60A           ATOM PAIR      ENERGY CONTRIBUTION    RADIAL
 FREQUENCY          1351.15         C  1 -- H  2         +55.5% ( 81.0%)      0.0%
 TRANSITION DIPOLE   0.5376         C  7 -- H  9          +6.4% ( 27.4%)     11.8%
 TRAVEL (Ang.)       0.2878         N  3 -- C  7          +5.5% ( 25.5%)      9.1%
 REDUCED MASS        0.6025         C  7 -- H  8          +5.5% ( 25.4%)     17.6%
 EFFECTIVE MASS      2.6048
 FORCE CONSTANT      0.6481

 VIBRATION         61   61A           ATOM PAIR      ENERGY CONTRIBUTION    RADIAL
 FREQUENCY          1352.34         C 15 -- C 16         +17.1% ( 60.6%)     95.4%
 TRANSITION DIPOLE   0.2822         C 15 -- H 19         +10.2% ( 46.8%)      3.9%
 TRAVEL (Ang.)       0.2230         C 12 -- N 17          +9.3% ( 44.7%)     97.9%
 REDUCED MASS        1.0028         C 12 -- C 13          +8.6% ( 43.1%)     99.1%
 EFFECTIVE MASS      8.4581
 FORCE CONSTANT      1.0806

 VIBRATION         62   62A           ATOM PAIR      ENERGY CONTRIBUTION    RADIAL
 FREQUENCY          1356.29         C 21 -- H 24         +29.1% ( 58.6%)      1.4%
 TRANSITION DIPOLE   1.1168         C 21 -- H 22         +24.1% ( 53.3%)      2.7%
 TRAVEL (Ang.)       0.3315         C 21 -- H 23         +17.4% ( 45.3%)      1.7%
 REDUCED MASS        0.4524         C 13 -- C 21         +10.7% ( 35.6%)     87.7%
 EFFECTIVE MASS      3.0759
 FORCE CONSTANT      0.4903

 VIBRATION         63   63A           ATOM PAIR      ENERGY CONTRIBUTION    RADIAL
 FREQUENCY          1368.11         C 25 -- H 26         +31.9% ( 62.1%)      1.3%
 TRANSITION DIPOLE   1.0321         C 25 -- H 28         +16.5% ( 44.6%)      1.5%
 TRAVEL (Ang.)       0.3659         C 25 -- H 27         +14.1% ( 41.2%)      1.4%
 REDUCED MASS        0.3682         C 15 -- C 16          +5.1% ( 24.8%)     96.7%
 EFFECTIVE MASS      3.2209
 FORCE CONSTANT      0.4060

 VIBRATION         64   64A           ATOM PAIR      ENERGY CONTRIBUTION    RADIAL
 FREQUENCY          1393.57         C 13 -- C 14         +13.7% ( 50.2%)     88.2%
 TRANSITION DIPOLE   0.8164         C 16 -- N 17         +12.3% ( 47.4%)     99.9%
 TRAVEL (Ang.)       0.2106         C 12 -- C 13         +11.5% ( 45.9%)     99.8%
 REDUCED MASS        1.0912         C 14 -- C 15         +10.2% ( 43.2%)     98.3%
 EFFECTIVE MASS      8.4711
 FORCE CONSTANT      1.2486

 VIBRATION         65   65A           ATOM PAIR      ENERGY CONTRIBUTION    RADIAL
 FREQUENCY          1396.23         C  1 -- C  7         +20.4% ( 60.2%)     96.9%
 TRANSITION DIPOLE   0.3285         C 10 -- H 11         +15.5% ( 52.6%)      0.4%
 TRAVEL (Ang.)       0.2093         C  1 -- H  2         +11.5% ( 45.4%)      6.6%
 REDUCED MASS        1.1024         C  7 -- H  9         +11.4% ( 45.1%)      1.4%
 EFFECTIVE MASS      6.8077
 FORCE CONSTANT      1.2662

 VIBRATION         66   66A           ATOM PAIR      ENERGY CONTRIBUTION    RADIAL
 FREQUENCY          1466.11         N 17 -- H 29         +14.0% ( 50.6%)     43.1%
 TRANSITION DIPOLE   1.1047         H 29 -- O 30         +13.6% ( 49.8%)     32.7%
 TRAVEL (Ang.)       0.2818         N  3 -- O  5          +8.1% ( 38.4%)     68.1%
 REDUCED MASS        0.5792         N  3 -- C  7          +6.9% ( 35.7%)     95.5%
 EFFECTIVE MASS      7.7297
 FORCE CONSTANT      0.7335

 VIBRATION         67   67A           ATOM PAIR      ENERGY CONTRIBUTION    RADIAL
 FREQUENCY          1510.20         N 17 -- H 29         +11.9% ( 48.3%)      0.0%
 TRANSITION DIPOLE   0.8475         C 12 -- C 13         +10.9% ( 46.3%)     98.5%
 TRAVEL (Ang.)       0.2058         C 13 -- C 14          +9.4% ( 42.9%)      3.0%
 REDUCED MASS        1.0547         C 12 -- N 17          +8.9% ( 41.9%)     71.8%
 EFFECTIVE MASS      9.6816
 FORCE CONSTANT      1.4173

 VIBRATION         68   68A           ATOM PAIR      ENERGY CONTRIBUTION    RADIAL
 FREQUENCY          1568.04         C 13 -- C 14         +20.1% ( 62.5%)     95.9%
 TRANSITION DIPOLE   2.0336         C 14 -- C 15         +15.1% ( 54.2%)     43.3%
 TRAVEL (Ang.)       0.1561         C 12 -- C 13         +10.5% ( 45.1%)     15.2%
 REDUCED MASS        1.7656         C 14 -- C 25         +10.2% ( 44.5%)     95.7%
 EFFECTIVE MASS     10.1990
 FORCE CONSTANT      2.5577

 VIBRATION         69   69A           ATOM PAIR      ENERGY CONTRIBUTION    RADIAL
 FREQUENCY          1574.24         N  3 -- O  5         +34.7% ( 82.7%)     91.7%
 TRANSITION DIPOLE   8.7298         N  3 -- O  4         +31.2% ( 78.4%)     81.4%
 TRAVEL (Ang.)       0.0867         N  3 -- C  7         +21.1% ( 64.5%)      3.7%
 REDUCED MASS        5.6931         O  4 -- O  5          +5.9% ( 34.0%)      1.6%
 EFFECTIVE MASS     13.4823
 FORCE CONSTANT      8.3127

 VIBRATION         70   70A           ATOM PAIR      ENERGY CONTRIBUTION    RADIAL
 FREQUENCY          1601.23         N  3 -- O  4         +21.8% ( 60.6%)     78.8%
 TRANSITION DIPOLE   5.1481         N  3 -- C  7         +20.0% ( 58.0%)     92.9%
 TRAVEL (Ang.)       0.1393         N  3 -- O  5         +14.0% ( 48.5%)     15.3%
 REDUCED MASS        2.1716         C  7 -- H  8         +11.9% ( 44.7%)     29.8%
 EFFECTIVE MASS      8.9966
 FORCE CONSTANT      3.2804

 VIBRATION         71   71A           ATOM PAIR      ENERGY CONTRIBUTION    RADIAL
 FREQUENCY          1656.69         C 15 -- C 16         +17.7% ( 59.2%)     90.7%
 TRANSITION DIPOLE   2.2588         C 16 -- N 17         +16.0% ( 56.4%)     80.5%
 TRAVEL (Ang.)       0.1283         C 12 -- C 13         +13.5% ( 51.8%)     95.3%
 REDUCED MASS        2.4743         C 13 -- C 14         +11.7% ( 48.1%)     79.7%
 EFFECTIVE MASS     11.8914
 FORCE CONSTANT      4.0012

 VIBRATION         72   72A           ATOM PAIR      ENERGY CONTRIBUTION    RADIAL
 FREQUENCY          1664.88         C 14 -- C 15         +19.8% ( 62.7%)     99.6%
 TRANSITION DIPOLE   1.6583         C 12 -- N 17         +14.6% ( 53.8%)     98.8%
 TRAVEL (Ang.)       0.1280         C 13 -- C 14         +12.4% ( 49.7%)     52.0%
 REDUCED MASS        2.4735         C 16 -- N 17          +8.6% ( 41.4%)     60.5%
 EFFECTIVE MASS     12.1758
 FORCE CONSTANT      4.0395

 VIBRATION         73   73A           ATOM PAIR      ENERGY CONTRIBUTION    RADIAL
 FREQUENCY          1843.74         C  1 -- C 10         +45.3% ( 98.7%)     99.4%
 TRANSITION DIPOLE   1.8700         C  1 -- C  7         +16.9% ( 60.3%)     52.0%
 TRAVEL (Ang.)       0.0807         C  1 -- H  2         +15.9% ( 58.5%)      7.6%
 REDUCED MASS        5.6130         H  6 -- C 10         +10.4% ( 47.3%)     18.8%
 EFFECTIVE MASS     11.8910         C 10 -- H 11         +10.4% ( 47.3%)     20.2%
 FORCE CONSTANT     11.2421

 VIBRATION         74   74A           ATOM PAIR      ENERGY CONTRIBUTION    RADIAL
 FREQUENCY          2631.34         C 25 -- H 28         +51.1% ( 73.8%)     98.4%
 TRANSITION DIPOLE   1.1236         C 25 -- H 27         +45.0% ( 69.2%)     97.5%
 TRAVEL (Ang.)       0.2324         C 25 -- H 26          +1.2% ( 11.2%)     12.7%
 REDUCED MASS        0.4746         C 21 -- H 22          +1.1% ( 10.7%)     98.6%
 EFFECTIVE MASS      1.4236
 FORCE CONSTANT      1.9361

 VIBRATION         75   75A           ATOM PAIR      ENERGY CONTRIBUTION    RADIAL
 FREQUENCY          2636.96         C 21 -- H 23         +48.8% ( 72.1%)     98.0%
 TRANSITION DIPOLE   0.8367         C 21 -- H 22         +47.4% ( 71.0%)     97.9%
 TRAVEL (Ang.)       0.2324         C 25 -- H 27          +1.6% ( 13.2%)     99.6%
 REDUCED MASS        0.4736         C 13 -- C 21          +0.8% (  9.2%)      0.1%
 EFFECTIVE MASS      1.4290
 FORCE CONSTANT      1.9403

 VIBRATION         76   76A           ATOM PAIR      ENERGY CONTRIBUTION    RADIAL
 FREQUENCY          2643.16         C 25 -- H 26         +61.0% ( 80.7%)     99.5%
 TRANSITION DIPOLE   0.9786         C 25 -- H 27         +22.6% ( 49.1%)     90.6%
 TRAVEL (Ang.)       0.2353         C 25 -- H 28         +15.0% ( 40.0%)     83.9%
 REDUCED MASS        0.4607         C 14 -- C 25          +0.9% (  9.8%)      0.1%
 EFFECTIVE MASS      1.4475
 FORCE CONSTANT      1.8962

 VIBRATION         77   77A           ATOM PAIR      ENERGY CONTRIBUTION    RADIAL
 FREQUENCY          2653.46         C 21 -- H 24         +59.6% ( 79.6%)     99.4%
 TRANSITION DIPOLE   0.9307         C 21 -- H 22         +20.1% ( 46.3%)     89.0%
 TRAVEL (Ang.)       0.2384         C 21 -- H 23         +19.3% ( 45.3%)     88.1%
 REDUCED MASS        0.4471         C 13 -- C 21          +0.9% (  9.7%)      0.0%
 EFFECTIVE MASS      1.4421
 FORCE CONSTANT      1.8546

 VIBRATION         78   78A           ATOM PAIR      ENERGY CONTRIBUTION    RADIAL
 FREQUENCY          2673.67         C  7 -- H  9         +93.5% ( 97.5%)    100.0%
 TRANSITION DIPOLE   1.1427         C  1 -- H  2          +3.3% ( 18.4%)     97.1%
 TRAVEL (Ang.)       0.1716         C  1 -- C  7          +0.9% (  9.3%)     16.9%
 REDUCED MASS        0.8560         C  7 -- H  8          +0.8% (  8.9%)     28.2%
 EFFECTIVE MASS      1.3528
 FORCE CONSTANT      3.6052

 VIBRATION         79   79A           ATOM PAIR      ENERGY CONTRIBUTION    RADIAL
 FREQUENCY          2693.75         C 16 -- H 20         +57.7% ( 76.7%)    100.0%
 TRANSITION DIPOLE   1.5441         C 12 -- H 18         +39.6% ( 63.6%)    100.0%
 TRAVEL (Ang.)       0.2295         C 15 -- C 16          +0.6% (  8.1%)     25.0%
 REDUCED MASS        0.4755         C 16 -- N 17          +0.6% (  8.1%)      5.0%
 EFFECTIVE MASS      1.3682
 FORCE CONSTANT      2.0327

 VIBRATION         80   80A           ATOM PAIR      ENERGY CONTRIBUTION    RADIAL
 FREQUENCY          2698.35         C 12 -- H 18         +56.6% ( 76.1%)    100.0%
 TRANSITION DIPOLE   1.3982         C 16 -- H 20         +36.8% ( 61.3%)    100.0%
 TRAVEL (Ang.)       0.2365         C 15 -- H 19          +3.8% ( 19.7%)     99.8%
 REDUCED MASS        0.4470         C 12 -- N 17          +0.7% (  8.5%)     21.6%
 EFFECTIVE MASS      1.4147
 FORCE CONSTANT      1.9174

 VIBRATION         81   81A           ATOM PAIR      ENERGY CONTRIBUTION    RADIAL
 FREQUENCY          2703.52         O 30 -- H 31         +77.5% ( 87.8%)     99.9%
 TRANSITION DIPOLE   1.4124         C 10 -- H 11          +9.1% ( 30.1%)     98.9%
 TRAVEL (Ang.)       0.2047         H  6 -- C 10          +8.0% ( 28.2%)     98.2%
 REDUCED MASS        0.5952         C  1 -- H  2          +4.3% ( 20.7%)     99.9%
 EFFECTIVE MASS      1.3413
 FORCE CONSTANT      2.5633

 VIBRATION         82   82A           ATOM PAIR      ENERGY CONTRIBUTION    RADIAL
 FREQUENCY          2704.47         C 10 -- H 11         +34.4% ( 59.9%)     98.9%
 TRANSITION DIPOLE   0.9506         H  6 -- C 10         +29.9% ( 55.8%)     98.2%
 TRAVEL (Ang.)       0.3088         O 30 -- H 31         +18.7% ( 44.2%)     99.9%
 REDUCED MASS        0.2614         C  1 -- H  2         +14.1% ( 38.3%)     99.9%
 EFFECTIVE MASS      1.4191
 FORCE CONSTANT      1.1265

 VIBRATION         83   83A           ATOM PAIR      ENERGY CONTRIBUTION    RADIAL
 FREQUENCY          2727.80         C 15 -- H 19         +93.2% ( 97.5%)    100.0%
 TRANSITION DIPOLE   1.2706         C 16 -- H 20          +2.9% ( 17.2%)     98.4%
 TRAVEL (Ang.)       0.1710         C 15 -- C 16          +1.1% ( 10.7%)     35.4%
 REDUCED MASS        0.8452         C 12 -- H 18          +1.1% ( 10.5%)    100.0%
 EFFECTIVE MASS      1.4000
 FORCE CONSTANT      3.7055

 VIBRATION         84   84A           ATOM PAIR      ENERGY CONTRIBUTION    RADIAL
 FREQUENCY          2734.85         C  1 -- H  2         +75.6% ( 87.8%)    100.0%
 TRANSITION DIPOLE   1.0619         C 10 -- H 11         +14.3% ( 38.2%)     99.3%
 TRAVEL (Ang.)       0.2052         H  6 -- C 10          +6.3% ( 25.3%)     96.6%
 REDUCED MASS        0.5854         C  7 -- H  9          +1.8% ( 13.5%)     99.3%
 EFFECTIVE MASS      1.4378
 FORCE CONSTANT      2.5798

 VIBRATION         85   85A           ATOM PAIR      ENERGY CONTRIBUTION    RADIAL
 FREQUENCY          2764.44         C 25 -- H 26         +37.0% ( 58.2%)     96.0%
 TRANSITION DIPOLE   0.7604         C 25 -- H 28         +32.3% ( 54.3%)     95.2%
 TRAVEL (Ang.)       0.2755         C 25 -- H 27         +29.3% ( 51.8%)     94.6%
 REDUCED MASS        0.3214         C 21 -- H 22          +0.3% (  5.1%)     98.2%
 EFFECTIVE MASS      1.1494
 FORCE CONSTANT      1.4473

 VIBRATION         86   86A           ATOM PAIR      ENERGY CONTRIBUTION    RADIAL
 FREQUENCY          2771.50         C 21 -- H 24         +39.4% ( 60.1%)     96.4%
 TRANSITION DIPOLE   0.8016         C 21 -- H 22         +29.7% ( 52.2%)     94.8%
 TRAVEL (Ang.)       0.2738         C 21 -- H 23         +29.4% ( 51.9%)     94.6%
 REDUCED MASS        0.3245         C 13 -- C 21          +0.3% (  5.1%)     98.3%
 EFFECTIVE MASS      1.1493
 FORCE CONSTANT      1.4683

 VIBRATION         87   87A           ATOM PAIR      ENERGY CONTRIBUTION    RADIAL
 FREQUENCY          2784.64         H  6 -- C 10         +56.5% ( 74.3%)     96.2%
 TRANSITION DIPOLE   1.2559         C 10 -- H 11         +41.8% ( 63.9%)     93.7%
 TRAVEL (Ang.)       0.2228         C  1 -- C 10          +1.1% ( 10.4%)     99.7%
 REDUCED MASS        0.4877         C  1 -- H  2          +0.4% (  6.2%)     95.8%
 EFFECTIVE MASS      1.3144
 FORCE CONSTANT      2.2281

      SYMMETRY NUMBER FOR POINT-GROUP C1  =  1


          SYSTEM IS A GROUND STATE



 Title: ASE calculation


          MOLECULE IS NOT LINEAR

          THERE ARE 87 GENUINE VIBRATIONS IN THIS SYSTEM
          THIS THERMODYNAMICS CALCULATION IS LIMITED TO
          MOLECULES WHICH HAVE NO INTERNAL ROTATIONS




                    CALCULATED THERMODYNAMIC PROPERTIES
                                          *
   TEMP. (K)   PARTITION FUNCTION   H.O.F.    ENTHALPY  HEAT CAPACITY ENTROPY
                                   KCAL/MOL   CAL/MOLE    CAL/K/MOL  CAL/K/MOL


 298.00  VIB.     0.1353D+08                  9662.8182    59.0902    65.0561
         ROT.     0.5048D+07                   888.2803     2.9808    33.6522
         INT.     0.6829D+14                 10551.0985    62.0710    98.7083
         TRA.     0.3011D+28                  1480.4672     4.9680    41.9732
         TOT.                      -51.288   12031.5657    67.0390   140.6814

   *: NOTE: HEATS OF FORMATION ARE RELATIVE TO THE
            ELEMENTS IN THEIR STANDARD STATE AT 298K
              (=  Standard Enthalpy of Formation).

            Hvib:  Zero-point energy is not included.
                   frequencies of less than zero cm-1 are not included.
            Hrot = (3/2)RT
            Htra = (3/2)RT + pV = (5/2)RT

            Heat capacity is Cp, not Cv

          For more information, see: HTTP://OpenMOPAC.net/Manual/thermochemistry.html


           FORCE CONSTANT IN CARTESIAN COORDINATES (Millidynes/A)

    ATOM   CHEMICAL       X               Y               Z
   NUMBER   SYMBOL  FORCE CONSTANT  FORCE CONSTANT  FORCE CONSTANT

      1       C        9.102479       13.839052        2.222189
      2       H        4.168236        1.001223        0.354848
      3       N       12.613502       12.839644        3.892038
      4       O       10.150167        1.809127        1.153159
      5       O        2.780406        9.363045        0.756590
      6       H        4.183059        0.773500        0.347186
      7       C        6.930829       10.248837        2.940583
      8       H        0.781912        0.816480        0.574718
      9       H        2.686585        0.855161        1.515847
     10       C        8.499841       12.115873        1.932410
     11       H        1.294148        3.632288        0.358162
     12       C        9.067399       10.021842        3.863246
     13       C        9.272182       10.940292        4.251249
     14       C        9.113503       11.069095        4.692329
     15       C        9.216572        9.748556        4.082078
     16       C        9.049765       10.650492        3.917522
     17       N        7.101666       12.036143        2.596999
     18       H        1.164662        3.675921        0.539500
     19       H        1.063199        3.859778        0.497957
     20       H        1.939036        2.584375        0.827563
     21       C        6.516299        6.998083        5.914796
     22       H        3.936249        0.825011        0.536395
     23       H        0.672731        0.834190        3.698730
     24       H        0.687662        3.112416        1.520994
     25       C        6.826902        6.404873        6.072547
     26       H        0.864230        3.875789        0.656602
     27       H        0.642950        1.052856        3.505344
     28       H        2.972844        0.996586        1.249838
     29       H        0.039715        0.877788        0.535694
     30       O        4.232239        1.632255        4.204905
     31       H        0.892050        0.351512        3.451286

 **********************
 *                    *
 * JOB ENDED NORMALLY *
 *                    *
 **********************



 TOTAL JOB TIME:             7.88 SECONDS

 == MOPAC DONE ==
