 *******************************************************************************
 **                                                                           **
 **                              MOPAC v22.0.6                                **
 **                                                                           **
 *******************************************************************************
 **          Digital Object Identifier (DOI): 10.5281/zenodo.6511958          **
 **    Visit the DOI location for information on how to cite this program.    **
 *******************************************************************************

                              PM7 CALCULATION RESULTS

 *******************************************************************************
 *  CALCULATION DONE:                                Tue Mar 26 11:42:44 2024  *
 *  PM7        - The PM7 Hamiltonian to be used
 *  SINGLET    - SPIN STATE DEFINED AS A SINGLET
 *
 *
 *
 *                 CHARGE ON SYSTEM = 0
 *
 *
 *
 *  EPS=78.4   - USE ANDREAS KLAMT'S COSMO IMPLICIT SOLVATION MODEL
 *  LET        - OVERRIDE SOME SAFETY CHECKS
 *  THREADS    - USE A MAXIMUM OF 30 THREADS
 *  T=         - A TIME OF 14.0 DAYS REQUESTED
 *  DUMP=N     - RESTART FILE WRITTEN EVERY 30.0 MINUTES REQUESTED
 *  RELSCF     - DEFAULT SCF CRITERION MULTIPLIED BY 1.0000
 *              (DEFAULT SCF CRITERION = 0.00010)
 *  ITRY=      - DO A MAXIMUM OF 15000 ITERATIONS FOR SCF
 *  AUX        - OUTPUT AUXILIARY INFORMATION
 *  ISOTOPE    - SAVE THE FORCE MATRIX FOR USE LATER
 *  BONDS      - FINAL BOND-ORDER MATRIX TO BE PRINTED
 *  LARGE      - EXPANDED OUTPUT TO BE PRINTED
 *  THERMO     - THERMODYNAMIC QUANTITIES TO BE CALCULATED
 *******************************************************************************
PM7 AUX LARGE THERMO(298,298) LET ISOTOPE BONDS DUMP=30M ITRY=15000 T=14D THREADS=30 CHARGE=0 SINGLET eps=78.4 RELSCF=1
 Title: ASE calculation

   ATOM   CHEMICAL          X               Y               Z
  NUMBER   SYMBOL      (ANGSTROMS)     (ANGSTROMS)     (ANGSTROMS)

     1       C         -1.15220295  *  -0.24104012  *   0.10911180  *
     2       H         -2.24063887  *  -0.16734476  *   0.17506357  *
     3       N         -1.55110263  *  -2.63047950  *   0.62325995  *
     4       O         -2.71943137  *  -2.35622151  *   0.84325754  *
     5       O         -1.17059750  *  -3.78667942  *   0.51241249  *
     6       H          0.68154370  *   0.75281474  *  -0.36611264  *
     7       C         -0.54994094  *  -1.55127166  *   0.50605735  *
     8       D          0.24955772  *  -1.87384416  *  -0.21400007  *
     9       H         -0.03152867  *  -1.45813276  *   1.50520472  *
    10       C         -0.39720640  *   0.78056468  *  -0.28980909  *
    11       H         -0.80483662  *   1.74149497  *  -0.57421800  *
    12       C          5.75176153  *  -2.96092184  *   0.89319967  *
    13       C          7.08124469  *  -3.13201042  *   0.48530363  *
    14       C          7.75400924  *  -2.02611885  *  -0.05889677  *
    15       C          7.03926386  *  -0.83943747  *  -0.24740341  *
    16       C          5.69889979  *  -0.77334731  *   0.14353512  *
    17       N          5.06814227  *  -1.81228960  *   0.72459612  *
    18       H          5.20487495  *  -3.78099627  *   1.38104343  *
    19       H          7.51745081  *   0.03155048  *  -0.69443005  *
    20       H          5.10074953  *   0.13601307  *  -0.00081829  *
    21       C          7.69068574  *  -4.47863114  *   0.61944382  *
    22       H          8.78850855  *  -4.45941085  *   0.66666737  *
    23       H          7.42235862  *  -5.11409505  *  -0.24368622  *
    24       H          7.34397606  *  -5.01016914  *   1.51988100  *
    25       C          9.19776284  *  -2.08970967  *  -0.40057836  *
    26       H          9.59716218  *  -1.13633235  *  -0.77739544  *
    27       H          9.41418383  *  -2.85166202  *  -1.16719929  *
    28       H          9.80354370  *  -2.35721804  *   0.48367222  *
    29       H          3.15832134  *  -3.25719303  *   0.91449781  *
    30       O          2.91308287  *  -3.70767343  *   0.09565486  *
    31       H          3.48260559  *  -3.29508743  *  -0.56449695  *


                                Isotopes Used

              Atom:    8  H  Default mass  1.0079,  mass used:  2.0140 amu


          CARTESIAN COORDINATES 

    NO.       ATOM           X           Y           Z

     1         C         -1.1522     -0.2410      0.1091
     2         H         -2.2406     -0.1673      0.1751
     3         N         -1.5511     -2.6305      0.6233
     4         O         -2.7194     -2.3562      0.8433
     5         O         -1.1706     -3.7867      0.5124
     6         H          0.6815      0.7528     -0.3661
     7         C         -0.5499     -1.5513      0.5061
     8         H          0.2496     -1.8738     -0.2140
     9         H         -0.0315     -1.4581      1.5052
    10         C         -0.3972      0.7806     -0.2898
    11         H         -0.8048      1.7415     -0.5742
    12         C          5.7518     -2.9609      0.8932
    13         C          7.0812     -3.1320      0.4853
    14         C          7.7540     -2.0261     -0.0589
    15         C          7.0393     -0.8394     -0.2474
    16         C          5.6989     -0.7733      0.1435
    17         N          5.0681     -1.8123      0.7246
    18         H          5.2049     -3.7810      1.3810
    19         H          7.5175      0.0316     -0.6944
    20         H          5.1007      0.1360     -0.0008
    21         C          7.6907     -4.4786      0.6194
    22         H          8.7885     -4.4594      0.6667
    23         H          7.4224     -5.1141     -0.2437
    24         H          7.3440     -5.0102      1.5199
    25         C          9.1978     -2.0897     -0.4006
    26         H          9.5972     -1.1363     -0.7774
    27         H          9.4142     -2.8517     -1.1672
    28         H          9.8035     -2.3572      0.4837
    29         H          3.1583     -3.2572      0.9145
    30         O          2.9131     -3.7077      0.0957
    31         H          3.4826     -3.2951     -0.5645

 General Reference for PM7:
 "Optimization of Parameters for Semiempirical Methods VI: More Modifications to the 
 NDDO Approximations and Re-optimization of Parameters", J. J. P. Stewart, J. Mol. Mod., 1:32, 19 (2013)
 https://link.springer.com/article/10.1007/s00894-012-1667-x

           Empirical Formula: C10 H16 N2 O3  =    31 atoms



      MOLECULAR POINT GROUP   :   C1  


 SINGLET STATE CALCULATION


      RHF CALCULATION, NO. OF DOUBLY OCCUPIED LEVELS = 42

  SCF CRITERION =    0.1000E-03


          HEAT OF FORMATION =     -65.793929 KCALS/MOLE


          CARTESIAN COORDINATE DERIVATIVES

   NUMBER  ATOM         X            Y            Z

     1       C      0.289403    -0.259294     0.279888
     2       H      0.032488     0.101942    -0.125320
     3       N      0.116538     0.456485     0.074916
     4       O     -0.780052    -0.283594    -0.164440
     5       O      1.038487     0.084407     0.123214
     6       H      0.129029    -0.157794     0.086001
     7       C     -0.605464     0.239627    -0.494914
     8       H      0.518866    -0.393036     0.003003
     9       H      0.084017     0.044876     0.397615
    10       C      0.067841    -0.292356    -0.072691
    11       H      0.107313     0.096090    -0.078879
    12       C      0.053530    -0.175146    -0.021691
    13       C      0.161318    -0.121251    -0.184182
    14       C     -0.076004    -0.171986    -0.200877
    15       C      0.178641     0.001995    -0.249326
    16       C      0.052586    -0.020784    -0.211856
    17       N      0.088382    -0.096516    -0.304907
    18       H     -0.120786    -0.191956     0.175822
    19       H      0.277820    -0.065244    -0.331131
    20       H      0.278077     0.081155    -0.104694
    21       C      0.503995    -0.056586    -0.264822
    22       H      0.493884     0.206080    -0.313509
    23       H      0.788322     0.110244    -0.175160
    24       H      0.444076     0.008277    -0.125771
    25       C     -0.137018    -0.060971     0.104014
    26       H     -0.187250    -0.029051     0.389706
    27       H     -0.691220    -0.064657     0.285626
    28       H      0.419416     0.150602     0.399851
    29       H     -1.930123     1.603818     0.887451
    30       O     -0.074727    -1.279242     0.096804
    31       H     -1.521361     0.533893     0.120237

 DIPOLE           X         Y         Z       TOTAL
 POINT-CHG.    -8.756    -5.364     0.667    10.290
 HYBRID        -0.670     0.214    -0.093     0.710
 SUM           -9.427    -5.151     0.574    10.757


          GRADIENT NORM =   4.31508


                              **** WARNING ****

           GRADIENT IS VERY LARGE FOR A THERMO CALCULATION
           RESULTS ARE LIKELY TO BE INACCURATE IF THERE ARE
           ANY LOW-LYING VIBRATIONS (LESS THAN ABOUT 400CM-1)
           GRADIENT NORM SHOULD BE LESS THAN ABOUT 1.1 FOR THERMO
           TO GIVE ACCURATE RESULTS


          TIME FOR SCF CALCULATION =    0.08

          TIME FOR DERIVATIVES     =    0.03

          MOLECULAR WEIGHT =  213.25



          ROTATIONAL CONSTANTS IN CM(-1)

          A =    0.03666408   B =    0.00473236   C =    0.00424741



           PRINCIPAL MOMENTS OF INERTIA IN UNITS OF 10**(-40)*GRAM-CM**2

          A =      763.4926   B =     5915.1720   C =     6590.5527


          ORIENTATION OF MOLECULE IN FORCE CALCULATION

    NO.       ATOM         X         Y         Z

     1          C       4.4741   -1.6864   -0.1278
     2          H       5.5670   -1.6864   -0.1278
     3          N       4.7412    0.7756   -0.1278
     4          O       5.9365    0.6149    0.0567
     5          O       4.2776    1.8632   -0.4377
     6          H       2.6862   -2.8533   -0.2621
     7          C       3.8099   -0.3574    0.0443
     8          H       2.9484   -0.2308   -0.6654
     9          H       3.3602   -0.2744    1.0770
    10          C       3.7670   -2.8068   -0.2604
    11          H       4.2206   -3.7820   -0.3776
    12          C      -2.5377    0.7593    0.6011
    13          C      -3.8979    0.7724    0.2651
    14          C      -4.5261   -0.4554    0.0012
    15          C      -3.7457   -1.6153    0.0002
    16          C      -2.3828   -1.5286    0.2981
    17          N      -1.7896   -0.3611    0.6143
    18          H      -2.0189    1.6894    0.8757
    19          H      -4.1901   -2.5832   -0.2294
    20          H      -1.7345   -2.4147    0.2937
    21          C      -4.5875    2.0834    0.1736
    22          H      -5.6767    2.0149    0.3033
    23          H      -4.4152    2.5447   -0.8156
    24          H      -4.2237    2.8040    0.9232
    25          C      -5.9889   -0.5402   -0.2405
    26          H      -6.3451   -1.5702   -0.3909
    27          H      -6.3020    0.0381   -1.1252
    28          H      -6.5568   -0.1324    0.6148
    29          H       0.0264    1.1933    0.3748
    30          O       0.1909    1.4813   -0.5327
    31          H      -0.3883    0.9136   -1.0548


    FIRST DERIVATIVES WILL BE USED IN THE CALCULATION OF SECOND DERIVATIVES

          ESTIMATED TIME TO COMPLETE CALCULATION =       20.34 SECONDS

    FOR POINT-GROUP C1   THERE ARE   1 UNIQUE SYMMETRY FUNCTIONS.

 STEP:   1 TIME =     0.09 SECS, INTEGRAL =      0.09 TIME LEFT:1209599.80
 STEP:   2 TIME =     0.09 SECS, INTEGRAL =      0.17 TIME LEFT:1209599.72
 STEP:   3 TIME =     0.08 SECS, INTEGRAL =      0.25 TIME LEFT:1209599.64
 STEP:   4 TIME =     0.09 SECS, INTEGRAL =      0.34 TIME LEFT:1209599.55
 STEP:   5 TIME =     0.09 SECS, INTEGRAL =      0.43 TIME LEFT:1209599.46
 STEP:   6 TIME =     0.08 SECS, INTEGRAL =      0.51 TIME LEFT:1209599.38
 STEP:   7 TIME =     0.09 SECS, INTEGRAL =      0.59 TIME LEFT:1209599.30
 STEP:   8 TIME =     0.09 SECS, INTEGRAL =      0.68 TIME LEFT:1209599.21
 STEP:   9 TIME =     0.09 SECS, INTEGRAL =      0.77 TIME LEFT:1209599.12
 STEP:  10 TIME =     0.08 SECS, INTEGRAL =      0.85 TIME LEFT:1209599.04
 STEP:  11 TIME =     0.09 SECS, INTEGRAL =      0.93 TIME LEFT:1209598.96
 STEP:  12 TIME =     0.09 SECS, INTEGRAL =      1.02 TIME LEFT:1209598.87
 STEP:  13 TIME =     0.08 SECS, INTEGRAL =      1.10 TIME LEFT:1209598.79
 STEP:  14 TIME =     0.09 SECS, INTEGRAL =      1.19 TIME LEFT:1209598.70
 STEP:  15 TIME =     0.09 SECS, INTEGRAL =      1.27 TIME LEFT:1209598.62
 STEP:  16 TIME =     0.09 SECS, INTEGRAL =      1.36 TIME LEFT:1209598.53
 STEP:  17 TIME =     0.08 SECS, INTEGRAL =      1.44 TIME LEFT:1209598.45
 STEP:  18 TIME =     0.09 SECS, INTEGRAL =      1.53 TIME LEFT:1209598.36
 STEP:  19 TIME =     0.09 SECS, INTEGRAL =      1.61 TIME LEFT:1209598.28
 STEP:  20 TIME =     0.08 SECS, INTEGRAL =      1.70 TIME LEFT:1209598.20
 STEP:  21 TIME =     0.09 SECS, INTEGRAL =      1.78 TIME LEFT:1209598.11
 STEP:  22 TIME =     0.09 SECS, INTEGRAL =      1.87 TIME LEFT:1209598.02
 STEP:  23 TIME =     0.09 SECS, INTEGRAL =      1.95 TIME LEFT:1209597.94
 STEP:  24 TIME =     0.09 SECS, INTEGRAL =      2.04 TIME LEFT:1209597.85
 STEP:  25 TIME =     0.08 SECS, INTEGRAL =      2.12 TIME LEFT:1209597.77
 STEP:  26 TIME =     0.09 SECS, INTEGRAL =      2.21 TIME LEFT:1209597.68
 STEP:  27 TIME =     0.09 SECS, INTEGRAL =      2.29 TIME LEFT:1209597.60
 STEP:  28 TIME =     0.08 SECS, INTEGRAL =      2.38 TIME LEFT:1209597.52
 STEP:  29 TIME =     0.09 SECS, INTEGRAL =      2.46 TIME LEFT:1209597.43
 STEP:  30 TIME =     0.09 SECS, INTEGRAL =      2.55 TIME LEFT:1209597.34
 STEP:  31 TIME =     0.09 SECS, INTEGRAL =      2.63 TIME LEFT:1209597.26
 STEP:  32 TIME =     0.08 SECS, INTEGRAL =      2.71 TIME LEFT:1209597.18
 STEP:  33 TIME =     0.09 SECS, INTEGRAL =      2.80 TIME LEFT:1209597.09
 STEP:  34 TIME =     0.09 SECS, INTEGRAL =      2.89 TIME LEFT:1209597.00
 STEP:  35 TIME =     0.09 SECS, INTEGRAL =      2.97 TIME LEFT:1209596.92
 STEP:  36 TIME =     0.09 SECS, INTEGRAL =      3.06 TIME LEFT:1209596.83
 STEP:  37 TIME =     0.09 SECS, INTEGRAL =      3.14 TIME LEFT:1209596.75
 STEP:  38 TIME =     0.09 SECS, INTEGRAL =      3.23 TIME LEFT:1209596.66
 STEP:  39 TIME =     0.09 SECS, INTEGRAL =      3.32 TIME LEFT:1209596.57
 STEP:  40 TIME =     0.08 SECS, INTEGRAL =      3.40 TIME LEFT:1209596.49
 STEP:  41 TIME =     0.09 SECS, INTEGRAL =      3.48 TIME LEFT:1209596.41
 STEP:  42 TIME =     0.09 SECS, INTEGRAL =      3.57 TIME LEFT:1209596.32
 STEP:  43 TIME =     0.08 SECS, INTEGRAL =      3.65 TIME LEFT:1209596.24
 STEP:  44 TIME =     0.09 SECS, INTEGRAL =      3.74 TIME LEFT:1209596.15
 STEP:  45 TIME =     0.09 SECS, INTEGRAL =      3.82 TIME LEFT:1209596.07
 STEP:  46 TIME =     0.08 SECS, INTEGRAL =      3.91 TIME LEFT:1209595.98
 STEP:  47 TIME =     0.09 SECS, INTEGRAL =      3.99 TIME LEFT:1209595.90
 STEP:  48 TIME =     0.09 SECS, INTEGRAL =      4.08 TIME LEFT:1209595.81
 STEP:  49 TIME =     0.08 SECS, INTEGRAL =      4.16 TIME LEFT:1209595.73
 STEP:  50 TIME =     0.09 SECS, INTEGRAL =      4.25 TIME LEFT:1209595.64
 STEP:  51 TIME =     0.09 SECS, INTEGRAL =      4.33 TIME LEFT:1209595.56
 STEP:  52 TIME =     0.09 SECS, INTEGRAL =      4.42 TIME LEFT:1209595.47
 STEP:  53 TIME =     0.08 SECS, INTEGRAL =      4.50 TIME LEFT:1209595.39
 STEP:  54 TIME =     0.09 SECS, INTEGRAL =      4.59 TIME LEFT:1209595.30
 STEP:  55 TIME =     0.09 SECS, INTEGRAL =      4.67 TIME LEFT:1209595.22
 STEP:  56 TIME =     0.09 SECS, INTEGRAL =      4.76 TIME LEFT:1209595.13
 STEP:  57 TIME =     0.08 SECS, INTEGRAL =      4.84 TIME LEFT:1209595.05
 STEP:  58 TIME =     0.09 SECS, INTEGRAL =      4.93 TIME LEFT:1209594.96
 STEP:  59 TIME =     0.09 SECS, INTEGRAL =      5.01 TIME LEFT:1209594.88
 STEP:  60 TIME =     0.09 SECS, INTEGRAL =      5.10 TIME LEFT:1209594.79
 STEP:  61 TIME =     0.08 SECS, INTEGRAL =      5.18 TIME LEFT:1209594.71
 STEP:  62 TIME =     0.09 SECS, INTEGRAL =      5.27 TIME LEFT:1209594.62
 STEP:  63 TIME =     0.09 SECS, INTEGRAL =      5.35 TIME LEFT:1209594.54
 STEP:  64 TIME =     0.08 SECS, INTEGRAL =      5.43 TIME LEFT:1209594.46
 STEP:  65 TIME =     0.09 SECS, INTEGRAL =      5.52 TIME LEFT:1209594.37
 STEP:  66 TIME =     0.09 SECS, INTEGRAL =      5.61 TIME LEFT:1209594.29
 STEP:  67 TIME =     0.09 SECS, INTEGRAL =      5.69 TIME LEFT:1209594.20
 STEP:  68 TIME =     0.08 SECS, INTEGRAL =      5.77 TIME LEFT:1209594.12
 STEP:  69 TIME =     0.09 SECS, INTEGRAL =      5.86 TIME LEFT:1209594.03
 STEP:  70 TIME =     0.09 SECS, INTEGRAL =      5.95 TIME LEFT:1209593.95
 STEP:  71 TIME =     0.08 SECS, INTEGRAL =      6.03 TIME LEFT:1209593.86
 STEP:  72 TIME =     0.09 SECS, INTEGRAL =      6.11 TIME LEFT:1209593.78
 STEP:  73 TIME =     0.09 SECS, INTEGRAL =      6.20 TIME LEFT:1209593.69
 STEP:  74 TIME =     0.09 SECS, INTEGRAL =      6.29 TIME LEFT:1209593.61
 STEP:  75 TIME =     0.08 SECS, INTEGRAL =      6.37 TIME LEFT:1209593.52
 STEP:  76 TIME =     0.09 SECS, INTEGRAL =      6.45 TIME LEFT:1209593.44
 STEP:  77 TIME =     0.09 SECS, INTEGRAL =      6.54 TIME LEFT:1209593.35
 STEP:  78 TIME =     0.09 SECS, INTEGRAL =      6.62 TIME LEFT:1209593.27
 STEP:  79 TIME =     0.08 SECS, INTEGRAL =      6.71 TIME LEFT:1209593.18
 STEP:  80 TIME =     0.08 SECS, INTEGRAL =      6.79 TIME LEFT:1209593.10
 STEP:  81 TIME =     0.09 SECS, INTEGRAL =      6.88 TIME LEFT:1209593.02
 STEP:  82 TIME =     0.09 SECS, INTEGRAL =      6.96 TIME LEFT:1209592.93
 STEP:  83 TIME =     0.08 SECS, INTEGRAL =      7.04 TIME LEFT:1209592.85
 STEP:  84 TIME =     0.09 SECS, INTEGRAL =      7.13 TIME LEFT:1209592.76
 STEP:  85 TIME =     0.08 SECS, INTEGRAL =      7.21 TIME LEFT:1209592.68
 STEP:  86 TIME =     0.09 SECS, INTEGRAL =      7.30 TIME LEFT:1209592.59
 STEP:  87 TIME =     0.09 SECS, INTEGRAL =      7.38 TIME LEFT:1209592.51
 STEP:  88 TIME =     0.08 SECS, INTEGRAL =      7.46 TIME LEFT:1209592.43
 STEP:  89 TIME =     0.08 SECS, INTEGRAL =      7.55 TIME LEFT:1209592.34
 STEP:  90 TIME =     0.09 SECS, INTEGRAL =      7.63 TIME LEFT:1209592.26
 STEP:  91 TIME =     0.09 SECS, INTEGRAL =      7.72 TIME LEFT:1209592.17
 STEP:  92 TIME =     0.08 SECS, INTEGRAL =      7.80 TIME LEFT:1209592.09
 STEP:  93 TIME =     0.09 SECS, INTEGRAL =      7.89 TIME LEFT:1209592.00

(To convert to Hartree/Bohr^2, multiply by (10^(-21) x N x a0^2)/(4.184 x 627.51) =  0.0642)


           FORCE MATRIX IN MILLIDYNES/ANGSTROM


                  C  1       H  2       N  3       O  4       O  5       H  6
 ------------------------------------------------------------------------------
     C    1  16.736483
     H    2   3.375146   4.274935
     N    3   0.853411   0.101660  18.980136
     O    4   0.077602   0.063596   9.542508  12.257202
     O    5   0.093030   0.021969   9.396438   2.690673  12.118201
     H    6   0.798185   0.135325   0.031029   0.010711   0.021198   4.233049
     C    7   3.526313   0.666706   3.015997   1.176019   1.187277   0.070022
     H    8   0.681354   0.031135   0.881422   0.084988   0.064975   0.015422
     H    9   0.698170   0.020182   0.911714   0.079564   0.080691   0.013280
     C   10  10.456295   0.812757   0.078264   0.025704   0.044152   3.500983
     H   11   0.818542   0.067202   0.026528   0.009466   0.010156   0.462711
     C   12   0.001710   0.000895   0.006088   0.002162   0.003779   0.001606
     C   13   0.000607   0.000320   0.002500   0.001104   0.001126   0.000503
     C   14   0.000614   0.000473   0.002159   0.000889   0.001119   0.000647
     C   15   0.000971   0.000504   0.002207   0.001028   0.001283   0.000872
     C   16   0.001082   0.000678   0.003997   0.001518   0.002389   0.004914
     N   17   0.001556   0.001199   0.007015   0.003168   0.004068   0.001977
     H   18   0.001185   0.000272   0.004849   0.002064   0.002960   0.000425
     H   19   0.000589   0.000336   0.001803   0.000980   0.000967   0.000387
     H   20   0.001344   0.000686   0.002462   0.001148   0.001510   0.003246
     C   21   0.000651   0.000346   0.001526   0.000632   0.000554   0.000492
     H   22   0.000335   0.000286   0.001713   0.000966   0.000850   0.000218
     H   23   0.000245   0.000150   0.001793   0.000855   0.000949   0.000191
     H   24   0.000913   0.000244   0.003656   0.001504   0.002333   0.000469
     C   25   0.000489   0.000410   0.001972   0.000867   0.000833   0.000626
     H   26   0.000222   0.000132   0.001105   0.000577   0.000567   0.000137
     H   27   0.000242   0.000216   0.000982   0.000515   0.000496   0.000242
     H   28   0.000283   0.000257   0.001053   0.000587   0.000503   0.000279
     H   29   0.000896   0.000615   0.008143   0.003565   0.003951   0.001093
     O   30   0.001468   0.001136   0.017459   0.007415   0.008509   0.002220
     H   31   0.000746   0.000803   0.005485   0.002610   0.002430   0.001456


                  C  7       H  8       H  9       C 10       H 11       C 12
 ------------------------------------------------------------------------------
     C    7  11.709178
     H    8   3.064299   4.034387
     H    9   2.959074   0.417919   3.946244
     C   10   0.914709   0.028155   0.028353  15.910702
     H   11   0.123934   0.009677   0.015349   3.503944   4.252035
     C   12   0.000890   0.001268   0.002262   0.003421   0.004821  15.106934
     C   13   0.000793   0.001370   0.001134   0.000400   0.000342   5.588213
     C   14   0.000974   0.000721   0.001257   0.000401   0.000372   2.097438
     C   15   0.000869   0.001322   0.000609   0.000899   0.000775   1.361884
     C   16   0.001585   0.001276   0.001822   0.002398   0.000399   2.589901
     N   17   0.003113   0.001584   0.003065   0.001732   0.001258   6.661766
     H   18   0.000714   0.000625   0.000963   0.000630   0.000604   3.227043
     H   19   0.000625   0.000514   0.000333   0.000573   0.000534   0.015516
     H   20   0.000627   0.000833   0.000495   0.003135   0.000328   0.150970
     C   21   0.000948   0.000747   0.001032   0.000523   0.000433   0.820993
     H   22   0.000607   0.000534   0.000254   0.000442   0.000271   0.044467
     H   23   0.000580   0.000299   0.000392   0.000229   0.000085   0.026635
     H   24   0.000768   0.000726   0.000855   0.000432   0.000433   0.113198
     C   25   0.001075   0.000706   0.001116   0.000334   0.000369   0.126426
     H   26   0.000400   0.000288   0.000242   0.000289   0.000217   0.013740
     H   27   0.000370   0.000179   0.000296   0.000271   0.000129   0.019109
     H   28   0.000423   0.000429   0.000232   0.000305   0.000143   0.017322
     H   29   0.005944   0.006152   0.003736   0.001182   0.000568   0.069253
     O   30   0.012183   0.015060   0.006116   0.001637   0.001077   0.026675
     H   31   0.005269   0.005529   0.003113   0.001360   0.000541   0.044713


                  C 13       C 14       C 15       C 16       N 17       H 18
 ------------------------------------------------------------------------------
     C   13  15.942004
     C   14   5.589209  15.965046
     C   15   1.878973   5.892935  14.981086
     C   16   1.300917   2.109580   5.794180  15.243506
     N   17   2.323365   1.422403   2.381343   6.742850  14.560418
     H   18   0.741388   0.102503   0.039495   0.147770   0.917208   4.202811
     H   19   0.093712   0.752883   3.396953   0.756436   0.096034   0.017134
     H   20   0.012458   0.093233   0.685712   3.319708   0.886132   0.016913
     C   21   3.901489   0.727658   0.094485   0.012319   0.097721   0.040565
     H   22   0.725005   0.026672   0.008805   0.002506   0.010154   0.004682
     H   23   0.769952   0.022029   0.013005   0.003651   0.012176   0.005606
     H   24   0.716830   0.046859   0.025024   0.026779   0.021259   0.172505
     C   25   0.795708   3.812218   0.862393   0.112507   0.059031   0.025372
     H   26   0.037749   0.741099   0.029967   0.006731   0.007596   0.002577
     H   27   0.028683   0.746932   0.028907   0.015553   0.010508   0.004783
     H   28   0.030702   0.767467   0.026899   0.015550   0.009898   0.005193
     H   29   0.020901   0.012017   0.009527   0.029363   0.058670   0.045075
     O   30   0.025181   0.014151   0.007416   0.025999   0.092301   0.029316
     H   31   0.016921   0.010856   0.006560   0.021777   0.040744   0.022776


                  H 19       H 20       C 21       H 22       H 23       H 24
 ------------------------------------------------------------------------------
     H   19   4.301166
     H   20   0.027055   4.239125
     C   21   0.011972   0.018935  11.437381
     H   22   0.002273   0.002284   3.346971   4.169802
     H   23   0.002374   0.003221   3.277483   0.457173   4.113487
     H   24   0.009657   0.010590   3.336602   0.452677   0.454264   4.178409
     C   25   0.036784   0.014931   0.079156   0.023179   0.015504   0.019996
     H   26   0.021773   0.002504   0.007673   0.002865   0.002193   0.002048
     H   27   0.005527   0.002157   0.009988   0.020622   0.007190   0.005294
     H   28   0.005359   0.002260   0.009702   0.022162   0.004221   0.005370
     H   29   0.002714   0.004826   0.005102   0.000926   0.001731   0.023201
     O   30   0.002286   0.004510   0.006036   0.001408   0.002608   0.028708
     H   31   0.002779   0.004189   0.004856   0.001066   0.001713   0.009292


                  C 25       H 26       H 27       H 28       H 29       O 30
 ------------------------------------------------------------------------------
     C   25  11.399781
     H   26   3.350627   4.164651
     H   27   3.304681   0.446038   4.130314
     H   28   3.283820   0.442938   0.454113   4.115072
     H   29   0.006097   0.000957   0.001951   0.001932   4.316177
     O   30   0.005990   0.001259   0.001786   0.001484   3.875607   6.069909
     H   31   0.005551   0.001045   0.001354   0.000996   0.843061   3.893004


                  H 31
 ------------------
     H   31   4.379360


          HEAT OF FORMATION =     -65.793929 KCALS/MOLE


          TRIVIAL VIBRATIONS, SHOULD BE ZERO

  28.2357=TX  30.8977=TY   4.2590=TZ -34.1462=RX -16.0981=RY -13.1565=RZ


      MOLECULAR POINT GROUP   :   C1  


           EIGENVECTORS  


   Root No.       1         2         3         4         5         6         7         8

                 1 A       2 A       3 A       4 A       5 A       6 A       7 A       8 A   

                  -0.1      -0.1      -0.0      -0.0      -0.0      -0.0      -0.0      -0.0
  
           1    0.0186    0.0055   -0.0295   -0.0296    0.0637    0.0464   -0.0325    0.0312
           2   -0.0141   -0.0057    0.0152   -0.0111    0.0400   -0.0888   -0.0593    0.0168
           3   -0.0041    0.0165   -0.1616   -0.0485   -0.1506   -0.0207   -0.0812   -0.0776
           4    0.0185    0.0054   -0.0299   -0.0296    0.0636    0.0461   -0.0324    0.0313
           5   -0.0034   -0.0079   -0.0240   -0.1203    0.1300   -0.0549   -0.0253    0.0513
           6   -0.0171    0.0308   -0.5638    0.0633   -0.3276   -0.0647   -0.1698   -0.1452
           7   -0.0427    0.0129    0.1391    0.2149   -0.1009   -0.0102   -0.1027   -0.0237
           8    0.0160   -0.0081    0.0003   -0.0412    0.0579   -0.0807   -0.0530    0.0211
           9    0.0454    0.0402    0.0367    0.1139    0.0504    0.0279   -0.0259    0.0729
          10    0.0400    0.0027    0.1236    0.1876   -0.1029   -0.0147   -0.0952   -0.0306
          11   -0.0705   -0.0006   -0.0892   -0.1830    0.1555   -0.0519   -0.0065    0.0522
          12   -0.5779    0.1127    0.0562    0.1629    0.1519    0.0819   -0.0301    0.1470
          13   -0.1809    0.0279    0.2167    0.3491   -0.1662   -0.0246   -0.1439   -0.0354
          14    0.1591   -0.0194    0.0511    0.0351    0.0174   -0.0900   -0.0781    0.0123
          15    0.7449   -0.0215    0.0979    0.1788    0.0088    0.0168   -0.0501    0.0610
          16    0.0314    0.0039   -0.1224   -0.1288    0.1363    0.0749   -0.0081    0.0606
          17   -0.0316    0.0001    0.0787    0.1717   -0.1016   -0.1441   -0.1096   -0.0373
          18    0.0192   -0.0189    0.5834   -0.3057    0.0976    0.0690    0.0271   -0.0088
          19    0.0028    0.0068    0.0656    0.0864   -0.0203    0.0101   -0.0593   -0.0004
          20   -0.0257   -0.0059    0.0502    0.0447   -0.0195   -0.1063   -0.0844   -0.0093
          21   -0.0002    0.0246   -0.0531   -0.0229   -0.0174   -0.0253    0.0096    0.0016
          22    0.0153    0.0120    0.0734    0.1544   -0.0509    0.0400   -0.1200   -0.0031
          23   -0.0260    0.0018    0.1540    0.1716   -0.0201   -0.1203   -0.0848    0.0147
          24   -0.0201    0.0211   -0.0455   -0.0820    0.0199   -0.0636    0.0833    0.0091
          25   -0.0359    0.0038    0.0667    0.0147    0.0081   -0.0340    0.0205   -0.0036
          26   -0.0490   -0.0147    0.0038    0.0269   -0.1375   -0.1311   -0.1299   -0.0830
          27   -0.0145    0.0243   -0.0489   -0.0528    0.0042   -0.0430    0.0479    0.0059
          28    0.0293    0.0042   -0.1200   -0.1249    0.1329    0.0738   -0.0093    0.0590
          29   -0.0224   -0.0023    0.0306    0.0664   -0.0138   -0.1115   -0.0770   -0.0018
          30    0.0094   -0.0055    0.1896   -0.1926   -0.0656    0.0255   -0.0540   -0.0683
          31    0.0351    0.0037   -0.2052   -0.2067    0.1937    0.0971    0.0105    0.0846
          32   -0.0192   -0.0020    0.0009    0.0300    0.0247   -0.1003   -0.0614    0.0158
          33    0.0122   -0.0112    0.1132   -0.2087   -0.1510    0.0232   -0.1090   -0.1186
          34    0.0083    0.0176   -0.0134   -0.0395    0.0132   -0.0254   -0.0422   -0.0124
          35    0.0115   -0.0194   -0.0187    0.0386   -0.0511    0.0767    0.1484    0.0182
          36   -0.0222    0.0076   -0.0014   -0.0022    0.0354    0.0974   -0.0228    0.0028
          37    0.0071    0.0135   -0.0138   -0.0339    0.0261   -0.0115   -0.0401   -0.0074
          38    0.0076   -0.0080   -0.0183   -0.0023   -0.0055    0.0251    0.0554    0.0180
          39   -0.0187    0.0198    0.0003   -0.0263   -0.0214    0.0475   -0.0284   -0.0133
          40    0.0042    0.0067   -0.0087   -0.0099   -0.0166    0.0502    0.0406   -0.0084
          41    0.0044    0.0003   -0.0167   -0.0259    0.0143    0.0010    0.0088    0.0182
          42    0.0046   -0.0017   -0.0208    0.0276   -0.0034    0.0017   -0.0101   -0.0142
          43    0.0022    0.0015   -0.0020    0.0023   -0.0752    0.0985    0.1159   -0.0216
          44    0.0028   -0.0035   -0.0118   -0.0178   -0.0264    0.0352    0.0602    0.0100
          45    0.0229   -0.0294   -0.0497    0.1365    0.1139    0.0113    0.0126    0.0349
          46    0.0026    0.0049    0.0003   -0.0130   -0.0947    0.0841    0.1091   -0.0308
          47    0.0055   -0.0131   -0.0098    0.0141   -0.0814    0.0878    0.1527    0.0047
          48    0.0196   -0.0463   -0.0601    0.1999    0.2139    0.0708    0.0245    0.0788
          49    0.0059    0.0144   -0.0061   -0.0298   -0.0452    0.0217    0.0289   -0.0250
          50    0.0104   -0.0211   -0.0144    0.0463   -0.0873    0.1060    0.1949    0.0099
          51   -0.0040   -0.0306   -0.0313    0.1105    0.1485    0.1120    0.0084    0.0484
          52    0.0104    0.0204   -0.0188   -0.0537    0.0453   -0.0695   -0.1015   -0.0047
          53    0.0166   -0.0267   -0.0239    0.0675   -0.0545    0.0898    0.1851    0.0240
          54   -0.0398    0.0219    0.0198   -0.0663   -0.0015    0.1265   -0.0433   -0.0121
          55    0.0004   -0.0052    0.0016    0.0241   -0.1065    0.1478    0.1794   -0.0232
          56    0.0000    0.0018   -0.0105   -0.0360   -0.0159    0.0211    0.0293    0.0095
          57    0.0385   -0.0394   -0.0627    0.1717    0.1295   -0.0242    0.0224    0.0418
          58    0.0008    0.0031    0.0066   -0.0107   -0.1457    0.1185    0.1639   -0.0420
          59    0.0042   -0.0143   -0.0051    0.0152   -0.1190    0.1124    0.1921   -0.0037
          60    0.0351   -0.0712   -0.0891    0.3157    0.3396    0.0853    0.0496    0.1362
          61    0.0077    0.0181   -0.0184   -0.0520    0.0885   -0.0677   -0.1169   -0.0285
          62    0.0071   -0.0039   -0.0197   -0.0154    0.0252   -0.0067    0.0137    0.0060
          63   -0.0329    0.0420    0.0188   -0.0803   -0.0669    0.0265   -0.0385   -0.0217
          64    0.0083    0.0182   -0.0180   -0.0590    0.0620   -0.0561   -0.1269    0.0253
          65    0.0094   -0.0020   -0.0246   -0.0337    0.0577   -0.0443   -0.0619    0.0344
          66   -0.0274    0.0454    0.0199   -0.1523   -0.2775    0.1084   -0.1683    0.4599
          67    0.0039    0.0149   -0.0225    0.0069    0.2960   -0.1585   -0.0324   -0.4505
          68   -0.0058    0.0089   -0.0072   -0.0131    0.0890   -0.0549    0.0797   -0.2214
          69   -0.0395    0.0474    0.0237   -0.0684   -0.0003   -0.0120    0.0070   -0.2002
          70    0.0116    0.0246   -0.0192   -0.1140   -0.0261   -0.0439   -0.2477    0.2876
          71    0.0164   -0.0150   -0.0272   -0.0091   -0.0436    0.0511   -0.0044    0.1784
          72   -0.0436    0.0504    0.0263   -0.0555    0.0560   -0.0409    0.0438   -0.3425
          73    0.0034    0.0062   -0.0099   -0.0002   -0.0067    0.0626    0.0471   -0.0024
          74    0.0018    0.0089   -0.0183   -0.0555    0.0645   -0.0470   -0.0840    0.0343
          75    0.0101   -0.0021   -0.0125   -0.0200   -0.0809   -0.0561   -0.0165   -0.0559
          76    0.0025    0.0031   -0.0087    0.0218   -0.0314    0.1032    0.1092   -0.0045
          77   -0.0001    0.0119   -0.0179   -0.0627    0.0768   -0.0552   -0.1051    0.0420
          78    0.0255   -0.0170   -0.0184   -0.0208   -0.1072   -0.0928   -0.0146   -0.1029
          79    0.0007    0.0077   -0.0161    0.0172    0.0554    0.0763    0.0158    0.0245
          80   -0.0100    0.0217   -0.0126   -0.0686    0.0803   -0.0368   -0.1051    0.0721
          81    0.0035    0.0057   -0.0067   -0.0349   -0.0928   -0.0545   -0.0199   -0.0395
          82    0.0064    0.0069   -0.0061   -0.0329   -0.0351    0.0161    0.0194   -0.0204
          83    0.0133   -0.0021   -0.0255   -0.0566    0.0756   -0.0840   -0.1144    0.0077
          84    0.0067    0.0034   -0.0066   -0.0409   -0.1055   -0.0690   -0.0202   -0.0548
          85    0.0324    0.2563   -0.0089   -0.0409    0.0295   -0.0109   -0.0478   -0.0324
          86    0.0485    0.5821    0.0159    0.0346   -0.0670    0.0262    0.2914    0.0070
          87   -0.0486   -0.1026    0.0162    0.0010    0.0266   -0.1435    0.2097    0.0683
          88   -0.0171   -0.1934   -0.0025   -0.0359   -0.0731   -0.2900    0.2055    0.0911
          89   -0.0078   -0.0058    0.0037    0.0029   -0.0379    0.3407   -0.0180   -0.1393
          90   -0.0759   -0.3714    0.0137   -0.0087    0.0170   -0.0969    0.1599    0.0446
          91   -0.0331   -0.3286    0.0065   -0.0344   -0.1166   -0.3503    0.2930    0.1154
          92   -0.0494   -0.4359   -0.0088   -0.0131   -0.0269    0.4359   -0.1494   -0.1828
          93   -0.0112    0.2551    0.0166    0.0080    0.0563   -0.1246    0.1968    0.0623


   Root No.       9        10        11        12        13        14        15        16

                 9 A      10 A      11 A      12 A      13 A      14 A      15 A      16 A   

                  -0.0       0.0       0.0       0.0       0.0       0.0       0.0       0.1
  
           1    0.2036   -0.0653   -0.0877    0.0580   -0.0098    0.0138    0.0097    0.0010
           2   -0.0323    0.0198   -0.0035   -0.0159   -0.0021    0.0094    0.0046    0.0023
           3   -0.0040   -0.0351   -0.0321   -0.0168   -0.0157   -0.0253   -0.0280   -0.0102
           4    0.2039   -0.0652   -0.0879    0.0575   -0.0097    0.0137    0.0097    0.0014
           5    0.0112    0.0600    0.0017   -0.0427   -0.0022    0.0119    0.0056    0.0054
           6    0.0107   -0.0840   -0.0453   -0.1161   -0.0264   -0.0227   -0.0337   -0.0114
           7    0.1356   -0.1065   -0.0821    0.0585   -0.0087    0.0100    0.0086    0.0031
           8   -0.0246    0.0213   -0.0047   -0.0180   -0.0031    0.0105    0.0044   -0.0004
           9    0.0685    0.2320    0.0734    0.0159    0.0205   -0.0067    0.0194    0.0004
          10    0.1247   -0.1321   -0.0924    0.0809   -0.0093    0.0084    0.0069    0.0029
          11   -0.0055    0.0387   -0.0099    0.0286   -0.0022    0.0106    0.0047   -0.0057
          12    0.1556    0.4189    0.1379   -0.0904    0.0262    0.0027    0.0305   -0.0001
          13    0.1363   -0.0812   -0.0642   -0.0017   -0.0085    0.0109    0.0094    0.0081
          14   -0.0189    0.0255    0.0022   -0.0619   -0.0033    0.0130    0.0065    0.0026
          15    0.0879    0.2114    0.0718   -0.0470    0.0206   -0.0000    0.0260    0.0050
          16    0.2561   -0.0276   -0.0847    0.0105   -0.0108    0.0163    0.0101    0.0083
          17   -0.1167   -0.0433   -0.0081    0.0581   -0.0002    0.0062    0.0055   -0.0099
          18   -0.0000   -0.0023   -0.0327   -0.0032   -0.0209   -0.0302   -0.0422   -0.0134
          19    0.1485   -0.1076   -0.0927    0.1086   -0.0076    0.0098    0.0092    0.0003
          20   -0.0537   -0.0103   -0.0092   -0.0236   -0.0051    0.0077    0.0008    0.0010
          21   -0.0568    0.0328   -0.0055    0.2411    0.0158   -0.0278   -0.0001   -0.0041
          22    0.2301   -0.0414   -0.0632   -0.1193   -0.0190    0.0215    0.0075   -0.0017
          23   -0.0691    0.0446    0.0196    0.0133    0.0076    0.0098    0.0140    0.0069
          24   -0.1594   -0.0387   -0.0364    0.5287    0.0319   -0.0415    0.0047   -0.0009
          25    0.0205   -0.2093   -0.1334    0.4450    0.0093   -0.0073    0.0129    0.0015
          26   -0.0812   -0.1196   -0.0482   -0.0796   -0.0223    0.0007   -0.0203   -0.0031
          27   -0.1108   -0.0034   -0.0207    0.3948    0.0246   -0.0347    0.0032   -0.0032
          28    0.2533   -0.0291   -0.0846    0.0125   -0.0109    0.0163    0.0100    0.0075
          29   -0.0658   -0.0021   -0.0042    0.0218    0.0001    0.0080    0.0064   -0.0014
          30    0.0136   -0.0432   -0.0425   -0.0922   -0.0287   -0.0270   -0.0445   -0.0134
          31    0.3007    0.0034   -0.0827   -0.0294   -0.0117    0.0186    0.0106    0.0156
          32   -0.0474    0.0185   -0.0011    0.0206    0.0020    0.0089    0.0088    0.0024
          33    0.0409   -0.0904   -0.0605   -0.2441   -0.0481   -0.0253   -0.0622   -0.0166
          34   -0.0927    0.0506    0.0879   -0.0183    0.0085   -0.0323   -0.0447   -0.0679
          35    0.0214    0.0623   -0.0783    0.0093   -0.0440    0.0529   -0.0183   -0.0406
          36   -0.1092   -0.0750   -0.1419   -0.0832    0.0797    0.0209    0.2443    0.1883
          37   -0.1116    0.0320    0.0737   -0.0288    0.0138   -0.0258    0.0025   -0.0719
          38    0.0184    0.0317   -0.0555    0.0021   -0.0232    0.0348    0.0095   -0.0330
          39   -0.0388   -0.0016   -0.0906   -0.0439    0.0614   -0.0047    0.0697    0.1957
          40   -0.1276    0.0396    0.0232   -0.0380    0.0096   -0.0055    0.0129   -0.0799
          41    0.0164    0.0154   -0.0501   -0.0032   -0.0113    0.0235    0.0089   -0.0276
          42    0.0170    0.0580    0.0141    0.0063    0.0163   -0.0096    0.0249    0.1772
          43   -0.1263    0.0639   -0.0061   -0.0364    0.0010    0.0194    0.0360   -0.0841
          44    0.0162    0.0312   -0.0709   -0.0025   -0.0171    0.0412    0.0274   -0.0277
          45   -0.0132    0.0212    0.0258    0.0017   -0.0019   -0.0451   -0.0813    0.1663
          46   -0.1085    0.0810    0.0143   -0.0260    0.0000    0.0201    0.0316   -0.0414
          47    0.0205    0.0624   -0.0912    0.0047   -0.0343    0.0646    0.0254   -0.0060
          48   -0.0993   -0.0664   -0.0658   -0.0492    0.0086   -0.0536   -0.0487   -0.0281
          49   -0.0902    0.0717    0.0622   -0.0167    0.0039   -0.0115   -0.0264   -0.0314
          50    0.0237    0.0761   -0.0933    0.0107   -0.0466    0.0640   -0.0108   -0.0195
          51   -0.1413   -0.1017   -0.1404   -0.0863    0.0475    0.0028    0.1822    0.0068
          52   -0.0837    0.0515    0.1126   -0.0114    0.0038   -0.0437   -0.0899   -0.0789
          53    0.0274    0.0765   -0.0772    0.0160   -0.0555    0.0479   -0.0618   -0.0863
          54   -0.1388   -0.1208   -0.1845   -0.1131    0.1227    0.0463    0.4253    0.2906
          55   -0.1391    0.0693   -0.0446   -0.0430   -0.0041    0.0390    0.0610   -0.1095
          56    0.0123    0.0214   -0.0704   -0.0075   -0.0080    0.0376    0.0410   -0.0393
          57    0.0284    0.0533    0.0980    0.0357   -0.0319   -0.0679   -0.1894    0.2592
          58   -0.1070    0.1013   -0.0069   -0.0246   -0.0042    0.0447    0.0668   -0.0077
          59    0.0222    0.0775   -0.1063    0.0060   -0.0374    0.0826    0.0510    0.0197
          60   -0.1342   -0.1093   -0.0756   -0.0593   -0.0171   -0.1011   -0.1988   -0.2623
          61   -0.1050    0.0066    0.1105   -0.0306    0.0346   -0.0477    0.0680   -0.0565
          62    0.0234    0.0193   -0.0377    0.0012   -0.0122    0.0197    0.0242   -0.0414
          63   -0.0134    0.0078   -0.1237   -0.0436    0.0685   -0.0443   -0.1768   -0.0004
          64   -0.1096    0.0041    0.1159   -0.0277    0.0351   -0.0478    0.0531   -0.0715
          65    0.0251   -0.0052    0.0048    0.0033    0.0074    0.0054    0.1029   -0.0135
          66   -0.0546   -0.0294   -0.0591   -0.0186    0.0841   -0.0468   -0.2728   -0.1002
          67   -0.0688    0.0293    0.0714   -0.0531    0.0277   -0.0578    0.1839    0.0335
          68    0.0606    0.0467   -0.0983   -0.0097   -0.0204   -0.0126   -0.1607   -0.1937
          69    0.0101    0.0245   -0.1590   -0.0527    0.0635   -0.0620   -0.2490   -0.0605
          70   -0.1262   -0.0309    0.1775   -0.0132    0.0597   -0.0631    0.0404   -0.1257
          71   -0.0077    0.0079   -0.0085    0.0091   -0.0141    0.0541    0.1456    0.0687
          72    0.0267    0.0371   -0.1849   -0.0600    0.0591   -0.0719   -0.2823   -0.0790
          73   -0.1416    0.0289    0.0060   -0.0469    0.0176   -0.0080   -0.0005   -0.0505
          74    0.0084   -0.0196   -0.0240   -0.0109    0.0085   -0.0080   -0.0021    0.0125
          75    0.1036    0.1309    0.1078    0.0617   -0.0385    0.0151    0.1156   -0.0224
          76   -0.1503    0.0419   -0.0295   -0.0508   -0.0501   -0.0304    0.0059   -0.0552
          77    0.0019   -0.0308   -0.0227   -0.0151   -0.0310   -0.0468   -0.0008    0.0307
          78    0.1666    0.1767    0.1815    0.0989    0.3838    0.3271    0.0908   -0.1340
          79   -0.1918   -0.0246   -0.0354   -0.0814    0.1438    0.0155   -0.0872    0.1225
          80   -0.0279   -0.0505   -0.0590   -0.0313   -0.3547   -0.2701    0.0427    0.0551
          81    0.0979    0.1299    0.1006    0.0609   -0.3219   -0.1645    0.1779   -0.0614
          82   -0.0939    0.0604    0.0700   -0.0160   -0.0234   -0.0081    0.0609   -0.1956
          83    0.0418   -0.0094    0.0296    0.0062    0.4307    0.2644   -0.0643   -0.0015
          84    0.1193    0.1472    0.1255    0.0744   -0.2705   -0.1158    0.1894   -0.1162
          85   -0.1262    0.0554    0.1295    0.0277   -0.3377    0.4341   -0.2812    0.3749
          86    0.1241   -0.2144    0.2743   -0.0511    0.2272   -0.3597   -0.0027    0.1135
          87    0.0536   -0.2960    0.1830   -0.1081   -0.0742    0.1607    0.0487   -0.1297
          88   -0.0029    0.0871    0.0088   -0.0503   -0.0433    0.0121   -0.1655    0.3644
          89    0.0668   -0.1638    0.3564    0.0520    0.1025   -0.1911   -0.0552    0.0530
          90    0.0582   -0.2769    0.1888   -0.0913   -0.0585    0.1356    0.0551   -0.1450
          91    0.0897    0.0429    0.0147   -0.0955    0.2003   -0.3351   -0.0323    0.1842
          92    0.0089   -0.0877    0.3439    0.1097   -0.0358   -0.0007   -0.1431    0.1764
          93    0.0152   -0.3075    0.1928   -0.1010   -0.1808    0.3169    0.0019   -0.0770


   Root No.      17        18        19        20        21        22        23        24

                17 A      18 A      19 A      20 A      21 A      22 A      23 A      24 A   

                   0.1       0.1       0.1       0.2       0.2       0.3       0.3       0.4
  
           1    0.0052    0.2258    0.0129   -0.0209   -0.0016   -0.0435    0.0048    0.1682
           2   -0.0003   -0.0897   -0.0071    0.0057   -0.0004    0.0099   -0.0028    0.1007
           3   -0.0074   -0.0138   -0.0005    0.0028    0.0005   -0.2023    0.0085   -0.0044
           4    0.0049    0.2105    0.0120   -0.0207   -0.0017   -0.0423    0.0048    0.1690
           5   -0.0024   -0.1795   -0.0130    0.0092   -0.0007    0.0026   -0.0036    0.3267
           6   -0.0100    0.0281    0.0022   -0.0008    0.0028   -0.2267    0.0099   -0.0862
           7    0.0020   -0.0616   -0.0042   -0.0007   -0.0006   -0.0003    0.0023   -0.0712
           8    0.0018    0.0719    0.0024   -0.0013   -0.0005    0.0345   -0.0041   -0.1523
           9    0.0025    0.0206   -0.0017   -0.0029    0.0011   -0.0006    0.0007    0.0089
          10    0.0024   -0.0366   -0.0025   -0.0023   -0.0010   -0.0132    0.0030   -0.0872
          11    0.0060    0.3611    0.0195   -0.0141   -0.0013    0.0359   -0.0049   -0.4449
          12    0.0016    0.0861    0.0017   -0.0092    0.0032    0.0879   -0.0036   -0.0740
          13   -0.0029   -0.3270   -0.0193    0.0076    0.0005    0.0089    0.0027    0.1843
          14    0.0008   -0.0355   -0.0037    0.0013   -0.0003    0.0578   -0.0047   -0.0755
          15    0.0050    0.0229   -0.0017   -0.0072    0.0005    0.0687   -0.0014   -0.0528
          16   -0.0004   -0.0615   -0.0053   -0.0065   -0.0016   -0.0171    0.0010    0.1264
          17    0.0101    0.4592    0.0278   -0.0280   -0.0003   -0.0460    0.0059    0.4973
          18   -0.0086   -0.0096    0.0023    0.0073   -0.0025   -0.4788    0.0214   -0.0416
          19    0.0053    0.1732    0.0098   -0.0145   -0.0015    0.0014    0.0026   -0.1455
          20   -0.0010   -0.1060   -0.0077    0.0084   -0.0002    0.0169   -0.0033   -0.0542
          21   -0.0003   -0.0480   -0.0050    0.0059   -0.0007   -0.0944    0.0044    0.0428
          22    0.0049    0.1994    0.0103   -0.0055    0.0010   -0.1250    0.0067   -0.2095
          23   -0.0008   -0.2423   -0.0161    0.0108   -0.0003    0.1669   -0.0098   -0.1979
          24    0.0005   -0.1158   -0.0083   -0.0015   -0.0037    0.1027   -0.0030    0.0997
          25    0.0068    0.0992    0.0033   -0.0032   -0.0034    0.2209   -0.0090   -0.2468
          26   -0.0066   -0.2043   -0.0120    0.0167    0.0001   -0.1582    0.0042   -0.1990
          27    0.0010   -0.0697   -0.0075    0.0102   -0.0016    0.0283   -0.0019    0.0075
          28    0.0000   -0.0312   -0.0034   -0.0083   -0.0016   -0.0205    0.0014    0.1476
          29    0.0032    0.0647    0.0024   -0.0010   -0.0001   -0.0281    0.0004    0.1278
          30   -0.0107    0.0084    0.0031   -0.0051   -0.0019   -0.0083   -0.0005    0.0074
          31   -0.0064   -0.3925   -0.0262    0.0123   -0.0015    0.0319   -0.0050   -0.0283
          32    0.0011   -0.0941   -0.0079    0.0104    0.0002   -0.0945    0.0017    0.0634
          33   -0.0151    0.0636    0.0077   -0.0272   -0.0039    0.7084   -0.0324    0.0964
          34    0.0398    0.0010   -0.0719    0.0025   -0.0110    0.0083    0.1634   -0.0003
          35    0.0301   -0.0010    0.0209    0.0130   -0.0086   -0.0009   -0.0053    0.0003
          36   -0.0620    0.0053    0.0041    0.0237   -0.0083    0.0034    0.0255   -0.0004
          37    0.0093    0.0017   -0.0856   -0.0072    0.0707    0.0077    0.1546   -0.0006
          38    0.0059   -0.0014    0.0362    0.0366    0.0455    0.0081    0.1684    0.0002
          39    0.0658    0.0049   -0.0002    0.0384   -0.3421    0.0041    0.0581    0.0003
          40    0.0068    0.0016   -0.0844   -0.0202    0.0684    0.0035    0.0753   -0.0008
          41   -0.0099   -0.0016    0.0453    0.0480    0.0380    0.0108    0.2097    0.0005
          42    0.1606    0.0032   -0.0005    0.0240   -0.3143    0.0009    0.0508   -0.0004
          43    0.0025    0.0002   -0.0541   -0.0288    0.0015   -0.0032   -0.0666   -0.0006
          44   -0.0147   -0.0016    0.0501    0.0407   -0.0065    0.0067    0.1233    0.0006
          45    0.2212    0.0007    0.0106    0.0004   -0.0057   -0.0031    0.0073   -0.0002
          46    0.0719    0.0001   -0.0605   -0.0333    0.0144   -0.0032   -0.0651   -0.0005
          47    0.0372   -0.0015    0.0374    0.0129   -0.0011   -0.0024   -0.0508    0.0007
          48   -0.1167    0.0033   -0.0005    0.0090   -0.0629   -0.0039   -0.0177   -0.0003
          49    0.0816    0.0001   -0.0594   -0.0106   -0.0008    0.0018    0.0380    0.0003
          50    0.0568   -0.0023    0.0408    0.0017   -0.0035   -0.0059   -0.1054    0.0008
          51   -0.2142    0.0053   -0.0001    0.0131   -0.0292   -0.0002   -0.0126   -0.0020
          52    0.0375    0.0031   -0.0863    0.0498   -0.1224    0.0168    0.3527   -0.0004
          53    0.0467   -0.0034    0.0412   -0.0102   -0.0993   -0.0073   -0.1254   -0.0002
          54   -0.1087    0.0048    0.0215    0.0073    0.4584    0.0068    0.0342    0.0010
          55   -0.0443    0.0008   -0.0600   -0.0472   -0.0928   -0.0128   -0.2667   -0.0002
          56   -0.0550   -0.0009    0.0496    0.0586   -0.0740    0.0116    0.2210    0.0005
          57    0.4850   -0.0033    0.0185   -0.0371    0.4596   -0.0052   -0.0167   -0.0002
          58    0.1335   -0.0001   -0.0654   -0.0593    0.0103   -0.0102   -0.2102   -0.0008
          59    0.0833   -0.0018    0.0380   -0.0041   -0.0050   -0.0072   -0.1540    0.0003
          60   -0.3751    0.0039   -0.0125    0.0136   -0.0307   -0.0075   -0.0587    0.0028
          61    0.0339   -0.0110    0.1259   -0.0103    0.0083   -0.0012   -0.0257   -0.0002
          62    0.0158   -0.0087    0.1542    0.0342    0.0310    0.0034    0.0671    0.0004
          63    0.0217   -0.0011    0.0404    0.0096   -0.0968    0.0044   -0.0015    0.0000
          64    0.0319   -0.0115    0.1305   -0.0119    0.0264   -0.0013   -0.0286   -0.0002
          65    0.0497   -0.0226    0.3926    0.0280   -0.0870   -0.0115   -0.2402    0.0014
          66    0.0050   -0.0064    0.1051    0.0019    0.0286    0.0021   -0.0535   -0.0000
          67    0.0707   -0.0151    0.2138   -0.0082   -0.1780   -0.0083   -0.1664    0.0009
          68   -0.0181   -0.0119    0.1576    0.0099    0.3072    0.0056    0.0571   -0.0006
          69    0.0110   -0.0031    0.0545   -0.0019    0.0072    0.0043   -0.0306   -0.0003
          70    0.0442   -0.0259    0.3519   -0.0281    0.0484   -0.0135   -0.2842    0.0005
          71    0.0311   -0.0017    0.0748    0.0616   -0.1230    0.0091    0.2291    0.0004
          72    0.0041   -0.0018    0.0244   -0.0133    0.0378    0.0041   -0.0469   -0.0005
          73    0.0399    0.0008   -0.0675   -0.0145    0.0352    0.0043    0.0940   -0.0011
          74    0.0059    0.0107   -0.2042   -0.0287    0.0117   -0.0001    0.0056    0.0007
          75   -0.0351    0.0039   -0.0384   -0.0010   -0.0961   -0.0007    0.0178   -0.0002
          76    0.0594   -0.0110    0.1742    0.0736    0.0267    0.0199    0.3966   -0.0014
          77    0.0175    0.0157   -0.3056   -0.0645   -0.0041   -0.0062   -0.1162    0.0008
          78   -0.1569    0.0034   -0.0297   -0.0005    0.0261   -0.0018    0.0383   -0.0000
          79    0.2198    0.0070   -0.1814   -0.0426   -0.2223   -0.0023   -0.0067   -0.0015
          80    0.0477    0.0165   -0.3285   -0.0746   -0.0314   -0.0060   -0.1363    0.0006
          81   -0.0780    0.0050   -0.0705   -0.0180   -0.0265   -0.0017   -0.0280   -0.0001
          82   -0.1124    0.0060   -0.1973   -0.0720    0.2602   -0.0025   -0.0323   -0.0008
          83   -0.0174    0.0174   -0.3409   -0.0778    0.0220   -0.0103   -0.1467    0.0010
          84   -0.1327    0.0048   -0.0720   -0.0200    0.0554   -0.0010   -0.0070   -0.0002
          85   -0.2944    0.0246    0.0144    0.3562    0.0431    0.0020   -0.1077    0.0061
          86   -0.1294   -0.0092    0.0406   -0.2429   -0.0152   -0.0039    0.0508   -0.0036
          87    0.1199   -0.0023   -0.0159   -0.0263   -0.0216    0.0035    0.0214   -0.0012
          88   -0.3016   -0.0131    0.1201   -0.4591   -0.0080   -0.0113    0.0499   -0.0092
          89   -0.0437    0.0265   -0.0627    0.4769    0.0247    0.0105   -0.0814    0.0081
          90    0.1414    0.0030   -0.0317    0.0614   -0.0151    0.0057    0.0086   -0.0002
          91   -0.1515    0.0431   -0.0442    0.4340    0.0348    0.0044   -0.0794    0.0041
          92   -0.1513   -0.0229    0.0782   -0.3377   -0.0175   -0.0017    0.0505   -0.0052
          93    0.0855   -0.0061    0.0008   -0.0564   -0.0173    0.0012    0.0093   -0.0011


   Root No.      25        26        27        28        29        30        31        32

                25 A      26 A      27 A      28 A      29 A      30 A      31 A      32 A   

                   0.6       0.6       0.6       0.6       0.7       0.8       0.8       0.9
  
           1    0.0010    0.0004    0.0039   -0.0001    0.0075   -0.0001   -0.0003   -0.0002
           2    0.0005    0.0005   -0.0276    0.0008   -0.0017    0.0003   -0.0001    0.0003
           3   -0.0001   -0.0001    0.1939   -0.0035   -0.1315    0.0005    0.0001    0.0001
           4    0.0010    0.0003    0.0048   -0.0002    0.0045   -0.0001   -0.0003   -0.0003
           5    0.0023    0.0008   -0.0542    0.0023    0.0632    0.0002   -0.0002   -0.0020
           6   -0.0023    0.0014   -0.4562    0.0070    0.1875   -0.0005    0.0000   -0.0002
           7    0.0008   -0.0002    0.0235   -0.0005   -0.0770   -0.0005   -0.0002   -0.0003
           8   -0.0007    0.0005   -0.0295    0.0002    0.0314    0.0004   -0.0001    0.0003
           9   -0.0016   -0.0011    0.0445    0.0004   -0.1740    0.0012    0.0002    0.0002
          10    0.0005   -0.0002    0.0293   -0.0009   -0.1586   -0.0002   -0.0002   -0.0003
          11   -0.0021    0.0005    0.0208   -0.0014   -0.1353    0.0007   -0.0002   -0.0003
          12   -0.0010   -0.0013    0.0509    0.0010    0.2754    0.0000    0.0000    0.0000
          13    0.0016   -0.0002   -0.0357    0.0008    0.1201   -0.0008   -0.0002    0.0000
          14   -0.0005    0.0004   -0.0535    0.0010    0.2193   -0.0000   -0.0001    0.0003
          15   -0.0018   -0.0016    0.0538    0.0010    0.2299    0.0004    0.0001    0.0001
          16    0.0013    0.0006   -0.0105    0.0004    0.0194    0.0002   -0.0002   -0.0004
          17    0.0016   -0.0001   -0.0067    0.0009    0.0014   -0.0002   -0.0002    0.0006
          18   -0.0015    0.0019   -0.2827    0.0029    0.1267   -0.0007   -0.0001    0.0002
          19    0.0000   -0.0000    0.0373   -0.0012   -0.0672   -0.0002   -0.0002   -0.0000
          20    0.0002    0.0004   -0.0156    0.0003    0.0041    0.0001   -0.0001    0.0001
          21   -0.0008   -0.0009    0.1963   -0.0031   -0.2880    0.0012    0.0002    0.0003
          22    0.0009   -0.0004    0.1110   -0.0021   -0.3019    0.0011    0.0001    0.0009
          23   -0.0021    0.0007   -0.4397    0.0074   -0.3825    0.0007   -0.0001   -0.0007
          24   -0.0020   -0.0004    0.0367   -0.0008   -0.0642   -0.0002   -0.0002   -0.0011
          25    0.0006    0.0010   -0.1593    0.0030    0.4786   -0.0009   -0.0002    0.0010
          26    0.0022   -0.0010    0.6112   -0.0108    0.2805   -0.0012   -0.0003   -0.0009
          27   -0.0009   -0.0003    0.0694   -0.0007   -0.0751    0.0011    0.0002    0.0010
          28    0.0013    0.0006   -0.0129    0.0004    0.0227    0.0001   -0.0003   -0.0006
          29    0.0005    0.0002   -0.0052    0.0004   -0.0212    0.0002   -0.0001    0.0006
          30   -0.0001    0.0013    0.0550   -0.0016   -0.0482   -0.0001   -0.0000    0.0001
          31    0.0018    0.0007    0.0058    0.0006   -0.0604    0.0005   -0.0003    0.0023
          32    0.0007    0.0001    0.0023    0.0005   -0.0600    0.0005   -0.0001    0.0020
          33   -0.0007    0.0024    0.0410   -0.0019   -0.0464   -0.0004   -0.0001   -0.0001
          34   -0.0143   -0.0638   -0.0020   -0.1212    0.0006   -0.0046    0.0048    0.0358
          35   -0.0180   -0.0453   -0.0008   -0.0556   -0.0000   -0.0893   -0.0256    0.0181
          36    0.1219   -0.1159    0.0003    0.0893    0.0003    0.0058   -0.0051    0.0081
          37    0.0581   -0.0686   -0.0024   -0.1242    0.0006   -0.0285   -0.0086    0.0193
          38    0.0013    0.0478    0.0005    0.0248    0.0001    0.0338   -0.0034    0.0178
          39   -0.1722   -0.1168    0.0015    0.0989    0.0005    0.0379   -0.0116    0.0144
          40   -0.0256    0.0331    0.0016    0.0885    0.0005   -0.0314    0.0104   -0.0051
          41   -0.0116   -0.0695   -0.0009   -0.0387    0.0000   -0.0354    0.0151    0.0242
          42    0.0669    0.1717   -0.0012   -0.0954   -0.0000   -0.0075    0.0177    0.0043
          43   -0.0300    0.0092   -0.0001   -0.0162    0.0009    0.0744    0.0230    0.0122
          44   -0.0143   -0.0880   -0.0019   -0.1020    0.0002    0.0008    0.0034    0.0187
          45    0.1160    0.0190   -0.0001   -0.0104   -0.0003    0.0239    0.0174    0.0013
          46   -0.0497    0.0171   -0.0005   -0.0457    0.0010    0.0949    0.0246    0.0261
          47   -0.0230   -0.0951   -0.0019   -0.1089   -0.0001   -0.0656   -0.0250   -0.0116
          48    0.2219   -0.0607    0.0004    0.0725   -0.0002    0.0203    0.0107   -0.0071
          49   -0.1141   -0.0378   -0.0021   -0.1507    0.0007    0.0437    0.0107   -0.0109
          50   -0.0805   -0.0367   -0.0010   -0.0824   -0.0001   -0.0749   -0.0210    0.0071
          51    0.5623   -0.1727    0.0007    0.1903    0.0001    0.0111    0.0079   -0.0171
          52    0.0762   -0.0905   -0.0005    0.0054    0.0013    0.3527    0.1011    0.3675
          53    0.0649   -0.1408   -0.0007   -0.0269   -0.0006   -0.3136   -0.0970   -0.1902
          54   -0.2407    0.1780   -0.0036   -0.2494    0.0011   -0.0109    0.0138    0.0568
          55    0.0151   -0.0102   -0.0022   -0.1243    0.0017    0.4760    0.1135   -0.3782
          56    0.0094   -0.0479   -0.0016   -0.0852   -0.0003   -0.1915   -0.0332    0.2153
          57   -0.0659   -0.1606    0.0016    0.0679    0.0003    0.0734    0.0075   -0.0445
          58    0.0745    0.0017    0.0004    0.0269    0.0010    0.1154    0.0367    0.4615
          59    0.0730   -0.1182   -0.0014   -0.0613   -0.0002   -0.0808   -0.0253    0.2949
          60   -0.4195    0.1243   -0.0012   -0.1866    0.0009    0.0051   -0.0034    0.1519
          61    0.0485   -0.0707   -0.0024   -0.1153    0.0006   -0.0268   -0.0613   -0.0113
          62    0.0004    0.0875    0.0012    0.0642    0.0002    0.0881   -0.0354   -0.0107
          63   -0.1300   -0.0932    0.0009    0.0630    0.0006    0.0229   -0.0261   -0.0015
          64    0.0697   -0.0868   -0.0030   -0.1509    0.0006   -0.0387   -0.1094   -0.0366
          65   -0.1825    0.2484    0.0084    0.4450    0.0006    0.1625    0.3627    0.1390
          66   -0.0438   -0.1031    0.0000    0.0195    0.0003    0.0167   -0.1744   -0.1165
          67   -0.1831   -0.2485   -0.0009   -0.0263    0.0014   -0.0664   -0.2600   -0.1463
          68    0.3294    0.3737   -0.0013   -0.0624    0.0000    0.2388   -0.1832   -0.1087
          69   -0.0084    0.0049   -0.0001    0.0173    0.0006    0.0853   -0.1299   -0.0707
          70    0.1512    0.0257   -0.0031   -0.1689   -0.0001   -0.1892    0.0704    0.0693
          71   -0.1720    0.0057    0.0028    0.1351    0.0008    0.3217   -0.3560   -0.1827
          72   -0.0131   -0.0540   -0.0002    0.0268    0.0004   -0.1217    0.2118    0.1241
          73   -0.0263    0.0657    0.0022    0.1259    0.0004   -0.0726    0.0151   -0.0328
          74   -0.0043   -0.0626   -0.0010   -0.0370    0.0001   -0.0206    0.0704   -0.0205
          75    0.0339    0.1468   -0.0006   -0.0838   -0.0003   -0.0269    0.0152   -0.0103
          76   -0.0435   -0.0019    0.0017    0.1022    0.0001   -0.2438    0.4581   -0.3258
          77    0.0027   -0.0305   -0.0008   -0.0250    0.0003    0.0432   -0.0839    0.0855
          78    0.0200    0.1206   -0.0003   -0.0798   -0.0007   -0.0726    0.0604   -0.0655
          79    0.0591    0.6047    0.0026    0.0824    0.0004   -0.2786   -0.2260   -0.0212
          80    0.0170    0.0863   -0.0015   -0.0717    0.0004   -0.0451    0.2039   -0.1570
          81    0.0171    0.0565   -0.0008   -0.0821   -0.0002    0.0242    0.1863   -0.1029
          82   -0.1339   -0.0942    0.0094    0.5653   -0.0007   -0.1540   -0.1937   -0.0029
          83   -0.0323   -0.1131    0.0007    0.0602    0.0001    0.0231    0.2338   -0.1414
          84   -0.0231    0.0591    0.0033    0.1573   -0.0010   -0.0969   -0.2001    0.0670
          85    0.0294    0.0089    0.0009    0.0231    0.0001   -0.0146   -0.0045   -0.0141
          86    0.0238   -0.0073    0.0007    0.0090   -0.0003    0.0087    0.0036    0.0067
          87    0.0002   -0.0069   -0.0011   -0.0036    0.0022    0.0046    0.0016    0.0047
          88    0.0076    0.0015    0.0027    0.0083    0.0001    0.0016    0.0007   -0.0011
          89    0.0043    0.0063   -0.0019    0.0101   -0.0002   -0.0089   -0.0040   -0.0075
          90   -0.0094   -0.0031   -0.0013   -0.0057    0.0021    0.0034    0.0010    0.0044
          91    0.0204    0.0027    0.0006    0.0151    0.0010   -0.0086   -0.0034   -0.0075
          92    0.0097   -0.0039   -0.0000    0.0073   -0.0000    0.0036    0.0016    0.0027
          93   -0.0212    0.0046   -0.0009   -0.0069    0.0013   -0.0005   -0.0010   -0.0015


   Root No.      33        34        35        36        37        38        39        40

                33 A      34 A      35 A      36 A      37 A      38 A      39 A      40 A   

                   0.9       0.9       1.0       1.0       1.2       1.2       1.3       1.5
  
           1   -0.0247   -0.0021    0.1106    0.0005   -0.0005   -0.0415   -0.0003   -0.0876
           2   -0.0554   -0.0019   -0.0651   -0.0004   -0.0002   -0.0581   -0.0005   -0.0282
           3    0.0499    0.0031   -0.0864   -0.0006   -0.0002   -0.0248    0.0004   -0.1304
           4   -0.0295   -0.0025    0.1409    0.0007   -0.0006   -0.0466   -0.0003   -0.1173
           5    0.6771    0.0298   -0.1096   -0.0013    0.0003   -0.0549   -0.0013    0.4118
           6    0.0115   -0.0002    0.0560    0.0002   -0.0004   -0.0030   -0.0000    0.1080
           7    0.0257    0.0005    0.0882    0.0006   -0.0003   -0.0326   -0.0005    0.2614
           8   -0.0333   -0.0015   -0.0259   -0.0006   -0.0009   -0.2427   -0.0009   -0.1939
           9    0.0323    0.0019   -0.0511    0.0000    0.0007   -0.0102   -0.0001   -0.0099
          10    0.0416    0.0011    0.0918    0.0006   -0.0004   -0.0557   -0.0005    0.3201
          11    0.0255   -0.0003    0.1351    0.0002   -0.0005   -0.1656   -0.0012    0.2159
          12   -0.0309   -0.0014    0.0578    0.0008    0.0013    0.0830    0.0001    0.0395
          13   -0.0372   -0.0019   -0.0272   -0.0004   -0.0015   -0.3412   -0.0008   -0.1142
          14   -0.0739   -0.0034   -0.0347   -0.0009   -0.0012   -0.3536   -0.0011   -0.3302
          15   -0.0116   -0.0007    0.0615    0.0007    0.0017    0.0830   -0.0000    0.1083
          16    0.0971    0.0029    0.1777    0.0008   -0.0005    0.0297    0.0003   -0.2680
          17   -0.1702   -0.0066    0.0099    0.0009    0.0017    0.3882    0.0013    0.0018
          18   -0.0614   -0.0032    0.0463   -0.0003   -0.0010    0.0535    0.0004    0.0584
          19   -0.0391   -0.0024    0.0912    0.0004   -0.0006   -0.0989   -0.0004    0.1348
          20   -0.0248   -0.0009   -0.0315   -0.0004   -0.0005   -0.1239   -0.0005   -0.0795
          21    0.0705    0.0039   -0.1167   -0.0007    0.0000   -0.0450   -0.0001   -0.0937
          22    0.1774    0.0104   -0.3253   -0.0017    0.0000    0.0481    0.0004   -0.0824
          23    0.1115    0.0034    0.2603    0.0023    0.0018    0.4145    0.0013   -0.2415
          24   -0.1522   -0.0105    0.4477    0.0025   -0.0005   -0.1914   -0.0010    0.1527
          25    0.1187    0.0082   -0.3181   -0.0024    0.0007    0.2229    0.0011   -0.0207
          26    0.0702    0.0010    0.2729    0.0015    0.0005    0.3295    0.0011   -0.0408
          27    0.1333    0.0086   -0.3437   -0.0023    0.0005    0.0752    0.0007   -0.2153
          28    0.1050    0.0032    0.1634    0.0007   -0.0003    0.0512    0.0002   -0.2026
          29   -0.1367   -0.0051   -0.1122   -0.0006   -0.0003   -0.1025   -0.0008    0.0494
          30    0.0085    0.0013   -0.0502   -0.0006   -0.0007   -0.0242    0.0007   -0.0879
          31   -0.4288   -0.0155   -0.1884   -0.0003    0.0010    0.2686    0.0006    0.1770
          32   -0.3877   -0.0138   -0.3023   -0.0012    0.0002   -0.0318   -0.0008    0.2373
          33   -0.0486   -0.0018   -0.0251   -0.0007   -0.0013    0.0013    0.0007    0.0685
          34    0.0036   -0.0874   -0.0010    0.0060   -0.0615    0.0007   -0.0638    0.0000
          35    0.0040   -0.0908   -0.0010    0.0106    0.0381   -0.0004    0.1879    0.0000
          36    0.0007   -0.0272    0.0009   -0.0199    0.1537   -0.0006   -0.0437    0.0009
          37    0.0027   -0.0689   -0.0011    0.0508   -0.0707    0.0005   -0.0419    0.0005
          38    0.0018   -0.0423   -0.0004    0.0288   -0.0201    0.0001    0.0214    0.0000
          39    0.0009   -0.0267    0.0012   -0.1958    0.2151   -0.0001   -0.0792   -0.0001
          40   -0.0013    0.0211   -0.0002    0.0370    0.0141    0.0000   -0.0678    0.0002
          41    0.0033   -0.0776   -0.0007    0.0377    0.0030    0.0002   -0.0297   -0.0002
          42    0.0001   -0.0071    0.0012   -0.2445   -0.1752    0.0009    0.0491   -0.0000
          43    0.0002   -0.0139   -0.0005    0.0321   -0.0284    0.0008   -0.2294    0.0003
          44    0.0066   -0.1546   -0.0016    0.0371   -0.0166    0.0006   -0.1151   -0.0003
          45    0.0006   -0.0218    0.0014   -0.1945   -0.2501    0.0003    0.0055   -0.0057
          46    0.0000   -0.0081   -0.0004    0.0016   -0.0619    0.0011   -0.2590    0.0000
          47    0.0062   -0.1481   -0.0015    0.0176    0.0619   -0.0005    0.1545    0.0001
          48    0.0001   -0.0115    0.0011   -0.0348   -0.1324   -0.0003   -0.0073   -0.0041
          49    0.0043   -0.1090   -0.0011   -0.0464   -0.0922    0.0010   -0.2169   -0.0017
          50    0.0032   -0.0763   -0.0007   -0.0252    0.0233   -0.0003    0.1081   -0.0009
          51    0.0001   -0.0148    0.0001    0.1900    0.0243   -0.0004   -0.0637    0.0025
          52    0.0068   -0.1417   -0.0000    0.0761    0.1658   -0.0025    0.4075    0.0001
          53    0.0028   -0.0780   -0.0017   -0.0244    0.0071    0.0012   -0.1171    0.0008
          54    0.0027   -0.0619    0.0006   -0.0307   -0.0984    0.0007    0.1317    0.0001
          55    0.0117   -0.3184   -0.0031   -0.0020    0.0062    0.0003    0.1373    0.0000
          56    0.0021   -0.0376    0.0002   -0.0272   -0.1538    0.0014   -0.3280   -0.0023
          57    0.0031   -0.0686   -0.0021    0.1523    0.1664   -0.0001   -0.0734    0.0024
          58   -0.0198    0.4867    0.0058    0.0053   -0.0478   -0.0006   -0.1315    0.0002
          59   -0.0066    0.1767    0.0026    0.0233    0.0999   -0.0021    0.3501    0.0005
          60   -0.0043    0.1148    0.0010   -0.0243    0.0727    0.0000    0.0179    0.0018
          61    0.0005   -0.0154   -0.0008    0.0142   -0.0708    0.0005   -0.0746    0.0010
          62   -0.0001   -0.0011    0.0001    0.0191   -0.0311    0.0001   -0.0242    0.0005
          63    0.0002   -0.0068    0.0004   -0.0712    0.2043    0.0002   -0.1048    0.0005
          64   -0.0007    0.0129   -0.0010    0.0561   -0.1473    0.0007   -0.0460    0.0013
          65    0.0068   -0.1481   -0.0013    0.1659   -0.1529    0.0008   -0.0952   -0.0003
          66   -0.0070    0.1640   -0.0009    0.3137   -0.3555    0.0000    0.1929   -0.0005
          67   -0.0090    0.2037   -0.0004    0.2005   -0.1071   -0.0014    0.2172   -0.0013
          68   -0.0083    0.1754    0.0032   -0.1923   -0.0033   -0.0003    0.0124   -0.0006
          69   -0.0053    0.1135    0.0021   -0.1566    0.2510   -0.0003   -0.0577   -0.0005
          70    0.0033   -0.0851    0.0011   -0.3301    0.3783   -0.0015    0.0128   -0.0011
          71   -0.0102    0.2265    0.0015   -0.0198    0.1151    0.0002   -0.1480    0.0008
          72    0.0088   -0.1984   -0.0018    0.1210   -0.1254    0.0013   -0.0453    0.0019
          73   -0.0013    0.0201   -0.0002    0.0063    0.0155   -0.0000   -0.0430   -0.0005
          74    0.0004   -0.0100   -0.0001    0.0123    0.0191   -0.0002    0.0173   -0.0002
          75   -0.0000    0.0029   -0.0001   -0.0835   -0.1420    0.0009    0.0697    0.0033
          76   -0.0135    0.2821    0.0017   -0.0933    0.0205   -0.0011    0.1908    0.0007
          77    0.0049   -0.1073   -0.0005   -0.0241   -0.0494    0.0006   -0.0454    0.0006
          78   -0.0018    0.0488   -0.0021    0.3955    0.3037   -0.0019   -0.0982   -0.0043
          79    0.0047   -0.1148   -0.0025    0.1924    0.0633   -0.0008    0.1331    0.0016
          80   -0.0082    0.1874    0.0002    0.2562    0.2382   -0.0017   -0.0541   -0.0035
          81   -0.0078    0.1802    0.0009   -0.0099   -0.0455    0.0004   -0.0323    0.0012
          82    0.0031   -0.0903    0.0006   -0.2098    0.0237   -0.0008    0.0833   -0.0028
          83   -0.0089    0.1976    0.0029   -0.3024   -0.1856    0.0005    0.1036    0.0022
          84    0.0075   -0.1723   -0.0010   -0.1007   -0.0674    0.0001    0.1365    0.0014
          85   -0.0029    0.0133    0.0051    0.0057    0.0005   -0.0012   -0.0039    0.0002
          86    0.0007   -0.0015   -0.0029    0.0101    0.0033    0.0004    0.0072    0.0006
          87   -0.0002   -0.0051    0.0010    0.0063    0.0024    0.0003    0.0026    0.0012
          88    0.0030    0.0039   -0.0097   -0.0031    0.0007    0.0007   -0.0013   -0.0001
          89   -0.0035    0.0075    0.0080   -0.0068   -0.0006   -0.0005   -0.0052   -0.0004
          90   -0.0003   -0.0036    0.0016    0.0009    0.0011    0.0005    0.0037    0.0008
          91   -0.0019    0.0075    0.0027    0.0012    0.0019   -0.0004   -0.0025    0.0008
          92    0.0009    0.0015   -0.0032    0.0039    0.0034    0.0012    0.0030    0.0004
          93    0.0006    0.0005   -0.0016   -0.0122   -0.0030    0.0005   -0.0055   -0.0007


   Root No.      41        42        43        44        45        46        47        48

                41 A      42 A      43 A      44 A      45 A      46 A      47 A      48 A   

                   1.5       1.5       1.6       1.8       1.9       1.9       2.0       2.1
  
           1   -0.0015   -0.0002   -0.0001   -0.2247   -0.0074    0.0638    0.0003   -0.0010
           2   -0.0005   -0.0001   -0.0003   -0.1638    0.0044   -0.0528   -0.0006   -0.0004
           3   -0.0014   -0.0005    0.0004    0.1285   -0.0438    0.4361    0.0024    0.0003
           4   -0.0019   -0.0003   -0.0002   -0.3471   -0.0119    0.1031    0.0005   -0.0013
           5    0.0042    0.0019    0.0005    0.0593   -0.0077    0.0729    0.0008    0.0000
           6    0.0019    0.0005   -0.0003   -0.0514    0.0157   -0.1546   -0.0020   -0.0006
           7    0.0026    0.0009    0.0002    0.0399   -0.0016    0.0192    0.0006    0.0003
           8   -0.0027   -0.0005   -0.0000    0.1234    0.0063   -0.0581   -0.0003    0.0003
           9   -0.0010    0.0002    0.0001   -0.0322    0.0145   -0.1482   -0.0008   -0.0018
          10    0.0034    0.0013    0.0003    0.0660    0.0015   -0.0103    0.0004    0.0000
          11    0.0022    0.0013    0.0005    0.2417    0.0025   -0.0225    0.0003    0.0005
          12   -0.0009    0.0004    0.0004   -0.0342   -0.0089    0.0793    0.0007   -0.0003
          13   -0.0021   -0.0006    0.0000    0.2186    0.0066   -0.0520   -0.0002   -0.0003
          14   -0.0046   -0.0011   -0.0000    0.2185    0.0035   -0.0283   -0.0000    0.0004
          15   -0.0004    0.0008    0.0006   -0.0153   -0.0083    0.0716    0.0016   -0.0003
          16   -0.0032   -0.0010   -0.0000   -0.0309    0.0056   -0.0584   -0.0005   -0.0005
          17    0.0002    0.0006    0.0004    0.4384    0.0079   -0.0633    0.0003    0.0013
          18    0.0030    0.0001   -0.0007   -0.0204    0.0270   -0.2588   -0.0028   -0.0006
          19    0.0011    0.0008    0.0002   -0.0127   -0.0029    0.0303    0.0005   -0.0005
          20   -0.0012   -0.0003   -0.0001    0.0165    0.0026   -0.0271   -0.0003    0.0003
          21   -0.0010   -0.0003   -0.0002    0.0001    0.0197   -0.1934   -0.0018   -0.0013
          22   -0.0009    0.0001   -0.0000   -0.0321    0.0171   -0.1654   -0.0013   -0.0013
          23   -0.0034   -0.0003    0.0002   -0.0977   -0.0172    0.1601    0.0011   -0.0003
          24    0.0008    0.0006    0.0001    0.0278   -0.0018    0.0181    0.0005    0.0015
          25    0.0006    0.0003    0.0004   -0.0332   -0.0161    0.1557    0.0015   -0.0010
          26    0.0008    0.0001   -0.0004   -0.1305    0.0150   -0.1532   -0.0015    0.0000
          27   -0.0016   -0.0006   -0.0002   -0.0037    0.0209   -0.2088   -0.0016   -0.0022
          28   -0.0026   -0.0004    0.0002    0.0343    0.0048   -0.0500   -0.0001   -0.0003
          29    0.0002    0.0000   -0.0005   -0.3496   -0.0023    0.0077   -0.0004   -0.0009
          30   -0.0001   -0.0004    0.0005    0.1106   -0.0610    0.6019    0.0033    0.0010
          31    0.0020    0.0015    0.0010    0.3216    0.0043   -0.0366    0.0005    0.0005
          32    0.0022    0.0009   -0.0002   -0.3570   -0.0184    0.1650    0.0009   -0.0009
          33    0.0036    0.0003   -0.0007   -0.1095    0.0246   -0.2447   -0.0033   -0.0006
          34    0.0156   -0.0539   -0.0783   -0.0007    0.2514    0.0256   -0.0566   -0.0087
          35    0.0092    0.0372   -0.1242   -0.0005    0.1614    0.0173   -0.0329    0.0240
          36   -0.1116   -0.0002   -0.0159   -0.0004   -0.0086   -0.0040    0.4205   -0.0213
          37   -0.0217   -0.0744   -0.0735   -0.0005    0.2093    0.0216   -0.0442    0.0057
          38   -0.0007    0.0030    0.0189    0.0003   -0.0647   -0.0059   -0.0647    0.0248
          39    0.0132   -0.0200   -0.0161   -0.0003   -0.0289   -0.0055    0.3722   -0.0522
          40   -0.0186   -0.0055   -0.0365   -0.0005    0.1860    0.0195   -0.0109    0.0263
          41    0.0078   -0.0112    0.0827    0.0004   -0.0844   -0.0084   -0.0440    0.0054
          42    0.0353   -0.0073   -0.0061   -0.0002    0.0024   -0.0006    0.1710   -0.0439
          43   -0.0994    0.1549    0.0573   -0.0001    0.0043    0.0006    0.0089    0.0099
          44   -0.0538    0.1591    0.1175    0.0007   -0.2257   -0.0231   -0.0268   -0.0086
          45    0.5034    0.0265   -0.0248    0.0004   -0.0166   -0.0002   -0.0488   -0.0203
          46   -0.0683    0.1521    0.0769   -0.0000   -0.0075   -0.0007    0.0528   -0.0009
          47   -0.0448    0.0830   -0.0772    0.0001   -0.0070   -0.0012    0.0500   -0.0215
          48    0.3292    0.0248   -0.0218    0.0002    0.0375    0.0056   -0.2441    0.0444
          49    0.0595    0.0810    0.0085    0.0000    0.0653    0.0061    0.0516   -0.0344
          50    0.0450    0.0955   -0.0633    0.0000    0.0120    0.0015    0.0248    0.0021
          51   -0.2453    0.0510    0.0373   -0.0002    0.0263    0.0026   -0.1262    0.0249
          52   -0.0119    0.1771   -0.1188   -0.0004    0.0888    0.0095    0.0329    0.0284
          53   -0.0575   -0.1199   -0.1689   -0.0011    0.3776    0.0383    0.0699    0.0138
          54    0.0974    0.0172   -0.0793   -0.0001    0.1341    0.0156   -0.1442    0.0097
          55    0.0738   -0.0704    0.1321    0.0008   -0.2107   -0.0210   -0.0481   -0.0072
          56    0.0542    0.3500    0.1219    0.0008   -0.2399   -0.0241   -0.0407   -0.0135
          57   -0.2652    0.0506    0.0728    0.0001   -0.0857   -0.0095    0.0189    0.0022
          58    0.0349   -0.1622    0.1381   -0.0001   -0.0627   -0.0063   -0.0482    0.0091
          59    0.0354   -0.1422   -0.0924    0.0002   -0.0578   -0.0066   -0.0226   -0.0294
          60   -0.1457   -0.0474    0.0241    0.0001   -0.0470   -0.0058    0.1340   -0.0264
          61   -0.0292   -0.2622   -0.1970    0.0008   -0.1080   -0.0114    0.0731   -0.0204
          62   -0.0095   -0.1233   -0.0662    0.0011   -0.2125   -0.0210   -0.0504    0.0188
          63   -0.0001   -0.0795   -0.0415    0.0003    0.0055    0.0027   -0.2781    0.0255
          64   -0.0371   -0.3205   -0.2552    0.0010   -0.1714   -0.0183    0.1676   -0.0349
          65   -0.0124    0.0082   -0.0218   -0.0009    0.2580    0.0254    0.0277   -0.0140
          66    0.0108    0.1547    0.0980   -0.0005    0.0190    0.0007    0.1663   -0.0121
          67    0.0293    0.2636    0.1871   -0.0005    0.0263    0.0029   -0.0488    0.0183
          68   -0.0015    0.0780    0.0226   -0.0007    0.0632    0.0036    0.3427   -0.0420
          69    0.0165    0.1060    0.0698   -0.0009    0.2218    0.0238   -0.2109    0.0082
          70    0.0215    0.1146    0.1042    0.0001   -0.0721   -0.0065   -0.1436    0.0279
          71   -0.0153   -0.2169   -0.1623    0.0010   -0.0599   -0.0041   -0.2839    0.0277
          72   -0.0235   -0.2581   -0.1700    0.0015   -0.2564   -0.0247   -0.0744    0.0192
          73    0.0336    0.0160   -0.0582   -0.0005    0.1559    0.0164    0.0327    0.0164
          74    0.0581   -0.2204    0.3428   -0.0006    0.0890    0.0086    0.0374   -0.0006
          75   -0.2866   -0.0238    0.0562   -0.0002    0.0461    0.0050   -0.1136    0.0319
          76   -0.0151   -0.1586    0.2839   -0.0001   -0.0454   -0.0050    0.0007   -0.0071
          77   -0.0057   -0.2174    0.3388   -0.0011    0.2390    0.0243    0.0338    0.0218
          78    0.3207   -0.0405    0.0437   -0.0002    0.0072    0.0001    0.0925   -0.0187
          79   -0.1637    0.0460   -0.0198    0.0007   -0.1467   -0.0145   -0.1289    0.0153
          80    0.2449    0.1026   -0.1275    0.0006   -0.1366   -0.0144    0.0667   -0.0313
          81   -0.1690    0.2050   -0.3309    0.0001    0.0464    0.0055   -0.0866    0.0316
          82    0.2098    0.1106   -0.1586    0.0006   -0.1545   -0.0163    0.1092   -0.0401
          83   -0.2431    0.1342   -0.1427    0.0005   -0.1064   -0.0108   -0.0897    0.0089
          84   -0.0871   -0.1634    0.3068    0.0000   -0.1033   -0.0112   -0.0492   -0.0037
          85   -0.0160   -0.0048    0.0042    0.0013    0.0057    0.0018   -0.0397   -0.2932
          86   -0.0147    0.0046    0.0025    0.0005    0.0106    0.0016   -0.0320   -0.2682
          87   -0.0169    0.0034    0.0010    0.0013    0.0169    0.0034   -0.0550   -0.4502
          88    0.0094   -0.0014    0.0012   -0.0019   -0.0115   -0.0032    0.0382    0.2869
          89    0.0136   -0.0063   -0.0027   -0.0002   -0.0151   -0.0012    0.0423    0.3612
          90   -0.0040    0.0026   -0.0004    0.0005    0.0069    0.0017   -0.0158   -0.1514
          91   -0.0038   -0.0045    0.0005    0.0005   -0.0022   -0.0003   -0.0006    0.0081
          92   -0.0065   -0.0000    0.0014   -0.0003    0.0027    0.0002   -0.0080   -0.0798
          93    0.0258   -0.0026   -0.0027   -0.0017   -0.0224   -0.0035    0.0752    0.6076


   Root No.      49        50        51        52        53        54        55        56

[...]
 REDUCED MASS        0.3047         C 21 -- H 22          +5.2% ( 19.4%)      0.0%
 EFFECTIVE MASS      1.3738
 FORCE CONSTANT      0.2786

 VIBRATION         54   54A           ATOM PAIR      ENERGY CONTRIBUTION    RADIAL
 FREQUENCY          1249.14         C  7 -- H  9         +43.6% ( 90.1%)      0.7%
 TRANSITION DIPOLE   0.6399         C  1 -- C  7         +18.8% ( 59.1%)     95.7%
 TRAVEL (Ang.)       0.1635         C  7 -- H  8         +16.1% ( 54.7%)      0.4%
 REDUCED MASS        2.0206         N  3 -- C  7         +15.5% ( 53.7%)     42.1%
 EFFECTIVE MASS      5.7679
 FORCE CONSTANT      1.8576

 VIBRATION         55   55A           ATOM PAIR      ENERGY CONTRIBUTION    RADIAL
 FREQUENCY          1252.83         C 21 -- H 22         +39.1% ( 53.4%)      0.0%
 TRANSITION DIPOLE   0.5513         C 21 -- H 23         +23.5% ( 41.4%)      7.1%
 TRAVEL (Ang.)       0.4431         C 21 -- H 24         +17.9% ( 36.2%)      4.2%
 REDUCED MASS        0.2741         C 25 -- H 27          +5.5% ( 20.0%)      0.2%
 EFFECTIVE MASS      1.4223
 FORCE CONSTANT      0.2535

 VIBRATION         56   56A           ATOM PAIR      ENERGY CONTRIBUTION    RADIAL
 FREQUENCY          1271.63         C 13 -- C 21         +14.0% ( 55.7%)     94.5%
 TRANSITION DIPOLE   0.6591         C 16 -- H 20         +13.4% ( 54.5%)      0.2%
 TRAVEL (Ang.)       0.2246         C 14 -- C 25         +12.5% ( 52.6%)     99.6%
 REDUCED MASS        1.0514         C 13 -- C 14         +11.3% ( 50.0%)      6.2%
 EFFECTIVE MASS      8.4725         C 12 -- C 13         +10.7% ( 48.6%)     38.2%
 FORCE CONSTANT      1.0017

 VIBRATION         57   57A           ATOM PAIR      ENERGY CONTRIBUTION    RADIAL
 FREQUENCY          1313.11         C 12 -- H 18         +21.9% ( 62.0%)      0.5%
 TRANSITION DIPOLE   2.0973         C 15 -- H 19         +13.1% ( 48.0%)      0.4%
 TRAVEL (Ang.)       0.3019         C 15 -- C 16          +9.8% ( 41.5%)     99.9%
 REDUCED MASS        0.5633         C 14 -- C 25          +9.6% ( 41.1%)     57.2%
 EFFECTIVE MASS      5.3367
 FORCE CONSTANT      0.5722

 VIBRATION         58   58A           ATOM PAIR      ENERGY CONTRIBUTION    RADIAL
 FREQUENCY          1329.30         C  1 -- H  2         +77.8% ( 87.5%)      0.8%
 TRANSITION DIPOLE   0.2529         H  6 -- C 10          +9.8% ( 31.1%)     12.0%
 TRAVEL (Ang.)       0.2790         C  1 -- C 10          +3.8% ( 19.2%)      0.5%
 REDUCED MASS        0.6518         C 10 -- H 11          +2.6% ( 15.9%)     99.8%
 EFFECTIVE MASS      1.6569
 FORCE CONSTANT      0.6786

 VIBRATION         59   59A           ATOM PAIR      ENERGY CONTRIBUTION    RADIAL
 FREQUENCY          1359.07         C 25 -- H 26         +33.0% ( 58.5%)      0.9%
 TRANSITION DIPOLE   0.7413         C 25 -- H 27         +18.9% ( 44.3%)      1.7%
 TRAVEL (Ang.)       0.4029         C 25 -- H 28         +18.6% ( 43.9%)      1.8%
 REDUCED MASS        0.3057         C 14 -- C 25          +5.2% ( 23.3%)     87.9%
 EFFECTIVE MASS      2.3041
 FORCE CONSTANT      0.3326

 VIBRATION         60   60A           ATOM PAIR      ENERGY CONTRIBUTION    RADIAL
 FREQUENCY          1359.88         C 15 -- C 16         +14.5% ( 51.5%)     89.3%
 TRANSITION DIPOLE   0.9988         C 15 -- H 19         +11.8% ( 46.5%)      5.5%
 TRAVEL (Ang.)       0.2785         C 14 -- C 15          +7.7% ( 37.5%)      0.1%
 REDUCED MASS        0.6395         C 21 -- H 22          +7.1% ( 35.9%)      1.9%
 EFFECTIVE MASS      7.3495
 FORCE CONSTANT      0.6968

 VIBRATION         61   61A           ATOM PAIR      ENERGY CONTRIBUTION    RADIAL
 FREQUENCY          1366.07         C 10 -- H 11         +40.4% ( 62.6%)      0.2%
 TRANSITION DIPOLE   0.4856         H  6 -- C 10         +31.2% ( 55.0%)      2.8%
 TRAVEL (Ang.)       0.3464         C  1 -- H  2         +13.6% ( 36.3%)      0.3%
 REDUCED MASS        0.4113         C  1 -- C  7          +7.4% ( 26.7%)     83.9%
 EFFECTIVE MASS      2.0303
 FORCE CONSTANT      0.4522

 VIBRATION         62   62A           ATOM PAIR      ENERGY CONTRIBUTION    RADIAL
 FREQUENCY          1367.34         C 21 -- H 24         +16.6% ( 49.6%)      0.7%
 TRANSITION DIPOLE   1.1823         C 15 -- C 16         +11.5% ( 41.2%)     96.4%
 TRAVEL (Ang.)       0.3500         C 21 -- H 22         +11.3% ( 40.9%)      4.2%
 REDUCED MASS        0.4025         C 21 -- H 23          +9.4% ( 37.3%)      1.1%
 EFFECTIVE MASS      4.7805
 FORCE CONSTANT      0.4434

 VIBRATION         63   63A           ATOM PAIR      ENERGY CONTRIBUTION    RADIAL
 FREQUENCY          1399.79         C 13 -- C 14         +13.5% ( 45.6%)     79.4%
 TRANSITION DIPOLE   0.5492         C 12 -- C 13         +12.8% ( 44.5%)     99.0%
 TRAVEL (Ang.)       0.2546         C 16 -- N 17         +10.8% ( 40.9%)     99.4%
 REDUCED MASS        0.7433         C 14 -- C 15          +9.8% ( 38.9%)     99.8%
 EFFECTIVE MASS      6.9673
 FORCE CONSTANT      0.8581

 VIBRATION         64   64A           ATOM PAIR      ENERGY CONTRIBUTION    RADIAL
 FREQUENCY          1420.00         H 29 -- O 30         +26.2% ( 47.9%)      8.0%
 TRANSITION DIPOLE   1.5773         O 30 -- H 31         +24.7% ( 46.6%)      8.7%
 TRAVEL (Ang.)       0.3610         C 12 -- C 13          +8.5% ( 27.3%)     99.9%
 REDUCED MASS        0.3644         C 12 -- H 18          +7.7% ( 26.0%)     10.6%
 EFFECTIVE MASS      3.0375
 FORCE CONSTANT      0.4329

 VIBRATION         65   65A           ATOM PAIR      ENERGY CONTRIBUTION    RADIAL
 FREQUENCY          1495.54         C 12 -- N 17         +17.0% ( 56.5%)     83.3%
 TRANSITION DIPOLE   0.7252         C 13 -- C 14         +14.5% ( 52.2%)      3.3%
 TRAVEL (Ang.)       0.1546         C 12 -- C 13         +12.9% ( 49.2%)     92.9%
 REDUCED MASS        1.8872         C 16 -- N 17         +11.3% ( 46.1%)      8.9%
 EFFECTIVE MASS     10.8646
 FORCE CONSTANT      2.4869

 VIBRATION         66   66A           ATOM PAIR      ENERGY CONTRIBUTION    RADIAL
 FREQUENCY          1503.66         N  3 -- O  5         +34.0% ( 79.4%)     70.5%
 TRANSITION DIPOLE   4.6079         N  3 -- O  4         +30.0% ( 74.5%)     61.5%
 TRAVEL (Ang.)       0.0939         O  4 -- O  5         +18.8% ( 59.1%)     99.9%
 REDUCED MASS        5.0857         N  3 -- C  7         +15.5% ( 53.6%)    100.0%
 EFFECTIVE MASS     14.8458
 FORCE CONSTANT      6.7748

 VIBRATION         67   67A           ATOM PAIR      ENERGY CONTRIBUTION    RADIAL
 FREQUENCY          1579.87         C 13 -- C 14         +19.2% ( 60.3%)     95.5%
 TRANSITION DIPOLE   1.7839         C 14 -- C 15         +14.7% ( 52.7%)     49.4%
 TRAVEL (Ang.)       0.1598         C 12 -- C 13         +10.0% ( 43.5%)     15.1%
 REDUCED MASS        1.6710         C 14 -- C 25          +9.5% ( 42.5%)     97.5%
 EFFECTIVE MASS     10.1044
 FORCE CONSTANT      2.4574

 VIBRATION         68   68A           ATOM PAIR      ENERGY CONTRIBUTION    RADIAL
 FREQUENCY          1658.03         C 15 -- C 16         +17.8% ( 59.2%)     97.0%
 TRANSITION DIPOLE   3.8277         C 12 -- C 13         +15.8% ( 55.9%)     98.9%
 TRAVEL (Ang.)       0.1300         C 16 -- N 17         +12.5% ( 49.8%)     69.8%
 REDUCED MASS        2.4048         C 13 -- C 14         +11.4% ( 47.5%)     62.6%
 EFFECTIVE MASS     11.9245
 FORCE CONSTANT      3.8951

 VIBRATION         69   69A           ATOM PAIR      ENERGY CONTRIBUTION    RADIAL
 FREQUENCY          1663.07         N  3 -- O  4         +37.0% ( 86.5%)     91.0%
 TRANSITION DIPOLE  11.7228         N  3 -- O  5         +34.3% ( 83.2%)     86.5%
 TRAVEL (Ang.)       0.0772         N  3 -- C  7         +21.6% ( 66.0%)      0.3%
 REDUCED MASS        6.7965         O  4 -- O  5          +6.4% ( 35.8%)      0.9%
 EFFECTIVE MASS     14.5459
 FORCE CONSTANT     11.0753

 VIBRATION         70   70A           ATOM PAIR      ENERGY CONTRIBUTION    RADIAL
 FREQUENCY          1675.07         C 14 -- C 15         +18.0% ( 58.2%)     94.6%
 TRANSITION DIPOLE   1.1035         C 13 -- C 14         +16.2% ( 55.1%)     71.2%
 TRAVEL (Ang.)       0.1281         C 12 -- N 17         +15.7% ( 54.3%)     96.4%
 REDUCED MASS        2.4513         C 16 -- N 17         +10.8% ( 44.9%)     76.3%
 EFFECTIVE MASS     12.2751
 FORCE CONSTANT      4.0525

 VIBRATION         71   71A           ATOM PAIR      ENERGY CONTRIBUTION    RADIAL
 FREQUENCY          1842.04         C  1 -- C 10         +46.2% ( 99.3%)     99.8%
 TRANSITION DIPOLE   0.1906         C  1 -- C  7         +15.7% ( 57.8%)     42.3%
 TRAVEL (Ang.)       0.0814         C  1 -- H  2         +14.9% ( 56.4%)     11.0%
 REDUCED MASS        5.5206         C 10 -- H 11         +11.2% ( 48.9%)     18.7%
 EFFECTIVE MASS     11.8021         H  6 -- C 10         +11.2% ( 48.9%)     18.8%
 FORCE CONSTANT     11.0366

 VIBRATION         72   72A           ATOM PAIR      ENERGY CONTRIBUTION    RADIAL
 FREQUENCY          1919.83         C  7 -- H  8         +88.9% ( 98.8%)    100.0%
 TRANSITION DIPOLE   1.1376         C  7 -- H  9          +3.2% ( 18.9%)     18.1%
 TRAVEL (Ang.)       0.1453         C  1 -- C  7          +3.0% ( 18.2%)      3.5%
 REDUCED MASS        1.6633         N  3 -- C  7          +2.8% ( 17.5%)      1.4%
 EFFECTIVE MASS      2.9878
 FORCE CONSTANT      3.6119

 VIBRATION         73   73A           ATOM PAIR      ENERGY CONTRIBUTION    RADIAL
 FREQUENCY          2608.93         C  7 -- H  9         +97.8% ( 99.3%)     99.9%
 TRANSITION DIPOLE   1.2492         C  7 -- H  8          +0.6% (  7.9%)      0.0%
 TRAVEL (Ang.)       0.1675         N  3 -- C  7          +0.6% (  7.8%)      0.7%
 REDUCED MASS        0.9214         C  1 -- C  7          +0.6% (  7.6%)      6.3%
 EFFECTIVE MASS      1.3146
 FORCE CONSTANT      3.6950

 VIBRATION         74   74A           ATOM PAIR      ENERGY CONTRIBUTION    RADIAL
 FREQUENCY          2631.00         C 21 -- H 24         +49.9% ( 73.4%)     99.0%
 TRANSITION DIPOLE   2.6310         C 21 -- H 23         +29.6% ( 56.6%)     95.9%
 TRAVEL (Ang.)       0.2620         C 12 -- H 18         +17.1% ( 43.0%)     99.8%
 REDUCED MASS        0.3733         C 21 -- H 22          +1.5% ( 12.7%)     25.8%
 EFFECTIVE MASS      1.4331
 FORCE CONSTANT      1.5226

 VIBRATION         75   75A           ATOM PAIR      ENERGY CONTRIBUTION    RADIAL
 FREQUENCY          2638.87         C 25 -- H 28         +63.5% ( 82.2%)     99.3%
 TRANSITION DIPOLE   1.0512         C 25 -- H 27         +29.7% ( 56.3%)     94.1%
 TRAVEL (Ang.)       0.2245         C 25 -- H 26          +5.2% ( 23.6%)     60.7%
 REDUCED MASS        0.5069         C 14 -- C 25          +0.8% (  9.3%)      0.1%
 EFFECTIVE MASS      1.4306
 FORCE CONSTANT      2.0798

 VIBRATION         76   76A           ATOM PAIR      ENERGY CONTRIBUTION    RADIAL
 FREQUENCY          2648.79         C 21 -- H 22         +49.8% ( 72.8%)     99.0%
 TRANSITION DIPOLE   1.4123         C 21 -- H 23         +34.2% ( 60.4%)     95.4%
 TRAVEL (Ang.)       0.2572         C 21 -- H 24          +7.2% ( 27.7%)     70.0%
 REDUCED MASS        0.3848         C 25 -- H 27          +3.0% ( 17.9%)     98.5%
 EFFECTIVE MASS      1.4371
 FORCE CONSTANT      1.5906

 VIBRATION         77   77A           ATOM PAIR      ENERGY CONTRIBUTION    RADIAL
 FREQUENCY          2651.03         C 25 -- H 26         +55.2% ( 76.7%)     99.2%
 TRANSITION DIPOLE   1.1520         C 25 -- H 27         +34.1% ( 60.3%)     95.4%
 TRAVEL (Ang.)       0.2409         C 25 -- H 28          +5.3% ( 23.8%)     60.3%
 REDUCED MASS        0.4385         C 21 -- H 22          +2.4% ( 16.1%)     99.1%
 EFFECTIVE MASS      1.4440
 FORCE CONSTANT      1.8156

 VIBRATION         78   78A           ATOM PAIR      ENERGY CONTRIBUTION    RADIAL
 FREQUENCY          2689.67         H  6 -- C 10         +45.9% ( 69.8%)     98.8%
 TRANSITION DIPOLE   0.6244         C 10 -- H 11         +40.0% ( 65.2%)     98.3%
 TRAVEL (Ang.)       0.2517         C  1 -- H  2         +12.8% ( 36.9%)     99.8%
 REDUCED MASS        0.3957         C  1 -- C 10          +1.1% ( 10.6%)      5.0%
 EFFECTIVE MASS      1.4562
 FORCE CONSTANT      1.6867

 VIBRATION         79   79A           ATOM PAIR      ENERGY CONTRIBUTION    RADIAL
 FREQUENCY          2693.58         H 29 -- O 30         +51.2% ( 73.7%)     96.8%
 TRANSITION DIPOLE   1.6039         O 30 -- H 31         +48.0% ( 71.3%)     96.4%
 TRAVEL (Ang.)       0.2216         C 12 -- H 18          +0.3% (  5.2%)     99.3%
 REDUCED MASS        0.5097         C 21 -- H 22          +0.2% (  4.1%)     96.9%
 EFFECTIVE MASS      1.4863
 FORCE CONSTANT      2.1787

 VIBRATION         80   80A           ATOM PAIR      ENERGY CONTRIBUTION    RADIAL
 FREQUENCY          2713.26         C 16 -- H 20         +93.5% ( 97.6%)    100.0%
 TRANSITION DIPOLE   1.3707         C 12 -- H 18          +1.3% ( 11.4%)     98.5%
 TRAVEL (Ang.)       0.1711         C 21 -- H 22          +1.1% ( 10.8%)     98.1%
 REDUCED MASS        0.8493         C 15 -- C 16          +1.1% ( 10.4%)     20.9%
 EFFECTIVE MASS      1.3851
 FORCE CONSTANT      3.6840

 VIBRATION         81   81A           ATOM PAIR      ENERGY CONTRIBUTION    RADIAL
 FREQUENCY          2723.07         C 12 -- H 18         +57.3% ( 75.8%)     99.8%
 TRANSITION DIPOLE   1.0053         C 21 -- H 22         +20.4% ( 45.3%)     97.7%
 TRAVEL (Ang.)       0.2564         C 21 -- H 23         +13.4% ( 36.7%)     94.6%
 REDUCED MASS        0.3766         C 15 -- H 19          +3.6% ( 19.0%)    100.0%
 EFFECTIVE MASS      1.3401
 FORCE CONSTANT      1.6453

 VIBRATION         82   82A           ATOM PAIR      ENERGY CONTRIBUTION    RADIAL
 FREQUENCY          2726.60         C  1 -- H  2         +84.2% ( 92.7%)    100.0%
 TRANSITION DIPOLE   1.2613         H  6 -- C 10          +7.0% ( 26.7%)     98.9%
 TRAVEL (Ang.)       0.1875         C 10 -- H 11          +6.5% ( 25.8%)     97.7%
 REDUCED MASS        0.7036         C  1 -- C 10          +1.1% ( 10.4%)     71.8%
 EFFECTIVE MASS      1.4293
 FORCE CONSTANT      3.0820

 VIBRATION         83   83A           ATOM PAIR      ENERGY CONTRIBUTION    RADIAL
 FREQUENCY          2740.79         C 15 -- H 19         +92.5% ( 97.0%)    100.0%
 TRANSITION DIPOLE   1.1555         C 12 -- H 18          +2.5% ( 16.0%)    100.0%
 TRAVEL (Ang.)       0.1722         C 16 -- H 20          +1.5% ( 12.5%)     97.2%
 REDUCED MASS        0.8299         C 15 -- C 16          +1.1% ( 10.4%)     32.8%
 EFFECTIVE MASS      1.3907
 FORCE CONSTANT      3.6732

 VIBRATION         84   84A           ATOM PAIR      ENERGY CONTRIBUTION    RADIAL
 FREQUENCY          2769.87         C 25 -- H 26         +37.1% ( 58.3%)     96.2%
 TRANSITION DIPOLE   0.7617         C 25 -- H 27         +31.9% ( 54.0%)     95.3%
 TRAVEL (Ang.)       0.2759         C 25 -- H 28         +29.3% ( 51.8%)     94.7%
 REDUCED MASS        0.3198         C 15 -- H 19          +0.8% (  8.8%)     99.2%
 EFFECTIVE MASS      1.1507
 FORCE CONSTANT      1.4457

 VIBRATION         85   85A           ATOM PAIR      ENERGY CONTRIBUTION    RADIAL
 FREQUENCY          2771.75         C 10 -- H 11         +52.7% ( 71.9%)     95.4%
 TRANSITION DIPOLE   1.1320         H  6 -- C 10         +45.9% ( 67.0%)     94.4%
 TRAVEL (Ang.)       0.2238         C  1 -- C 10          +1.3% ( 11.3%)     99.8%
 REDUCED MASS        0.4856
 EFFECTIVE MASS      1.3324
 FORCE CONSTANT      2.1981

 VIBRATION         86   86A           ATOM PAIR      ENERGY CONTRIBUTION    RADIAL
 FREQUENCY          2788.91         C 21 -- H 24         +40.6% ( 61.1%)     97.7%
 TRANSITION DIPOLE   1.1055         C 21 -- H 22         +23.0% ( 46.0%)     94.4%
 TRAVEL (Ang.)       0.2970         C 12 -- H 18         +17.6% ( 40.3%)     99.9%
 REDUCED MASS        0.2741         C 21 -- H 23         +17.5% ( 40.1%)     92.0%
 EFFECTIVE MASS      1.1795
 FORCE CONSTANT      1.2562

 VIBRATION         87   87A           ATOM PAIR      ENERGY CONTRIBUTION    RADIAL
 FREQUENCY          2833.09         O 30 -- H 31         +51.8% ( 69.1%)    100.0%
 TRANSITION DIPOLE   0.9251         H 29 -- O 30         +48.1% ( 66.6%)    100.0%
 TRAVEL (Ang.)       0.2208
 REDUCED MASS        0.4884
 EFFECTIVE MASS      1.1779
 FORCE CONSTANT      2.3095

      SYMMETRY NUMBER FOR POINT-GROUP C1  =  1


          SYSTEM IS A GROUND STATE



 Title: ASE calculation


          MOLECULE IS NOT LINEAR

          THERE ARE 87 GENUINE VIBRATIONS IN THIS SYSTEM
          THIS THERMODYNAMICS CALCULATION IS LIMITED TO
          MOLECULES WHICH HAVE NO INTERNAL ROTATIONS




                    CALCULATED THERMODYNAMIC PROPERTIES
                                          *
   TEMP. (K)   PARTITION FUNCTION   H.O.F.    ENTHALPY  HEAT CAPACITY ENTROPY
                                   KCAL/MOL   CAL/MOLE    CAL/K/MOL  CAL/K/MOL


 298.00  VIB.     0.1238D+11                 10874.1481    60.8293    82.6715
         ROT.     0.6154D+07                   888.2803     2.9808    34.0461
         INT.     0.7618D+17                 11762.4284    63.8101   116.7177
         TRA.     0.3011D+28                  1480.4672     4.9680    41.9732
         TOT.                      -65.794   13242.8956    68.7781   158.6909

   *: NOTE: HEATS OF FORMATION ARE RELATIVE TO THE
            ELEMENTS IN THEIR STANDARD STATE AT 298K
              (=  Standard Enthalpy of Formation).

            Hvib:  Zero-point energy is not included.
                   frequencies of less than zero cm-1 are not included.
            Hrot = (3/2)RT
            Htra = (3/2)RT + pV = (5/2)RT

            Heat capacity is Cp, not Cv

          For more information, see: HTTP://OpenMOPAC.net/Manual/thermochemistry.html


           FORCE CONSTANT IN CARTESIAN COORDINATES (Millidynes/A)

    ATOM   CHEMICAL       X               Y               Z
   NUMBER   SYMBOL  FORCE CONSTANT  FORCE CONSTANT  FORCE CONSTANT

      1       C        9.246340       12.828949        2.561261
      2       H        4.146704        0.957607        0.350890
      3       N       13.526462       11.850353        3.802154
      4       O       11.601461        1.789111        0.638048
      5       O        3.143132        9.621041        1.043291
      6       H        4.132726        0.758523        0.360147
      7       C        6.818643        7.660562        5.659313
      8       H        2.642037        0.896019        1.783454
      9       H        1.150298        0.791475        3.198209
     10       C        8.656460       11.964868        2.282567
     11       H        1.228435        3.636898        0.423413
     12       C       10.209341       10.180035        2.946336
     13       C       10.572578       11.240631        3.032923
     14       C       10.911470       11.092589        3.005155
     15       C       10.597531        9.773883        2.663258
     16       C       10.333298       10.461699        2.940492
     17       N        7.323360       11.972212        1.794631
     18       H        1.728159        3.136548        0.692643
     19       H        1.416235        3.517858        0.538267
     20       H        1.945706        3.047319        0.385291
     21       C        6.638817        7.164712        5.781588
     22       H        4.022893        0.756003        0.570826
     23       H        0.634078        1.316624        3.275172
     24       H        0.964171        2.254909        2.120250
     25       C        7.328123        6.357853        5.839784
     26       H        1.203062        3.573385        0.597922
     27       H        1.022002        1.463862        2.765481
     28       H        1.688909        0.979635        2.564353
     29       H        0.357233        0.521773        4.029901
     30       O        1.851022        2.077023        4.776932
     31       H        1.490550        1.401494        1.969932

 **********************
 *                    *
 * JOB ENDED NORMALLY *
 *                    *
 **********************



 TOTAL JOB TIME:             8.12 SECONDS

 == MOPAC DONE ==
