 *******************************************************************************
 **                                                                           **
 **                              MOPAC v22.0.6                                **
 **                                                                           **
 *******************************************************************************
 **          Digital Object Identifier (DOI): 10.5281/zenodo.6511958          **
 **    Visit the DOI location for information on how to cite this program.    **
 *******************************************************************************

                              PM7 CALCULATION RESULTS

 *******************************************************************************
 *  CALCULATION DONE:                                Sun Mar 24 01:21:48 2024  *
 *  PM7        - The PM7 Hamiltonian to be used
 *  DOUBLET    - SPIN STATE DEFINED AS A DOUBLET
 *
 *
 *
 *                 CHARGE ON SYSTEM = 0
 *
 *
 *
 *  EPS=78.4   - USE ANDREAS KLAMT'S COSMO IMPLICIT SOLVATION MODEL
 *  THREADS    - USE A MAXIMUM OF 30 THREADS
 *  T=         - A TIME OF 14.0 DAYS REQUESTED
 *  DUMP=N     - RESTART FILE WRITTEN EVERY 30.0 MINUTES REQUESTED
 *  RELSCF     - DEFAULT SCF CRITERION MULTIPLIED BY 1.0000
 *              (DEFAULT SCF CRITERION = 0.00010)
 *  ITRY=      - DO A MAXIMUM OF 15000 ITERATIONS FOR SCF
 *  AUX        - OUTPUT AUXILIARY INFORMATION
 *  BONDS      - FINAL BOND-ORDER MATRIX TO BE PRINTED
 *******************************************************************************
PM7 BONDS AUX DUMP=30M ITRY=15000 T=14D THREADS=30 CHARGE=0 DOUBLET eps=78.4 RELSCF=1
 Title: ASE calculation

   ATOM   CHEMICAL          X               Y               Z
  NUMBER   SYMBOL      (ANGSTROMS)     (ANGSTROMS)     (ANGSTROMS)

     1       C          1.17762946  *   0.38912794  *   0.74287844  *
     2       C          1.18091981  *  -0.71111168  *  -0.10953184  *
     3       C          0.43450746  *  -1.86228485  *   0.19162553  *
     4       C         -0.31855112  *  -1.88982147  *   1.37032700  *
     5       C         -0.30518375  *  -0.77952089  *   2.21907976  *
     6       C          0.43422186  *   0.36797806  *   1.91872961  *
     7       H          1.76469217  *   1.27633090  *   0.48840856  *
     8       H          1.77263449  *  -0.67412591  *  -1.02946249  *
     9       H         -0.92217560  *  -2.77023162  *   1.62058226  *
    10       H          0.43249929  *   1.23117352  *   2.59139877  *
    11       N         -1.08105217  *  -0.81969550  *   3.43550669  *
    12       O         -1.19452317  *   0.19994582  *   4.10614818  *
    13       O         -1.60373966  *  -1.87182178  *   3.77923222  *
    14       C          0.44948943     -3.02342433     -0.67996296   
    15       C          0.27549315  *  -4.38499879  *  -0.09032415  *
    16       H          0.70012557  *  -5.17887345  *  -0.72590707  *
    17       H         -0.78902392  *  -4.63638498  *   0.04971307  *
    18       H          0.75540298  *  -4.47685157  *   0.89384007  *
    19       N          0.37472480  *  -2.88735925  *  -2.02657816  *
    20       O          0.33540556  *  -3.89131280  *  -2.77353302  *
    21       O          0.39520904  *  -1.76059360  *  -2.57266698  *
    22       H          2.39485143     -3.30909089  *  -0.76437692  *
    23       C          3.00252961  *  -2.51976220  *   3.93587042  *
    24       N          4.00576874  *  -3.11692400  *   4.62542972  *
    25       C          5.06989014  *  -3.83437978  *   3.91239070  *
    26       C          4.69050108  *  -4.14524127  *   2.45904010  *
    27       N          4.23458816  *  -2.87779069  *   1.78716863  *
    28       C          2.97759532  *  -2.37465402  *   2.45830284  *
    29       H          2.16834027  *  -2.11028442  *   4.48997372  *
    30       H          3.82467765  *  -3.43377901  *   5.57484910  *
    31       H          5.32699486  *  -4.78103742  *   4.44625843  *
    32       H          5.99670636  *  -3.20716649  *   3.94924183  *
    33       H          5.56744262  *  -4.56310788  *   1.90801089  *
    34       H          3.88276496  *  -4.91252818  *   2.40410592  *
    35       H          4.98559621  *  -2.15593344  *   1.85240545  *
    36       H          2.83640870  *  -1.29867252  *   2.17481442  *
    37       H          2.10290451  *  -2.93981134  *   2.04273008  *
    38       H          4.04455718  *  -3.05948603  *   0.72447384  *
    39       H          3.82440303  *  -4.24014584  *  -0.98949886  *
    40       O          3.67738652     -3.31928575     -0.76279857   



          CARTESIAN COORDINATES 

    NO.       ATOM           X           Y           Z

     1         C          1.1776      0.3891      0.7429
     2         C          1.1809     -0.7111     -0.1095
     3         C          0.4345     -1.8623      0.1916
     4         C         -0.3186     -1.8898      1.3703
     5         C         -0.3052     -0.7795      2.2191
     6         C          0.4342      0.3680      1.9187
     7         H          1.7647      1.2763      0.4884
     8         H          1.7726     -0.6741     -1.0295
     9         H         -0.9222     -2.7702      1.6206
    10         H          0.4325      1.2312      2.5914
    11         N         -1.0811     -0.8197      3.4355
    12         O         -1.1945      0.1999      4.1061
    13         O         -1.6037     -1.8718      3.7792
    14         C          0.4495     -3.0234     -0.6800
    15         C          0.2755     -4.3850     -0.0903
    16         H          0.7001     -5.1789     -0.7259
    17         H         -0.7890     -4.6364      0.0497
    18         H          0.7554     -4.4769      0.8938
    19         N          0.3747     -2.8874     -2.0266
    20         O          0.3354     -3.8913     -2.7735
    21         O          0.3952     -1.7606     -2.5727
    22         H          2.3949     -3.3091     -0.7644
    23         C          3.0025     -2.5198      3.9359
    24         N          4.0058     -3.1169      4.6254
    25         C          5.0699     -3.8344      3.9124
    26         C          4.6905     -4.1452      2.4590
    27         N          4.2346     -2.8778      1.7872
    28         C          2.9776     -2.3747      2.4583
    29         H          2.1683     -2.1103      4.4900
    30         H          3.8247     -3.4338      5.5748
    31         H          5.3270     -4.7810      4.4463
    32         H          5.9967     -3.2072      3.9492
    33         H          5.5674     -4.5631      1.9080
    34         H          3.8828     -4.9125      2.4041
    35         H          4.9856     -2.1559      1.8524
    36         H          2.8364     -1.2987      2.1748
    37         H          2.1029     -2.9398      2.0427
    38         H          4.0446     -3.0595      0.7245
    39         H          3.8244     -4.2401     -0.9895
    40         O          3.6774     -3.3193     -0.7628

 General Reference for PM7:
 "Optimization of Parameters for Semiempirical Methods VI: More Modifications to the 
 NDDO Approximations and Re-optimization of Parameters", J. J. P. Stewart, J. Mol. Mod., 1:32, 19 (2013)
 https://link.springer.com/article/10.1007/s00894-012-1667-x

           Empirical Formula: C12 H19 N4 O5  =    40 atoms



      MOLECULAR POINT GROUP   :   C1  


 DOUBLET STATE CALCULATION


          UHF CALCULATION, NO. OF ALPHA ELECTRONS =   59
                           NO. OF BETA  ELECTRONS =   58

          Geometry optimization using L-BFGS
  SCF CRITERION =    0.1000E-03
 CYCLE:     1 TIME:   0.716 TIME LEFT:  2.00W  GRAD.:     4.835 HEAT: -57.27270
 CYCLE:     2 TIME:   0.101 TIME LEFT:  2.00W  GRAD.:     4.740 HEAT: -57.27299
 CYCLE:     3 TIME:   0.111 TIME LEFT:  2.00W  GRAD.:     3.174 HEAT: -57.27821
 CYCLE:     4 TIME:   0.107 TIME LEFT:  2.00W  GRAD.:     4.731 HEAT: -57.27299
 CYCLE:     5 TIME:   0.129 TIME LEFT:  2.00W  GRAD.:    24.557 HEAT: -57.16587
 CYCLE:     6 TIME:   0.103 TIME LEFT:  2.00W  GRAD.:     2.562 HEAT: -57.26853
 CYCLE:     7 TIME:   0.133 TIME LEFT:  2.00W  GRAD.:     1.915 HEAT: -57.27249
 CYCLE:     8 TIME:   0.147 TIME LEFT:  2.00W  GRAD.:     1.436 HEAT: -57.27448
 CYCLE:     9 TIME:   0.086 TIME LEFT:  2.00W  GRAD.:     1.550 HEAT: -57.27595
 CYCLE:    10 TIME:   0.136 TIME LEFT:  2.00W  GRAD.:     1.810 HEAT: -57.27859
 CYCLE:    11 TIME:   0.086 TIME LEFT:  2.00W  GRAD.:     2.175 HEAT: -57.08389
 CYCLE:    12 TIME:   0.084 TIME LEFT:  2.00W  GRAD.:     1.539 HEAT: -57.08563
 CYCLE:    13 TIME:   0.097 TIME LEFT:  2.00W  GRAD.:     1.742 HEAT: -57.25060
 CYCLE:    14 TIME:   0.101 TIME LEFT:  2.00W  GRAD.:     2.132 HEAT: -57.25491
 CYCLE:    15 TIME:   0.104 TIME LEFT:  2.00W  GRAD.:     2.466 HEAT: -57.25599
 CYCLE:    16 TIME:   0.100 TIME LEFT:  2.00W  GRAD.:     2.170 HEAT: -57.26399
 CYCLE:    17 TIME:   0.119 TIME LEFT:  2.00W  GRAD.:     1.191 HEAT: -57.26571
 CYCLE:    18 TIME:   0.122 TIME LEFT:  2.00W  GRAD.:     0.862 HEAT: -57.26405


          CURRENT BEST VALUE OF HEAT OF FORMATION =    -57.278587

 PM7 BONDS AUX DUMP=30M ITRY=15000 T=14D THREADS=30 CHARGE=0 DOUBLET eps=78.4 RELSCF=1
 Title: ASE calculation

  C     1.17781227 +1   0.38881094 +1   0.74318585 +1
  C     1.18176565 +1  -0.71097096 +1  -0.10958664 +1
  C     0.43654754 +1  -1.86273029 +1   0.19224783 +1
  C    -0.31746314 +1  -1.89020355 +1   1.37061716 +1
  C    -0.30479507 +1  -0.78019361 +1   2.21951264 +1
  C     0.43507706 +1   0.36780605 +1   1.91933540 +1
  H     1.76483818 +1   1.27601315 +1   0.48909429 +1
  H     1.77300702 +1  -0.67375159 +1  -1.03025762 +1
  H    -0.92234280 +1  -2.77028904 +1   1.61977197 +1
  H     0.43347571 +1   1.23125000 +1   2.59184316 +1
  N    -1.08056027 +1  -0.81986155 +1   3.43568739 +1
  O    -1.19351353 +1   0.19958550 +1   4.10609893 +1
  O    -1.60349076 +1  -1.87189289 +1   3.77952579 +1
  C     0.44948943 +0  -3.02342433 +0  -0.67996296 +0
  C     0.27701058 +1  -4.38445554 +1  -0.09027255 +1
  H     0.70032644 +1  -5.17839339 +1  -0.72604482 +1
  H    -0.78769579 +1  -4.63523126 +1   0.04895067 +1
  H     0.75595563 +1  -4.47655002 +1   0.89382699 +1
  N     0.37521536 +1  -2.88761329 +1  -2.02416442 +1
  O     0.33531386 +1  -3.89198834 +1  -2.77195805 +1
  O     0.39555695 +1  -1.75988342 +1  -2.57051021 +1
  H     2.39485143 +0  -3.31147538 +1  -0.76717820 +1
  C     3.00193261 +1  -2.52050759 +1   3.93521931 +1
  N     4.00586547 +1  -3.11668945 +1   4.62499919 +1
  C     5.07016929 +1  -3.83435215 +1   3.91276966 +1
  C     4.69030615 +1  -4.14550182 +1   2.45997262 +1
  N     4.23472467 +1  -2.87772292 +1   1.78847651 +1
  C     2.97717719 +1  -2.37438377 +1   2.45823441 +1
  H     2.16902592 +1  -2.10934629 +1   4.48940127 +1
  H     3.82459829 +1  -3.43276410 +1   5.57430498 +1
  H     5.32686325 +1  -4.78122520 +1   4.44653428 +1
  H     5.99674237 +1  -3.20684487 +1   3.94957997 +1
  H     5.56662889 +1  -4.56378016 +1   1.90846571 +1
  H     3.88182806 +1  -4.91177610 +1   2.40482707 +1
  H     4.98582756 +1  -2.15666194 +1   1.85076245 +1
  H     2.83651449 +1  -1.29833650 +1   2.17435685 +1
  H     2.10263217 +1  -2.94003352 +1   2.04278918 +1
  H     4.04608329 +1  -3.05788549 +1   0.72943574 +1
  H     3.82969391 +1  -4.24127574 +1  -0.98971663 +1
  O     3.67738652 +0  -3.31928575 +0  -0.76279857 +0



 -------------------------------------------------------------------------------
 PM7 BONDS AUX DUMP=30M ITRY=15000 T=14D THREADS=30 CHARGE=0 DOUBLET eps=78.4 RELSCF=1
 Title: ASE calculation



     HERBERTS TEST WAS SATISFIED IN BFGS                      
     SCF FIELD WAS ACHIEVED                                   


                              PM7 CALCULATION
                                                       MOPAC v22.0.6 Linux
                                                       Sun Mar 24 01:21:51 2024




          FINAL HEAT OF FORMATION =        -57.27859 KCAL/MOL =    -239.65361 KJ/MOL
          VAN DER WAALS AREA      =        301.28 SQUARE ANGSTROMS



          DIELECTRIC ENERGY       =         -2.64397 EV
          COSMO AREA              =        301.28 SQUARE ANGSTROMS
          COSMO VOLUME            =        360.10 CUBIC ANGSTROMS

          GRADIENT NORM           =          1.80976          =       0.28615 PER ATOM
          IONIZATION POTENTIAL    =          7.995619 EV
          ALPHA SOMO LUMO (EV)    =         -7.996 -1.467
          BETA  SOMO LUMO (EV)    =         -8.810 -1.467
          NO. OF ALPHA ELECTRONS  =         59
          NO. OF BETA  ELECTRONS  =         58
          MOLECULAR WEIGHT        =        299.3059         POINT GROUP:  C1  

          MOLECULAR DIMENSIONS (Angstroms)

            Atom       Atom       Distance
            H    31    O    21     9.09314
            H    39    O    12     8.41723
            H    17    H     7     6.17705


          SCF CALCULATIONS        =         20

          WALL-CLOCK TIME         =      2.701 SECONDS
          COMPUTATION TIME        =          2 MINUTES AND  9.421 SECONDS




   ATOM   CHEMICAL          X               Y               Z
  NUMBER   SYMBOL      (ANGSTROMS)     (ANGSTROMS)     (ANGSTROMS)

     1       C          1.17781227  *   0.38881094  *   0.74318585  *
     2       C          1.18176565  *  -0.71097096  *  -0.10958664  *
     3       C          0.43654754  *  -1.86273029  *   0.19224783  *
     4       C         -0.31746314  *  -1.89020355  *   1.37061716  *
     5       C         -0.30479507  *  -0.78019361  *   2.21951264  *
     6       C          0.43507706  *   0.36780605  *   1.91933540  *
     7       H          1.76483818  *   1.27601315  *   0.48909429  *
     8       H          1.77300702  *  -0.67375159  *  -1.03025762  *
     9       H         -0.92234280  *  -2.77028904  *   1.61977197  *
    10       H          0.43347571  *   1.23125000  *   2.59184316  *
    11       N         -1.08056027  *  -0.81986155  *   3.43568739  *
    12       O         -1.19351353  *   0.19958550  *   4.10609893  *
    13       O         -1.60349076  *  -1.87189289  *   3.77952579  *
    14       C          0.44948943     -3.02342433     -0.67996296   
    15       C          0.27701058  *  -4.38445554  *  -0.09027255  *
    16       H          0.70032644  *  -5.17839339  *  -0.72604482  *
    17       H         -0.78769579  *  -4.63523126  *   0.04895067  *
    18       H          0.75595563  *  -4.47655002  *   0.89382699  *
    19       N          0.37521536  *  -2.88761329  *  -2.02416442  *
    20       O          0.33531386  *  -3.89198834  *  -2.77195805  *
    21       O          0.39555695  *  -1.75988342  *  -2.57051021  *
    22       H          2.39485143     -3.31147538  *  -0.76717820  *
    23       C          3.00193261  *  -2.52050759  *   3.93521931  *
    24       N          4.00586547  *  -3.11668945  *   4.62499919  *
    25       C          5.07016929  *  -3.83435215  *   3.91276966  *
    26       C          4.69030615  *  -4.14550182  *   2.45997262  *
    27       N          4.23472467  *  -2.87772292  *   1.78847651  *
    28       C          2.97717719  *  -2.37438377  *   2.45823441  *
    29       H          2.16902592  *  -2.10934629  *   4.48940127  *
    30       H          3.82459829  *  -3.43276410  *   5.57430498  *
    31       H          5.32686325  *  -4.78122520  *   4.44653428  *
    32       H          5.99674237  *  -3.20684487  *   3.94957997  *
    33       H          5.56662889  *  -4.56378016  *   1.90846571  *
    34       H          3.88182806  *  -4.91177610  *   2.40482707  *
    35       H          4.98582756  *  -2.15666194  *   1.85076245  *
    36       H          2.83651449  *  -1.29833650  *   2.17435685  *
    37       H          2.10263217  *  -2.94003352  *   2.04278918  *
    38       H          4.04608329  *  -3.05788549  *   0.72943574  *
    39       H          3.82969391  *  -4.24127574  *  -0.98971663  *
    40       O          3.67738652     -3.31928575     -0.76279857   

                             CARTESIAN COORDINATES

   1    C        1.177812273     0.388810937     0.743185846
   2    C        1.181765649    -0.710970961    -0.109586641
   3    C        0.436547536    -1.862730291     0.192247833
   4    C       -0.317463143    -1.890203553     1.370617158
   5    C       -0.304795074    -0.780193607     2.219512641
   6    C        0.435077062     0.367806051     1.919335398
   7    H        1.764838179     1.276013146     0.489094291
   8    H        1.773007016    -0.673751594    -1.030257616
   9    H       -0.922342796    -2.770289044     1.619771973
  10    H        0.433475715     1.231250004     2.591843165
  11    N       -1.080560274    -0.819861552     3.435687388
  12    O       -1.193513532     0.199585497     4.106098930
  13    O       -1.603490761    -1.871892891     3.779525792
  14    C        0.449489430    -3.023424330    -0.679962960
  15    C        0.277010584    -4.384455538    -0.090272549
  16    H        0.700326444    -5.178393395    -0.726044819
  17    H       -0.787695792    -4.635231255     0.048950675
  18    H        0.755955635    -4.476550021     0.893826986
  19    N        0.375215356    -2.887613295    -2.024164418
  20    O        0.335313858    -3.891988345    -2.771958046
  21    O        0.395556951    -1.759883419    -2.570510213
  22    H        2.394851430    -3.311475381    -0.767178195
  23    C        3.001932612    -2.520507589     3.935219310
  24    N        4.005865473    -3.116689446     4.624999192
  25    C        5.070169289    -3.834352154     3.912769664
  26    C        4.690306149    -4.145501821     2.459972623
  27    N        4.234724666    -2.877722921     1.788476514
  28    C        2.977177187    -2.374383768     2.458234414
  29    H        2.169025918    -2.109346288     4.489401268
  30    H        3.824598292    -3.432764105     5.574304983
  31    H        5.326863249    -4.781225202     4.446534278
  32    H        5.996742367    -3.206844867     3.949579974
  33    H        5.566628887    -4.563780162     1.908465712
  34    H        3.881828058    -4.911776103     2.404827071
  35    H        4.985827555    -2.156661944     1.850762446
  36    H        2.836514495    -1.298336497     2.174356851
  37    H        2.102632165    -2.940033516     2.042789181
  38    H        4.046083290    -3.057885493     0.729435744
  39    H        3.829693914    -4.241275740    -0.989716633
  40    O        3.677386520    -3.319285750    -0.762798570


           Empirical Formula: C12 H19 N4 O5  =    40 atoms



      MOLECULAR POINT GROUP   :   C1  


          ALPHA EIGENVALUES  
 -38.47917 -37.54632 -36.35027 -36.32505 -31.44754 -30.85896 -28.83059 -28.55591
 -27.87432 -27.54568 -27.08430 -25.99617 -25.65425 -24.95315 -24.36970 -22.86565
 -22.11090 -21.37066 -20.51204 -20.03069 -19.36680 -19.13057 -18.26424 -17.88078
 -17.68222 -17.42099 -17.20056 -17.17113 -16.88266 -16.81440 -16.59025 -16.12919
 -15.98787 -15.63265 -15.14913 -15.08675 -14.74767 -14.36375 -14.18810 -13.93397
 -13.76806 -13.61839 -13.36501 -13.28525 -13.08676 -12.87922 -12.51278 -12.06326
 -11.99026 -11.88681 -11.72576 -11.69081 -11.29598 -11.12212 -11.00905 -10.81711
 -10.62111  -8.81079  -7.99562  -1.46677  -0.53950   0.17816   0.42448   0.71448
   0.89401   1.57542   1.97799   2.15484   2.21705   2.65859   3.06541   3.12064
   3.47046   3.49818   3.63600   4.03148   4.13920   4.18144   4.23629   4.36292
   4.50803   4.61307   4.66061   4.68359   4.76235   4.98624   5.01333   5.07115
   5.15733   5.35812   5.40207   5.45545   5.55163   5.61155   5.64877   5.68715
   5.75328   5.80453   5.86520   5.89442   6.01019   6.54706   6.84561


           BETA EIGENVALUES 
 -38.40974 -37.54631 -36.32997 -35.85556 -31.44719 -30.85897 -28.83058 -28.55575
 -27.87344 -27.54556 -27.02285 -25.99537 -25.53377 -24.95120 -24.36917 -22.76896
 -22.11088 -21.37065 -20.39624 -20.03000 -19.28086 -19.13015 -18.26418 -17.79446
 -17.67998 -17.42089 -17.19706 -17.09464 -16.85783 -16.70280 -16.58941 -16.12004
 -15.82605 -15.63243 -15.08990 -14.91397 -14.72132 -14.32660 -14.14659 -13.92443
 -13.75599 -13.49584 -13.34962 -13.23974 -13.08452 -12.80065 -12.51242 -12.03605
 -11.99026 -11.88681 -11.72577 -11.29598 -11.12281 -11.00902 -10.81849 -10.64081
 -10.36811  -8.81038  -1.46671  -0.53949   0.17808   0.42447   0.70132   0.81224
   1.04841   1.57584   1.97870   2.15819   2.50313   2.66299   3.10835   3.12072
   3.47253   3.63529   3.70296   4.03276   4.13928   4.22397   4.23727   4.36294
   4.55438   4.62760   4.68287   4.71975   4.85089   5.01328   5.03461   5.12808
   5.24673   5.37324   5.40242   5.45605   5.55216   5.64882   5.66543   5.68833
   5.75421   5.80475   5.86653   5.89457   6.26534   6.80658   6.84583


              NET ATOMIC CHARGES AND DIPOLE CONTRIBUTIONS

  ATOM NO.   TYPE          CHARGE      No. of ELECS.   s-Pop       p-Pop       
    1          C          -0.152540        4.1525     1.08672     3.06582
    2          C          -0.123913        4.1239     1.09798     3.02593
    3          C           0.043571        3.9564     1.05768     2.89875
    4          C          -0.131163        4.1312     1.09334     3.03783
    5          C          -0.079605        4.0796     1.07000     3.00961
    6          C          -0.104972        4.1050     1.09227     3.01270
    7          H           0.182343        0.8177     0.81766
    8          H           0.184187        0.8158     0.81581
    9          H           0.201869        0.7981     0.79813
   10          H           0.191754        0.8082     0.80825
   11          N           0.664610        4.3354     1.44993     2.88546
   12          O          -0.462749        6.4627     1.94108     4.52167
   13          O          -0.455009        6.4550     1.94082     4.51419
   14          C          -0.365243        4.3652     1.03574     3.32950
   15          C          -0.409179        4.4092     1.04325     3.36593
   16          H           0.165975        0.8340     0.83402
   17          H           0.166416        0.8336     0.83358
   18          H           0.148866        0.8511     0.85113
   19          N           0.706951        4.2930     1.42271     2.87034
   20          O          -0.650737        6.6507     1.94426     4.70647
   21          O          -0.657820        6.6578     1.94426     4.71356
   22          H           0.451573        0.5484     0.54843
   23          C          -0.285870        4.2859     1.05879     3.22708
   24          N          -0.397683        5.3977     1.53917     3.85851
   25          C          -0.131311        4.1313     1.07289     3.05842
   26          C          -0.193356        4.1934     1.09006     3.10330
   27          N          -0.215271        5.2153     1.52245     3.69283
   28          C          -0.138793        4.1388     1.07811     3.06068
   29          H           0.178766        0.8212     0.82123
   30          H           0.329349        0.6707     0.67065
   31          H           0.177649        0.8224     0.82235
   32          H           0.171849        0.8282     0.82815
   33          H           0.196676        0.8033     0.80332
   34          H           0.196500        0.8035     0.80350
   35          H           0.330724        0.6693     0.66928
   36          H           0.184118        0.8159     0.81588
   37          H           0.171555        0.8284     0.82844
   38          H           0.355285        0.6447     0.64472
   39          H           0.367297        0.6327     0.63270
   40          O          -0.812671        6.8127     1.87446     4.93821
 DIPOLE           X         Y         Z       TOTAL
 POINT-CHG.    19.363    -4.739    13.999    24.359
 HYBRID        -0.487    -0.341     0.041     0.596
 SUM           18.876    -5.080    14.040    24.067


          ATOMIC ORBITAL ELECTRON POPULATIONS

     Atom    s        px        py        pz   
    1  C   1.08672   1.01860   1.06510   0.98211
    2  C   1.09798   0.98835   0.97652   1.06106
    3  C   1.05768   0.96324   0.96475   0.97077
    4  C   1.09334   1.01015   1.04030   0.98738
    5  C   1.07000   1.05106   1.03897   0.91958
    6  C   1.09227   0.95691   1.02793   1.02785
    7  H   0.81766
    8  H   0.81581
    9  H   0.79813
   10  H   0.80825
   11  N   1.44993   0.94495   0.95003   0.99048
   12  O   1.94108   1.68460   1.25775   1.57932
   13  O   1.94082   1.52781   1.21338   1.77301
   14  C   1.03574   1.47647   1.00430   0.84873
   15  C   1.04325   1.19258   1.02308   1.15027
   16  H   0.83402
   17  H   0.83358
   18  H   0.85113
   19  N   1.42271   0.94395   0.92725   0.99913
   20  O   1.94426   1.72880   1.34053   1.63714
   21  O   1.94426   1.73249   1.19290   1.78817
   22  H   0.54843
   23  C   1.05879   1.04270   1.22723   0.95715
   24  N   1.53917   1.23134   1.44391   1.18326
   25  C   1.07289   0.98221   1.10908   0.96713
   26  C   1.09006   1.17803   0.91374   1.01153
   27  N   1.52245   1.21159   1.20376   1.27747
   28  C   1.07811   0.91252   1.13934   1.00881
   29  H   0.82123
   30  H   0.67065
   31  H   0.82235
   32  H   0.82815
   33  H   0.80332
   34  H   0.80350
   35  H   0.66928
   36  H   0.81588
   37  H   0.82844
   38  H   0.64472
   39  H   0.63270
   40  O   1.87446   1.53734   1.48985   1.91102


                    (SZ)    =    0.500000
                    (S**2)  =    0.752436


          ATOMIC ORBITAL SPIN POPULATIONS

    Atom   Total    s     px     py     pz   
         Atomic
    1  C -0.0000 -0.000 -0.000 -0.000 -0.000
    2  C  0.0001  0.000  0.000  0.000  0.000
    3  C -0.0001 -0.000 -0.000 -0.000 -0.000
    4  C  0.0000  0.000  0.000  0.000  0.000
    5  C -0.0000 -0.000 -0.000 -0.000 -0.000
    6  C  0.0002  0.000  0.000  0.000  0.000
    7  H  0.0000  0.000
    8  H -0.0000 -0.000
    9  H -0.0000 -0.000
   10  H -0.0000 -0.000
   11  N  0.0000  0.000  0.000  0.000  0.000
   12  O -0.0000 -0.000  0.000 -0.000 -0.000
   13  O  0.0000  0.000  0.000  0.000 -0.000
   14  C -0.0000 -0.000 -0.000  0.000  0.000
   15  C  0.0001  0.000  0.000  0.000  0.000
   16  H -0.0000 -0.000
   17  H -0.0000 -0.000
   18  H -0.0000 -0.000
   19  N  0.0000 -0.000  0.000  0.000 -0.000
   20  O  0.0000  0.000  0.000  0.000 -0.000
   21  O  0.0000  0.000  0.000 -0.000 -0.000
   22  H -0.0000 -0.000
   23  C  0.7019  0.016  0.192  0.467  0.026
   24  N  0.3149  0.026  0.090  0.183  0.016
   25  C -0.0123 -0.000 -0.011  0.002 -0.003
   26  C  0.0041  0.000  0.000 -0.000  0.004
   27  N  0.0021  0.001  0.001  0.000  0.000
   28  C -0.0332 -0.005 -0.006 -0.004 -0.019
   29  H -0.0200 -0.020
   30  H -0.0002 -0.000
   31  H  0.0040  0.004
   32  H  0.0072  0.007
   33  H -0.0003 -0.000
   34  H -0.0003 -0.000
   35  H  0.0004  0.000
   36  H  0.0135  0.014
   37  H  0.0187  0.019
   38  H -0.0004 -0.000
   39  H -0.0000 -0.000
   40  O -0.0000 -0.000  0.000  0.000 -0.000

          BONDING CONTRIBUTION OF EACH ALPHA M.O.

  0.7229  0.6722  0.6768  0.6965  0.9465  0.4984  0.5176  0.8047  0.4879  0.7443
  0.9640  0.7629  0.9193  0.7478  0.6271  0.9744  0.8392  0.7668  0.9208  0.7435
  0.9702  0.7046  0.6090  0.9021  0.7688  0.6166  0.7909  0.9866  0.9131  0.8993
  0.9212  0.6473  0.8728  0.9262  0.8117  0.9715  0.6495  0.9270  0.9350  0.8856
  0.9209  0.9029  0.9579  0.8455  0.9080  0.8186  0.9986  0.4265  0.4270  0.1463
  0.3340  0.4431  0.2746  0.3049  0.2826  0.7263  0.9438  0.6418  0.1285 -1.1028
 -1.0055 -1.1056 -1.0591 -1.1272 -1.0108 -1.0407 -0.9946 -0.9104 -0.9449 -0.9313
 -1.0007 -0.9768 -0.9747 -0.9814 -0.9838 -0.9908 -1.0177 -0.9384 -0.9976 -0.9801
 -0.9586 -0.9787 -0.9489 -0.9815 -0.9402 -0.9616 -0.9978 -0.9606 -0.9310 -0.9537
 -0.9731 -0.9770 -0.9811 -0.9630 -0.9761 -0.9822 -0.9794 -0.9741 -0.8809 -0.9654
 -0.9715 -0.9115 -0.9517

          BONDING CONTRIBUTION OF EACH BETA  M.O.

  0.7270  0.6722  0.7033  0.7038  0.9466  0.4984  0.5176  0.8047  0.4876  0.7442
  0.9687  0.7631  0.9285  0.7481  0.6273  0.9796  0.8393  0.7668  0.9316  0.7445
  0.9749  0.7053  0.6090  0.9066  0.7721  0.6164  0.7731  1.0117  0.9064  0.9508
  0.9231  0.6484  0.9566  0.9268  0.9776  0.9187  0.6982  0.9183  0.9546  0.8877
  0.9231  0.9428  0.9638  0.8388  0.9065  0.8352  0.9989  0.4627  0.4270  0.1463
  0.3340  0.2747  0.3074  0.2826  0.7279  0.9412  0.8988  0.6423 -1.1027 -1.0055
 -1.1056 -1.0591 -1.0731 -1.0184 -0.9192 -1.0409 -0.9954 -0.9074 -0.9486 -0.9312
 -0.9951 -0.9769 -0.9740 -0.9836 -0.9759 -0.9908 -1.0177 -0.9302 -0.9903 -0.9801
 -0.9563 -0.9859 -0.9835 -0.9374 -0.9434 -0.9980 -0.9717 -0.9232 -0.9394 -0.9498
 -0.9730 -0.9766 -0.9809 -0.9761 -0.9587 -0.9814 -0.9791 -0.9742 -0.8825 -0.9648
 -0.9766 -0.9073 -0.9516





            (VALENCIES)   BOND ORDERS

     1  C     (3.967)     2  C 1.446     6  C 1.445     7  H 0.954     4  C 0.098

     2  C     (3.962)     1  C 1.446     3  C 1.382     8  H 0.952     5  C 0.104    14  C 0.012     4  C 0.012

     3  C     (3.993)     4  C 1.418     2  C 1.382    14  C 1.048     6  C 0.098    20  O 0.011

     4  C     (3.956)     3  C 1.418     5  C 1.383     9  H 0.943     1  C 0.098    12  O 0.018     6  C 0.015
                         14  C 0.013    19  N 0.013    13  O 0.012     2  C 0.012

     5  C     (3.931)     6  C 1.383     4  C 1.383    11  N 0.904     2  C 0.104    13  O 0.067    12  O 0.067

     6  C     (3.958)     1  C 1.445     5  C 1.383    10  H 0.949     3  C 0.098    13  O 0.019     4  C 0.015
                         12  O 0.012

     7  H     (0.967)     1  C 0.954

     8  H     (0.966)     2  C 0.952

     9  H     (0.959)     4  C 0.943

    10  H     (0.963)     6  C 0.949

    11  N     (3.780)    13  O 1.425    12  O 1.419     5  C 0.904

    12  O     (1.813)    11  N 1.419    13  O 0.288     5  C 0.067     4  C 0.018     6  C 0.012

    13  O     (1.820)    11  N 1.425    12  O 0.288     5  C 0.067     6  C 0.019     4  C 0.012

    14  C     (3.722)    19  N 1.263     3  C 1.048    15  C 0.996    20  O 0.139    21  O 0.138    22  H 0.070
                         40  O 0.018     4  C 0.013     2  C 0.012

    15  C     (3.917)    14  C 0.996    18  H 0.965    16  H 0.960    17  H 0.959    21  O 0.012

    16  H     (0.972)    15  C 0.960

    17  H     (0.972)    15  C 0.959

    18  H     (0.978)    15  C 0.965

    19  N     (3.809)    14  C 1.263    20  O 1.245    21  O 1.239     4  C 0.013

    20  O     (1.589)    19  N 1.245    21  O 0.173    14  C 0.139     3  C 0.011

    21  O     (1.585)    19  N 1.239    20  O 0.173    14  C 0.138    15  C 0.012

    22  H     (0.796)    40  O 0.703    14  C 0.070

    23  C     (3.827)    24  N 1.157    28  C 1.013    29  H 0.948    25  C 0.020    30  H 0.010

    24  N     (3.257)    23  C 1.157    25  C 0.933    30  H 0.845

    25  C     (3.903)    26  C 1.000    31  H 0.952    32  H 0.951    24  N 0.933    23  C 0.020    30  H 0.012
                         29  H 0.011

    26  C     (3.875)    25  C 1.000    34  H 0.950    33  H 0.947    27  N 0.929    28  C 0.011

    27  N     (3.544)    26  C 0.929    28  C 0.924    35  H 0.866    38  H 0.757    40  O 0.037

    28  C     (3.888)    23  C 1.013    37  H 0.948    36  H 0.945    27  N 0.924    26  C 0.011

    29  H     (0.968)    23  C 0.948    25  C 0.011

    30  H     (0.892)    24  N 0.845    25  C 0.012    23  C 0.010

    31  H     (0.968)    25  C 0.952

    32  H     (0.970)    25  C 0.951

    33  H     (0.961)    26  C 0.947

    34  H     (0.961)    26  C 0.950

    35  H     (0.891)    27  N 0.866

    36  H     (0.966)    28  C 0.945

    37  H     (0.971)    28  C 0.948

    38  H     (0.874)    27  N 0.757    40  O 0.094

    39  H     (0.865)    40  O 0.860

    40  O     (1.733)    39  H 0.860    22  H 0.703    38  H 0.094    27  N 0.037    14  C 0.018


 **********************
 *                    *
 * JOB ENDED NORMALLY *
 *                    *
 **********************



 TOTAL JOB TIME:             2.73 SECONDS

 == MOPAC DONE ==
