 *******************************************************************************
 **                                                                           **
 **                              MOPAC v22.1.1                                **
 **                                                                           **
 *******************************************************************************
 **          Digital Object Identifier (DOI): 10.5281/zenodo.6511958          **
 **    Visit the DOI location for information on how to cite this program.    **
 *******************************************************************************

                              PM7 CALCULATION RESULTS

 *******************************************************************************
 *  CALCULATION DONE:                                Mon Nov  4 16:45:07 2024  *
 *  PM7        - The PM7 Hamiltonian to be used
 *  SINGLET    - SPIN STATE DEFINED AS A SINGLET
 *
 *
 *
 *                 CHARGE ON SYSTEM = -1
 *
 *
 *
 *  EPS=78.4   - USE ANDREAS KLAMT'S COSMO IMPLICIT SOLVATION MODEL
 *  LET        - OVERRIDE SOME SAFETY CHECKS
 *  THREADS=1  - MULTI-THREADING NOT USED
 *  T=         - A TIME OF 14.0 DAYS REQUESTED
 *  DUMP=N     - RESTART FILE WRITTEN EVERY 30.0 MINUTES REQUESTED
 *  RELSCF     - DEFAULT SCF CRITERION MULTIPLIED BY 1.0000
 *              (DEFAULT SCF CRITERION = 0.00010)
 *  ITRY=      - DO A MAXIMUM OF 15000 ITERATIONS FOR SCF
 *  AUX        - OUTPUT AUXILIARY INFORMATION
 *  ISOTOPE    - SAVE THE FORCE MATRIX FOR USE LATER
 *  BONDS      - FINAL BOND-ORDER MATRIX TO BE PRINTED
 *  LARGE      - EXPANDED OUTPUT TO BE PRINTED
 *  THERMO     - THERMODYNAMIC QUANTITIES TO BE CALCULATED
 *******************************************************************************
PM7 AUX LARGE THERMO(298,298) LET ISOTOPE BONDS DUMP=30M ITRY=15000 T=14D CHARGE=-1 SINGLET eps=78.4 THREADS=True RELSCF=1
 Title: ASE calculation

   ATOM   CHEMICAL          X               Y               Z
  NUMBER   SYMBOL      (ANGSTROMS)     (ANGSTROMS)     (ANGSTROMS)

     1       C          2.42821009  *   0.87289620  *   1.63180599  *
     2       C          1.99275554  *  -0.17068853  *   2.39744240  *
     3       C          0.63605067  *  -0.79379897  *   2.13185351  *
     4       H          3.38426723  *   1.32612724  *   1.77572550  *
     5       T          5.09089327  *   1.12484612  *   1.68594823  *
     6       H          1.86134785  *   1.30004498  *   0.84432694  *
     7       O          2.65330391  *  -0.67868068  *   3.34266043  *
     8       H          0.43083007  *  -1.62324517  *   2.81176007  *
     9       H         -0.16598645  *  -0.05586019  *   2.24398080  *
    10       H          0.58130890  *  -1.18039871  *   1.10659544  *
    11       O          6.00911692  *   1.23623833  *   2.03082707  *
    12       H          6.45444368  *   1.50019805  *   1.12768370  *
    13       H          6.29750314  *   0.24572254  *   2.10486598  *
    14       O          9.94807194  *   1.91877541  *   1.75089316  *
    15       H         10.79228771  *   1.65037848  *   1.63396021  *


                                Isotopes Used

              Atom:    5  H  Default mass  1.0079,  mass used:  3.0160 amu


          CARTESIAN COORDINATES 

    NO.       ATOM           X           Y           Z

     1         C          2.4282      0.8729      1.6318
     2         C          1.9928     -0.1707      2.3974
     3         C          0.6361     -0.7938      2.1319
     4         H          3.3843      1.3261      1.7757
     5         H          5.0909      1.1248      1.6859
     6         H          1.8613      1.3000      0.8443
     7         O          2.6533     -0.6787      3.3427
     8         H          0.4308     -1.6232      2.8118
     9         H         -0.1660     -0.0559      2.2440
    10         H          0.5813     -1.1804      1.1066
    11         O          6.0091      1.2362      2.0308
    12         H          6.4544      1.5002      1.1277
    13         H          6.2975      0.2457      2.1049
    14         O          9.9481      1.9188      1.7509
    15         H         10.7923      1.6504      1.6340

 General Reference for PM7:
 "Optimization of Parameters for Semiempirical Methods VI: More Modifications to the 
 NDDO Approximations and Re-optimization of Parameters", J. J. P. Stewart, J. Mol. Mod., 1:32, 19 (2013)
 https://link.springer.com/article/10.1007/s00894-012-1667-x

           Empirical Formula: C3 H9 O3  =    15 atoms



      MOLECULAR POINT GROUP   :   C1  


 SINGLET STATE CALCULATION


      RHF CALCULATION, NO. OF DOUBLY OCCUPIED LEVELS = 20

  SCF CRITERION =    0.1000E-03


          HEAT OF FORMATION =    -209.641229 KCALS/MOLE


          CARTESIAN COORDINATE DERIVATIVES

   NUMBER  ATOM         X            Y            Z

     1       C      2.391149     3.938068    -2.038142
     2       C      0.992112    -1.063357     0.155270
     3       C      1.780971    -1.106067    -0.661992
     4       H     -0.227266    -0.726681     0.501822
     5       H     -9.818202   -31.620041     9.119253
     6       H     -0.296397    -0.007559    -0.013613
     7       O     -0.938496     1.739559    -0.161348
     8       H     -1.325114     0.301909     0.197451
     9       H     -0.078451     0.290828    -0.020331
    10       H     -0.261110     0.290329     0.570579
    11       O      5.761096    20.736006    -7.204776
    12       H      0.939218     5.014230     0.614625
    13       H      0.667825     1.840752    -0.816575
    14       O      0.409199     0.077549    -0.317835
    15       H      0.003468     0.294460     0.075616

 DIPOLE           X         Y         Z       TOTAL
 POINT-CHG.     2.597    21.087    -3.241    21.492
 HYBRID         0.191    -0.056     0.453     0.495
 SUM            2.788    21.032    -2.788    21.398


          GRADIENT NORM =  42.01662



 ** GRADIENT IS VERY LARGE, BUT SINCE "LET" IS USED, CALCULATION WILL CONTINUE


                              **** WARNING ****

           GRADIENT IS VERY LARGE FOR A THERMO CALCULATION
           RESULTS ARE LIKELY TO BE INACCURATE IF THERE ARE
           ANY LOW-LYING VIBRATIONS (LESS THAN ABOUT 400CM-1)
           GRADIENT NORM SHOULD BE LESS THAN ABOUT 1.0 FOR THERMO
           TO GIVE ACCURATE RESULTS


          TIME FOR SCF CALCULATION =    0.01

          TIME FOR DERIVATIVES     =    0.01

          MOLECULAR WEIGHT =   95.11



          ROTATIONAL CONSTANTS IN CM(-1)

          A =    0.30884990   B =    0.01580779   C =    0.01522310



           PRINCIPAL MOMENTS OF INERTIA IN UNITS OF 10**(-40)*GRAM-CM**2

          A =       90.6355   B =     1770.8197   C =     1838.8343


          ORIENTATION OF MOLECULE IN FORCE CALCULATION

    NO.       ATOM         X         Y         Z

     1          C      -0.0298    1.8159   -0.6747
     2          C       1.3358    1.8159   -0.6747
     3          C       2.0957    3.1281   -0.6747
     4          H      -0.6003    0.9134   -0.6562
     5          H      -1.0410   -0.4820    0.2491
     6          H      -0.6169    2.6985   -0.6855
     7          O       2.0434    0.7731   -0.6731
     8          H       3.1762    2.9709   -0.6610
     9          H       1.8504    3.7263   -1.5593
    10          H       1.8338    3.7275    0.2061
    11          O      -1.2256   -1.4472    0.3435
    12          H      -2.0756   -1.3579    0.9377
    13          H      -0.5191   -1.6991    1.0557
    14          O      -3.1601   -4.6667    1.7405
    15          H      -3.2898   -5.3134    2.3434


    FIRST DERIVATIVES WILL BE USED IN THE CALCULATION OF SECOND DERIVATIVES

          ESTIMATED TIME TO COMPLETE CALCULATION =        2.11 SECONDS

    FOR POINT-GROUP C1   THERE ARE   1 UNIQUE SYMMETRY FUNCTIONS.

 STEP:   1 TIME =     0.02 SECS, INTEGRAL =      0.02 TIME LEFT:1209599.96
 STEP:   2 TIME =     0.02 SECS, INTEGRAL =      0.04 TIME LEFT:1209599.94
 STEP:   3 TIME =     0.02 SECS, INTEGRAL =      0.06 TIME LEFT:1209599.92
 STEP:   4 TIME =     0.02 SECS, INTEGRAL =      0.08 TIME LEFT:1209599.90
 STEP:   5 TIME =     0.02 SECS, INTEGRAL =      0.10 TIME LEFT:1209599.88
 STEP:   6 TIME =     0.01 SECS, INTEGRAL =      0.11 TIME LEFT:1209599.87
 STEP:   7 TIME =     0.01 SECS, INTEGRAL =      0.12 TIME LEFT:1209599.86
 STEP:   8 TIME =     0.01 SECS, INTEGRAL =      0.13 TIME LEFT:1209599.85
 STEP:   9 TIME =     0.01 SECS, INTEGRAL =      0.14 TIME LEFT:1209599.84
 STEP:  10 TIME =     0.01 SECS, INTEGRAL =      0.15 TIME LEFT:1209599.82
 STEP:  11 TIME =     0.01 SECS, INTEGRAL =      0.16 TIME LEFT:1209599.81
 STEP:  12 TIME =     0.01 SECS, INTEGRAL =      0.18 TIME LEFT:1209599.80
 STEP:  13 TIME =     0.01 SECS, INTEGRAL =      0.19 TIME LEFT:1209599.79
 STEP:  14 TIME =     0.01 SECS, INTEGRAL =      0.20 TIME LEFT:1209599.78
 STEP:  15 TIME =     0.01 SECS, INTEGRAL =      0.21 TIME LEFT:1209599.77
 STEP:  16 TIME =     0.01 SECS, INTEGRAL =      0.22 TIME LEFT:1209599.76
 STEP:  17 TIME =     0.01 SECS, INTEGRAL =      0.23 TIME LEFT:1209599.75
 STEP:  18 TIME =     0.01 SECS, INTEGRAL =      0.24 TIME LEFT:1209599.73
 STEP:  19 TIME =     0.01 SECS, INTEGRAL =      0.25 TIME LEFT:1209599.73
 STEP:  20 TIME =     0.01 SECS, INTEGRAL =      0.26 TIME LEFT:1209599.71
 STEP:  21 TIME =     0.01 SECS, INTEGRAL =      0.27 TIME LEFT:1209599.70
 STEP:  22 TIME =     0.01 SECS, INTEGRAL =      0.29 TIME LEFT:1209599.69
 STEP:  23 TIME =     0.01 SECS, INTEGRAL =      0.30 TIME LEFT:1209599.68
 STEP:  24 TIME =     0.01 SECS, INTEGRAL =      0.31 TIME LEFT:1209599.67
 STEP:  25 TIME =     0.01 SECS, INTEGRAL =      0.32 TIME LEFT:1209599.66
 STEP:  26 TIME =     0.01 SECS, INTEGRAL =      0.33 TIME LEFT:1209599.65
 STEP:  27 TIME =     0.01 SECS, INTEGRAL =      0.34 TIME LEFT:1209599.64
 STEP:  28 TIME =     0.01 SECS, INTEGRAL =      0.35 TIME LEFT:1209599.62
 STEP:  29 TIME =     0.01 SECS, INTEGRAL =      0.36 TIME LEFT:1209599.61
 STEP:  30 TIME =     0.01 SECS, INTEGRAL =      0.38 TIME LEFT:1209599.60
 STEP:  31 TIME =     0.01 SECS, INTEGRAL =      0.38 TIME LEFT:1209599.59
 STEP:  32 TIME =     0.01 SECS, INTEGRAL =      0.39 TIME LEFT:1209599.58
 STEP:  33 TIME =     0.01 SECS, INTEGRAL =      0.40 TIME LEFT:1209599.57
 STEP:  34 TIME =     0.01 SECS, INTEGRAL =      0.41 TIME LEFT:1209599.56
 STEP:  35 TIME =     0.01 SECS, INTEGRAL =      0.43 TIME LEFT:1209599.55
 STEP:  36 TIME =     0.01 SECS, INTEGRAL =      0.44 TIME LEFT:1209599.54
 STEP:  37 TIME =     0.01 SECS, INTEGRAL =      0.45 TIME LEFT:1209599.53
 STEP:  38 TIME =     0.01 SECS, INTEGRAL =      0.46 TIME LEFT:1209599.52
 STEP:  39 TIME =     0.01 SECS, INTEGRAL =      0.47 TIME LEFT:1209599.51
 STEP:  40 TIME =     0.01 SECS, INTEGRAL =      0.48 TIME LEFT:1209599.50
 STEP:  41 TIME =     0.01 SECS, INTEGRAL =      0.49 TIME LEFT:1209599.48
 STEP:  42 TIME =     0.01 SECS, INTEGRAL =      0.50 TIME LEFT:1209599.47
 STEP:  43 TIME =     0.01 SECS, INTEGRAL =      0.52 TIME LEFT:1209599.46
 STEP:  44 TIME =     0.01 SECS, INTEGRAL =      0.53 TIME LEFT:1209599.45
 STEP:  45 TIME =     0.01 SECS, INTEGRAL =      0.54 TIME LEFT:1209599.44

(To convert to Hartree/Bohr^2, multiply by (10^(-21) x N x a0^2)/(4.184 x 627.51) =  0.0642)


           FORCE MATRIX IN MILLIDYNES/ANGSTROM


                  C  1       C  2       C  3       H  4       H  5       H  6
 ------------------------------------------------------------------------------
     C    1  14.030330
     C    2   7.701622  17.729112
     C    3   0.876115   2.962394  11.167657
     H    4   3.499048   0.829842   0.083591   4.252440
     H    5   0.128648   0.090054   0.022841   0.227144   3.992762
     H    6   3.591373   0.888894   0.030639   0.471528   0.022418   4.417499
     O    7   1.973076   8.526250   1.376797   0.078902   0.045246   0.134092
     H    8   0.046134   0.767166   3.419556   0.007015   0.001529   0.003637
     H    9   0.037065   0.740120   3.381109   0.008069   0.003105   0.010115
     H   10   0.030219   0.750952   3.368187   0.007436   0.003887   0.010905
     O   11   0.096589   0.092267   0.025763   0.114126   3.562781   0.020669
     H   12   0.107672   0.011813   0.002216   0.115160   0.741803   0.004963
     H   13   0.051677   0.050379   0.014991   0.035514   0.691987   0.005722
     O   14   0.004428   0.002680   0.000966   0.002110   0.007949   0.001471
     H   15   0.001449   0.001395   0.000457   0.000484   0.002789   0.000276


                  O  7       H  8       H  9       H 10       O 11       H 12
 ------------------------------------------------------------------------------
     O    7  10.739698
     H    8   0.039974   4.233289
     H    9   0.053880   0.456510   4.185480
     H   10   0.054027   0.457105   0.459658   4.177270
     O   11   0.049571   0.001928   0.003130   0.003589   7.135796
     H   12   0.006674   0.000719   0.000586   0.000961   3.326822   3.715247
     H   13   0.026906   0.001092   0.001784   0.001677   3.353443   0.568610
     O   14   0.001298   0.000889   0.000802   0.000818   0.036636   0.083961
     H   15   0.000943   0.000229   0.000174   0.000196   0.024649   0.052978


                  H 13       O 14       H 15
 ------------------------------------------
     H   13   3.791757
     O   14   0.035734   4.261197
     H   15   0.024032   4.264292   4.274449


          HEAT OF FORMATION =    -209.641229 KCALS/MOLE


          TRIVIAL VIBRATIONS, SHOULD BE ZERO

  -4.1150=TX   1.9894=TY -46.4003=TZ   0.7547=RX  36.1139=RY  11.6517=RZ


      MOLECULAR POINT GROUP   :   C1  


           EIGENVECTORS  


   Root No.       1         2         3         4         5         6         7         8

                 1 A       2 A       3 A       4 A       5 A       6 A       7 A       8 A   

                  -0.2      -0.2      -0.1      -0.1      -0.0      -0.0      -0.0       0.0
  
           1    0.0298    0.0064   -0.0152   -0.0024    0.0508   -0.0048   -0.1405   -0.0674
           2    0.0502    0.0108   -0.0415   -0.0177    0.0228   -0.2213    0.0966   -0.0277
           3   -0.0359    0.0137    0.0142    0.0578   -0.1300    0.1133   -0.0187   -0.0343
           4    0.0232    0.0058   -0.0130   -0.0014    0.0488   -0.0044   -0.1416   -0.0654
           5    0.0088    0.0060   -0.0004   -0.0092    0.0530   -0.1023   -0.0756   -0.0673
           6   -0.0055   -0.0137    0.0079    0.0042   -0.0256    0.1102    0.1400   -0.1383
           7    0.0117    0.0067   -0.0366   -0.0073    0.0227   -0.1179    0.0085   -0.0416
           8    0.0217    0.0057    0.0112   -0.0053    0.0662   -0.0359   -0.1592   -0.0820
           9   -0.0175   -0.0178    0.0017   -0.0027   -0.0668   -0.0098   -0.0089    0.0880
          10   -0.1061   -0.0047    0.0384    0.0050    0.0741    0.0443   -0.2774   -0.1161
          11    0.1294    0.0178   -0.0742   -0.0247    0.0130   -0.2589    0.1800   -0.0010
          12   -0.0434    0.0221    0.0071    0.0695   -0.1342    0.1798    0.0469   -0.1895
          13   -0.0210   -0.0965    0.6053    0.0730   -0.0694    0.0041    0.0985    0.1046
          14    0.1162    0.0212   -0.0238    0.0002    0.0633    0.1658    0.2345    0.1738
          15    0.6903    0.0579    0.0616   -0.1198    0.2787    0.0167    0.0072    0.1358
          16    0.0817    0.0104   -0.0438   -0.0096    0.0326   -0.0694   -0.0191   -0.0326
          17    0.0886    0.0140   -0.0616   -0.0222    0.0098   -0.2617    0.1766   -0.0021
          18   -0.0601    0.0317    0.0094    0.0839   -0.2066    0.0697   -0.1722    0.1206
          19    0.0214    0.0048    0.0047    0.0023    0.0752    0.0941   -0.2648   -0.1007
          20    0.0111    0.0051    0.0115   -0.0057    0.0683   -0.0333   -0.1558   -0.0915
          21    0.0414   -0.0411    0.0125   -0.0541    0.1524    0.1927    0.4401   -0.4648
          22    0.0111    0.0068   -0.0333   -0.0059    0.0254   -0.1030   -0.0083   -0.0494
          23    0.0395    0.0055    0.0279   -0.0004    0.0858    0.0554   -0.2741   -0.0958
          24    0.0087   -0.0389    0.0005   -0.0326   -0.0541   -0.0698   -0.0573    0.4791
          25    0.0166   -0.0099   -0.0446   -0.0307    0.0156   -0.2161    0.0247    0.2824
          26    0.0001    0.0117    0.0057    0.0011    0.0352   -0.1019   -0.1922   -0.1295
          27   -0.0341   -0.0093    0.0000    0.0080   -0.0853   -0.0272   -0.0353   -0.0363
          28   -0.0203    0.0224   -0.0425    0.0137    0.0055   -0.1084    0.1232   -0.3517
          29    0.0389   -0.0001    0.0105   -0.0118    0.0838   -0.0082   -0.0666   -0.0225
          30   -0.0381   -0.0094    0.0006    0.0078   -0.0835   -0.0260   -0.0366   -0.0455
          31    0.0663   -0.0015   -0.1366    0.0465   -0.1299    0.0598    0.1365    0.1343
          32    0.0057    0.0053    0.1035    0.0072    0.0790    0.1259    0.2098    0.1535
          33   -0.1933    0.0450   -0.0422   -0.0581    0.1991   -0.1124   -0.0828    0.0321
          34   -0.0590   -0.0183   -0.0772   -0.0712    0.0835    0.2236    0.1067    0.1572
          35   -0.3627   -0.0806    0.5271    0.0362    0.0834    0.0084    0.1399    0.0904
          36   -0.2893    0.0556   -0.0303   -0.2375    0.5215    0.1469   -0.1055    0.0842
          37   -0.0906    0.0492   -0.2719   -0.0766    0.1235    0.2507    0.1108    0.1714
          38   -0.3581    0.0571   -0.4219    0.0744   -0.1011   -0.0063    0.1812    0.0956
          39   -0.1307    0.0085   -0.0844    0.0883   -0.1254   -0.3579   -0.0698   -0.0265
          40    0.0393    0.5211    0.0755    0.4756   -0.0771    0.0232    0.1261    0.0138
          41    0.1297   -0.4084   -0.1130    0.2661   -0.1556    0.3583   -0.1556    0.0176
          42    0.0820   -0.3324   -0.0520    0.4828    0.0384   -0.0801   -0.0304    0.0197
          43   -0.0040   -0.5027   -0.0092   -0.4108   -0.2813   -0.0759    0.1167   -0.0389
          44    0.0808    0.3290    0.0389   -0.2882   -0.4068    0.3161   -0.1395   -0.0115
          45    0.0253    0.2279    0.0936   -0.2975   -0.2784   -0.1462   -0.0166   -0.0243


   Root No.       9        10        11        12        13        14        15        16

                 9 A      10 A      11 A      12 A      13 A      14 A      15 A      16 A   

                   0.0       0.0       0.0       0.0       0.2       0.2       0.5       0.8
  
           1   -0.1010   -0.0451   -0.0205    0.0597   -0.0030    0.1457    0.0033   -0.0104
           2    0.0682    0.0295    0.0327   -0.1762    0.0083    0.0339   -0.0066    0.1835
           3   -0.0683   -0.1983   -0.1143   -0.0964   -0.0467    0.0042   -0.1168   -0.0119
           4   -0.1005   -0.0450   -0.0200    0.0595   -0.0012    0.1466   -0.0002    0.0072
           5    0.0247   -0.0198    0.0380   -0.1032   -0.0001   -0.2078   -0.0028    0.0417
           6   -0.0327   -0.0413   -0.0259   -0.0767   -0.1747    0.0061   -0.2670   -0.0025
           7   -0.0476    0.0233   -0.0242   -0.0438    0.0019   -0.0719   -0.0053    0.1413
           8   -0.0057   -0.0630    0.0399   -0.0403   -0.0059   -0.0805    0.0006   -0.0520
           9   -0.0289    0.1215    0.1110    0.0284   -0.0088    0.0022   -0.2251   -0.0034
          10   -0.1028   -0.0420   -0.0209    0.0478    0.0022   -0.1597    0.0067    0.2866
          11    0.0738    0.0317    0.0312   -0.1764    0.0152    0.2637   -0.0068   -0.0154
          12   -0.0869   -0.3345   -0.2226   -0.2036    0.7127    0.0108    0.0278   -0.0044
          13    0.3508   -0.1506    0.1240   -0.0239    0.0054    0.0284    0.0006   -0.0197
          14   -0.2374   -0.0932   -0.0172    0.3066    0.0203   -0.0757   -0.0000    0.0182
          15    0.0808   -0.0458   -0.1613    0.2809    0.0259   -0.1192   -0.0103    0.0423
          16   -0.0827   -0.0232   -0.0214    0.0363   -0.0074    0.5097    0.0028   -0.3110
          17    0.0781    0.0410    0.0320   -0.1886   -0.0019    0.2944    0.0009   -0.0298
          18   -0.0821   -0.2240   -0.1127   -0.0627   -0.5573    0.0032    0.3309    0.0185
          19   -0.1417   -0.0976   -0.0193    0.1292   -0.0222    0.1321    0.0125   -0.3868
          20   -0.0032   -0.0603    0.0382   -0.0537   -0.0160   -0.1978    0.0057   -0.2209
          21    0.0190    0.0154   -0.0372   -0.1245   -0.2040    0.0033    0.3994    0.0150
          22   -0.0533    0.0152   -0.0224   -0.0293    0.0003   -0.0399   -0.0087    0.2282
          23   -0.0526   -0.1260    0.0405    0.0514   -0.0066    0.3005   -0.0069    0.5874
          24   -0.1249    0.0712   -0.0400   -0.2021    0.0783    0.0012   -0.0851   -0.0027
          25   -0.0967    0.0254   -0.1348   -0.2661    0.0813   -0.3311    0.3376    0.0221
          26    0.0541    0.0884    0.2039    0.1225    0.1747   -0.1764    0.4205   -0.2581
          27    0.0259    0.2247    0.2536    0.2006    0.0993    0.0003   -0.0258   -0.1199
          28    0.0490    0.0811    0.0772    0.0667   -0.0824   -0.3286   -0.3466    0.0233
          29   -0.0474   -0.1896   -0.1266   -0.2455   -0.1834   -0.1762   -0.4167   -0.2585
          30    0.0280    0.2264    0.2560    0.2021    0.0973    0.0002   -0.0312    0.1137
          31    0.2884   -0.2419    0.1555    0.0900    0.0017   -0.0387    0.0057    0.0169
          32   -0.2038   -0.0499   -0.0277    0.2544    0.0117   -0.0397   -0.0013    0.0086
          33    0.2386    0.0575   -0.1937    0.0867    0.0039    0.0251   -0.0054   -0.0140
          34    0.1833   -0.0787    0.2285   -0.0968    0.0114    0.0043    0.0000    0.0036
          35   -0.0928    0.0283   -0.0528    0.1206    0.0048    0.0445   -0.0025   -0.0057
          36    0.0538    0.2737   -0.0762   -0.1516    0.0185    0.0664   -0.0144   -0.0222
          37    0.1458   -0.0717    0.2403   -0.0891    0.0090   -0.0045   -0.0034    0.0039
          38   -0.0865   -0.1213   -0.0580    0.2884   -0.0096   -0.0080    0.0054   -0.0018
          39    0.4252   -0.1436   -0.2848    0.2791   -0.0109    0.0049    0.0054   -0.0098
          40   -0.1099    0.4040   -0.2475   -0.0287    0.0004    0.0091   -0.0008   -0.0027
          41    0.2345    0.2879   -0.1213   -0.0872   -0.0012    0.0150    0.0031    0.0011
          42   -0.1959    0.0535    0.2923   -0.0999   -0.0121   -0.0004    0.0067    0.0003
          43   -0.1812    0.2468   -0.2946    0.0885    0.0024   -0.0018   -0.0040   -0.0024
          44    0.1960    0.2163   -0.0526   -0.0727   -0.0103    0.0101    0.0075    0.0018
          45   -0.2517   -0.0563    0.3558   -0.0602   -0.0215   -0.0082    0.0109    0.0011


   Root No.      17        18        19        20        21        22        23        24

                17 A      18 A      19 A      20 A      21 A      22 A      23 A      24 A   

                   1.0       1.1       1.2       1.2       1.3       1.4       1.7       1.9
  
           1    0.0568    0.0106    0.0002    0.0076    0.0128   -0.1629   -0.0037   -0.0009
           2    0.1688   -0.1810   -0.0071   -0.0248    0.0319   -0.1701    0.0250    0.0116
           3   -0.0223   -0.0078   -0.3021    0.0029    0.0038    0.0186    0.6660   -0.0467
           4    0.0349    0.0365   -0.0021    0.0093    0.0079   -0.1677   -0.0019    0.0012
           5    0.0070   -0.1587    0.0062   -0.0260    0.0245   -0.0044   -0.0001    0.0171
           6   -0.0098   -0.0168   -0.3180    0.0075   -0.0052    0.0016    0.1991   -0.0222
           7    0.0224    0.1007   -0.0111    0.0204    0.0033   -0.2329    0.0139    0.0199
           8   -0.0524   -0.0956    0.0068   -0.0224    0.0090    0.0700   -0.0092    0.0028
           9   -0.0051   -0.0192   -0.2057    0.0063   -0.0060   -0.0084   -0.2902    0.0159
          10    0.5857   -0.3298   -0.0086   -0.0644    0.0639    0.0778    0.0125    0.0040
          11   -0.1529   -0.0056    0.0079    0.0346    0.0008   -0.4071   -0.0020   -0.0118
          12    0.0063   -0.0015    0.1168    0.0126   -0.0033   -0.0024   -0.2340    0.0081
          13   -0.0405    0.0555   -0.0061    0.0564    0.5722    0.0129   -0.0069    0.0771
          14    0.0155    0.0314   -0.0055   -0.3085   -0.0384   -0.0033    0.0131    0.2861
          15    0.0596   -0.0682    0.0056    0.2639    0.0271    0.0261   -0.0215   -0.3239
          16    0.1188    0.0511   -0.0053   -0.0243   -0.0159    0.4667   -0.0134   -0.0007
          17    0.2038   -0.1963   -0.0027   -0.0531    0.0184    0.2512    0.0119    0.0209
          18    0.0184    0.0086    0.1871    0.0077   -0.0029   -0.0140   -0.2501    0.0113
          19   -0.3171   -0.2141    0.0305   -0.0078    0.0014   -0.2415    0.0048   -0.0030
          20   -0.2381   -0.3368    0.0256   -0.0439    0.0195   -0.0449    0.0114    0.0157
          21    0.0137    0.0116    0.1290    0.0033    0.0008   -0.0029   -0.0404    0.0040
          22   -0.0254    0.1643   -0.0233    0.0318   -0.0041   -0.2764    0.0121    0.0283
          23   -0.3175    0.3094   -0.0043    0.0332   -0.0495    0.2095   -0.0048   -0.0096
          24    0.0179    0.0324    0.5815   -0.0096    0.0110    0.0004    0.2616   -0.0146
          25   -0.2615    0.0729   -0.4006    0.0078   -0.0297    0.2724   -0.1031   -0.0137
          26    0.1685    0.3563    0.0245    0.0386   -0.0272    0.0577    0.2892   -0.0284
          27    0.2101    0.3066   -0.1248    0.0560   -0.0271   -0.1809   -0.1395    0.0101
          28   -0.2161    0.1235    0.4157   -0.0034   -0.0175    0.2702    0.0840   -0.0224
          29    0.1853    0.3338   -0.0701    0.0406   -0.0354    0.0460   -0.3054    0.0123
          30   -0.2258   -0.3216   -0.0645   -0.0468    0.0212    0.1808   -0.1586    0.0031
          31    0.0291   -0.0242    0.0041   -0.1131   -0.2604   -0.0082    0.0046    0.0508
          32    0.0012    0.0315   -0.0052   -0.2129    0.0999   -0.0099    0.0129    0.3450
          33   -0.0165   -0.0131    0.0009    0.1735   -0.0723    0.0165    0.0303    0.4479
          34    0.0036    0.0373   -0.0036   -0.4436   -0.1733   -0.0413   -0.0270   -0.4021
          35    0.0130   -0.0859    0.0176    0.2739   -0.5046   -0.0129   -0.0116   -0.2852
          36   -0.0388    0.0691   -0.0117   -0.2344    0.2012   -0.0174   -0.0121   -0.0947
          37    0.0148   -0.0813    0.0106    0.5209   -0.1430    0.0331    0.0244    0.2734
          38   -0.0050    0.0013    0.0023    0.2482    0.4505    0.0176   -0.0292   -0.3868
          39   -0.0099    0.0224    0.0010   -0.2431   -0.1561   -0.0202   -0.0052   -0.0153
          40   -0.0025   -0.0009    0.0006   -0.0159   -0.0203   -0.0027   -0.0017   -0.0211
          41    0.0010   -0.0015    0.0017    0.0134    0.0030    0.0003   -0.0008    0.0067
          42    0.0006   -0.0012    0.0023    0.0029    0.0051    0.0010   -0.0032    0.0091
          43   -0.0029   -0.0020   -0.0009    0.0182    0.0029    0.0005    0.0013    0.0092
          44    0.0019   -0.0022    0.0023    0.0091   -0.0022    0.0003   -0.0004    0.0038
          45    0.0015   -0.0014    0.0025   -0.0026    0.0026    0.0012   -0.0023    0.0080


   Root No.      25        26        27        28        29        30        31        32

                25 A      26 A      27 A      28 A      29 A      30 A      31 A      32 A   

                   2.3       2.8       3.8       4.4       6.5       6.7       7.3       7.9
  
           1   -0.2657   -0.1302   -0.0062   -0.0385   -0.3062    0.0297    0.0183    0.0062
           2   -0.1135    0.1436   -0.0066    0.0335   -0.0814    0.0045    0.0040   -0.0194
           3   -0.0171   -0.0061   -0.4751   -0.0059    0.0008   -0.0026    0.0030    0.0067
           4   -0.2099   -0.1079   -0.0028    0.0868   -0.3601    0.0364    0.0340    0.0065
           5    0.1663   -0.2461    0.0014   -0.3115   -0.2398    0.0226    0.0088    0.0030
           6   -0.0121   -0.0146    0.7629    0.0032   -0.0010    0.0024   -0.0019   -0.0023
           7    0.2756   -0.1742   -0.0026    0.0492   -0.2262    0.0265    0.0462    0.0281
           8   -0.0713   -0.3334   -0.0047    0.0948   -0.2676    0.0331    0.0623    0.0356
           9    0.0060    0.0061   -0.0748    0.0008   -0.0017    0.0005    0.0003    0.0003
          10   -0.1524    0.1770    0.0030   -0.1251    0.3068   -0.0334   -0.0418   -0.0137
          11   -0.3935   -0.0283    0.0024   -0.2775    0.3590   -0.0361   -0.0380   -0.0288
          12    0.0131    0.0023    0.0974    0.0037   -0.0024    0.0021    0.0037    0.0060
          13   -0.0012    0.0071    0.0035    0.0017   -0.0151   -0.0400   -0.0658   -0.1018
          14   -0.0074    0.0066    0.0012    0.0060   -0.0722   -0.1920   -0.2448   -0.5871
          15    0.0240    0.0087    0.0029    0.0039    0.0118    0.0439    0.0104    0.0454
          16    0.1400   -0.2633   -0.0016   -0.3317    0.1629   -0.0158   -0.0137   -0.0141
          17    0.2451    0.3151    0.0063    0.4167   -0.1971    0.0211    0.0166    0.0203
          18   -0.0001   -0.0042    0.0933   -0.0047    0.0025   -0.0002    0.0007   -0.0010
          19    0.0178    0.3931    0.0041    0.2565    0.0831   -0.0081   -0.0054   -0.0013
          20    0.3620    0.0667    0.0035   -0.3114    0.0874   -0.0102   -0.0142   -0.0144
          21   -0.0006   -0.0018   -0.1976   -0.0005   -0.0023   -0.0004   -0.0007    0.0014
          22    0.4872   -0.2477   -0.0071    0.2430    0.3868   -0.0406   -0.0473   -0.0212
          23    0.0387    0.2098    0.0021   -0.0640    0.0155   -0.0014   -0.0014   -0.0004
          24    0.0059   -0.0058    0.0516    0.0036    0.0046   -0.0001   -0.0014   -0.0007
          25   -0.1470    0.1740    0.0005   -0.0674   -0.0233    0.0021    0.0018    0.0011
          26   -0.1167   -0.0755    0.2103    0.2125    0.1568   -0.0161   -0.0184   -0.0089
          27    0.1794    0.3348   -0.1291   -0.3010   -0.1712    0.0169    0.0210    0.0088
          28   -0.1439    0.1765    0.0120   -0.0716   -0.0269    0.0022    0.0032    0.0013
          29   -0.1115   -0.0582   -0.2135    0.2115    0.1579   -0.0166   -0.0187   -0.0087
          30   -0.1797   -0.3162   -0.1404    0.2975    0.1719   -0.0190   -0.0207   -0.0102
          31   -0.0042    0.0070    0.0006   -0.0042    0.0742   -0.0547    0.7327   -0.1355
          32   -0.0258    0.0125    0.0077   -0.0170    0.0752    0.1099    0.1225    0.7075
          33   -0.0175    0.0007    0.0013    0.0013    0.0539    0.6409   -0.0040   -0.2064
          34    0.0123   -0.0067   -0.0038    0.0004    0.0049    0.4129   -0.3576    0.0848
          35    0.0090   -0.0149   -0.0027    0.0038   -0.0101   -0.0359    0.0473   -0.0351
          36    0.0001   -0.0018    0.0061    0.0006   -0.0106   -0.3291    0.2576   -0.0381
          37   -0.0090   -0.0044    0.0006    0.0008   -0.0600   -0.3137   -0.3059    0.1617
          38    0.0195    0.0014   -0.0045    0.0028    0.0155    0.1190    0.0687   -0.0635
          39   -0.0015   -0.0049    0.0023   -0.0021   -0.0587   -0.3608   -0.2698    0.1898
          40    0.0008   -0.0003   -0.0001    0.0001   -0.0008    0.0002   -0.0053   -0.0001
          41   -0.0005    0.0002   -0.0006   -0.0000    0.0000    0.0030   -0.0109    0.0038
          42   -0.0001    0.0012    0.0007   -0.0001    0.0014   -0.0045    0.0165   -0.0040
          43   -0.0003   -0.0001   -0.0000   -0.0001   -0.0001   -0.0035    0.0066   -0.0020
          44   -0.0004    0.0003   -0.0023   -0.0000    0.0009   -0.0050    0.0164   -0.0040
          45    0.0002    0.0017   -0.0014   -0.0002    0.0009    0.0099   -0.0148    0.0043


   Root No.      33        34        35        36        37        38        39

                33 A      34 A      35 A      36 A      37 A      38 A      39 A   

                   8.5       8.9       9.2       9.6      10.1      17.6      22.3
  
           1    0.0005   -0.0166   -0.1033   -0.2888   -0.1183    0.5755   -0.4453
           2   -0.0007   -0.0192   -0.2633   -0.0823    0.7566    0.0019    0.0108
           3    0.0002    0.0372    0.0005   -0.0000   -0.0132   -0.0047   -0.0025
           4    0.0003   -0.0157   -0.0887   -0.2237   -0.1212   -0.2227    0.7098
           5    0.0010   -0.0296   -0.1940   -0.2587   -0.2184   -0.5479   -0.3395
           6    0.0001   -0.1262    0.0130    0.0007    0.0029    0.0013   -0.0019
           7   -0.0016   -0.0218   -0.2359    0.7398   -0.0709    0.0345   -0.0463
           8   -0.0021    0.0843    0.7309    0.1833    0.2279    0.0278   -0.0111
           9   -0.0002    0.7929   -0.0888   -0.0071   -0.0109    0.0007    0.0002
          10    0.0003    0.0145    0.1243    0.1233   -0.1313   -0.0315    0.0163
          11    0.0002    0.0174    0.1681    0.1343   -0.2690   -0.0516    0.0177
          12    0.0001    0.0014   -0.0023   -0.0007    0.0044    0.0019   -0.0005
          13    0.0007    0.0005    0.0047    0.0064    0.0013    0.0003   -0.0013
          14    0.0006    0.0038    0.0236    0.0280   -0.0054   -0.0030   -0.0032
          15    0.0006   -0.0005   -0.0010    0.0003    0.0019   -0.0026    0.0033
          16   -0.0003   -0.0022   -0.0562    0.0531    0.2207   -0.0676    0.0018
          17    0.0006    0.0038    0.0935   -0.0574   -0.3560    0.0638   -0.0170
          18    0.0002   -0.0054   -0.0007    0.0008    0.0050   -0.0010    0.0010
          19   -0.0001    0.0039    0.0121    0.0776    0.1149   -0.3037   -0.2425
          20    0.0005   -0.0164   -0.1353   -0.0234   -0.0609    0.4593    0.3464
          21    0.0001    0.0323   -0.0028   -0.0009   -0.0013   -0.0035    0.0016
          22    0.0007    0.0166    0.2122   -0.3907    0.0708    0.0148   -0.0051
          23    0.0001   -0.0052   -0.0633    0.0514   -0.0157    0.0066   -0.0171
          24    0.0001   -0.0431    0.0077   -0.0033    0.0021    0.0014   -0.0001
          25   -0.0000   -0.0768    0.0750   -0.0435    0.0187    0.0007    0.0065
          26    0.0003    0.1899   -0.1912    0.0210   -0.0346    0.0199    0.0059
          27   -0.0000   -0.3229    0.2395   -0.0359    0.0476   -0.0127   -0.0027
          28   -0.0000    0.0977    0.0602   -0.0470    0.0168    0.0004    0.0067
          29    0.0004   -0.2263   -0.1472    0.0286   -0.0294    0.0204    0.0061
          30    0.0006   -0.3656   -0.1654    0.0466   -0.0381    0.0152    0.0030
          31   -0.0230   -0.0020   -0.0146   -0.0212   -0.0123   -0.0016   -0.0055
          32    0.0028   -0.0031   -0.0179   -0.0189    0.0053   -0.0009    0.0037
          33    0.0030   -0.0003    0.0017    0.0016   -0.0010    0.0015   -0.0014
          34    0.0185    0.0006    0.0043    0.0068    0.0045   -0.0004    0.0008
          35   -0.0027   -0.0002   -0.0026   -0.0045   -0.0005    0.0031   -0.0018
          36   -0.0130   -0.0008   -0.0048   -0.0076   -0.0030    0.0025   -0.0014
          37    0.0034    0.0010    0.0058    0.0083    0.0066    0.0007    0.0037
          38   -0.0032    0.0001   -0.0013   -0.0015   -0.0001    0.0008   -0.0005
          39    0.0067    0.0003    0.0031    0.0050    0.0036   -0.0001    0.0013
          40   -0.1036    0.0000   -0.0001   -0.0002   -0.0002    0.0003    0.0001
          41   -0.5081   -0.0001   -0.0004   -0.0008   -0.0005   -0.0001   -0.0001
          42    0.4796    0.0005    0.0005    0.0009    0.0006    0.0001   -0.0000
          43    0.1042    0.0002   -0.0001   -0.0001   -0.0001    0.0003    0.0001
          44    0.5103    0.0006    0.0004    0.0008    0.0007    0.0000   -0.0002
          45   -0.4781    0.0002   -0.0002   -0.0004   -0.0005   -0.0001    0.0000


          FORCE CONSTANTS IN MILLIDYNES/ANGSTROM (= 10**5 DYNES/CM)

  -0.24218  -0.21176  -0.14691  -0.07208  -0.03072  -0.01110  -0.00982   0.00105
   0.00439   0.00814   0.01795   0.02449   0.18752   0.22768   0.53689   0.75318
   0.95891   1.14287   1.16265   1.24238   1.33522   1.41198   1.72989   1.88314
   2.26513   2.78973   3.75331   4.41995   6.52278   6.68757   7.31015   7.92902
   8.53083   8.94120   9.22384   9.56523  10.05943  17.61132  22.30096


           ASSOCIATED EIGENVECTORS




    ROOT NO.    1           2           3           4           5           6

            -0.24218    -0.21176    -0.14691    -0.07208    -0.03072    -0.01110
  
         1   0.02977     0.00642    -0.01516    -0.00243     0.05085    -0.00477
         2   0.05017     0.01083    -0.04147    -0.01770     0.02285    -0.22130
         3  -0.03589     0.01372     0.01418     0.05783    -0.13004     0.11325
         4   0.02324     0.00583    -0.01295    -0.00139     0.04878    -0.00441
         5   0.00881     0.00596    -0.00042    -0.00924     0.05302    -0.10231
         6  -0.00549    -0.01370     0.00786     0.00416    -0.02563     0.11020
         7   0.01169     0.00675    -0.03664    -0.00726     0.02271    -0.11788
         8   0.02167     0.00566     0.01125    -0.00526     0.06619    -0.03586
         9  -0.01746    -0.01782     0.00167    -0.00267    -0.06681    -0.00975
        10  -0.10610    -0.00471     0.03843     0.00498     0.07409     0.04434
        11   0.12936     0.01784    -0.07417    -0.02470     0.01297    -0.25889
        12  -0.04336     0.02215     0.00714     0.06955    -0.13418     0.17977
        13  -0.02104    -0.09651     0.60527     0.07301    -0.06939     0.00408
        14   0.11623     0.02120    -0.02384     0.00020     0.06325     0.16580
        15   0.69035     0.05792     0.06156    -0.11980     0.27865     0.01669
        16   0.08169     0.01040    -0.04380    -0.00962     0.03256    -0.06939
        17   0.08864     0.01399    -0.06159    -0.02217     0.00984    -0.26174
        18  -0.06014     0.03167     0.00935     0.08391    -0.20656     0.06974
        19   0.02140     0.00479     0.00466     0.00228     0.07520     0.09411
        20   0.01113     0.00511     0.01148    -0.00565     0.06833    -0.03326
        21   0.04138    -0.04106     0.01250    -0.05409     0.15238     0.19272
        22   0.01109     0.00681    -0.03332    -0.00594     0.02537    -0.10298
        23   0.03955     0.00548     0.02790    -0.00042     0.08584     0.05538
        24   0.00870    -0.03889     0.00048    -0.03263    -0.05415    -0.06983
        25   0.01656    -0.00989    -0.04461    -0.03074     0.01564    -0.21606
        26   0.00009     0.01170     0.00574     0.00107     0.03517    -0.10189
        27  -0.03406    -0.00930     0.00004     0.00798    -0.08527    -0.02718
        28  -0.02029     0.02237    -0.04247     0.01373     0.00551    -0.10837
        29   0.03893    -0.00008     0.01046    -0.01183     0.08376    -0.00824
        30  -0.03806    -0.00941     0.00056     0.00775    -0.08352    -0.02597
        31   0.06628    -0.00151    -0.13663     0.04646    -0.12986     0.05982
        32   0.00572     0.00528     0.10352     0.00717     0.07896     0.12589
        33  -0.19331     0.04504    -0.04220    -0.05808     0.19905    -0.11237
        34  -0.05897    -0.01830    -0.07724    -0.07125     0.08354     0.22361
        35  -0.36267    -0.08059     0.52711     0.03624     0.08335     0.00836
        36  -0.28932     0.05561    -0.03034    -0.23747     0.52151     0.14692
        37  -0.09055     0.04924    -0.27187    -0.07664     0.12346     0.25065
        38  -0.35814     0.05706    -0.42190     0.07437    -0.10115    -0.00633
        39  -0.13067     0.00855    -0.08444     0.08828    -0.12544    -0.35789
        40   0.03926     0.52107     0.07552     0.47559    -0.07711     0.02318
        41   0.12972    -0.40843    -0.11298     0.26608    -0.15562     0.35826
        42   0.08204    -0.33241    -0.05199     0.48278     0.03839    -0.08008
        43  -0.00401    -0.50275    -0.00919    -0.41078    -0.28134    -0.07593
        44   0.08079     0.32900     0.03891    -0.28816    -0.40675     0.31614
        45   0.02529     0.22792     0.09361    -0.29750    -0.27838    -0.14622




    ROOT NO.    7           8           9          10          11          12

            -0.00982     0.00105     0.00439     0.00814     0.01795     0.02449
  
         1  -0.14054    -0.06742    -0.10097    -0.04514    -0.02050     0.05968
         2   0.09661    -0.02765     0.06822     0.02946     0.03270    -0.17621
         3  -0.01866    -0.03428    -0.06828    -0.19835    -0.11432    -0.09644
         4  -0.14163    -0.06538    -0.10051    -0.04503    -0.02004     0.05954
         5  -0.07562    -0.06734     0.02474    -0.01982     0.03805    -0.10317
         6   0.13998    -0.13830    -0.03269    -0.04130    -0.02587    -0.07674
         7   0.00850    -0.04165    -0.04756     0.02331    -0.02416    -0.04384
         8  -0.15920    -0.08204    -0.00566    -0.06296     0.03985    -0.04030
         9  -0.00886     0.08796    -0.02888     0.12148     0.11105     0.02836
        10  -0.27736    -0.11609    -0.10276    -0.04198    -0.02089     0.04783
        11   0.17999    -0.00104     0.07379     0.03174     0.03120    -0.17644
        12   0.04693    -0.18947    -0.08686    -0.33450    -0.22256    -0.20364
        13   0.09853     0.10461     0.35082    -0.15058     0.12402    -0.02389
        14   0.23449     0.17383    -0.23744    -0.09320    -0.01722     0.30660
        15   0.00716     0.13584     0.08076    -0.04576    -0.16132     0.28093
        16  -0.01912    -0.03258    -0.08265    -0.02320    -0.02139     0.03628
        17   0.17660    -0.00205     0.07807     0.04097     0.03198    -0.18865
        18  -0.17225     0.12059    -0.08206    -0.22403    -0.11268    -0.06267
        19  -0.26477    -0.10071    -0.14174    -0.09757    -0.01930     0.12922
        20  -0.15575    -0.09146    -0.00316    -0.06031     0.03817    -0.05368
        21   0.44008    -0.46485     0.01897     0.01541    -0.03721    -0.12446
        22  -0.00833    -0.04936    -0.05334     0.01519    -0.02237    -0.02931
        23  -0.27408    -0.09577    -0.05265    -0.12596     0.04049     0.05135
        24  -0.05732     0.47909    -0.12490     0.07116    -0.04005    -0.20206
        25   0.02472     0.28243    -0.09675     0.02539    -0.13483    -0.26608
        26  -0.19217    -0.12951     0.05412     0.08838     0.20394     0.12255
        27  -0.03530    -0.03631     0.02589     0.22473     0.25355     0.20056
        28   0.12318    -0.35165     0.04902     0.08111     0.07723     0.06673
        29  -0.06656    -0.02250    -0.04736    -0.18965    -0.12661    -0.24553
        30  -0.03663    -0.04549     0.02804     0.22639     0.25598     0.20211
        31   0.13646     0.13429     0.28842    -0.24192     0.15551     0.09003
        32   0.20980     0.15350    -0.20383    -0.04986    -0.02774     0.25443
        33  -0.08278     0.03210     0.23861     0.05754    -0.19373     0.08675
        34   0.10674     0.15724     0.18330    -0.07865     0.22853    -0.09683
        35   0.13987     0.09039    -0.09283     0.02827    -0.05283     0.12057
        36  -0.10550     0.08417     0.05376     0.27370    -0.07623    -0.15161
        37   0.11084     0.17144     0.14579    -0.07169     0.24025    -0.08915
        38   0.18117     0.09557    -0.08650    -0.12130    -0.05803     0.28837
        39  -0.06979    -0.02646     0.42520    -0.14365    -0.28476     0.27909
        40   0.12608     0.01376    -0.10992     0.40396    -0.24750    -0.02871
        41  -0.15561     0.01762     0.23452     0.28794    -0.12135    -0.08723
        42  -0.03042     0.01965    -0.19586     0.05351     0.29229    -0.09994
        43   0.11671    -0.03892    -0.18117     0.24680    -0.29457     0.08850
        44  -0.13954    -0.01153     0.19597     0.21631    -0.05260    -0.07268
        45  -0.01664    -0.02426    -0.25170    -0.05634     0.35584    -0.06023




    ROOT NO.   13          14          15          16          17          18

             0.18752     0.22768     0.53689     0.75318     0.95891     1.14287
  
         1  -0.00298     0.14568     0.00332    -0.01038     0.05678     0.01055
         2   0.00825     0.03393    -0.00659     0.18348     0.16883    -0.18103
         3  -0.04671     0.00416    -0.11683    -0.01190    -0.02226    -0.00777
         4  -0.00116     0.14661    -0.00018     0.00717     0.03490     0.03647
         5  -0.00009    -0.20777    -0.00281     0.04174     0.00700    -0.15865
         6  -0.17468     0.00610    -0.26701    -0.00253    -0.00980    -0.01678
         7   0.00192    -0.07185    -0.00534     0.14132     0.02237     0.10070
         8  -0.00592    -0.08050     0.00062    -0.05201    -0.05243    -0.09560
         9  -0.00877     0.00220    -0.22507    -0.00342    -0.00512    -0.01918
        10   0.00224    -0.15966     0.00665     0.28655     0.58566    -0.32983
        11   0.01521     0.26371    -0.00683    -0.01541    -0.15289    -0.00559
        12   0.71275     0.01080     0.02784    -0.00438     0.00634    -0.00153
        13   0.00538     0.02839     0.00056    -0.01967    -0.04046     0.05548
        14   0.02028    -0.07573    -0.00004     0.01820     0.01551     0.03140
        15   0.02595    -0.11924    -0.01026     0.04233     0.05958    -0.06821
        16  -0.00737     0.50974     0.00280    -0.31102     0.11876     0.05105
        17  -0.00191     0.29436     0.00087    -0.02976     0.20376    -0.19627
        18  -0.55731     0.00318     0.33090     0.01846     0.01835     0.00863
        19  -0.02215     0.13210     0.01250    -0.38678    -0.31712    -0.21407
        20  -0.01599    -0.19780     0.00565    -0.22092    -0.23814    -0.33680
        21  -0.20402     0.00328     0.39937     0.01503     0.01375     0.01158
        22   0.00027    -0.03986    -0.00873     0.22821    -0.02539     0.16429
        23  -0.00659     0.30048    -0.00691     0.58737    -0.31750     0.30938
        24   0.07832     0.00125    -0.08511    -0.00268     0.01793     0.03236
        25   0.08134    -0.33105     0.33756     0.02209    -0.26153     0.07291
        26   0.17470    -0.17635     0.42052    -0.25813     0.16849     0.35627
        27   0.09933     0.00032    -0.02580    -0.11991     0.21013     0.30659
        28  -0.08237    -0.32857    -0.34661     0.02326    -0.21610     0.12350
        29  -0.18336    -0.17618    -0.41668    -0.25851     0.18527     0.33378
        30   0.09733     0.00020    -0.03121     0.11375    -0.22576    -0.32157
        31   0.00166    -0.03871     0.00570     0.01688     0.02907    -0.02419
        32   0.01170    -0.03975    -0.00132     0.00859     0.00119     0.03146
        33   0.00391     0.02512    -0.00535    -0.01404    -0.01654    -0.01309
        34   0.01139     0.00435     0.00002     0.00357     0.00364     0.03731
        35   0.00484     0.04446    -0.00246    -0.00566     0.01297    -0.08593
        36   0.01852     0.06639    -0.01445    -0.02223    -0.03880     0.06914
        37   0.00902    -0.00445    -0.00343     0.00388     0.01477    -0.08131
        38  -0.00958    -0.00799     0.00540    -0.00180    -0.00499     0.00129
        39  -0.01091     0.00487     0.00541    -0.00983    -0.00991     0.02240
        40   0.00036     0.00905    -0.00081    -0.00270    -0.00248    -0.00087
        41  -0.00123     0.01503     0.00305     0.00105     0.00101    -0.00152
        42  -0.01214    -0.00042     0.00668     0.00030     0.00063    -0.00120
        43   0.00245    -0.00178    -0.00400    -0.00237    -0.00288    -0.00198
        44  -0.01031     0.01011     0.00751     0.00176     0.00194    -0.00218
        45  -0.02154    -0.00823     0.01088     0.00105     0.00147    -0.00138




    ROOT NO.   19          20          21          22          23          24

             1.16265     1.24238     1.33522     1.41198     1.72989     1.88314
  
         1   0.00018     0.00760     0.01282    -0.16290    -0.00368    -0.00088
         2  -0.00715    -0.02484     0.03185    -0.17008     0.02498     0.01158
         3  -0.30210     0.00290     0.00381     0.01860     0.66601    -0.04670
         4  -0.00214     0.00931     0.00787    -0.16769    -0.00193     0.00124
         5   0.00624    -0.02599     0.02452    -0.00443    -0.00009     0.01705
         6  -0.31802     0.00745    -0.00517     0.00159     0.19909    -0.02225
         7  -0.01112     0.02038     0.00330    -0.23286     0.01386     0.01990
         8   0.00680    -0.02237     0.00897     0.06998    -0.00924     0.00275
         9  -0.20570     0.00625    -0.00603    -0.00837    -0.29022     0.01589
        10  -0.00862    -0.06445     0.06391     0.07779     0.01248     0.00400
        11   0.00792     0.03463     0.00076    -0.40711    -0.00197    -0.01177
        12   0.11684     0.01261    -0.00331    -0.00235    -0.23404     0.00807
        13  -0.00607     0.05644     0.57216     0.01292    -0.00692     0.07705
        14  -0.00554    -0.30847    -0.03839    -0.00329     0.01313     0.28609
        15   0.00564     0.26393     0.02714     0.02607    -0.02154    -0.32395
        16  -0.00534    -0.02426    -0.01589     0.46670    -0.01337    -0.00069
        17  -0.00269    -0.05311     0.01838     0.25124     0.01190     0.02089
        18   0.18713     0.00771    -0.00287    -0.01397    -0.25007     0.01132
        19   0.03054    -0.00780     0.00138    -0.24149     0.00481    -0.00303
        20   0.02560    -0.04392     0.01949    -0.04490     0.01141     0.01569
        21   0.12900     0.00334     0.00082    -0.00295    -0.04040     0.00404
        22  -0.02328     0.03176    -0.00415    -0.27639     0.01213     0.02828
        23  -0.00430     0.03321    -0.04952     0.20948    -0.00483    -0.00964
        24   0.58146    -0.00959     0.01097     0.00042     0.26162    -0.01461
        25  -0.40065     0.00780    -0.02969     0.27236    -0.10305    -0.01370
        26   0.02445     0.03864    -0.02720     0.05768     0.28915    -0.02843
        27  -0.12481     0.05595    -0.02714    -0.18089    -0.13946     0.01011
        28   0.41567    -0.00342    -0.01755     0.27018     0.08397    -0.02236
        29  -0.07014     0.04061    -0.03543     0.04602    -0.30540     0.01233
        30  -0.06450    -0.04684     0.02122     0.18082    -0.15860     0.00310
        31   0.00413    -0.11314    -0.26041    -0.00824     0.00462     0.05082
        32  -0.00520    -0.21288     0.09990    -0.00991     0.01286     0.34503
        33   0.00090     0.17349    -0.07231     0.01646     0.03032     0.44795
        34  -0.00362    -0.44355    -0.17333    -0.04125    -0.02697    -0.40209
        35   0.01763     0.27386    -0.50461    -0.01289    -0.01157    -0.28517
        36  -0.01166    -0.23439     0.20119    -0.01741    -0.01208    -0.09466
        37   0.01063     0.52093    -0.14303     0.03308     0.02444     0.27338
        38   0.00233     0.24822     0.45046     0.01762    -0.02918    -0.38684
        39   0.00105    -0.24307    -0.15607    -0.02018    -0.00521    -0.01534
        40   0.00059    -0.01585    -0.02031    -0.00269    -0.00167    -0.02107
        41   0.00172     0.01336     0.00302     0.00030    -0.00078     0.00667
        42   0.00230     0.00288     0.00512     0.00096    -0.00315     0.00906
        43  -0.00094     0.01824     0.00291     0.00050     0.00128     0.00915
        44   0.00230     0.00907    -0.00219     0.00029    -0.00036     0.00375
        45   0.00249    -0.00263     0.00263     0.00120    -0.00226     0.00796




    ROOT NO.   25          26          27          28          29          30

             2.26513     2.78973     3.75331     4.41995     6.52278     6.68757
  
         1  -0.26573    -0.13025    -0.00619    -0.03846    -0.30623     0.02965
         2  -0.11355     0.14361    -0.00659     0.03348    -0.08143     0.00446
         3  -0.01707    -0.00615    -0.47512    -0.00586     0.00083    -0.00260
         4  -0.20992    -0.10787    -0.00279     0.08683    -0.36009     0.03637
         5   0.16631    -0.24610     0.00139    -0.31155    -0.23984     0.02258
         6  -0.01212    -0.01463     0.76290     0.00321    -0.00104     0.00244
         7   0.27562    -0.17420    -0.00256     0.04915    -0.22623     0.02651
         8  -0.07126    -0.33338    -0.00473     0.09484    -0.26765     0.03313
         9   0.00596     0.00608    -0.07478     0.00078    -0.00171     0.00053
        10  -0.15242     0.17698     0.00298    -0.12507     0.30676    -0.03343
        11  -0.39347    -0.02826     0.00240    -0.27754     0.35895    -0.03615
        12   0.01306     0.00230     0.09736     0.00369    -0.00237     0.00213
        13  -0.00123     0.00714     0.00350     0.00168    -0.01508    -0.04001
        14  -0.00739     0.00660     0.00117     0.00595    -0.07219    -0.19203
        15   0.02405     0.00867     0.00287     0.00391     0.01184     0.04394
        16   0.13997    -0.26332    -0.00156    -0.33171     0.16294    -0.01582
        17   0.24508     0.31506     0.00628     0.41666    -0.19706     0.02112
        18  -0.00005    -0.00418     0.09329    -0.00466     0.00253    -0.00019
        19   0.01778     0.39315     0.00409     0.25654     0.08310    -0.00813
        20   0.36196     0.06665     0.00350    -0.31139     0.08740    -0.01020
        21  -0.00063    -0.00176    -0.19759    -0.00055    -0.00234    -0.00043
        22   0.48720    -0.24766    -0.00712     0.24305     0.38676    -0.04056
        23   0.03875     0.20979     0.00212    -0.06401     0.01554    -0.00136
        24   0.00587    -0.00585     0.05161     0.00357     0.00459    -0.00014
        25  -0.14696     0.17400     0.00047    -0.06740    -0.02325     0.00208
        26  -0.11670    -0.07546     0.21034     0.21251     0.15682    -0.01611
        27   0.17941     0.33485    -0.12914    -0.30101    -0.17120     0.01691
        28  -0.14390     0.17654     0.01202    -0.07161    -0.02694     0.00220
        29  -0.11146    -0.05816    -0.21346     0.21147     0.15795    -0.01656
        30  -0.17967    -0.31617    -0.14036     0.29746     0.17194    -0.01900
        31  -0.00420     0.00699     0.00055    -0.00416     0.07422    -0.05473
        32  -0.02583     0.01250     0.00766    -0.01703     0.07517     0.10993
        33  -0.01749     0.00066     0.00127     0.00125     0.05391     0.64089
        34   0.01227    -0.00669    -0.00381     0.00036     0.00493     0.41294
        35   0.00901    -0.01485    -0.00269     0.00380    -0.01012    -0.03594
        36   0.00012    -0.00185     0.00611     0.00057    -0.01058    -0.32913
        37  -0.00899    -0.00443     0.00058     0.00080    -0.06002    -0.31373
        38   0.01947     0.00144    -0.00451     0.00282     0.01546     0.11904
        39  -0.00151    -0.00491     0.00232    -0.00206    -0.05874    -0.36082
        40   0.00080    -0.00029    -0.00014     0.00013    -0.00079     0.00020
        41  -0.00053     0.00023    -0.00058    -0.00002     0.00004     0.00304
        42  -0.00007     0.00121     0.00070    -0.00013     0.00144    -0.00449
        43  -0.00028    -0.00010    -0.00002    -0.00012    -0.00008    -0.00354
        44  -0.00040     0.00031    -0.00231    -0.00000     0.00095    -0.00496
        45   0.00015     0.00174    -0.00143    -0.00019     0.00088     0.00995




    ROOT NO.   31          32          33          34          35          36

             7.31015     7.92902     8.53083     8.94120     9.22384     9.56523
  
         1   0.01826     0.00620     0.00053    -0.01662    -0.10326    -0.28880
         2   0.00397    -0.01943    -0.00066    -0.01917    -0.26328    -0.08235
         3   0.00304     0.00668     0.00023     0.03722     0.00052    -0.00005
         4   0.03398     0.00653     0.00028    -0.01574    -0.08872    -0.22373
         5   0.00877     0.00300     0.00102    -0.02961    -0.19400    -0.25867
         6  -0.00190    -0.00228     0.00015    -0.12617     0.01302     0.00074
         7   0.04620     0.02806    -0.00160    -0.02177    -0.23587     0.73976
         8   0.06228     0.03564    -0.00209     0.08428     0.73092     0.18330
         9   0.00027     0.00035    -0.00023     0.79287    -0.08876    -0.00713
        10  -0.04181    -0.01371     0.00030     0.01449     0.12433     0.12330
        11  -0.03805    -0.02878     0.00016     0.01742     0.16808     0.13435
        12   0.00366     0.00597     0.00011     0.00139    -0.00227    -0.00067
        13  -0.06580    -0.10175     0.00074     0.00053     0.00474     0.00637
        14  -0.24484    -0.58708     0.00060     0.00379     0.02365     0.02800
        15   0.01036     0.04537     0.00060    -0.00052    -0.00104     0.00028
        16  -0.01366    -0.01407    -0.00031    -0.00218    -0.05616     0.05306
        17   0.01657     0.02035     0.00058     0.00381     0.09354    -0.05740
        18   0.00072    -0.00098     0.00017    -0.00541    -0.00070     0.00081
        19  -0.00539    -0.00128    -0.00014     0.00394     0.01215     0.07760
        20  -0.01420    -0.01443     0.00047    -0.01639    -0.13534    -0.02343
        21  -0.00066     0.00145     0.00008     0.03233    -0.00280    -0.00086
        22  -0.04733    -0.02118     0.00070     0.01661     0.21222    -0.39074
        23  -0.00141    -0.00039     0.00011    -0.00515    -0.06331     0.05143
        24  -0.00138    -0.00073     0.00009    -0.04306     0.00771    -0.00328
        25   0.00176     0.00110    -0.00002    -0.07678     0.07505    -0.04349
        26  -0.01840    -0.00890     0.00028     0.18993    -0.19120     0.02099
        27   0.02102     0.00884    -0.00003    -0.32291     0.23945    -0.03586
        28   0.00320     0.00126    -0.00004     0.09773     0.06024    -0.04700
        29  -0.01870    -0.00870     0.00043    -0.22629    -0.14723     0.02863
        30  -0.02067    -0.01015     0.00056    -0.36556    -0.16536     0.04665
        31   0.73270    -0.13551    -0.02300    -0.00203    -0.01460    -0.02116
        32   0.12247     0.70751     0.00279    -0.00307    -0.01791    -0.01894
        33  -0.00397    -0.20640     0.00301    -0.00033     0.00171     0.00155
        34  -0.35756     0.08480     0.01849     0.00059     0.00429     0.00682
        35   0.04727    -0.03508    -0.00269    -0.00016    -0.00261    -0.00454
        36   0.25758    -0.03814    -0.01297    -0.00083    -0.00484    -0.00764
        37  -0.30587     0.16169     0.00341     0.00097     0.00577     0.00827
        38   0.06873    -0.06352    -0.00320     0.00012    -0.00128    -0.00146
        39  -0.26976     0.18979     0.00675     0.00032     0.00311     0.00496
        40  -0.00530    -0.00014    -0.10358     0.00005    -0.00010    -0.00017
        41  -0.01089     0.00380    -0.50812    -0.00010    -0.00040    -0.00076
        42   0.01647    -0.00404     0.47961     0.00049     0.00047     0.00092
        43   0.00661    -0.00199     0.10424     0.00021    -0.00009    -0.00008
        44   0.01644    -0.00398     0.51033     0.00059     0.00039     0.00083
        45  -0.01478     0.00428    -0.47813     0.00016    -0.00022    -0.00042




    ROOT NO.   37          38          39

            10.05943    17.61132    22.30096
  
         1  -0.11827     0.57549    -0.44529
         2   0.75657     0.00185     0.01078
         3  -0.01325    -0.00470    -0.00253
         4  -0.12123    -0.22274     0.70980
         5  -0.21837    -0.54787    -0.33952
         6   0.00293     0.00131    -0.00193
         7  -0.07093     0.03449    -0.04632
         8   0.22789     0.02779    -0.01108
         9  -0.01094     0.00071     0.00023
        10  -0.13128    -0.03155     0.01628
        11  -0.26897    -0.05164     0.01767
        12   0.00442     0.00194    -0.00051
        13   0.00128     0.00033    -0.00125
        14  -0.00539    -0.00297    -0.00321
        15   0.00195    -0.00264     0.00332
        16   0.22070    -0.06763     0.00183
        17  -0.35600     0.06381    -0.01699
        18   0.00497    -0.00097     0.00105
        19   0.11488    -0.30368    -0.24246
        20  -0.06086     0.45934     0.34638
        21  -0.00132    -0.00345     0.00155
        22   0.07085     0.01481    -0.00506
        23  -0.01574     0.00660    -0.01709
        24   0.00205     0.00143    -0.00011
        25   0.01870     0.00072     0.00651
        26  -0.03462     0.01989     0.00586
        27   0.04764    -0.01270    -0.00265
        28   0.01681     0.00044     0.00673
        29  -0.02936     0.02039     0.00614
        30  -0.03809     0.01517     0.00303
        31  -0.01232    -0.00156    -0.00547
        32   0.00529    -0.00094     0.00371
        33  -0.00099     0.00150    -0.00139
        34   0.00449    -0.00038     0.00077
        35  -0.00045     0.00307    -0.00182
        36  -0.00303     0.00250    -0.00142
        37   0.00661     0.00072     0.00369
        38  -0.00013     0.00075    -0.00053
        39   0.00356    -0.00008     0.00135
        40  -0.00020     0.00027     0.00010
        41  -0.00052    -0.00008    -0.00009
        42   0.00057     0.00007    -0.00002
        43  -0.00009     0.00026     0.00012
        44   0.00066     0.00001    -0.00021
        45  -0.00048    -0.00008     0.00004

          ZERO POINT ENERGY      60.920 KCAL/MOL

         NOTE: SYSTEM IS NOT A GROUND STATE, THEREFORE ZERO POINT
         ENERGY IS NOT MEANINGFULL. ZERO POINT ENERGY PRINTED
         DOES NOT INCLUDE THE  8 IMAGINARY FREQUENCIES


           FREQUENCIES, REDUCED MASSES AND VIBRATIONAL DIPOLES



   I         1         2         3         4         5         6
 FREQ(I) -450.1975 -383.5924 -320.3077 -226.6504 -138.2934  -76.1913

 MASS(I)   1.48232   0.89288   1.28057   0.43176   1.59681   3.62851

 DIPX(I)  -0.35775  -0.61396   0.66244   1.46333  -0.40418  -0.20764
 DIPY(I)  -0.99027   0.81536  -0.00421   0.23454   0.25957  -1.19085
 DIPZ(I)   0.62683   0.72013  -0.10341   0.27321  -0.63100  -0.37102

 DIPT(I)   1.22537   1.24914   0.67047   1.50698   0.79303   1.26447


   I         7         8         9        10        11        12
 FREQ(I)  -48.1351  -21.8206   64.7030   91.7602  127.3852  185.1836

 MASS(I)   2.68751   2.84760   2.03320   3.73222   1.33213   0.31215

 DIPX(I)   0.12143  -1.10993  -0.06404   0.09100  -0.20927   0.04455
 DIPY(I)   0.53752   0.17532  -0.06450  -0.91684   0.31961  -0.01272
 DIPZ(I)   1.01597  -0.08091   0.69677   0.41119   0.36231   0.02724

 DIPT(I)   1.15580   1.12660   0.70267   1.00894   0.52651   0.05375


   I        13        14        15        16        17        18
 FREQ(I)  401.2330  515.4741  527.1111  596.2752  920.4045  935.7798

 MASS(I)   1.22236   1.49570   2.91515   0.92502   0.92647   1.55087

 DIPX(I)   0.11234   0.12925  -0.39322  -0.11822  -0.01020   0.19729
 DIPY(I)   0.11275   0.31884  -0.56987  -0.05357   0.12395   0.05205
 DIPZ(I)   0.02243  -0.02235  -0.09287  -0.37277   1.31847   0.06752

 DIPT(I)   0.16074   0.34477   0.69857   0.39472   1.32432   0.21492


   I        19        20        21        22        23        24
 FREQ(I) 1024.7190 1045.6719 1060.8420 1064.2374 1167.7912 1251.8402

 MASS(I)   0.90885   0.93022   1.15082   0.60296   0.60625   0.42176

 DIPX(I)  -0.28353   0.05287   0.74389   0.16680  -0.07982   0.50594
 DIPY(I)  -0.12407   0.00388   1.11569   0.75067   0.73170  -0.67491
 DIPZ(I)  -0.19991  -1.44701   0.16971   0.29715   0.40370  -0.14534

 DIPT(I)   0.36844   1.44798   1.35164   0.82440   0.83948   0.85592


   I        25        26        27        28        29        30
 FREQ(I) 1270.9865 1273.2686 1347.0374 1370.9279 1502.4914 1591.1648

 MASS(I)   0.38378   0.47814   0.48027   0.25797   3.61664   2.38928

 DIPX(I)   0.15996   0.07521   0.40075   0.64189  -0.11742   1.05954
 DIPY(I)  -0.22550  -0.65608   1.38501   0.18221   2.96949   1.93378
 DIPZ(I)   0.70067   0.73044   0.03364  -0.03576  -0.00327  -1.04710

 DIPT(I)   0.75324   0.98470   1.44222   0.66820   2.97181   2.44102


   I        31        32        33        34        35        36
 FREQ(I) 1744.0694 2463.7679 2646.2397 2668.7504 2680.2988 2723.3769

 MASS(I)   5.87300   0.50502   0.47750   0.49734   0.46155   0.66156

 DIPX(I)   8.60043   2.40940   0.19756  -0.04506   0.62832   0.12917
 DIPY(I)  -3.59814  -0.47908   0.25442   0.03016  -0.38928   0.42406
 DIPZ(I)   0.03714   0.16892  -1.66946   0.85063   0.05064   0.04093

 DIPT(I)   9.32285   2.46237   1.70026   0.85235   0.74087   0.44518


   I        37        38        39        40        41        42
 FREQ(I) 2760.1243 2787.0694 2804.1428    0.0993    0.1034    0.0879

 MASS(I)   0.94507   0.31031   0.60989   1.93683   1.93683   1.93684

 DIPX(I)   0.16834   0.44925  -0.82045  -0.62713  -0.05298  -0.03070
 DIPY(I)   0.56289   0.41415   0.50221  -0.00362  -0.59765  -0.05644
 DIPZ(I)  -0.57759   0.00569  -0.04657  -0.00519   0.02186  -0.63213

 DIPT(I)   0.82389   0.61105   0.96308   0.62716   0.60039   0.63539


   I        43        44        45
 FREQ(I)  -96.1671   23.4930   26.4763

 MASS(I)   4.01256   4.84071   4.53645

 DIPX(I)  -0.54140   0.02934  -0.40675
 DIPY(I)   0.14442   0.01452   0.09406
 DIPZ(I)  -0.60901  -0.48868   0.01871

 DIPT(I)   0.82756   0.48978   0.41790


           NORMAL COORDINATE ANALYSIS (Total motion = 1 Angstrom)


   Root No.       1         2         3         4         5         6         7         8

                 1 A       2 A       3 A       4 A       5 A       6 A       7 A       8 A   

                -450.2    -383.6    -320.3    -226.7    -138.3     -76.2     -48.1     -21.8
  
           1    0.0031   -0.0004   -0.0028   -0.0026   -0.0054   -0.0073   -0.0043    0.0370
           2    0.0113   -0.0009   -0.0123   -0.0099   -0.0328   -0.0484   -0.0556   -0.0376
           3   -0.0153    0.0101    0.0069   -0.0023    0.0136    0.0505    0.0171    0.0151
           4    0.0009   -0.0000   -0.0014   -0.0024   -0.0052   -0.0072   -0.0042    0.0373
           5   -0.0012   -0.0006    0.0050    0.0011   -0.0198   -0.0144   -0.0192    0.0154
           6   -0.0045    0.0015    0.0009    0.0021    0.0094    0.0175   -0.0067   -0.0054
           7   -0.0023    0.0025   -0.0057   -0.0089   -0.0136   -0.0413   -0.0431   -0.0138
           8    0.0033   -0.0024    0.0058    0.0037   -0.0156    0.0060    0.0042    0.0445
           9   -0.0058    0.0023    0.0011    0.0017   -0.0052    0.0158   -0.0355   -0.0020
          10   -0.0523    0.0086    0.0382    0.0094    0.0047    0.0109    0.0114    0.0723
          11    0.0463   -0.0066   -0.0382   -0.0172   -0.0406   -0.0614   -0.0672   -0.0599
          12   -0.0236    0.0121    0.0082   -0.0027    0.0234    0.0569    0.0315    0.0165
          13    0.0416    0.0176    0.2633    0.0120    0.0145   -0.0167    0.0295   -0.0831
          14    0.0159   -0.0104   -0.0535    0.0104    0.0534   -0.0425    0.0486   -0.0070
          15    0.2970   -0.0365   -0.0515    0.0011   -0.0047   -0.0387    0.0871    0.0095
          16    0.0303   -0.0042   -0.0246   -0.0109   -0.0145   -0.0291   -0.0258    0.0024
          17    0.0317   -0.0039   -0.0288   -0.0157   -0.0390   -0.0623   -0.0693   -0.0603
          18   -0.0207    0.0158    0.0084   -0.0050    0.0083    0.0698    0.0203    0.0293
          19    0.0029   -0.0021    0.0007    0.0032    0.0027    0.0210    0.0268    0.0772
          20    0.0016   -0.0021    0.0059    0.0043   -0.0144    0.0054    0.0028    0.0415
          21    0.0086   -0.0087   -0.0024    0.0076    0.0205   -0.0211   -0.0071   -0.0331
          22   -0.0022    0.0023   -0.0050   -0.0080   -0.0123   -0.0371   -0.0382   -0.0075
          23    0.0067   -0.0046    0.0083    0.0084   -0.0089    0.0335    0.0363    0.0853
          24    0.0014   -0.0030   -0.0017    0.0023   -0.0081    0.0053   -0.0605   -0.0197
          25    0.0006   -0.0002   -0.0089   -0.0109   -0.0199   -0.0652   -0.0831   -0.0509
          26   -0.0023    0.0011    0.0070    0.0025   -0.0242    0.0019   -0.0095    0.0450
          27   -0.0101    0.0054    0.0026    0.0012   -0.0093    0.0196   -0.0336    0.0084
          28   -0.0100    0.0077   -0.0045   -0.0113   -0.0129   -0.0476   -0.0389   -0.0232
          29    0.0060   -0.0046    0.0041    0.0034   -0.0091   -0.0024    0.0028    0.0247
          30   -0.0103    0.0054    0.0028    0.0014   -0.0092    0.0195   -0.0333    0.0086
          31   -0.0056   -0.0143   -0.0305    0.0118   -0.0259    0.0177    0.0451   -0.0726
          32   -0.0079    0.0010    0.0066    0.0083    0.0556   -0.0524    0.0393   -0.0095
          33   -0.0355    0.0107   -0.0009   -0.0155   -0.0306   -0.0431    0.0656   -0.0037
          34   -0.0470   -0.0375   -0.0305    0.1512    0.0640   -0.0043    0.0062   -0.0563
          35   -0.1071    0.0417    0.2214    0.0001    0.0561   -0.0749    0.0235   -0.0180
          36   -0.0761   -0.0215   -0.0398    0.1849    0.1027   -0.0753    0.0130    0.0240
          37   -0.0745   -0.0446   -0.1283    0.1702    0.0810   -0.0055    0.0032   -0.0466
          38   -0.2392    0.0157   -0.1571   -0.0667   -0.0327   -0.0249    0.0561   -0.0193
          39   -0.0427    0.0451    0.0372   -0.2044   -0.1755   -0.0091    0.1144   -0.0344
          40    0.0049    0.0334   -0.0079   -0.0396    0.0461    0.0145   -0.0275   -0.0243
          41    0.0065   -0.0255   -0.0005   -0.0112    0.0088    0.1034    0.0031   -0.0441
          42   -0.0007   -0.0353    0.0051   -0.0027    0.0083    0.0027   -0.0561    0.0263
          43   -0.0246   -0.2796    0.0925    0.2305   -0.2083    0.0498   -0.0129   -0.0486
          44    0.0476    0.4615   -0.0285    0.0947   -0.0419    0.0992    0.0053   -0.0504
          45    0.0373    0.4134   -0.0003    0.1692   -0.1030    0.0066   -0.0512    0.0141


   Root No.       9        10        11        12        13        14        15        16

                 9 A      10 A      11 A      12 A      13 A      14 A      15 A      16 A   

                  64.7      91.8     127.4     185.2     401.2     515.5     527.1     596.3
  
           1   -0.0034    0.0039    0.0036   -0.0013   -0.0279    0.0164   -0.0486    0.0040
           2   -0.0192    0.0147   -0.0143    0.0005   -0.0571   -0.0075    0.0295   -0.0026
           3   -0.0677   -0.0165   -0.0042    0.0210   -0.0004    0.0151    0.0077    0.0206
           4   -0.0032    0.0040    0.0034   -0.0013   -0.0273    0.0164   -0.0484    0.0028
           5   -0.0072    0.0149   -0.0205    0.0026    0.0393    0.0097   -0.0341    0.0006
           6   -0.0140   -0.0090    0.0026    0.0036   -0.0034   -0.0871   -0.0441   -0.0771
           7   -0.0117    0.0155    0.0046    0.0046    0.0591   -0.0010   -0.0067   -0.0016
           8   -0.0029    0.0063   -0.0204   -0.0013   -0.0110    0.0193   -0.0612    0.0051
           9    0.0866   -0.0295    0.0020   -0.0043   -0.0002    0.0128    0.0057   -0.0072
          10    0.0057    0.0258   -0.0067    0.0018    0.0632    0.0482   -0.1481    0.0074
          11   -0.0251    0.0041   -0.0084   -0.0017   -0.1216   -0.0263    0.1013   -0.0094
          12   -0.1409   -0.0038   -0.0033    0.0213    0.0028    0.3192    0.1169   -0.2622
          13    0.0113   -0.0062   -0.0752   -0.0010   -0.0171   -0.0043    0.0136   -0.0021
          14    0.0051   -0.0768    0.0438   -0.0017    0.0114    0.0065   -0.0069   -0.0029
          15    0.0252    0.0144    0.0135    0.0068    0.0278    0.0080   -0.0191   -0.0034
          16   -0.0107   -0.0038    0.0103   -0.0042   -0.1211   -0.0129    0.0411    0.0010
          17   -0.0239    0.0081   -0.0095   -0.0013   -0.1230   -0.0307    0.0966   -0.0005
          18   -0.0490   -0.0321   -0.0089    0.0338   -0.0003   -0.1163   -0.0286    0.3529
          19    0.0034   -0.0041    0.0029   -0.0008   -0.0176   -0.0246    0.0809   -0.0030
          20   -0.0036    0.0075   -0.0204    0.0027    0.0422   -0.0187    0.0547   -0.0031
          21   -0.0512    0.0218    0.0126   -0.0191    0.0019    0.0176    0.0104    0.0359
          22   -0.0115    0.0145    0.0044    0.0011    0.0481    0.0008   -0.0151   -0.0017
          23    0.0022   -0.0038   -0.0206   -0.0077   -0.1192    0.0463   -0.1433    0.0111
          24    0.1300   -0.0545    0.0038    0.2586   -0.0114    0.0871    0.0352    0.0441
          25    0.0253    0.0006    0.0061    0.2150    0.1180    0.0484    0.0696    0.0421
          26    0.0373    0.0092   -0.0211   -0.1334    0.0201    0.1100   -0.0033    0.0721
          27    0.1029   -0.0235    0.0012   -0.1518    0.0071    0.0643    0.0303    0.0302
          28   -0.0561    0.0416    0.0032   -0.1865    0.1301   -0.0800    0.0134   -0.0513
          29   -0.0453    0.0084   -0.0197    0.1322    0.0005   -0.0743   -0.1005   -0.0619
          30    0.1017   -0.0228    0.0010   -0.1530    0.0112    0.0601    0.0372    0.0280
          31   -0.0002   -0.0518   -0.0571   -0.0047    0.0047    0.0018   -0.0031    0.0005
          32    0.0097   -0.0560    0.0380   -0.0011    0.0005   -0.0002   -0.0009   -0.0007
          33    0.0278    0.0674    0.0045    0.0071   -0.0051   -0.0005    0.0040   -0.0012
          34    0.0227    0.0577   -0.0939    0.0051   -0.0113   -0.0007    0.0047   -0.0017
          35    0.0175   -0.0083    0.0232    0.0011   -0.0173   -0.0049    0.0081   -0.0007
          36    0.0602    0.2141   -0.0497    0.0206   -0.0218   -0.0030    0.0095   -0.0037
          37    0.0273    0.0733   -0.1071    0.0065   -0.0118   -0.0025    0.0058   -0.0009
          38   -0.0055   -0.0985    0.0583   -0.0076    0.0001   -0.0030   -0.0014    0.0049
          39   -0.0057   -0.0764    0.0626   -0.0068    0.0106    0.0015   -0.0041    0.0026
          40    0.0102    0.0284    0.0486    0.0014   -0.0006   -0.0003   -0.0006   -0.0006
          41    0.0172    0.0405    0.0132   -0.0012   -0.0006    0.0004   -0.0004    0.0009
          42    0.0036   -0.0449   -0.0248   -0.0055    0.0009   -0.0002   -0.0001    0.0015
          43   -0.0302   -0.0333    0.3601    0.0031    0.0039   -0.0003   -0.0025   -0.0015
          44    0.0066    0.0090    0.0358   -0.0038    0.0001    0.0004   -0.0004    0.0023
          45   -0.0170   -0.0931    0.0697   -0.0080    0.0027   -0.0003   -0.0005    0.0028


   Root No.      17        18        19        20        21        22        23        24

                17 A      18 A      19 A      20 A      21 A      22 A      23 A      24 A   

                 920.4     935.8    1024.7    1045.7    1060.8    1064.2    1167.8    1251.8
  
           1    0.0025   -0.0265   -0.0395    0.0089    0.0366   -0.0179   -0.0021    0.0026
           2    0.0039   -0.0597   -0.0005   -0.0047   -0.0459    0.0204   -0.0130    0.0018
           3   -0.0792   -0.0068    0.0038    0.0231    0.0000    0.0008    0.0009   -0.0006
           4    0.0013   -0.0146   -0.0108    0.0030    0.0191   -0.0094   -0.0021   -0.0005
           5    0.0034   -0.0272   -0.0152    0.0053    0.0351   -0.0161   -0.0034   -0.0064
           6    0.0136    0.0019   -0.0107   -0.0672    0.0033   -0.0029   -0.0002    0.0015
           7   -0.0032    0.0338    0.0746   -0.0112   -0.0100    0.0060    0.0018   -0.0274
           8   -0.0083    0.0803   -0.0111   -0.0010   -0.0502    0.0229    0.0008    0.0291
           9    0.0171    0.0010    0.0092    0.0666   -0.0040    0.0037    0.0005    0.0096
          10    0.0219   -0.2466   -0.0465   -0.0038   -0.0874    0.0368    0.0082    0.0148
          11   -0.0055    0.1040    0.0025    0.0047    0.0572   -0.0231   -0.0046   -0.0075
          12    0.2927    0.0317   -0.0055   -0.0408    0.0032    0.0017   -0.0011    0.0004
          13   -0.0009    0.0181   -0.0014   -0.0000    0.0514    0.0756   -0.1172    0.0018
          14    0.0036   -0.0040    0.0007   -0.0010   -0.0056   -0.0009    0.0401   -0.0005
          15    0.0020   -0.0216   -0.0021   -0.0036    0.0249    0.0986    0.0421   -0.0006
          16   -0.0164    0.1699   -0.0648    0.0294    0.2032   -0.0964    0.1070    0.0031
          17   -0.0046    0.0947   -0.0207    0.0101    0.0827   -0.0393    0.0646    0.0004
          18    0.3603    0.0291   -0.0104   -0.0661    0.0004   -0.0015   -0.0027   -0.0001
          19    0.0004   -0.0001    0.0030   -0.0037   -0.0350    0.0168   -0.0063   -0.0036
          20    0.0025   -0.0174    0.0110    0.0022    0.0419   -0.0200    0.0077    0.0030
          21    0.0007   -0.0003    0.0012    0.0084   -0.0006    0.0009    0.0003    0.0000
          22   -0.0012    0.0207    0.0942   -0.0112    0.0030    0.0005    0.0017    0.0048
          23   -0.0000    0.0066    0.3419   -0.0480    0.0330   -0.0084    0.0069    0.1272
          24   -0.0347   -0.0036   -0.0073   -0.1176    0.0102   -0.0062    0.0007   -0.1152
          25   -0.0522    0.0737   -0.1780   -0.1131   -0.0448    0.0151   -0.0033    0.2426
          26   -0.0841    0.0788   -0.1194   -0.2313   -0.0400    0.0125   -0.0062   -0.2201
          27   -0.0301    0.0015   -0.0112   -0.0925    0.0028   -0.0025   -0.0024   -0.2221
          28    0.0337    0.0774   -0.1391    0.1505   -0.0584    0.0276   -0.0018    0.0951
          29    0.0631    0.0860   -0.0567    0.2384   -0.0694    0.0363   -0.0046   -0.2421
          30   -0.0270   -0.0040   -0.0142   -0.0838    0.0091   -0.0060    0.0024    0.2103
          31    0.0006   -0.0044    0.0003    0.0001   -0.0136   -0.0224    0.0213   -0.0002
          32   -0.0007    0.0015    0.0003    0.0009   -0.0081   -0.0276   -0.0310    0.0007
          33   -0.0004    0.0050    0.0007    0.0011   -0.0070   -0.0287   -0.0198   -0.0006
          34    0.0007   -0.0028   -0.0000   -0.0028    0.0054    0.0436    0.1016    0.0033
          35    0.0040   -0.0318   -0.0022   -0.0077   -0.0255    0.0756    0.4576   -0.0108
          36    0.0003   -0.0030   -0.0003   -0.0040    0.0185    0.0801    0.0965    0.0058
          37   -0.0033    0.0140   -0.0022    0.0006    0.0520    0.0798   -0.0973   -0.0047
          38   -0.0036    0.0063   -0.0091   -0.0053    0.1677    0.3758   -0.0710    0.0010
          39    0.0022   -0.0097   -0.0017   -0.0026    0.0118    0.0603    0.0881    0.0046
          40   -0.0001   -0.0002   -0.0001   -0.0001   -0.0001    0.0006    0.0023   -0.0000
          41    0.0002   -0.0002   -0.0001   -0.0001    0.0000    0.0002   -0.0002    0.0001
          42    0.0002   -0.0003    0.0000   -0.0000   -0.0002   -0.0000   -0.0005    0.0001
          43   -0.0010    0.0011   -0.0001    0.0002    0.0020    0.0003   -0.0110   -0.0003
          44    0.0000    0.0002   -0.0001    0.0002    0.0014    0.0020   -0.0043    0.0002
          45   -0.0001    0.0001   -0.0000    0.0003    0.0008    0.0007   -0.0047    0.0001


   Root No.      25        26        27        28        29        30        31        32

                25 A      26 A      27 A      28 A      29 A      30 A      31 A      32 A   

                1271.0    1273.3    1347.0    1370.9    1502.5    1591.2    1744.1    2463.8
  
           1    0.0003   -0.0000   -0.0040   -0.0231   -0.0992   -0.0065   -0.1794   -0.0003
           2    0.0006   -0.0003   -0.0044    0.0042   -0.0167    0.0101    0.0095    0.0021
           3    0.0003   -0.0010    0.0001   -0.0005    0.0011   -0.0012   -0.0008   -0.0000
           4   -0.0006   -0.0002    0.0167   -0.0178    0.0320    0.0104    0.2790    0.0007
           5   -0.0015   -0.0024    0.0296   -0.0161    0.1478   -0.0070   -0.0991   -0.0008
           6   -0.0034    0.0001   -0.0003   -0.0001   -0.0003    0.0001   -0.0007    0.0000
           7   -0.0077    0.0025   -0.0279   -0.0073   -0.0012   -0.0003   -0.0251    0.0001
           8    0.0079   -0.0003   -0.0411   -0.0154   -0.0067    0.0011    0.0013   -0.0000
           9   -0.0331    0.0037    0.0006    0.0006   -0.0007   -0.0000    0.0000    0.0000
          10    0.0063    0.0116   -0.1371    0.2034    0.0184    0.0086   -0.0219   -0.0035
          11   -0.0038   -0.0083    0.0859   -0.1428   -0.0685   -0.0521   -0.0604   -0.0270
          12   -0.0024   -0.0023   -0.0026    0.0031   -0.0017   -0.0210   -0.0008    0.0006
          13    0.0021    0.0166   -0.0047    0.0062    0.0008    0.1074   -0.0060   -0.0128
[...]
 FORCE CONSTANT     -0.0774

 VIBRATION          4    4A           ATOM PAIR      ENERGY CONTRIBUTION    RADIAL
 FREQUENCY          -226.65         O 11 -- H 12         +53.9% (-99.9%)      3.8%
 TRANSITION DIPOLE   1.5070         O 11 -- H 13         +40.7% (-99.9%)      0.2%
 TRAVEL (Ang.)       0.8301         O 14 -- H 15          +4.0% (-54.7%)      0.6%
 REDUCED MASS        0.4318         H  5 -- O 11          +2.3% (-41.7%)     13.2%
 EFFECTIVE MASS      1.2906
 FORCE CONSTANT     -0.0131

 VIBRATION          5    5A           ATOM PAIR      ENERGY CONTRIBUTION    RADIAL
 FREQUENCY          -138.29         O 11 -- H 12         +30.9% (-99.9%)      0.5%
 TRANSITION DIPOLE   0.7930         O 11 -- H 13         +18.6% (-99.9%)     22.4%
 TRAVEL (Ang.)       0.5526         H  5 -- O 11         +13.8% (-99.9%)     27.8%
 REDUCED MASS        1.5968         C  1 -- C  2         +10.2% (-99.9%)      0.0%
 EFFECTIVE MASS     62.6676
 FORCE CONSTANT     -0.0180

 VIBRATION          6    6A           ATOM PAIR      ENERGY CONTRIBUTION    RADIAL
 FREQUENCY           -76.19         C  1 -- C  2         +14.8% (-99.9%)      0.0%
 TRANSITION DIPOLE   1.2645         O 11 -- H 13         +13.3% (-99.9%)      0.4%
 TRAVEL (Ang.)       0.4939         C  1 -- H  6         +11.0% (-99.9%)     37.2%
 REDUCED MASS        3.6285         C  2 -- C  3         +10.8% (-99.9%)      0.0%
 EFFECTIVE MASS    350.8139
 FORCE CONSTANT     -0.0124

 VIBRATION          7    7A           ATOM PAIR      ENERGY CONTRIBUTION    RADIAL
 FREQUENCY           -48.14         O 11 -- H 12         +15.3% (-99.9%)      0.1%
 TRANSITION DIPOLE   1.1558         C  1 -- C  2         +12.8% (-99.9%)      0.0%
 TRAVEL (Ang.)       0.7220         C  2 -- C  3         +12.1% (-99.9%)      0.0%
 REDUCED MASS        2.6875         H  5 -- O 11         +10.2% (-99.9%)     20.9%
 EFFECTIVE MASS    972.4389
 FORCE CONSTANT     -0.0037

 VIBRATION          8    8A           ATOM PAIR      ENERGY CONTRIBUTION    RADIAL
 FREQUENCY           -21.82         C  2 -- C  3         +14.1% (-99.9%)      0.0%
 TRANSITION DIPOLE   1.1266         C  1 -- C  2         +12.6% (-99.9%)      0.0%
 TRAVEL (Ang.)       0.0000         C  1 -- H  4         +12.5% (-99.9%)      9.7%
 REDUCED MASS        2.8476         C  2 -- O  7         +10.4% (-99.9%)      0.1%
 EFFECTIVE MASS   3917.4092
 FORCE CONSTANT     -0.0008

 VIBRATION          9    9A           ATOM PAIR      ENERGY CONTRIBUTION    RADIAL
 FREQUENCY            64.70         C  2 -- C  3         +26.4% (818.3%)      0.0%
 TRANSITION DIPOLE   0.7027         C  3 -- H  8         +22.4% (753.2%)      2.1%
 TRAVEL (Ang.)       0.7159         C  3 -- H 10         +18.1% (677.9%)     74.9%
 REDUCED MASS        2.0332         C  3 -- H  9         +18.1% (677.7%)     63.8%
 EFFECTIVE MASS    487.0710
 FORCE CONSTANT      0.0050

 VIBRATION         10   10A           ATOM PAIR      ENERGY CONTRIBUTION    RADIAL
 FREQUENCY            91.76         O 11 -- H 13         +38.3% (560.2%)      2.8%
 TRANSITION DIPOLE   1.0089         H  5 -- O 11         +19.8% (402.3%)     20.7%
 TRAVEL (Ang.)       0.4437         O 11 -- H 12         +19.5% (400.1%)     43.9%
 REDUCED MASS        3.7322         C  2 -- C  3          +5.2% (206.7%)      0.4%
 EFFECTIVE MASS    289.2486
 FORCE CONSTANT      0.0185

 VIBRATION         11   11A           ATOM PAIR      ENERGY CONTRIBUTION    RADIAL
 FREQUENCY           127.39         O 11 -- H 13         +27.0% (262.1%)     73.1%
 TRANSITION DIPOLE   0.5265         O 11 -- H 12         +21.0% (231.2%)     64.8%
 TRAVEL (Ang.)       0.6304         H  5 -- O 11         +20.8% (230.2%)     20.7%
 REDUCED MASS        1.3321         C  2 -- C  3          +7.5% (138.4%)     24.3%
 EFFECTIVE MASS     74.0741
 FORCE CONSTANT      0.0127

 VIBRATION         12   12A           ATOM PAIR      ENERGY CONTRIBUTION    RADIAL
 FREQUENCY           185.18         C  3 -- H  9         +34.2% (293.8%)      0.0%
 TRANSITION DIPOLE   0.0537         C  3 -- H 10         +33.0% (288.5%)      0.2%
 TRAVEL (Ang.)       0.0000         C  3 -- H  8         +30.4% (277.1%)      0.2%
 REDUCED MASS        0.3121         C  1 -- C  2          +0.6% ( 37.7%)      0.0%
 EFFECTIVE MASS      2.6153
 FORCE CONSTANT      0.0063

 VIBRATION         13   13A           ATOM PAIR      ENERGY CONTRIBUTION    RADIAL
 FREQUENCY           401.23         C  2 -- C  3         +21.7% (153.1%)      0.0%
 TRANSITION DIPOLE   0.1607         C  1 -- C  2         +20.9% (150.2%)      0.0%
 TRAVEL (Ang.)       0.3708         C  1 -- H  6         +13.9% (122.8%)     93.2%
 REDUCED MASS        1.2224         C  1 -- H  4         +10.3% (105.7%)     71.2%
 EFFECTIVE MASS     22.6934
 FORCE CONSTANT      0.1159

 VIBRATION         14   14A           ATOM PAIR      ENERGY CONTRIBUTION    RADIAL
 FREQUENCY           515.47         C  2 -- C  3         +19.0% ( 80.5%)      0.0%
 TRANSITION DIPOLE   0.3448         C  2 -- O  7         +18.8% ( 80.1%)      0.0%
 TRAVEL (Ang.)       0.2957         C  1 -- C  2         +17.7% ( 77.8%)      0.0%
 REDUCED MASS        1.4957         C  1 -- H  4         +16.5% ( 75.2%)      0.1%
 EFFECTIVE MASS      8.6195
 FORCE CONSTANT      0.2342

 VIBRATION         15   15A           ATOM PAIR      ENERGY CONTRIBUTION    RADIAL
 FREQUENCY           527.11         C  2 -- O  7         +19.6% (100.0%)      0.0%
 TRANSITION DIPOLE   0.6986         C  2 -- C  3         +16.6% ( 91.8%)      0.1%
 TRAVEL (Ang.)       0.2095         C  1 -- H  4         +14.7% ( 86.7%)      0.9%
 REDUCED MASS        2.9152         C  1 -- C  2         +13.5% ( 82.9%)      0.0%
 EFFECTIVE MASS     14.9656         C  1 -- H  6         +10.7% ( 74.0%)     30.5%
 FORCE CONSTANT      0.4772

 VIBRATION         16   16A           ATOM PAIR      ENERGY CONTRIBUTION    RADIAL
 FREQUENCY           596.28         C  1 -- H  6         +25.8% ( 70.9%)      0.2%
 TRANSITION DIPOLE   0.3947         C  1 -- H  4         +18.4% ( 59.8%)      0.0%
 TRAVEL (Ang.)       0.3496         C  2 -- O  7         +16.3% ( 56.4%)      0.0%
 REDUCED MASS        0.9250         C  1 -- C  2         +16.2% ( 56.2%)      0.0%
 EFFECTIVE MASS      4.9663         C  2 -- C  3         +12.4% ( 49.1%)      0.1%
 FORCE CONSTANT      0.1938

 VIBRATION         17   17A           ATOM PAIR      ENERGY CONTRIBUTION    RADIAL
 FREQUENCY           920.40         C  1 -- H  6         +47.3% ( 71.7%)      0.0%
 TRANSITION DIPOLE   1.3243         C  1 -- H  4         +31.6% ( 58.6%)      0.1%
 TRAVEL (Ang.)       0.2812         C  1 -- C  2          +7.7% ( 28.8%)      0.0%
 REDUCED MASS        0.9265         C  3 -- H  9          +5.1% ( 23.5%)     20.3%
 EFFECTIVE MASS      2.8371
 FORCE CONSTANT      0.4624

 VIBRATION         18   18A           ATOM PAIR      ENERGY CONTRIBUTION    RADIAL
 FREQUENCY           935.78         C  1 -- H  4         +19.4% ( 71.3%)     25.7%
 TRANSITION DIPOLE   0.2149         C  2 -- C  3         +18.0% ( 68.8%)     99.0%
 TRAVEL (Ang.)       0.2156         C  1 -- H  6         +17.2% ( 67.2%)      6.8%
 REDUCED MASS        1.5509         C  3 -- H  8         +12.1% ( 56.3%)      3.8%
 EFFECTIVE MASS      7.7746         C  3 -- H 10         +11.9% ( 55.8%)     26.7%
 FORCE CONSTANT      0.8002         C  3 -- H  9         +11.7% ( 55.4%)     23.0%

 VIBRATION         19   19A           ATOM PAIR      ENERGY CONTRIBUTION    RADIAL
 FREQUENCY          1024.72         C  3 -- H  8         +32.9% ( 81.4%)     27.2%
 TRANSITION DIPOLE   0.3684         C  3 -- H  9         +22.0% ( 66.7%)      3.9%
 TRAVEL (Ang.)       0.2691         C  3 -- H 10         +17.2% ( 58.9%)      1.4%
 REDUCED MASS        0.9089         C  2 -- C  3         +12.1% ( 49.5%)     27.9%
 EFFECTIVE MASS      4.6428
 FORCE CONSTANT      0.5623

 VIBRATION         20   20A           ATOM PAIR      ENERGY CONTRIBUTION    RADIAL
 FREQUENCY          1045.67         C  3 -- H 10         +30.1% ( 68.6%)     14.1%
 TRANSITION DIPOLE   1.4480         C  3 -- H  9         +25.6% ( 63.3%)     14.5%
 TRAVEL (Ang.)       0.2633         C  2 -- C  3         +16.4% ( 50.5%)      0.9%
 REDUCED MASS        0.9302         C  3 -- H  8         +14.7% ( 48.0%)      0.7%
 EFFECTIVE MASS      4.7067
 FORCE CONSTANT      0.5993

 VIBRATION         21   21A           ATOM PAIR      ENERGY CONTRIBUTION    RADIAL
 FREQUENCY          1060.84         C  1 -- H  6         +19.8% ( 58.4%)     39.0%
 TRANSITION DIPOLE   1.3516         C  1 -- H  4         +15.8% ( 52.0%)      5.0%
 TRAVEL (Ang.)       0.2350         C  2 -- C  3         +14.3% ( 49.7%)     95.6%
 REDUCED MASS        1.1508         C  1 -- C  2         +13.1% ( 47.5%)      4.4%
 EFFECTIVE MASS      8.0575         C  2 -- O  7         +10.1% ( 41.6%)     52.8%
 FORCE CONSTANT      0.7631

 VIBRATION         22   22A           ATOM PAIR      ENERGY CONTRIBUTION    RADIAL
 FREQUENCY          1064.24         O 11 -- H 13         +50.0% ( 69.3%)      4.7%
 TRANSITION DIPOLE   0.8244         O 11 -- H 12         +10.4% ( 31.7%)      0.4%
 TRAVEL (Ang.)       0.3242         H  5 -- O 11          +8.1% ( 28.0%)     10.2%
 REDUCED MASS        0.6030         C  1 -- H  6          +6.9% ( 25.8%)     39.4%
 EFFECTIVE MASS      3.6912
 FORCE CONSTANT      0.4024

 VIBRATION         23   23A           ATOM PAIR      ENERGY CONTRIBUTION    RADIAL
 FREQUENCY          1167.79         O 11 -- H 12         +75.6% ( 78.2%)      5.0%
 TRANSITION DIPOLE   0.8395         O 11 -- H 13          +8.5% ( 26.1%)      0.8%
 TRAVEL (Ang.)       0.3086         H  5 -- O 11          +8.0% ( 25.4%)     10.1%
 REDUCED MASS        0.6062         C  1 -- H  6          +6.1% ( 22.2%)      3.1%
 EFFECTIVE MASS      2.1161
 FORCE CONSTANT      0.4871

 VIBRATION         24   24A           ATOM PAIR      ENERGY CONTRIBUTION    RADIAL
 FREQUENCY          1251.84         C  3 -- H  9         +47.3% ( 60.2%)      0.7%
 TRANSITION DIPOLE   0.8559         C  3 -- H 10         +35.6% ( 52.2%)      4.4%
 TRAVEL (Ang.)       0.3574         C  3 -- H  8         +11.0% ( 29.0%)     26.4%
 REDUCED MASS        0.4218         C  2 -- C  3          +5.2% ( 20.0%)     14.5%
 EFFECTIVE MASS      1.5947
 FORCE CONSTANT      0.3894

 VIBRATION         25   25A           ATOM PAIR      ENERGY CONTRIBUTION    RADIAL
 FREQUENCY          1270.99         C  3 -- H  8         +48.1% ( 59.5%)      0.3%
 TRANSITION DIPOLE   0.7532         C  3 -- H 10         +32.4% ( 48.8%)      2.6%
 TRAVEL (Ang.)       0.3718         C  3 -- H  9         +14.7% ( 32.9%)     22.2%
 REDUCED MASS        0.3838         C  2 -- C  3          +3.6% ( 16.3%)      2.1%
 EFFECTIVE MASS      1.4365
 FORCE CONSTANT      0.3653

 VIBRATION         26   26A           ATOM PAIR      ENERGY CONTRIBUTION    RADIAL
 FREQUENCY          1273.27         O 11 -- H 12         +59.4% ( 59.9%)      0.7%
 TRANSITION DIPOLE   0.9847         O 11 -- H 13         +36.6% ( 47.1%)      4.6%
 TRAVEL (Ang.)       0.3328         H  5 -- O 11          +1.9% ( 10.8%)     19.1%
 REDUCED MASS        0.4781         C  3 -- H 10          +0.8% (  6.8%)      1.4%
 EFFECTIVE MASS      1.4173
 FORCE CONSTANT      0.4567

 VIBRATION         27   27A           ATOM PAIR      ENERGY CONTRIBUTION    RADIAL
 FREQUENCY          1347.04         C  3 -- H  8         +23.0% ( 52.4%)      3.1%
 TRANSITION DIPOLE   1.4422         C  3 -- H 10         +18.5% ( 47.0%)      1.9%
 TRAVEL (Ang.)       0.3228         C  3 -- H  9         +17.8% ( 46.1%)      2.2%
 REDUCED MASS        0.4803         C  2 -- C  3         +14.9% ( 42.1%)     99.8%
 EFFECTIVE MASS      3.6360
 FORCE CONSTANT      0.5135

 VIBRATION         28   28A           ATOM PAIR      ENERGY CONTRIBUTION    RADIAL
 FREQUENCY          1370.93         C  1 -- H  4         +33.7% ( 53.4%)      0.3%
 TRANSITION DIPOLE   0.6682         C  1 -- H  6         +26.3% ( 47.2%)      2.4%
 TRAVEL (Ang.)       0.4367         C  3 -- H  8         +12.0% ( 31.9%)      0.3%
 REDUCED MASS        0.2580         C  3 -- H 10          +8.0% ( 26.1%)      0.8%
 EFFECTIVE MASS      1.6852
 FORCE CONSTANT      0.2857

 VIBRATION         29   29A           ATOM PAIR      ENERGY CONTRIBUTION    RADIAL
 FREQUENCY          1502.49         C  2 -- O  7         +34.7% ( 77.0%)     78.9%
 TRANSITION DIPOLE   2.9718         C  1 -- C  2         +28.4% ( 69.6%)     38.9%
 TRAVEL (Ang.)       0.1114         C  2 -- C  3         +15.6% ( 51.6%)     90.5%
 REDUCED MASS        3.6166         C  1 -- H  6         +11.0% ( 43.3%)      2.6%
 EFFECTIVE MASS     11.4147
 FORCE CONSTANT      4.8104

 VIBRATION         30   30A           ATOM PAIR      ENERGY CONTRIBUTION    RADIAL
 FREQUENCY          1591.16         H  5 -- O 11         +90.9% ( 98.6%)     99.3%
 TRANSITION DIPOLE   2.4410         O 11 -- H 12          +4.4% ( 21.8%)     27.1%
 TRAVEL (Ang.)       0.1332         O 11 -- H 13          +3.5% ( 19.2%)     16.8%
 REDUCED MASS        2.3893         C  1 -- H  4          +0.6% (  7.7%)     36.4%
 EFFECTIVE MASS      4.2864
 FORCE CONSTANT      3.5641

 VIBRATION         31   31A           ATOM PAIR      ENERGY CONTRIBUTION    RADIAL
 FREQUENCY          1744.07         C  1 -- C  2         +38.7% ( 91.0%)     94.7%
 TRANSITION DIPOLE   9.3228         C  2 -- O  7         +27.9% ( 77.3%)     79.2%
 TRAVEL (Ang.)       0.0811         C  2 -- C  3         +20.8% ( 66.8%)      4.2%
 REDUCED MASS        5.8730         C  1 -- H  4          +6.1% ( 36.1%)     15.8%
 EFFECTIVE MASS     12.0963
 FORCE CONSTANT     10.5254

 VIBRATION         32   32A           ATOM PAIR      ENERGY CONTRIBUTION    RADIAL
 FREQUENCY          2463.77         O 11 -- H 12         +52.3% ( 75.3%)     97.5%
 TRANSITION DIPOLE   2.4624         O 11 -- H 13         +47.0% ( 71.4%)     95.5%
 TRAVEL (Ang.)       0.2328         H  5 -- O 11          +0.5% (  7.1%)      3.1%
 REDUCED MASS        0.5050         C  1 -- H  4          +0.2% (  4.3%)     77.5%
 EFFECTIVE MASS      1.4401
 FORCE CONSTANT      1.8062

 VIBRATION         33   33A           ATOM PAIR      ENERGY CONTRIBUTION    RADIAL
 FREQUENCY          2646.24         O 11 -- H 13         +53.3% ( 69.8%)     98.6%
 TRANSITION DIPOLE   1.7003         O 11 -- H 12         +46.0% ( 64.8%)     97.8%
 TRAVEL (Ang.)       0.2310         H  5 -- O 11          +0.5% (  6.8%)     24.1%
 REDUCED MASS        0.4775         O 14 -- H 15          +0.2% (  3.7%)     96.7%
 EFFECTIVE MASS      1.2341
 FORCE CONSTANT      1.9701

 VIBRATION         34   34A           ATOM PAIR      ENERGY CONTRIBUTION    RADIAL
 FREQUENCY          2668.75         C  3 -- H 10         +51.3% ( 73.9%)     98.2%
 TRANSITION DIPOLE   0.8524         C  3 -- H  9         +46.9% ( 70.6%)     97.5%
 TRAVEL (Ang.)       0.2254         C  3 -- H  8          +0.9% (  9.9%)      4.1%
 REDUCED MASS        0.4973         C  2 -- C  3          +0.8% (  9.4%)      0.0%
 EFFECTIVE MASS      1.4388
 FORCE CONSTANT      2.0870

 VIBRATION         35   35A           ATOM PAIR      ENERGY CONTRIBUTION    RADIAL
 FREQUENCY          2680.30         C  3 -- H  8         +60.9% ( 80.5%)     99.5%
 TRANSITION DIPOLE   0.7409         C  3 -- H  9         +21.7% ( 48.1%)     90.0%
 TRAVEL (Ang.)       0.2335         C  3 -- H 10         +16.4% ( 41.8%)     85.7%
 REDUCED MASS        0.4615         C  2 -- C  3          +0.9% ( 10.0%)      0.0%
 EFFECTIVE MASS      1.4564
 FORCE CONSTANT      1.9536

 VIBRATION         36   36A           ATOM PAIR      ENERGY CONTRIBUTION    RADIAL
 FREQUENCY          2723.38         C  1 -- H  4         +77.8% ( 90.3%)     99.8%
 TRANSITION DIPOLE   0.4452         C  1 -- H  6         +20.9% ( 46.9%)     93.9%
 TRAVEL (Ang.)       0.1935         C  1 -- C  2          +1.0% ( 10.2%)      4.8%
 REDUCED MASS        0.6616         O 11 -- H 12          +0.1% (  3.5%)     97.8%
 EFFECTIVE MASS      1.4785
 FORCE CONSTANT      2.8909

 VIBRATION         37   37A           ATOM PAIR      ENERGY CONTRIBUTION    RADIAL
 FREQUENCY          2760.12         O 14 -- H 15         +99.9% ( 99.9%)    100.0%
 TRANSITION DIPOLE   0.8239         O 11 -- H 12          +0.1% (  3.4%)     98.3%
 TRAVEL (Ang.)       0.1608
 REDUCED MASS        0.9451
 EFFECTIVE MASS      1.3967
 FORCE CONSTANT      4.2420

 VIBRATION         38   38A           ATOM PAIR      ENERGY CONTRIBUTION    RADIAL
 FREQUENCY          2787.07         C  3 -- H  8         +37.0% ( 58.3%)     96.7%
 TRANSITION DIPOLE   0.6111         C  3 -- H 10         +30.3% ( 52.8%)     95.6%
 TRAVEL (Ang.)       0.2792         C  3 -- H  9         +29.2% ( 51.8%)     95.4%
 REDUCED MASS        0.3103         C  1 -- H  6          +2.3% ( 14.4%)     99.6%
 EFFECTIVE MASS      1.1327
 FORCE CONSTANT      1.4202

 VIBRATION         39   39A           ATOM PAIR      ENERGY CONTRIBUTION    RADIAL
 FREQUENCY          2804.14         C  1 -- H  6         +78.2% ( 87.3%)     98.7%
 TRANSITION DIPOLE   0.9631         C  1 -- H  4         +18.1% ( 42.0%)     84.4%
 TRAVEL (Ang.)       0.1986         C  3 -- H  9          +0.9% (  9.6%)     95.0%
 REDUCED MASS        0.6099         C  3 -- H  8          +0.9% (  9.4%)     95.3%
 EFFECTIVE MASS      1.2910
 FORCE CONSTANT      2.8255

      SYMMETRY NUMBER FOR POINT-GROUP C1  =  1


          SYSTEM IS A GROUND STATE



 Title: ASE calculation


          MOLECULE IS NOT LINEAR

          THERE ARE 39 GENUINE VIBRATIONS IN THIS SYSTEM
          THIS THERMODYNAMICS CALCULATION IS LIMITED TO
          MOLECULES WHICH HAVE NO INTERNAL ROTATIONS




                    CALCULATED THERMODYNAMIC PROPERTIES
                                          *
   TEMP. (K)   PARTITION FUNCTION   H.O.F.    ENTHALPY  HEAT CAPACITY ENTROPY
                                   KCAL/MOL   CAL/MOLE    CAL/K/MOL  CAL/K/MOL


 298.00  VIB.     0.4920D+05                  5454.5429    30.1279    39.7728
         ROT.     0.6128D+06                   888.2803     2.9808    29.4620
         INT.     0.3015D+11                  6342.8232    33.1087    69.2348
         TRA.     0.8967D+27                  1480.4672     4.9680    39.5663
         TOT.                     -209.641    7823.2904    38.0767   108.8011

   *: NOTE: HEATS OF FORMATION ARE RELATIVE TO THE
            ELEMENTS IN THEIR STANDARD STATE AT 298K
              (=  Standard Enthalpy of Formation).

            Hvib:  Zero-point energy is not included.
                   frequencies of less than zero cm-1 are not included.
            Hrot = (3/2)RT
            Htra = (3/2)RT + pV = (5/2)RT

            Heat capacity is Cp, not Cv

          For more information, see: HTTP://OpenMOPAC.net/Manual/thermochemistry.html


           FORCE CONSTANT IN CARTESIAN COORDINATES (Millidynes/A)

    ATOM   CHEMICAL       X               Y               Z
   NUMBER   SYMBOL  FORCE CONSTANT  FORCE CONSTANT  FORCE CONSTANT

      1       C       12.289759        6.762131        1.630534
      2       C       13.783406       10.230956        2.756220
      3       C        6.608809        6.726299        5.909811
      4       H        1.858067        3.043787        0.249983
      5       H        0.529027        3.674978        0.132939
      6       H        1.965414        3.104789        0.317257
      7       O        4.261482        7.797401        0.165474
      8       H        4.097918        0.783264        0.552700
      9       H        0.741029        1.742087        2.824023
     10       H        0.794570        1.764009        2.798428
     11       O        4.293217        4.494191        3.600928
     12       H        2.704175        0.652244        1.411040
     13       H        2.042951        0.728611        1.762108
     14       O       -0.028413        2.155776        1.926627
     15       H        0.082906        2.170387        1.915315

 **********************
 *                    *
 * JOB ENDED NORMALLY *
 *                    *
 **********************



 TOTAL JOB TIME:             0.58 SECONDS

 == MOPAC DONE ==
