 *******************************************************************************
 **                                                                           **
 **                              MOPAC v22.1.0                                **
 **                                                                           **
 *******************************************************************************
 **          Digital Object Identifier (DOI): 10.5281/zenodo.6511958          **
 **    Visit the DOI location for information on how to cite this program.    **
 *******************************************************************************

                              PM7 CALCULATION RESULTS

 *******************************************************************************
 *  CALCULATION DONE:                                Sat Mar 23 16:43:32 2024  *
 *  PM7        - The PM7 Hamiltonian to be used
 *  SINGLET    - SPIN STATE DEFINED AS A SINGLET
 *
 *
 *
 *                 CHARGE ON SYSTEM = 0
 *
 *
 *
 *  EPS=78.4   - USE ANDREAS KLAMT'S COSMO IMPLICIT SOLVATION MODEL
 *  THREADS    - USE A MAXIMUM OF 40 THREADS
 *  T=         - A TIME OF 14.0 DAYS REQUESTED
 *  DUMP=N     - RESTART FILE WRITTEN EVERY 30.0 MINUTES REQUESTED
 *  ITRY=      - DO A MAXIMUM OF 15000 ITERATIONS FOR SCF
 *  AUX        - OUTPUT AUXILIARY INFORMATION
 *  PL         - MONITOR CONVERGENCE IN DENSITY MATRIX
 *******************************************************************************
PM7 CHARGE=0 SINGLET AUX DUMP=30M ITRY=15000 eps=78.4 T=14D PL THREADS=40

 Mopac file generated by Gabedit
   ATOM   CHEMICAL          X               Y               Z
  NUMBER   SYMBOL      (ANGSTROMS)     (ANGSTROMS)     (ANGSTROMS)

     1       C          0.89986000  *   3.30397000  *   1.96394000  *
     2       C          1.42054000  *   2.01137000  *   1.90089000  *
     3       C          0.56551000  *   0.91297000  *   1.79576000  *
     4       C         -0.81788000  *   1.10110000  *   1.74938000  *
     5       C         -1.30242000  *   2.39833000  *   1.81761000  *
     6       C         -0.47813000  *   3.51015000  *   1.92483000  *
     7       H          1.57575000  *   4.15992000  *   2.04050000  *
     8       H          2.50387000  *   1.86808000  *   1.92658000  *
     9       H         -1.49203000  *   0.24443000  *   1.65369000  *
    10       H         -0.88617000  *   4.52252000  *   1.97454000  *
    11       C          1.14824000  *  -0.47387000  *   1.73478000  *
    12       C          0.52681000  *  -1.40714000  *   2.76646000  *
    13       H          1.01704000  *  -2.39182000  *   2.78706000  *
    14       H         -0.54658000  *  -1.57963000  *   2.59896000  *
    15       H          0.62467000  *  -0.98422000  *   3.78048000  *
    16       N          0.90415000  *  -1.02837000  *   0.35779000  *
    17       O          1.87305000  *  -1.36818000  *  -0.30332000  *
    18       O         -0.23801000  *  -1.10927000  *  -0.06053000  *
    19       N          5.07712000  *   1.27574000  *   4.68066000  *
    20       C          5.70615000  *  -0.06670000  *   4.57812000  *
    21       C          6.85979000  *  -0.19664000  *   5.58582000  *
    22       C          7.89795000  *   0.90030000  *   5.32434000  *
    23       C          7.22537000  *   2.27333000  *   5.43460000  *
    24       C          6.06040000  *   2.36241000  *   4.43557000  *
    25       H          5.52557000  *   3.32876000  *   4.55588000  *
    26       H          6.45619000  *   2.34130000  *   3.39632000  *
    27       H          7.95248000  *   3.08166000  *   5.23361000  *
    28       H          6.85969000  *   2.43807000  *   6.46570000  *
    29       H          7.31996000  *  -1.19830000  *   5.50249000  *
    30       H          6.47604000  *  -0.12029000  *   6.62059000  *
    31       H          6.08069000  *  -0.27661000  *   3.55179000  *
    32       H          2.26955000  *  -0.44435000  *   1.88483000  *
    33       H          4.32649000  *   1.34452000  *   3.98639000  *
    34       H          4.92055000  *  -0.82149000  *   4.79488000  *
    35       H          8.74129000  *   0.81926000  *   6.03496000  *
    36       H          8.34175000  *   0.77292000  *   4.31723000  *
    37       H         -2.07165100  *   2.70649000  *   1.32882100  *
    38       H          4.16202000  *   1.07477600  *   2.92681000  *
    39       H          3.87054700  *  -0.05293500  *   2.26206800  *
    40       O          3.54564300  *   0.74231100  *   2.32184600  *



          CARTESIAN COORDINATES 

    NO.       ATOM           X           Y           Z

     1         C          0.8999      3.3040      1.9639
     2         C          1.4205      2.0114      1.9009
     3         C          0.5655      0.9130      1.7958
     4         C         -0.8179      1.1011      1.7494
     5         C         -1.3024      2.3983      1.8176
     6         C         -0.4781      3.5101      1.9248
     7         H          1.5758      4.1599      2.0405
     8         H          2.5039      1.8681      1.9266
     9         H         -1.4920      0.2444      1.6537
    10         H         -0.8862      4.5225      1.9745
    11         C          1.1482     -0.4739      1.7348
    12         C          0.5268     -1.4071      2.7665
    13         H          1.0170     -2.3918      2.7871
    14         H         -0.5466     -1.5796      2.5990
    15         H          0.6247     -0.9842      3.7805
    16         N          0.9042     -1.0284      0.3578
    17         O          1.8731     -1.3682     -0.3033
    18         O         -0.2380     -1.1093     -0.0605
    19         N          5.0771      1.2757      4.6807
    20         C          5.7062     -0.0667      4.5781
    21         C          6.8598     -0.1966      5.5858
    22         C          7.8979      0.9003      5.3243
    23         C          7.2254      2.2733      5.4346
    24         C          6.0604      2.3624      4.4356
    25         H          5.5256      3.3288      4.5559
    26         H          6.4562      2.3413      3.3963
    27         H          7.9525      3.0817      5.2336
    28         H          6.8597      2.4381      6.4657
    29         H          7.3200     -1.1983      5.5025
    30         H          6.4760     -0.1203      6.6206
    31         H          6.0807     -0.2766      3.5518
    32         H          2.2696     -0.4444      1.8848
    33         H          4.3265      1.3445      3.9864
    34         H          4.9206     -0.8215      4.7949
    35         H          8.7413      0.8193      6.0350
    36         H          8.3417      0.7729      4.3172
    37         H         -2.0717      2.7065      1.3288
    38         H          4.1620      1.0748      2.9268
    39         H          3.8705     -0.0529      2.2621
    40         O          3.5456      0.7423      2.3218

 General Reference for PM7:
 "Optimization of Parameters for Semiempirical Methods VI: More Modifications to the 
 NDDO Approximations and Re-optimization of Parameters", J. J. P. Stewart, J. Mol. Mod., 1:32, 19 (2013)
 https://link.springer.com/article/10.1007/s00894-012-1667-x

           Empirical Formula: C13 H22 N2 O3  =    40 atoms



      MOLECULAR POINT GROUP   :   C1  


 SINGLET STATE CALCULATION


      RHF CALCULATION, NO. OF DOUBLY OCCUPIED LEVELS = 51


          Geometry optimization using L-BFGS
 ITERATION   1 PLS= 0.100E+01 0.000E+00 ENERGY    17638.644809 DELTAE    0.0000000
 ITERATION   2 PLS= 0.117E+01 0.000E+00 ENERGY      146.536123 DELTAE    0.0000000
 ITERATION   3 PLS= 0.941E-01 0.000E+00 ENERGY       59.910167 DELTAE  -86.6259558
 ITERATION   4 PLS= 0.653E-01 0.000E+00 ENERGY     -117.806324 DELTAE -177.7164913
 ITERATION   5 PLS= 0.190E-01 0.000E+00 ENERGY      -13.156197 DELTAE  104.6501271
 ITERATION   6 PLS= 0.239E-01 0.000E+00 ENERGY      -17.618739 DELTAE   -4.4625419
 ITERATION   7 PLS= 0.169E-01 0.000E+00 ENERGY      -21.940502 DELTAE   -4.3217630
 ITERATION   8 PLS= 0.555E-02 0.000E+00 ENERGY      -19.345860 DELTAE    2.5946422
 ITERATION   9 PLS= 0.230E-02 0.000E+00 ENERGY      -19.360631 DELTAE   -0.0147714
 ITERATION  10 PLS= 0.960E-03 0.000E+00 ENERGY      -19.369900 DELTAE   -0.0092687
 ITERATION  11 PLS= 0.327E-03 0.000E+00 ENERGY      -19.365144 DELTAE    0.0047566
 ITERATION  12 PLS= 0.255E-03 0.000E+00 ENERGY      -19.365229 DELTAE   -0.0000857
 ITERATION  13 PLS= 0.195E-03 0.000E+00 ENERGY      -19.365585 DELTAE   -0.0003556
 ITERATION  14 PLS= 0.388E-04 0.000E+00 ENERGY      -19.365320 DELTAE    0.0002652
 ITERATION   1 PLS= 0.143E-04 0.000E+00 ENERGY      -33.442441 DELTAE -133.4424409
 ITERATION   2 PLS= 0.157E-01 0.000E+00 ENERGY      -34.706352 DELTAE   -1.2639108
 ITERATION   3 PLS= 0.682E-02 0.000E+00 ENERGY      -34.965902 DELTAE   -0.2595498
 ITERATION   4 PLS= 0.336E-02 0.000E+00 ENERGY      -35.141922 DELTAE   -0.1760201
 ITERATION   5 PLS= 0.777E-03 0.000E+00 ENERGY      -35.064714 DELTAE    0.0772072
 ITERATION   6 PLS= 0.528E-03 0.000E+00 ENERGY      -35.065841 DELTAE   -0.0011269
 ITERATION   7 PLS= 0.396E-03 0.000E+00 ENERGY      -35.068539 DELTAE   -0.0026979
 ITERATION   8 PLS= 0.110E-03 0.000E+00 ENERGY      -35.066671 DELTAE    0.0018686
 ITERATION   9 PLS= 0.839E-04 0.000E+00 ENERGY      -35.066682 DELTAE   -0.0000114
 CYCLE:     1 TIME:   0.184 TIME LEFT:  2.00W  GRAD.:   179.668 HEAT: -35.06672
 ITERATION   1 PLS= 0.642E-04 0.000E+00 ENERGY      -35.387861 DELTAE -135.3878613
 ITERATION   2 PLS= 0.383E-03 0.000E+00 ENERGY      -35.388400 DELTAE   -0.0005391
 ITERATION   3 PLS= 0.127E-03 0.000E+00 ENERGY      -35.388469 DELTAE   -0.0000684
 ITERATION   4 PLS= 0.541E-04 0.000E+00 ENERGY      -35.388506 DELTAE   -0.0000376
 CYCLE:     2 TIME:   0.066 TIME LEFT:  2.00W  GRAD.:   177.797 HEAT: -35.38849
 ITERATION   1 PLS= 0.198E-04 0.000E+00 ENERGY      -50.031839 DELTAE -150.0318395
 ITERATION   2 PLS= 0.326E-01 0.000E+00 ENERGY      -56.405201 DELTAE   -6.3733610
 ITERATION   3 PLS= 0.901E-02 0.000E+00 ENERGY      -57.249835 DELTAE   -0.8446343
 ITERATION   4 PLS= 0.380E-02 0.000E+00 ENERGY      -57.699065 DELTAE   -0.4492307
 ITERATION   5 PLS= 0.162E-02 0.000E+00 ENERGY      -57.477769 DELTAE    0.2212970
 ITERATION   6 PLS= 0.106E-02 0.000E+00 ENERGY      -57.479564 DELTAE   -0.0017954
 CYCLE:     3 TIME:   0.090 TIME LEFT:  2.00W  GRAD.:    74.117 HEAT: -57.48415
 ITERATION   1 PLS= 0.758E-03 0.000E+00 ENERGY      -27.718660 DELTAE -127.7186603
 ITERATION   2 PLS= 0.309E-01 0.000E+00 ENERGY      -34.299260 DELTAE   -6.5805994
 ITERATION   3 PLS= 0.980E-02 0.000E+00 ENERGY      -35.157358 DELTAE   -0.8580979
 ITERATION   4 PLS= 0.371E-02 0.000E+00 ENERGY      -35.588786 DELTAE   -0.4314279
 ITERATION   5 PLS= 0.159E-02 0.000E+00 ENERGY      -35.385421 DELTAE    0.2033649
 ITERATION   6 PLS= 0.100E-02 0.000E+00 ENERGY      -35.387328 DELTAE   -0.0019076
 CYCLE:     4 TIME:   0.070 TIME LEFT:  2.00W  GRAD.:   177.902 HEAT: -35.39212
 ITERATION   1 PLS= 0.756E-03 0.000E+00 ENERGY      -50.047283 DELTAE -150.0472835
 ITERATION   2 PLS= 0.326E-01 0.000E+00 ENERGY      -56.405567 DELTAE   -6.3582832
 ITERATION   3 PLS= 0.903E-02 0.000E+00 ENERGY      -57.250696 DELTAE   -0.8451292
 ITERATION   4 PLS= 0.373E-02 0.000E+00 ENERGY      -57.698801 DELTAE   -0.4481054
 ITERATION   5 PLS= 0.162E-02 0.000E+00 ENERGY      -57.479107 DELTAE    0.2196942
 ITERATION   6 PLS= 0.103E-02 0.000E+00 ENERGY      -57.480851 DELTAE   -0.0017437
 CYCLE:     5 TIME:   0.082 TIME LEFT:  2.00W  GRAD.:    74.244 HEAT: -57.48512
 ITERATION   1 PLS= 0.728E-03 0.000E+00 ENERGY      -59.383370 DELTAE -159.3833701
 ITERATION   2 PLS= 0.827E-02 0.000E+00 ENERGY      -61.197531 DELTAE   -1.8141612
 ITERATION   3 PLS= 0.367E-02 0.000E+00 ENERGY      -61.481919 DELTAE   -0.2843873
 ITERATION   4 PLS= 0.183E-02 0.000E+00 ENERGY      -61.640593 DELTAE   -0.1586739
 ITERATION   5 PLS= 0.441E-03 0.000E+00 ENERGY      -61.558904 DELTAE    0.0816887
 CYCLE:     6 TIME:   0.082 TIME LEFT:  2.00W  GRAD.:    98.537 HEAT: -61.55973
 ITERATION   1 PLS= 0.266E-03 0.000E+00 ENERGY      -63.998038 DELTAE -163.9980382
 ITERATION   2 PLS= 0.851E-02 0.000E+00 ENERGY      -64.968649 DELTAE   -0.9706112
 ITERATION   3 PLS= 0.410E-02 0.000E+00 ENERGY      -65.132463 DELTAE   -0.1638131
 ITERATION   4 PLS= 0.215E-02 0.000E+00 ENERGY      -65.229866 DELTAE   -0.0974038
 ITERATION   5 PLS= 0.485E-03 0.000E+00 ENERGY      -65.177774 DELTAE    0.0520927
 CYCLE:     7 TIME:   0.062 TIME LEFT:  2.00W  GRAD.:    62.590 HEAT: -65.17805
 ITERATION   1 PLS= 0.255E-03 0.000E+00 ENERGY      -66.932666 DELTAE -166.9326663
 ITERATION   2 PLS= 0.137E-01 0.000E+00 ENERGY      -68.323230 DELTAE   -1.3905640
 ITERATION   3 PLS= 0.740E-02 0.000E+00 ENERGY      -68.574833 DELTAE   -0.2516027
 ITERATION   4 PLS= 0.410E-02 0.000E+00 ENERGY      -68.743178 DELTAE   -0.1683451
 ITERATION   5 PLS= 0.860E-03 0.000E+00 ENERGY      -68.653654 DELTAE    0.0895239
 CYCLE:     8 TIME:   0.070 TIME LEFT:  2.00W  GRAD.:    38.121 HEAT: -68.65435
 ITERATION   1 PLS= 0.421E-03 0.000E+00 ENERGY      -68.430718 DELTAE -168.4307179
 ITERATION   2 PLS= 0.116E-01 0.000E+00 ENERGY      -69.942470 DELTAE   -1.5117518
 ITERATION   3 PLS= 0.648E-02 0.000E+00 ENERGY      -70.190428 DELTAE   -0.2479583
 ITERATION   4 PLS= 0.359E-02 0.000E+00 ENERGY      -70.336593 DELTAE   -0.1461654
 ITERATION   5 PLS= 0.570E-03 0.000E+00 ENERGY      -70.260483 DELTAE    0.0761107
 CYCLE:     9 TIME:   0.070 TIME LEFT:  2.00W  GRAD.:    59.346 HEAT: -70.26080
 ITERATION   1 PLS= 0.291E-03 0.000E+00 ENERGY      -70.773412 DELTAE -170.7734116
 ITERATION   2 PLS= 0.788E-02 0.000E+00 ENERGY      -71.582601 DELTAE   -0.8091890
 ITERATION   3 PLS= 0.395E-02 0.000E+00 ENERGY      -71.713180 DELTAE   -0.1305791
 ITERATION   4 PLS= 0.213E-02 0.000E+00 ENERGY      -71.786926 DELTAE   -0.0737461
 ITERATION   5 PLS= 0.184E-03 0.000E+00 ENERGY      -71.750962 DELTAE    0.0359639
 CYCLE:    10 TIME:   0.078 TIME LEFT:  2.00W  GRAD.:    41.076 HEAT: -71.75113
 ITERATION   1 PLS= 0.129E-03 0.000E+00 ENERGY      -72.362245 DELTAE -172.3622449
 ITERATION   2 PLS= 0.649E-02 0.000E+00 ENERGY      -72.942323 DELTAE   -0.5800780
 ITERATION   3 PLS= 0.376E-02 0.000E+00 ENERGY      -73.052645 DELTAE   -0.1103223
 ITERATION   4 PLS= 0.212E-02 0.000E+00 ENERGY      -73.131692 DELTAE   -0.0790470
 ITERATION   5 PLS= 0.257E-03 0.000E+00 ENERGY      -73.088875 DELTAE    0.0428176
 CYCLE:    11 TIME:   0.070 TIME LEFT:  2.00W  GRAD.:    36.001 HEAT: -73.08909
 ITERATION   1 PLS= 0.125E-03 0.000E+00 ENERGY      -72.000163 DELTAE -172.0001630
 ITERATION   2 PLS= 0.170E-01 0.000E+00 ENERGY      -73.784598 DELTAE   -1.7844346
 ITERATION   3 PLS= 0.103E-01 0.000E+00 ENERGY      -74.153543 DELTAE   -0.3689456
 ITERATION   4 PLS= 0.595E-02 0.000E+00 ENERGY      -74.469909 DELTAE   -0.3163663
 ITERATION   5 PLS= 0.695E-03 0.000E+00 ENERGY      -74.283593 DELTAE    0.1863162
 ITERATION   6 PLS= 0.360E-03 0.000E+00 ENERGY      -74.284246 DELTAE   -0.0006527
 CYCLE:    12 TIME:   0.070 TIME LEFT:  2.00W  GRAD.:    47.019 HEAT: -74.28464
 ITERATION   1 PLS= 0.206E-03 0.000E+00 ENERGY      -73.665035 DELTAE -173.6650351
 ITERATION   2 PLS= 0.165E-01 0.000E+00 ENERGY      -75.083955 DELTAE   -1.4189199
 ITERATION   3 PLS= 0.955E-02 0.000E+00 ENERGY      -75.316386 DELTAE   -0.2324305
 ITERATION   4 PLS= 0.535E-02 0.000E+00 ENERGY      -75.478189 DELTAE   -0.1618038
 ITERATION   5 PLS= 0.691E-03 0.000E+00 ENERGY      -75.393625 DELTAE    0.0845647
 CYCLE:    13 TIME:   0.070 TIME LEFT:  2.00W  GRAD.:    56.316 HEAT: -75.39405
 ITERATION   1 PLS= 0.331E-03 0.000E+00 ENERGY      -76.139091 DELTAE -176.1390911
 ITERATION   2 PLS= 0.393E-02 0.000E+00 ENERGY      -76.326267 DELTAE   -0.1871755
 ITERATION   3 PLS= 0.211E-02 0.000E+00 ENERGY      -76.355937 DELTAE   -0.0296700
 ITERATION   4 PLS= 0.113E-02 0.000E+00 ENERGY      -76.372321 DELTAE   -0.0163847
 CYCLE:    14 TIME:   0.059 TIME LEFT:  2.00W  GRAD.:    33.081 HEAT: -76.36401
 ITERATION   1 PLS= 0.110E-03 0.000E+00 ENERGY      -76.525700 DELTAE -176.5257001
 ITERATION   2 PLS= 0.116E-01 0.000E+00 ENERGY      -77.282987 DELTAE   -0.7572867
 ITERATION   3 PLS= 0.600E-02 0.000E+00 ENERGY      -77.423744 DELTAE   -0.1407570
 ITERATION   4 PLS= 0.310E-02 0.000E+00 ENERGY      -77.511126 DELTAE   -0.0873823
 ITERATION   5 PLS= 0.145E-03 0.000E+00 ENERGY      -77.466372 DELTAE    0.0447545
 CYCLE:    15 TIME:   0.094 TIME LEFT:  2.00W  GRAD.:    25.902 HEAT: -77.46649
 ITERATION   1 PLS= 0.103E-03 0.000E+00 ENERGY      -77.682946 DELTAE -177.6829462
 ITERATION   2 PLS= 0.118E-01 0.000E+00 ENERGY      -78.073569 DELTAE   -0.3906229
 ITERATION   3 PLS= 0.605E-02 0.000E+00 ENERGY      -78.156416 DELTAE   -0.0828466
 ITERATION   4 PLS= 0.312E-02 0.000E+00 ENERGY      -78.211856 DELTAE   -0.0554404
 ITERATION   5 PLS= 0.120E-03 0.000E+00 ENERGY      -78.183355 DELTAE    0.0285015
 CYCLE:    16 TIME:   0.062 TIME LEFT:  2.00W  GRAD.:    25.788 HEAT: -78.18343
 ITERATION   1 PLS= 0.600E-04 0.000E+00 ENERGY      -75.863014 DELTAE -175.8630138
 ITERATION   2 PLS= 0.287E-01 0.000E+00 ENERGY      -78.447842 DELTAE   -2.5848283
 ITERATION   3 PLS= 0.138E-01 0.000E+00 ENERGY      -78.983080 DELTAE   -0.5352375
 ITERATION   4 PLS= 0.686E-02 0.000E+00 ENERGY      -79.333326 DELTAE   -0.3502466
 ITERATION   5 PLS= 0.329E-03 0.000E+00 ENERGY      -79.155569 DELTAE    0.1777573
 ITERATION   6 PLS= 0.188E-03 0.000E+00 ENERGY      -79.155801 DELTAE   -0.0002320
 CYCLE:    17 TIME:   0.070 TIME LEFT:  2.00W  GRAD.:    54.571 HEAT: -79.15603
 ITERATION   1 PLS= 0.109E-03 0.000E+00 ENERGY      -78.264148 DELTAE -178.2641476
 ITERATION   2 PLS= 0.158E-01 0.000E+00 ENERGY      -79.657183 DELTAE   -1.3930352
 ITERATION   3 PLS= 0.764E-02 0.000E+00 ENERGY      -79.920278 DELTAE   -0.2630952
 ITERATION   4 PLS= 0.382E-02 0.000E+00 ENERGY      -80.093423 DELTAE   -0.1731449
 ITERATION   5 PLS= 0.333E-03 0.000E+00 ENERGY      -80.005354 DELTAE    0.0880691
 CYCLE:    18 TIME:   0.066 TIME LEFT:  2.00W  GRAD.:    34.583 HEAT: -80.00551
 ITERATION   1 PLS= 0.184E-03 0.000E+00 ENERGY      -80.133408 DELTAE -180.1334081
 ITERATION   2 PLS= 0.428E-02 0.000E+00 ENERGY      -80.286943 DELTAE   -0.1535347
 ITERATION   3 PLS= 0.257E-02 0.000E+00 ENERGY      -80.312776 DELTAE   -0.0258336
 ITERATION   4 PLS= 0.148E-02 0.000E+00 ENERGY      -80.330037 DELTAE   -0.0172610
 CYCLE:    19 TIME:   0.059 TIME LEFT:  2.00W  GRAD.:    15.878 HEAT: -80.32067
 ITERATION   1 PLS= 0.168E-03 0.000E+00 ENERGY      -80.451060 DELTAE -180.4510596
 ITERATION   2 PLS= 0.150E-02 0.000E+00 ENERGY      -80.542047 DELTAE   -0.0909870
 ITERATION   3 PLS= 0.774E-03 0.000E+00 ENERGY      -80.558997 DELTAE   -0.0169506
 ITERATION   4 PLS= 0.399E-03 0.000E+00 ENERGY      -80.568873 DELTAE   -0.0098757
 CYCLE:    20 TIME:   0.059 TIME LEFT:  2.00W  GRAD.:    14.480 HEAT: -80.56441
 ITERATION   1 PLS= 0.882E-04 0.000E+00 ENERGY      -80.628950 DELTAE -180.6289496
 ITERATION   2 PLS= 0.342E-02 0.000E+00 ENERGY      -80.831662 DELTAE   -0.2027125
 ITERATION   3 PLS= 0.174E-02 0.000E+00 ENERGY      -80.874333 DELTAE   -0.0426704
 ITERATION   4 PLS= 0.888E-03 0.000E+00 ENERGY      -80.901394 DELTAE   -0.0270610
 ITERATION   5 PLS= 0.148E-03 0.000E+00 ENERGY      -80.888564 DELTAE    0.0128301
 CYCLE:    21 TIME:   0.066 TIME LEFT:  2.00W  GRAD.:    17.414 HEAT: -80.88863
 ITERATION   1 PLS= 0.100E-03 0.000E+00 ENERGY      -80.577771 DELTAE -180.5777713
 ITERATION   2 PLS= 0.746E-02 0.000E+00 ENERGY      -81.005477 DELTAE   -0.4277054
 ITERATION   3 PLS= 0.406E-02 0.000E+00 ENERGY      -81.095016 DELTAE   -0.0895396
 ITERATION   4 PLS= 0.222E-02 0.000E+00 ENERGY      -81.156998 DELTAE   -0.0619821
 ITERATION   5 PLS= 0.190E-03 0.000E+00 ENERGY      -81.124397 DELTAE    0.0326011
 CYCLE:    22 TIME:   0.082 TIME LEFT:  2.00W  GRAD.:    21.117 HEAT: -81.12451
 ITERATION   1 PLS= 0.128E-03 0.000E+00 ENERGY      -80.117997 DELTAE -180.1179972
 ITERATION   2 PLS= 0.795E-02 0.000E+00 ENERGY      -80.840645 DELTAE   -0.7226479
 ITERATION   3 PLS= 0.411E-02 0.000E+00 ENERGY      -80.973710 DELTAE   -0.1330652
 ITERATION   4 PLS= 0.220E-02 0.000E+00 ENERGY      -81.058017 DELTAE   -0.0843063
 ITERATION   5 PLS= 0.243E-03 0.000E+00 ENERGY      -81.013879 DELTAE    0.0441374
 CYCLE:    23 TIME:   0.082 TIME LEFT:  2.00W  GRAD.:    46.297 HEAT: -81.01407
 ITERATION   1 PLS= 0.165E-03 0.000E+00 ENERGY      -81.165991 DELTAE -181.1659906
 ITERATION   2 PLS= 0.322E-02 0.000E+00 ENERGY      -81.384063 DELTAE   -0.2180723
 ITERATION   3 PLS= 0.167E-02 0.000E+00 ENERGY      -81.418955 DELTAE   -0.0348926
 ITERATION   4 PLS= 0.894E-03 0.000E+00 ENERGY      -81.438545 DELTAE   -0.0195895
 CYCLE:    24 TIME:   0.062 TIME LEFT:  2.00W  GRAD.:     9.634 HEAT: -81.42857
 ITERATION   1 PLS= 0.109E-03 0.000E+00 ENERGY      -81.471167 DELTAE -181.4711673
 ITERATION   2 PLS= 0.571E-03 0.000E+00 ENERGY      -81.485606 DELTAE   -0.0144384
 ITERATION   3 PLS= 0.274E-03 0.000E+00 ENERGY      -81.488400 DELTAE   -0.0027941
 ITERATION   4 PLS= 0.135E-03 0.000E+00 ENERGY      -81.490251 DELTAE   -0.0018510
 CYCLE:    25 TIME:   0.062 TIME LEFT:  2.00W  GRAD.:     8.144 HEAT: -81.48930
 ITERATION   1 PLS= 0.455E-04 0.000E+00 ENERGY      -81.559628 DELTAE -181.5596282
 ITERATION   2 PLS= 0.161E-02 0.000E+00 ENERGY      -81.646085 DELTAE   -0.0864571
 ITERATION   3 PLS= 0.805E-03 0.000E+00 ENERGY      -81.662368 DELTAE   -0.0162826
 ITERATION   4 PLS= 0.410E-03 0.000E+00 ENERGY      -81.672372 DELTAE   -0.0100042
 CYCLE:    26 TIME:   0.066 TIME LEFT:  2.00W  GRAD.:    10.438 HEAT: -81.66729
 ITERATION   1 PLS= 0.763E-04 0.000E+00 ENERGY      -81.577711 DELTAE -181.5777114
 ITERATION   2 PLS= 0.349E-02 0.000E+00 ENERGY      -81.751481 DELTAE   -0.1737696
 ITERATION   3 PLS= 0.116E-02 0.000E+00 ENERGY      -81.782445 DELTAE   -0.0309637
 ITERATION   4 PLS= 0.545E-03 0.000E+00 ENERGY      -81.800036 DELTAE   -0.0175911
 CYCLE:    27 TIME:   0.062 TIME LEFT:  2.00W  GRAD.:    22.252 HEAT: -81.79207
 ITERATION   1 PLS= 0.838E-04 0.000E+00 ENERGY      -81.835091 DELTAE -181.8350911
 ITERATION   2 PLS= 0.382E-02 0.000E+00 ENERGY      -81.932988 DELTAE   -0.0978968
 ITERATION   3 PLS= 0.130E-02 0.000E+00 ENERGY      -81.947507 DELTAE   -0.0145192
 ITERATION   4 PLS= 0.600E-03 0.000E+00 ENERGY      -81.955375 DELTAE   -0.0078676
 CYCLE:    28 TIME:   0.062 TIME LEFT:  2.00W  GRAD.:     9.965 HEAT: -81.95169
 ITERATION   1 PLS= 0.105E-03 0.000E+00 ENERGY      -81.923365 DELTAE -181.9233651
 ITERATION   2 PLS= 0.291E-02 0.000E+00 ENERGY      -81.980004 DELTAE   -0.0566387
 ITERATION   3 PLS= 0.163E-02 0.000E+00 ENERGY      -81.992015 DELTAE   -0.0120111
 ITERATION   4 PLS= 0.912E-03 0.000E+00 ENERGY      -82.001099 DELTAE   -0.0090838
 CYCLE:    29 TIME:   0.062 TIME LEFT:  2.00W  GRAD.:     7.818 HEAT: -81.99607
 ITERATION   1 PLS= 0.782E-04 0.000E+00 ENERGY      -81.934419 DELTAE -181.9344187
 ITERATION   2 PLS= 0.481E-02 0.000E+00 ENERGY      -82.052317 DELTAE   -0.1178981
 ITERATION   3 PLS= 0.259E-02 0.000E+00 ENERGY      -82.078745 DELTAE   -0.0264277
 ITERATION   4 PLS= 0.141E-02 0.000E+00 ENERGY      -82.098610 DELTAE   -0.0198654
 ITERATION   5 PLS= 0.835E-04 0.000E+00 ENERGY      -82.087818 DELTAE    0.0107916
 CYCLE:    30 TIME:   0.066 TIME LEFT:  2.00W  GRAD.:     9.536 HEAT: -82.08786
 ITERATION   1 PLS= 0.468E-04 0.000E+00 ENERGY      -82.020779 DELTAE -182.0207789
 ITERATION   2 PLS= 0.731E-02 0.000E+00 ENERGY      -82.269196 DELTAE   -0.2484173
 ITERATION   3 PLS= 0.391E-02 0.000E+00 ENERGY      -82.323956 DELTAE   -0.0547602
 ITERATION   4 PLS= 0.210E-02 0.000E+00 ENERGY      -82.363410 DELTAE   -0.0394538
 ITERATION   5 PLS= 0.695E-04 0.000E+00 ENERGY      -82.342253 DELTAE    0.0211572
 CYCLE:    31 TIME:   0.066 TIME LEFT:  2.00W  GRAD.:    18.143 HEAT: -82.34230
 ITERATION   1 PLS= 0.510E-04 0.000E+00 ENERGY      -82.438492 DELTAE -182.4384924
 ITERATION   2 PLS= 0.471E-02 0.000E+00 ENERGY      -82.523467 DELTAE   -0.0849743
 ITERATION   3 PLS= 0.239E-02 0.000E+00 ENERGY      -82.542283 DELTAE   -0.0188168
 ITERATION   4 PLS= 0.124E-02 0.000E+00 ENERGY      -82.555258 DELTAE   -0.0129745
 CYCLE:    32 TIME:   0.059 TIME LEFT:  2.00W  GRAD.:    10.058 HEAT: -82.54851
 ITERATION   1 PLS= 0.645E-04 0.000E+00 ENERGY      -82.513230 DELTAE -182.5132302
 ITERATION   2 PLS= 0.609E-02 0.000E+00 ENERGY      -82.647116 DELTAE   -0.1338855
 ITERATION   3 PLS= 0.324E-02 0.000E+00 ENERGY      -82.677166 DELTAE   -0.0300500
 ITERATION   4 PLS= 0.170E-02 0.000E+00 ENERGY      -82.698346 DELTAE   -0.0211799
 ITERATION   5 PLS= 0.879E-04 0.000E+00 ENERGY      -82.687330 DELTAE    0.0110160
 CYCLE:    33 TIME:   0.066 TIME LEFT:  2.00W  GRAD.:     7.506 HEAT: -82.68734
 ITERATION   1 PLS= 0.434E-04 0.000E+00 ENERGY      -82.719938 DELTAE -182.7199375
 ITERATION   2 PLS= 0.571E-02 0.000E+00 ENERGY      -82.818562 DELTAE   -0.0986241
 ITERATION   3 PLS= 0.300E-02 0.000E+00 ENERGY      -82.841205 DELTAE   -0.0226431
 ITERATION   4 PLS= 0.157E-02 0.000E+00 ENERGY      -82.857239 DELTAE   -0.0160347
 CYCLE:    34 TIME:   0.062 TIME LEFT:  2.00W  GRAD.:     9.036 HEAT: -82.84894
 ITERATION   1 PLS= 0.102E-03 0.000E+00 ENERGY      -82.592126 DELTAE -182.5921259
 ITERATION   2 PLS= 0.984E-02 0.000E+00 ENERGY      -82.836754 DELTAE   -0.2446278
 ITERATION   3 PLS= 0.520E-02 0.000E+00 ENERGY      -82.892829 DELTAE   -0.0560757
 ITERATION   4 PLS= 0.274E-02 0.000E+00 ENERGY      -82.932456 DELTAE   -0.0396264
 ITERATION   5 PLS= 0.161E-03 0.000E+00 ENERGY      -82.911794 DELTAE    0.0206616
 CYCLE:    35 TIME:   0.066 TIME LEFT:  2.00W  GRAD.:    12.660 HEAT: -82.91182
 ITERATION   1 PLS= 0.777E-04 0.000E+00 ENERGY      -82.944880 DELTAE -182.9448803
 ITERATION   2 PLS= 0.260E-02 0.000E+00 ENERGY      -82.972756 DELTAE   -0.0278758
 ITERATION   3 PLS= 0.133E-02 0.000E+00 ENERGY      -82.978125 DELTAE   -0.0053690
 ITERATION   4 PLS= 0.691E-03 0.000E+00 ENERGY      -82.981573 DELTAE   -0.0034481
 CYCLE:    36 TIME:   0.062 TIME LEFT:  2.00W  GRAD.:     6.143 HEAT: -82.97978
 ITERATION   1 PLS= 0.441E-04 0.000E+00 ENERGY      -82.983324 DELTAE -182.9833238
 ITERATION   2 PLS= 0.301E-02 0.000E+00 ENERGY      -83.019222 DELTAE   -0.0358979
 ITERATION   3 PLS= 0.156E-02 0.000E+00 ENERGY      -83.026954 DELTAE   -0.0077321
 ITERATION   4 PLS= 0.812E-03 0.000E+00 ENERGY      -83.032327 DELTAE   -0.0053737
 CYCLE:    37 TIME:   0.059 TIME LEFT:  2.00W  GRAD.:     6.050 HEAT: -83.02947
 ITERATION   1 PLS= 0.280E-04 0.000E+00 ENERGY      -83.020823 DELTAE -183.0208226
 ITERATION   2 PLS= 0.420E-02 0.000E+00 ENERGY      -83.073177 DELTAE   -0.0523540
 ITERATION   3 PLS= 0.219E-02 0.000E+00 ENERGY      -83.085174 DELTAE   -0.0119979
 ITERATION   4 PLS= 0.114E-02 0.000E+00 ENERGY      -83.093747 DELTAE   -0.0085729
 CYCLE:    38 TIME:   0.062 TIME LEFT:  2.00W  GRAD.:     7.336 HEAT: -83.08917
 ITERATION   1 PLS= 0.234E-04 0.000E+00 ENERGY      -82.738844 DELTAE -182.7388439
 ITERATION   2 PLS= 0.116E-01 0.000E+00 ENERGY      -83.095366 DELTAE   -0.3565222
 ITERATION   3 PLS= 0.616E-02 0.000E+00 ENERGY      -83.177206 DELTAE   -0.0818400
 ITERATION   4 PLS= 0.322E-02 0.000E+00 ENERGY      -83.234965 DELTAE   -0.0577586
 ITERATION   5 PLS= 0.652E-04 0.000E+00 ENERGY      -83.204234 DELTAE    0.0307309
 CYCLE:    39 TIME:   0.066 TIME LEFT:  2.00W  GRAD.:    14.330 HEAT: -83.20427
 ITERATION   1 PLS= 0.405E-04 0.000E+00 ENERGY      -82.953632 DELTAE -182.9536317
 ITERATION   2 PLS= 0.121E-01 0.000E+00 ENERGY      -83.283955 DELTAE   -0.3303235
 ITERATION   3 PLS= 0.640E-02 0.000E+00 ENERGY      -83.360149 DELTAE   -0.0761939
 ITERATION   4 PLS= 0.336E-02 0.000E+00 ENERGY      -83.413798 DELTAE   -0.0536493
 ITERATION   5 PLS= 0.751E-04 0.000E+00 ENERGY      -83.385520 DELTAE    0.0282781
 CYCLE:    40 TIME:   0.062 TIME LEFT:  2.00W  GRAD.:     8.490 HEAT: -83.38554
 ITERATION   1 PLS= 0.364E-04 0.000E+00 ENERGY      -83.380531 DELTAE -183.3805311
 ITERATION   2 PLS= 0.420E-02 0.000E+00 ENERGY      -83.438092 DELTAE   -0.0575606
 ITERATION   3 PLS= 0.216E-02 0.000E+00 ENERGY      -83.450898 DELTAE   -0.0128062
 ITERATION   4 PLS= 0.111E-02 0.000E+00 ENERGY      -83.460044 DELTAE   -0.0091457
 CYCLE:    41 TIME:   0.066 TIME LEFT:  2.00W  GRAD.:     6.367 HEAT: -83.45514
 ITERATION   1 PLS= 0.440E-04 0.000E+00 ENERGY      -82.971195 DELTAE -182.9711952
 ITERATION   2 PLS= 0.115E-01 0.000E+00 ENERGY      -83.249826 DELTAE   -0.2786308
 ITERATION   3 PLS= 0.606E-02 0.000E+00 ENERGY      -83.314517 DELTAE   -0.0646906
 ITERATION   4 PLS= 0.318E-02 0.000E+00 ENERGY      -83.360493 DELTAE   -0.0459768
 ITERATION   5 PLS= 0.658E-04 0.000E+00 ENERGY      -83.336252 DELTAE    0.0242415
 CYCLE:    42 TIME:   0.066 TIME LEFT:  2.00W  GRAD.:     9.117 HEAT: -83.33628
 ITERATION   1 PLS= 0.362E-04 0.000E+00 ENERGY      -82.989288 DELTAE -182.9892885
 ITERATION   2 PLS= 0.103E-01 0.000E+00 ENERGY      -83.209864 DELTAE   -0.2205754
 ITERATION   3 PLS= 0.536E-02 0.000E+00 ENERGY      -83.259565 DELTAE   -0.0497013
 ITERATION   4 PLS= 0.280E-02 0.000E+00 ENERGY      -83.294108 DELTAE   -0.0345432
 ITERATION   5 PLS= 0.551E-04 0.000E+00 ENERGY      -83.276030 DELTAE    0.0180785
 CYCLE:    43 TIME:   0.066 TIME LEFT:  2.00W  GRAD.:     9.833 HEAT: -83.27604
 ITERATION   1 PLS= 0.298E-04 0.000E+00 ENERGY      -83.265398 DELTAE -183.2653982
 ITERATION   2 PLS= 0.167E-02 0.000E+00 ENERGY      -83.286537 DELTAE   -0.0211384
 ITERATION   3 PLS= 0.776E-03 0.000E+00 ENERGY      -83.290553 DELTAE   -0.0040163
 ITERATION   4 PLS= 0.444E-03 0.000E+00 ENERGY      -83.293230 DELTAE   -0.0026772
 CYCLE:    44 TIME:   0.062 TIME LEFT:  2.00W  GRAD.:     7.072 HEAT: -83.29183
 ITERATION   1 PLS= 0.760E-04 0.000E+00 ENERGY      -82.559277 DELTAE -182.5592768
 ITERATION   2 PLS= 0.182E-01 0.000E+00 ENERGY      -83.180048 DELTAE   -0.6207711
 ITERATION   3 PLS= 0.956E-02 0.000E+00 ENERGY      -83.323987 DELTAE   -0.1439390
 ITERATION   4 PLS= 0.503E-02 0.000E+00 ENERGY      -83.424144 DELTAE   -0.1001573
 ITERATION   5 PLS= 0.222E-03 0.000E+00 ENERGY      -83.371980 DELTAE    0.0521639
 CYCLE:    45 TIME:   0.066 TIME LEFT:  2.00W  GRAD.:     5.671 HEAT: -83.37204
 ITERATION   1 PLS= 0.111E-03 0.000E+00 ENERGY      -83.294577 DELTAE -183.2945771
 ITERATION   2 PLS= 0.555E-02 0.000E+00 ENERGY      -83.349324 DELTAE   -0.0547466
 ITERATION   3 PLS= 0.300E-02 0.000E+00 ENERGY      -83.361302 DELTAE   -0.0119782
 ITERATION   4 PLS= 0.161E-02 0.000E+00 ENERGY      -83.369874 DELTAE   -0.0085717
 CYCLE:    46 TIME:   0.062 TIME LEFT:  2.00W  GRAD.:     6.951 HEAT: -83.36551
 ITERATION   1 PLS= 0.144E-03 0.000E+00 ENERGY      -83.363168 DELTAE -183.3631676
 ITERATION   2 PLS= 0.229E-02 0.000E+00 ENERGY      -83.395035 DELTAE   -0.0318676
 ITERATION   3 PLS= 0.110E-02 0.000E+00 ENERGY      -83.399888 DELTAE   -0.0048525
 ITERATION   4 PLS= 0.556E-03 0.000E+00 ENERGY      -83.403022 DELTAE   -0.0031343
 CYCLE:    47 TIME:   0.062 TIME LEFT:  2.00W  GRAD.:     7.939 HEAT: -83.40138
 ITERATION   1 PLS= 0.113E-03 0.000E+00 ENERGY      -83.176297 DELTAE -183.1762971
 ITERATION   2 PLS= 0.453E-02 0.000E+00 ENERGY      -83.232210 DELTAE   -0.0559126
 ITERATION   3 PLS= 0.240E-02 0.000E+00 ENERGY      -83.244155 DELTAE   -0.0119449
 ITERATION   4 PLS= 0.127E-02 0.000E+00 ENERGY      -83.252125 DELTAE   -0.0079707
 CYCLE:    48 TIME:   0.066 TIME LEFT:  2.00W  GRAD.:     5.276 HEAT: -83.24801
 ITERATION   1 PLS= 0.925E-04 0.000E+00 ENERGY      -82.303198 DELTAE -182.3031978
 ITERATION   2 PLS= 0.178E-01 0.000E+00 ENERGY      -83.106602 DELTAE   -0.8034041
 ITERATION   3 PLS= 0.950E-02 0.000E+00 ENERGY      -83.284966 DELTAE   -0.1783638
 ITERATION   4 PLS= 0.504E-02 0.000E+00 ENERGY      -83.406187 DELTAE   -0.1212209
 ITERATION   5 PLS= 0.270E-03 0.000E+00 ENERGY      -83.342844 DELTAE    0.0633430
 CYCLE:    49 TIME:   0.066 TIME LEFT:  2.00W  GRAD.:     8.855 HEAT: -83.34294
 ITERATION   1 PLS= 0.134E-03 0.000E+00 ENERGY      -83.067732 DELTAE -183.0677319
 ITERATION   2 PLS= 0.111E-01 0.000E+00 ENERGY      -83.293060 DELTAE   -0.2253280
 ITERATION   3 PLS= 0.595E-02 0.000E+00 ENERGY      -83.344256 DELTAE   -0.0511960
 ITERATION   4 PLS= 0.316E-02 0.000E+00 ENERGY      -83.379789 DELTAE   -0.0355332
 ITERATION   5 PLS= 0.206E-03 0.000E+00 ENERGY      -83.361377 DELTAE    0.0184117
 CYCLE:    50 TIME:   0.066 TIME LEFT:  2.00W  GRAD.:     7.404 HEAT: -83.36141
 ITERATION   1 PLS= 0.987E-04 0.000E+00 ENERGY      -83.310132 DELTAE -183.3101322
 ITERATION   2 PLS= 0.354E-02 0.000E+00 ENERGY      -83.345314 DELTAE   -0.0351818
 ITERATION   3 PLS= 0.183E-02 0.000E+00 ENERGY      -83.352478 DELTAE   -0.0071643
 ITERATION   4 PLS= 0.950E-03 0.000E+00 ENERGY      -83.357249 DELTAE   -0.0047709
 CYCLE:    51 TIME:   0.062 TIME LEFT:  2.00W  GRAD.:     4.853 HEAT: -83.35478
 ITERATION   1 PLS= 0.433E-04 0.000E+00 ENERGY      -83.378929 DELTAE -183.3789287
 ITERATION   2 PLS= 0.133E-02 0.000E+00 ENERGY      -83.390002 DELTAE   -0.0110735
 ITERATION   3 PLS= 0.658E-03 0.000E+00 ENERGY      -83.392236 DELTAE   -0.0022334
 ITERATION   4 PLS= 0.325E-03 0.000E+00 ENERGY      -83.393550 DELTAE   -0.0013144
 CYCLE:    52 TIME:   0.062 TIME LEFT:  2.00W  GRAD.:     3.826 HEAT: -83.39287
 ITERATION   1 PLS= 0.231E-04 0.000E+00 ENERGY      -82.696212 DELTAE -182.6962122
 ITERATION   2 PLS= 0.119E-01 0.000E+00 ENERGY      -83.353436 DELTAE   -0.6572234
 ITERATION   3 PLS= 0.579E-02 0.000E+00 ENERGY      -83.488383 DELTAE   -0.1349478
 ITERATION   4 PLS= 0.282E-02 0.000E+00 ENERGY      -83.568422 DELTAE   -0.0800385
 ITERATION   5 PLS= 0.158E-03 0.000E+00 ENERGY      -83.527342 DELTAE    0.0410797
 CYCLE:    53 TIME:   0.070 TIME LEFT:  2.00W  GRAD.:     7.298 HEAT: -83.52742
 ITERATION   1 PLS= 0.102E-03 0.000E+00 ENERGY      -83.169975 DELTAE -183.1699748
 ITERATION   2 PLS= 0.795E-02 0.000E+00 ENERGY      -83.457930 DELTAE   -0.2879556
 ITERATION   3 PLS= 0.382E-02 0.000E+00 ENERGY      -83.513902 DELTAE   -0.0559713
 ITERATION   4 PLS= 0.184E-02 0.000E+00 ENERGY      -83.545550 DELTAE   -0.0316481
 ITERATION   5 PLS= 0.987E-04 0.000E+00 ENERGY      -83.529740 DELTAE    0.0158100
 CYCLE:    54 TIME:   0.066 TIME LEFT:  2.00W  GRAD.:    18.346 HEAT: -83.52980
 ITERATION   1 PLS= 0.599E-04 0.000E+00 ENERGY      -83.483944 DELTAE -183.4839441
 ITERATION   2 PLS= 0.368E-02 0.000E+00 ENERGY      -83.548674 DELTAE   -0.0647304
 ITERATION   3 PLS= 0.173E-02 0.000E+00 ENERGY      -83.560683 DELTAE   -0.0120085
 ITERATION   4 PLS= 0.818E-03 0.000E+00 ENERGY      -83.567352 DELTAE   -0.0066693
 CYCLE:    55 TIME:   0.062 TIME LEFT:  2.00W  GRAD.:     4.992 HEAT: -83.56406
 ITERATION   1 PLS= 0.503E-04 0.000E+00 ENERGY      -83.582345 DELTAE -183.5823452
 ITERATION   2 PLS= 0.121E-02 0.000E+00 ENERGY      -83.587251 DELTAE   -0.0049054
 ITERATION   3 PLS= 0.567E-03 0.000E+00 ENERGY      -83.588273 DELTAE   -0.0010224
 ITERATION   4 PLS= 0.293E-03 0.000E+00 ENERGY      -83.588884 DELTAE   -0.0006114
 CYCLE:    56 TIME:   0.059 TIME LEFT:  2.00W  GRAD.:     3.592 HEAT: -83.58858
 ITERATION   1 PLS= 0.163E-04 0.000E+00 ENERGY      -83.528704 DELTAE -183.5287039
 ITERATION   2 PLS= 0.693E-02 0.000E+00 ENERGY      -83.695521 DELTAE   -0.1668167
 ITERATION   3 PLS= 0.330E-02 0.000E+00 ENERGY      -83.730166 DELTAE   -0.0346452
 ITERATION   4 PLS= 0.158E-02 0.000E+00 ENERGY      -83.750021 DELTAE   -0.0198549
 ITERATION   5 PLS= 0.669E-04 0.000E+00 ENERGY      -83.740102 DELTAE    0.0099184
 CYCLE:    57 TIME:   0.070 TIME LEFT:  2.00W  GRAD.:     5.870 HEAT: -83.74012
 ITERATION   1 PLS= 0.419E-04 0.000E+00 ENERGY      -83.687301 DELTAE -183.6873009
 ITERATION   2 PLS= 0.407E-02 0.000E+00 ENERGY      -83.756573 DELTAE   -0.0692718
 ITERATION   3 PLS= 0.202E-02 0.000E+00 ENERGY      -83.770721 DELTAE   -0.0141486
 ITERATION   4 PLS= 0.100E-02 0.000E+00 ENERGY      -83.778485 DELTAE   -0.0077635
 CYCLE:    58 TIME:   0.059 TIME LEFT:  2.00W  GRAD.:     5.991 HEAT: -83.77464
 ITERATION   1 PLS= 0.398E-04 0.000E+00 ENERGY      -82.972414 DELTAE -182.9724136
 ITERATION   2 PLS= 0.152E-01 0.000E+00 ENERGY      -83.659406 DELTAE   -0.6869920
 ITERATION   3 PLS= 0.724E-02 0.000E+00 ENERGY      -83.800695 DELTAE   -0.1412891
 ITERATION   4 PLS= 0.347E-02 0.000E+00 ENERGY      -83.879967 DELTAE   -0.0792719
 ITERATION   5 PLS= 0.140E-03 0.000E+00 ENERGY      -83.840574 DELTAE    0.0393921
 CYCLE:    59 TIME:   0.070 TIME LEFT:  2.00W  GRAD.:    11.377 HEAT: -83.84064
 ITERATION   1 PLS= 0.870E-04 0.000E+00 ENERGY      -83.782220 DELTAE -183.7822201
 ITERATION   2 PLS= 0.313E-02 0.000E+00 ENERGY      -83.814274 DELTAE   -0.0320536
 ITERATION   3 PLS= 0.171E-02 0.000E+00 ENERGY      -83.820018 DELTAE   -0.0057446
 ITERATION   4 PLS= 0.917E-03 0.000E+00 ENERGY      -83.823661 DELTAE   -0.0036425
 CYCLE:    60 TIME:   0.062 TIME LEFT:  2.00W  GRAD.:     4.233 HEAT: -83.82182
 ITERATION   1 PLS= 0.625E-04 0.000E+00 ENERGY      -83.816524 DELTAE -183.8165242
 ITERATION   2 PLS= 0.171E-02 0.000E+00 ENERGY      -83.822559 DELTAE   -0.0060347
 ITERATION   3 PLS= 0.923E-03 0.000E+00 ENERGY      -83.823887 DELTAE   -0.0013277
 ITERATION   4 PLS= 0.495E-03 0.000E+00 ENERGY      -83.824840 DELTAE   -0.0009530
 CYCLE:    61 TIME:   0.062 TIME LEFT:  2.00W  GRAD.:     3.830 HEAT: -83.82435
 ITERATION   1 PLS= 0.363E-04 0.000E+00 ENERGY      -83.807491 DELTAE -183.8074910
 ITERATION   2 PLS= 0.427E-02 0.000E+00 ENERGY      -83.853946 DELTAE   -0.0464555
 ITERATION   3 PLS= 0.209E-02 0.000E+00 ENERGY      -83.863674 DELTAE   -0.0097275
 ITERATION   4 PLS= 0.102E-02 0.000E+00 ENERGY      -83.869536 DELTAE   -0.0058624
 CYCLE:    62 TIME:   0.062 TIME LEFT:  2.00W  GRAD.:     5.468 HEAT: -83.86668
 ITERATION   1 PLS= 0.496E-04 0.000E+00 ENERGY      -83.632577 DELTAE -183.6325771
 ITERATION   2 PLS= 0.663E-02 0.000E+00 ENERGY      -83.722130 DELTAE   -0.0895526
 ITERATION   3 PLS= 0.323E-02 0.000E+00 ENERGY      -83.740106 DELTAE   -0.0179758
 ITERATION   4 PLS= 0.158E-02 0.000E+00 ENERGY      -83.751256 DELTAE   -0.0111505
 CYCLE:    63 TIME:   0.062 TIME LEFT:  2.00W  GRAD.:     7.312 HEAT: -83.74573
 ITERATION   1 PLS= 0.124E-03 0.000E+00 ENERGY      -83.620109 DELTAE -183.6201092
 ITERATION   2 PLS= 0.649E-02 0.000E+00 ENERGY      -83.736133 DELTAE   -0.1160242
 ITERATION   3 PLS= 0.308E-02 0.000E+00 ENERGY      -83.759383 DELTAE   -0.0232498
 ITERATION   4 PLS= 0.147E-02 0.000E+00 ENERGY      -83.772043 DELTAE   -0.0126596
 CYCLE:    64 TIME:   0.062 TIME LEFT:  2.00W  GRAD.:     5.554 HEAT: -83.76585
 ITERATION   1 PLS= 0.508E-04 0.000E+00 ENERGY      -83.731348 DELTAE -183.7313476
 ITERATION   2 PLS= 0.333E-02 0.000E+00 ENERGY      -83.761574 DELTAE   -0.0302260
 ITERATION   3 PLS= 0.157E-02 0.000E+00 ENERGY      -83.767830 DELTAE   -0.0062564
 ITERATION   4 PLS= 0.761E-03 0.000E+00 ENERGY      -83.771330 DELTAE   -0.0034997
 CYCLE:    65 TIME:   0.062 TIME LEFT:  2.00W  GRAD.:     4.546 HEAT: -83.76961
 ITERATION   1 PLS= 0.276E-04 0.000E+00 ENERGY      -83.629677 DELTAE -183.6296768
 ITERATION   2 PLS= 0.774E-02 0.000E+00 ENERGY      -83.760407 DELTAE   -0.1307302
 ITERATION   3 PLS= 0.387E-02 0.000E+00 ENERGY      -83.788635 DELTAE   -0.0282282
 ITERATION   4 PLS= 0.193E-02 0.000E+00 ENERGY      -83.805164 DELTAE   -0.0165284
 CYCLE:    66 TIME:   0.062 TIME LEFT:  2.00W  GRAD.:     5.849 HEAT: -83.79696
 ITERATION   1 PLS= 0.515E-04 0.000E+00 ENERGY      -83.381200 DELTAE -183.3812000
 ITERATION   2 PLS= 0.114E-01 0.000E+00 ENERGY      -83.733413 DELTAE   -0.3522132
 ITERATION   3 PLS= 0.578E-02 0.000E+00 ENERGY      -83.807247 DELTAE   -0.0738333
 ITERATION   4 PLS= 0.290E-02 0.000E+00 ENERGY      -83.848601 DELTAE   -0.0413548
 ITERATION   5 PLS= 0.118E-03 0.000E+00 ENERGY      -83.828244 DELTAE    0.0203578
 CYCLE:    67 TIME:   0.070 TIME LEFT:  2.00W  GRAD.:    10.057 HEAT: -83.82826
 ITERATION   1 PLS= 0.497E-04 0.000E+00 ENERGY      -83.802427 DELTAE -183.8024273
 ITERATION   2 PLS= 0.362E-02 0.000E+00 ENERGY      -83.874748 DELTAE   -0.0723206
 ITERATION   3 PLS= 0.216E-02 0.000E+00 ENERGY      -83.889558 DELTAE   -0.0148097
 ITERATION   4 PLS= 0.119E-02 0.000E+00 ENERGY      -83.899505 DELTAE   -0.0099476
 CYCLE:    68 TIME:   0.062 TIME LEFT:  2.00W  GRAD.:     9.583 HEAT: -83.89423
 ITERATION   1 PLS= 0.103E-03 0.000E+00 ENERGY      -83.467659 DELTAE -183.4676586
 ITERATION   2 PLS= 0.137E-01 0.000E+00 ENERGY      -83.987604 DELTAE   -0.5199457
 ITERATION   3 PLS= 0.633E-02 0.000E+00 ENERGY      -84.091626 DELTAE   -0.1040215
 ITERATION   4 PLS= 0.314E-02 0.000E+00 ENERGY      -84.148099 DELTAE   -0.0564729
 ITERATION   5 PLS= 0.175E-03 0.000E+00 ENERGY      -84.120699 DELTAE    0.0274001
 CYCLE:    69 TIME:   0.066 TIME LEFT:  2.00W  GRAD.:    15.991 HEAT: -84.12075
 ITERATION   1 PLS= 0.125E-03 0.000E+00 ENERGY      -84.014319 DELTAE -184.0143192
 ITERATION   2 PLS= 0.522E-02 0.000E+00 ENERGY      -84.101699 DELTAE   -0.0873795
 ITERATION   3 PLS= 0.244E-02 0.000E+00 ENERGY      -84.118413 DELTAE   -0.0167145
 ITERATION   4 PLS= 0.114E-02 0.000E+00 ENERGY      -84.127377 DELTAE   -0.0089638
 CYCLE:    70 TIME:   0.066 TIME LEFT:  2.00W  GRAD.:     4.702 HEAT: -84.12294
 ITERATION   1 PLS= 0.936E-04 0.000E+00 ENERGY      -84.126833 DELTAE -184.1268326
 ITERATION   2 PLS= 0.265E-02 0.000E+00 ENERGY      -84.142569 DELTAE   -0.0157363
 ITERATION   3 PLS= 0.129E-02 0.000E+00 ENERGY      -84.145937 DELTAE   -0.0033684
 ITERATION   4 PLS= 0.627E-03 0.000E+00 ENERGY      -84.147944 DELTAE   -0.0020067
 CYCLE:    71 TIME:   0.059 TIME LEFT:  2.00W  GRAD.:     3.712 HEAT: -84.14694
 ITERATION   1 PLS= 0.392E-04 0.000E+00 ENERGY      -83.937275 DELTAE -183.9372753
 ITERATION   2 PLS= 0.930E-02 0.000E+00 ENERGY      -84.126509 DELTAE   -0.1892339
 ITERATION   3 PLS= 0.455E-02 0.000E+00 ENERGY      -84.167704 DELTAE   -0.0411945
 ITERATION   4 PLS= 0.224E-02 0.000E+00 ENERGY      -84.191957 DELTAE   -0.0242529
 ITERATION   5 PLS= 0.695E-04 0.000E+00 ENERGY      -84.180001 DELTAE    0.0119554
 CYCLE:    72 TIME:   0.070 TIME LEFT:  2.00W  GRAD.:     5.632 HEAT: -84.18002
 ITERATION   1 PLS= 0.438E-04 0.000E+00 ENERGY      -84.139057 DELTAE -184.1390572
 ITERATION   2 PLS= 0.542E-02 0.000E+00 ENERGY      -84.216429 DELTAE   -0.0773721
 ITERATION   3 PLS= 0.266E-02 0.000E+00 ENERGY      -84.233476 DELTAE   -0.0170463
 ITERATION   4 PLS= 0.131E-02 0.000E+00 ENERGY      -84.244301 DELTAE   -0.0108259
 CYCLE:    73 TIME:   0.062 TIME LEFT:  2.00W  GRAD.:     6.278 HEAT: -84.23886
 ITERATION   1 PLS= 0.577E-04 0.000E+00 ENERGY      -83.780147 DELTAE -183.7801472
 ITERATION   2 PLS= 0.130E-01 0.000E+00 ENERGY      -84.231175 DELTAE   -0.4510276
 ITERATION   3 PLS= 0.645E-02 0.000E+00 ENERGY      -84.331410 DELTAE   -0.1002347
 ITERATION   4 PLS= 0.321E-02 0.000E+00 ENERGY      -84.393386 DELTAE   -0.0619763
 ITERATION   5 PLS= 0.165E-03 0.000E+00 ENERGY      -84.362517 DELTAE    0.0308689
 CYCLE:    74 TIME:   0.066 TIME LEFT:  2.00W  GRAD.:     7.287 HEAT: -84.36257
 ITERATION   1 PLS= 0.695E-04 0.000E+00 ENERGY      -84.373588 DELTAE -184.3735879
 ITERATION   2 PLS= 0.967E-03 0.000E+00 ENERGY      -84.381661 DELTAE   -0.0080732
 ITERATION   3 PLS= 0.461E-03 0.000E+00 ENERGY      -84.382902 DELTAE   -0.0012408
 ITERATION   4 PLS= 0.223E-03 0.000E+00 ENERGY      -84.383554 DELTAE   -0.0006519
 CYCLE:    75 TIME:   0.066 TIME LEFT:  2.00W  GRAD.:     4.101 HEAT: -84.38323
 ITERATION   1 PLS= 0.317E-04 0.000E+00 ENERGY      -84.190481 DELTAE -184.1904813
 ITERATION   2 PLS= 0.717E-02 0.000E+00 ENERGY      -84.354678 DELTAE   -0.1641969
 ITERATION   3 PLS= 0.361E-02 0.000E+00 ENERGY      -84.389854 DELTAE   -0.0351753
 ITERATION   4 PLS= 0.183E-02 0.000E+00 ENERGY      -84.410472 DELTAE   -0.0206185
 ITERATION   5 PLS= 0.125E-03 0.000E+00 ENERGY      -84.400284 DELTAE    0.0101884
 CYCLE:    76 TIME:   0.066 TIME LEFT:  2.00W  GRAD.:     6.698 HEAT: -84.40031
 ITERATION   1 PLS= 0.579E-04 0.000E+00 ENERGY      -84.339614 DELTAE -184.3396139
 ITERATION   2 PLS= 0.239E-02 0.000E+00 ENERGY      -84.376308 DELTAE   -0.0366944
 ITERATION   3 PLS= 0.108E-02 0.000E+00 ENERGY      -84.382695 DELTAE   -0.0063866
 ITERATION   4 PLS= 0.498E-03 0.000E+00 ENERGY      -84.386325 DELTAE   -0.0036298
 CYCLE:    77 TIME:   0.066 TIME LEFT:  2.00W  GRAD.:     8.035 HEAT: -84.38465
 ITERATION   1 PLS= 0.644E-04 0.000E+00 ENERGY      -84.420618 DELTAE -184.4206175
 ITERATION   2 PLS= 0.233E-02 0.000E+00 ENERGY      -84.445243 DELTAE   -0.0246251
 ITERATION   3 PLS= 0.113E-02 0.000E+00 ENERGY      -84.449666 DELTAE   -0.0044235
 ITERATION   4 PLS= 0.549E-03 0.000E+00 ENERGY      -84.452226 DELTAE   -0.0025602
 CYCLE:    78 TIME:   0.062 TIME LEFT:  2.00W  GRAD.:     4.191 HEAT: -84.45099
 ITERATION   1 PLS= 0.519E-04 0.000E+00 ENERGY      -84.384412 DELTAE -184.3844116
 ITERATION   2 PLS= 0.256E-02 0.000E+00 ENERGY      -84.405414 DELTAE   -0.0210023
 ITERATION   3 PLS= 0.125E-02 0.000E+00 ENERGY      -84.409890 DELTAE   -0.0044757
 ITERATION   4 PLS= 0.620E-03 0.000E+00 ENERGY      -84.412513 DELTAE   -0.0026236
 CYCLE:    79 TIME:   0.066 TIME LEFT:  2.00W  GRAD.:     3.439 HEAT: -84.41121
 ITERATION   1 PLS= 0.345E-04 0.000E+00 ENERGY      -84.191488 DELTAE -184.1914879
 ITERATION   2 PLS= 0.758E-02 0.000E+00 ENERGY      -84.410088 DELTAE   -0.2185999
 ITERATION   3 PLS= 0.374E-02 0.000E+00 ENERGY      -84.457563 DELTAE   -0.0474748
 ITERATION   4 PLS= 0.185E-02 0.000E+00 ENERGY      -84.486218 DELTAE   -0.0286553
 ITERATION   5 PLS= 0.119E-03 0.000E+00 ENERGY      -84.471781 DELTAE    0.0144373
 CYCLE:    80 TIME:   0.066 TIME LEFT:  2.00W  GRAD.:     5.105 HEAT: -84.47180
 ITERATION   1 PLS= 0.639E-04 0.000E+00 ENERGY      -84.221669 DELTAE -184.2216694
 ITERATION   2 PLS= 0.683E-02 0.000E+00 ENERGY      -84.446080 DELTAE   -0.2244107
 ITERATION   3 PLS= 0.337E-02 0.000E+00 ENERGY      -84.494286 DELTAE   -0.0482060
 ITERATION   4 PLS= 0.167E-02 0.000E+00 ENERGY      -84.523928 DELTAE   -0.0296416
 ITERATION   5 PLS= 0.126E-03 0.000E+00 ENERGY      -84.508631 DELTAE    0.0152972
 CYCLE:    81 TIME:   0.066 TIME LEFT:  2.00W  GRAD.:     8.133 HEAT: -84.50866
 ITERATION   1 PLS= 0.738E-04 0.000E+00 ENERGY      -84.518496 DELTAE -184.5184962
 ITERATION   2 PLS= 0.991E-03 0.000E+00 ENERGY      -84.527869 DELTAE   -0.0093730
 ITERATION   3 PLS= 0.538E-03 0.000E+00 ENERGY      -84.529372 DELTAE   -0.0015031
 ITERATION   4 PLS= 0.307E-03 0.000E+00 ENERGY      -84.530250 DELTAE   -0.0008774
 CYCLE:    82 TIME:   0.066 TIME LEFT:  2.00W  GRAD.:     4.807 HEAT: -84.52981
 ITERATION   1 PLS= 0.366E-04 0.000E+00 ENERGY      -84.009365 DELTAE -184.0093655
 ITERATION   2 PLS= 0.817E-02 0.000E+00 ENERGY      -84.397700 DELTAE   -0.3883344
 ITERATION   3 PLS= 0.407E-02 0.000E+00 ENERGY      -84.481099 DELTAE   -0.0833990
 ITERATION   4 PLS= 0.205E-02 0.000E+00 ENERGY      -84.533279 DELTAE   -0.0521797
 ITERATION   5 PLS= 0.203E-03 0.000E+00 ENERGY      -84.505853 DELTAE    0.0274255
 CYCLE:    83 TIME:   0.070 TIME LEFT:  2.00W  GRAD.:     8.424 HEAT: -84.50590
 ITERATION   1 PLS= 0.860E-04 0.000E+00 ENERGY      -84.493750 DELTAE -184.4937502
 ITERATION   2 PLS= 0.117E-02 0.000E+00 ENERGY      -84.503414 DELTAE   -0.0096635
 ITERATION   3 PLS= 0.421E-03 0.000E+00 ENERGY      -84.504906 DELTAE   -0.0014919
 ITERATION   4 PLS= 0.233E-03 0.000E+00 ENERGY      -84.505753 DELTAE   -0.0008470
 CYCLE:    84 TIME:   0.070 TIME LEFT:  2.00W  GRAD.:     4.661 HEAT: -84.50534
 ITERATION   1 PLS= 0.516E-04 0.000E+00 ENERGY      -84.418304 DELTAE -184.4183042
 ITERATION   2 PLS= 0.343E-02 0.000E+00 ENERGY      -84.496153 DELTAE   -0.0778491
 ITERATION   3 PLS= 0.165E-02 0.000E+00 ENERGY      -84.512369 DELTAE   -0.0162161
 ITERATION   4 PLS= 0.799E-03 0.000E+00 ENERGY      -84.521667 DELTAE   -0.0092974
 CYCLE:    85 TIME:   0.066 TIME LEFT:  2.00W  GRAD.:     4.578 HEAT: -84.51696
 ITERATION   1 PLS= 0.531E-04 0.000E+00 ENERGY      -84.102516 DELTAE -184.1025162
 ITERATION   2 PLS= 0.691E-02 0.000E+00 ENERGY      -84.498479 DELTAE   -0.3959630
 ITERATION   3 PLS= 0.354E-02 0.000E+00 ENERGY      -84.582101 DELTAE   -0.0836213
 ITERATION   4 PLS= 0.183E-02 0.000E+00 ENERGY      -84.631350 DELTAE   -0.0492493
 ITERATION   5 PLS= 0.141E-03 0.000E+00 ENERGY      -84.605951 DELTAE    0.0253988
 CYCLE:    86 TIME:   0.070 TIME LEFT:  2.00W  GRAD.:     6.827 HEAT: -84.60599
 ITERATION   1 PLS= 0.531E-04 0.000E+00 ENERGY      -84.208219 DELTAE -184.2082190
 ITERATION   2 PLS= 0.729E-02 0.000E+00 ENERGY      -84.591112 DELTAE   -0.3828931
 ITERATION   3 PLS= 0.374E-02 0.000E+00 ENERGY      -84.672334 DELTAE   -0.0812215
 ITERATION   4 PLS= 0.194E-02 0.000E+00 ENERGY      -84.722678 DELTAE   -0.0503448
 ITERATION   5 PLS= 0.126E-03 0.000E+00 ENERGY      -84.695717 DELTAE    0.0269617
 CYCLE:    87 TIME:   0.070 TIME LEFT:  2.00W  GRAD.:     7.482 HEAT: -84.69577
 ITERATION   1 PLS= 0.462E-04 0.000E+00 ENERGY      -83.386331 DELTAE -183.3863310
 ITERATION   2 PLS= 0.906E-02 0.000E+00 ENERGY      -84.115162 DELTAE   -0.7288314
 ITERATION   3 PLS= 0.424E-02 0.000E+00 ENERGY      -84.253546 DELTAE   -0.1383838
 ITERATION   4 PLS= 0.205E-02 0.000E+00 ENERGY      -84.341149 DELTAE   -0.0876032
 ITERATION   5 PLS= 0.306E-03 0.000E+00 ENERGY      -84.295684 DELTAE    0.0454659
 CYCLE:    88 TIME:   0.070 TIME LEFT:  2.00W  GRAD.:    33.440 HEAT: -84.29580
 ITERATION   1 PLS= 0.190E-03 0.000E+00 ENERGY      -84.329734 DELTAE -184.3297335
 ITERATION   2 PLS= 0.509E-02 0.000E+00 ENERGY      -84.582055 DELTAE   -0.2523211
 ITERATION   3 PLS= 0.219E-02 0.000E+00 ENERGY      -84.621243 DELTAE   -0.0391882
 ITERATION   4 PLS= 0.117E-02 0.000E+00 ENERGY      -84.644724 DELTAE   -0.0234807
 ITERATION   5 PLS= 0.239E-03 0.000E+00 ENERGY      -84.632927 DELTAE    0.0117968
 CYCLE:    89 TIME:   0.070 TIME LEFT:  2.00W  GRAD.:     3.687 HEAT: -84.63298
 ITERATION   1 PLS= 0.133E-03 0.000E+00 ENERGY      -84.532819 DELTAE -184.5328194
 ITERATION   2 PLS= 0.244E-02 0.000E+00 ENERGY      -84.577200 DELTAE   -0.0443805
 ITERATION   3 PLS= 0.120E-02 0.000E+00 ENERGY      -84.586745 DELTAE   -0.0095448
 ITERATION   4 PLS= 0.600E-03 0.000E+00 ENERGY      -84.593210 DELTAE   -0.0064653
 CYCLE:    90 TIME:   0.062 TIME LEFT:  2.00W  GRAD.:     3.019 HEAT: -84.58962
 ITERATION   1 PLS= 0.624E-04 0.000E+00 ENERGY      -84.682171 DELTAE -184.6821712
 ITERATION   2 PLS= 0.115E-02 0.000E+00 ENERGY      -84.688639 DELTAE   -0.0064676
 ITERATION   3 PLS= 0.586E-03 0.000E+00 ENERGY      -84.689888 DELTAE   -0.0012489
 ITERATION   4 PLS= 0.299E-03 0.000E+00 ENERGY      -84.690608 DELTAE   -0.0007200
 CYCLE:    91 TIME:   0.062 TIME LEFT:  2.00W  GRAD.:     3.248 HEAT: -84.69026
 ITERATION   1 PLS= 0.292E-04 0.000E+00 ENERGY      -84.484710 DELTAE -184.4847103
 ITERATION   2 PLS= 0.417E-02 0.000E+00 ENERGY      -84.609124 DELTAE   -0.1244141
 ITERATION   3 PLS= 0.193E-02 0.000E+00 ENERGY      -84.635388 DELTAE   -0.0262639
 ITERATION   4 PLS= 0.894E-03 0.000E+00 ENERGY      -84.651794 DELTAE   -0.0164060
 ITERATION   5 PLS= 0.955E-04 0.000E+00 ENERGY      -84.643595 DELTAE    0.0081992
 CYCLE:    92 TIME:   0.070 TIME LEFT:  2.00W  GRAD.:     6.619 HEAT: -84.64361
 ITERATION   1 PLS= 0.584E-04 0.000E+00 ENERGY      -84.568487 DELTAE -184.5684871
 ITERATION   2 PLS= 0.251E-02 0.000E+00 ENERGY      -84.609477 DELTAE   -0.0409904
 ITERATION   3 PLS= 0.133E-02 0.000E+00 ENERGY      -84.617198 DELTAE   -0.0077207
 ITERATION   4 PLS= 0.700E-03 0.000E+00 ENERGY      -84.621743 DELTAE   -0.0045451
 CYCLE:    93 TIME:   0.062 TIME LEFT:  2.00W  GRAD.:     4.781 HEAT: -84.61952
 ITERATION   1 PLS= 0.576E-04 0.000E+00 ENERGY      -84.679448 DELTAE -184.6794481
 ITERATION   2 PLS= 0.284E-02 0.000E+00 ENERGY      -84.728058 DELTAE   -0.0486103
 ITERATION   3 PLS= 0.145E-02 0.000E+00 ENERGY      -84.738211 DELTAE   -0.0101528
 ITERATION   4 PLS= 0.756E-03 0.000E+00 ENERGY      -84.744367 DELTAE   -0.0061559
 CYCLE:    94 TIME:   0.062 TIME LEFT:  2.00W  GRAD.:     2.244 HEAT: -84.74118
 ITERATION   1 PLS= 0.286E-04 0.000E+00 ENERGY      -84.725941 DELTAE -184.7259408
 ITERATION   2 PLS= 0.166E-02 0.000E+00 ENERGY      -84.745689 DELTAE   -0.0197479
 ITERATION   3 PLS= 0.851E-03 0.000E+00 ENERGY      -84.749624 DELTAE   -0.0039350
 ITERATION   4 PLS= 0.441E-03 0.000E+00 ENERGY      -84.751931 DELTAE   -0.0023075
 ITERATION   5 PLS= 0.186E-04 0.000E+00 ENERGY      -84.750696 DELTAE    0.0012355
 CYCLE:    95 TIME:   0.070 TIME LEFT:  2.00W  GRAD.:     2.519 HEAT: -84.75070
 ITERATION   1 PLS= 0.116E-04 0.000E+00 ENERGY      -84.751801 DELTAE -184.7518005
 ITERATION   2 PLS= 0.178E-02 0.000E+00 ENERGY      -84.788826 DELTAE   -0.0370255
 ITERATION   3 PLS= 0.909E-03 0.000E+00 ENERGY      -84.795939 DELTAE   -0.0071130
 ITERATION   4 PLS= 0.480E-03 0.000E+00 ENERGY      -84.800183 DELTAE   -0.0042444
 ITERATION   5 PLS= 0.162E-04 0.000E+00 ENERGY      -84.797927 DELTAE    0.0022564
 CYCLE:    96 TIME:   0.074 TIME LEFT:  2.00W  GRAD.:     5.090 HEAT: -84.79793
 ITERATION   1 PLS= 0.111E-04 0.000E+00 ENERGY      -84.773107 DELTAE -184.7731066
 ITERATION   2 PLS= 0.199E-02 0.000E+00 ENERGY      -84.797613 DELTAE   -0.0245065
 ITERATION   3 PLS= 0.103E-02 0.000E+00 ENERGY      -84.802301 DELTAE   -0.0046883
 ITERATION   4 PLS= 0.539E-03 0.000E+00 ENERGY      -84.805080 DELTAE   -0.0027781
 CYCLE:    97 TIME:   0.059 TIME LEFT:  2.00W  GRAD.:     4.019 HEAT: -84.80360
 ITERATION   1 PLS= 0.261E-04 0.000E+00 ENERGY      -84.767575 DELTAE -184.7675753
 ITERATION   2 PLS= 0.112E-02 0.000E+00 ENERGY      -84.774953 DELTAE   -0.0073778
 ITERATION   3 PLS= 0.592E-03 0.000E+00 ENERGY      -84.776373 DELTAE   -0.0014203
 ITERATION   4 PLS= 0.312E-03 0.000E+00 ENERGY      -84.777217 DELTAE   -0.0008432
 CYCLE:    98 TIME:   0.062 TIME LEFT:  2.00W  GRAD.:     2.707 HEAT: -84.77678
 ITERATION   1 PLS= 0.221E-04 0.000E+00 ENERGY      -84.806343 DELTAE -184.8063429
 ITERATION   2 PLS= 0.219E-02 0.000E+00 ENERGY      -84.841538 DELTAE   -0.0351947
 ITERATION   3 PLS= 0.115E-02 0.000E+00 ENERGY      -84.848365 DELTAE   -0.0068276
 ITERATION   4 PLS= 0.610E-03 0.000E+00 ENERGY      -84.852637 DELTAE   -0.0042721
 ITERATION   5 PLS= 0.575E-04 0.000E+00 ENERGY      -84.850332 DELTAE    0.0023056
 CYCLE:    99 TIME:   0.066 TIME LEFT:  2.00W  GRAD.:     4.730 HEAT: -84.85034
 ITERATION   1 PLS= 0.272E-04 0.000E+00 ENERGY      -84.850624 DELTAE -184.8506236
 ITERATION   2 PLS= 0.372E-03 0.000E+00 ENERGY      -84.854430 DELTAE   -0.0038061
 ITERATION   3 PLS= 0.201E-03 0.000E+00 ENERGY      -84.855062 DELTAE   -0.0006324
 ITERATION   4 PLS= 0.113E-03 0.000E+00 ENERGY      -84.855416 DELTAE   -0.0003541
 CYCLE:   100 TIME:   0.066 TIME LEFT:  2.00W  GRAD.:     2.412 HEAT: -84.85522
 ITERATION   1 PLS= 0.147E-04 0.000E+00 ENERGY      -84.849196 DELTAE -184.8491961
 ITERATION   2 PLS= 0.418E-03 0.000E+00 ENERGY      -84.855974 DELTAE   -0.0067782
 ITERATION   3 PLS= 0.256E-03 0.000E+00 ENERGY      -84.857122 DELTAE   -0.0011474
 ITERATION   4 PLS= 0.144E-03 0.000E+00 ENERGY      -84.857786 DELTAE   -0.0006641
 CYCLE:   101 TIME:   0.059 TIME LEFT:  2.00W  GRAD.:     2.405 HEAT: -84.85740
 ITERATION   1 PLS= 0.175E-04 0.000E+00 ENERGY      -84.844229 DELTAE -184.8442293
 ITERATION   2 PLS= 0.626E-03 0.000E+00 ENERGY      -84.856439 DELTAE   -0.0122101
 ITERATION   3 PLS= 0.363E-03 0.000E+00 ENERGY      -84.858677 DELTAE   -0.0022376
 ITERATION   4 PLS= 0.203E-03 0.000E+00 ENERGY      -84.860077 DELTAE   -0.0014001
 CYCLE:   102 TIME:   0.062 TIME LEFT:  2.00W  GRAD.:     3.177 HEAT: -84.85924
 ITERATION   1 PLS= 0.227E-04 0.000E+00 ENERGY      -84.804045 DELTAE -184.8040452
 ITERATION   2 PLS= 0.123E-02 0.000E+00 ENERGY      -84.850283 DELTAE   -0.0462378
 ITERATION   3 PLS= 0.687E-03 0.000E+00 ENERGY      -84.858754 DELTAE   -0.0084705
 ITERATION   4 PLS= 0.380E-03 0.000E+00 ENERGY      -84.863786 DELTAE   -0.0050329
 CYCLE:   103 TIME:   0.062 TIME LEFT:  2.00W  GRAD.:     4.464 HEAT: -84.86085
 ITERATION   1 PLS= 0.509E-04 0.000E+00 ENERGY      -84.713636 DELTAE -184.7136364
 ITERATION   2 PLS= 0.165E-02 0.000E+00 ENERGY      -84.797000 DELTAE   -0.0833636
 ITERATION   3 PLS= 0.939E-03 0.000E+00 ENERGY      -84.812143 DELTAE   -0.0151426
 ITERATION   4 PLS= 0.527E-03 0.000E+00 ENERGY      -84.820940 DELTAE   -0.0087971
 CYCLE:   104 TIME:   0.062 TIME LEFT:  2.00W  GRAD.:     4.145 HEAT: -84.81591
 ITERATION   1 PLS= 0.588E-04 0.000E+00 ENERGY      -84.869486 DELTAE -184.8694862
 ITERATION   2 PLS= 0.815E-03 0.000E+00 ENERGY      -84.894908 DELTAE   -0.0254219
 ITERATION   3 PLS= 0.432E-03 0.000E+00 ENERGY      -84.899668 DELTAE   -0.0047601
 ITERATION   4 PLS= 0.232E-03 0.000E+00 ENERGY      -84.902323 DELTAE   -0.0026551
 CYCLE:   105 TIME:   0.086 TIME LEFT:  2.00W  GRAD.:     2.839 HEAT: -84.90085
 ITERATION   1 PLS= 0.123E-04 0.000E+00 ENERGY      -84.826250 DELTAE -184.8262496
 ITERATION   2 PLS= 0.102E-02 0.000E+00 ENERGY      -84.834524 DELTAE   -0.0082743
 ITERATION   3 PLS= 0.539E-03 0.000E+00 ENERGY      -84.835957 DELTAE   -0.0014336
 ITERATION   4 PLS= 0.289E-03 0.000E+00 ENERGY      -84.836869 DELTAE   -0.0009118
 CYCLE:   106 TIME:   0.062 TIME LEFT:  2.00W  GRAD.:     3.415 HEAT: -84.83638
 ITERATION   1 PLS= 0.516E-04 0.000E+00 ENERGY      -84.916190 DELTAE -184.9161902
 ITERATION   2 PLS= 0.410E-03 0.000E+00 ENERGY      -84.929985 DELTAE   -0.0137947
 ITERATION   3 PLS= 0.192E-03 0.000E+00 ENERGY      -84.932484 DELTAE   -0.0024992
 ITERATION   4 PLS= 0.919E-04 0.000E+00 ENERGY      -84.933723 DELTAE   -0.0012391
 CYCLE:   107 TIME:   0.066 TIME LEFT:  2.00W  GRAD.:     2.824 HEAT: -84.93307
 ITERATION   1 PLS= 0.130E-04 0.000E+00 ENERGY      -84.772059 DELTAE -184.7720588
 ITERATION   2 PLS= 0.119E-02 0.000E+00 ENERGY      -84.866286 DELTAE   -0.0942270
 ITERATION   3 PLS= 0.575E-03 0.000E+00 ENERGY      -84.883477 DELTAE   -0.0171915
 ITERATION   4 PLS= 0.282E-03 0.000E+00 ENERGY      -84.892088 DELTAE   -0.0086103
 ITERATION   5 PLS= 0.265E-04 0.000E+00 ENERGY      -84.887493 DELTAE    0.0045946
 CYCLE:   108 TIME:   0.070 TIME LEFT:  2.00W  GRAD.:     2.946 HEAT: -84.88751
 ITERATION   1 PLS= 0.170E-04 0.000E+00 ENERGY      -84.856337 DELTAE -184.8563368
 ITERATION   2 PLS= 0.103E-02 0.000E+00 ENERGY      -84.887969 DELTAE   -0.0316318
 ITERATION   3 PLS= 0.543E-03 0.000E+00 ENERGY      -84.893681 DELTAE   -0.0057129
 ITERATION   4 PLS= 0.290E-03 0.000E+00 ENERGY      -84.896885 DELTAE   -0.0032032
 CYCLE:   109 TIME:   0.062 TIME LEFT:  2.00W  GRAD.:     4.722 HEAT: -84.89511
 ITERATION   1 PLS= 0.320E-04 0.000E+00 ENERGY      -84.710331 DELTAE -184.7103310
 ITERATION   2 PLS= 0.799E-03 0.000E+00 ENERGY      -84.834269 DELTAE   -0.1239375
 ITERATION   3 PLS= 0.449E-03 0.000E+00 ENERGY      -84.856944 DELTAE   -0.0226754
 ITERATION   4 PLS= 0.246E-03 0.000E+00 ENERGY      -84.868808 DELTAE   -0.0118636
 CYCLE:   110 TIME:   0.125 TIME LEFT:  2.00W  GRAD.:     3.859 HEAT: -84.86231
 ITERATION   1 PLS= 0.180E-04 0.000E+00 ENERGY      -84.696391 DELTAE -184.6963913
 ITERATION   2 PLS= 0.233E-02 0.000E+00 ENERGY      -84.869018 DELTAE   -0.1726266
 ITERATION   3 PLS= 0.120E-02 0.000E+00 ENERGY      -84.900996 DELTAE   -0.0319776
 ITERATION   4 PLS= 0.605E-03 0.000E+00 ENERGY      -84.917601 DELTAE   -0.0166053
 ITERATION   5 PLS= 0.200E-04 0.000E+00 ENERGY      -84.908766 DELTAE    0.0088349
 CYCLE:   111 TIME:   0.074 TIME LEFT:  2.00W  GRAD.:     4.260 HEAT: -84.90879
 ITERATION   1 PLS= 0.119E-04 0.000E+00 ENERGY      -84.781016 DELTAE -184.7810158
 ITERATION   2 PLS= 0.299E-02 0.000E+00 ENERGY      -84.871679 DELTAE   -0.0906634
 ITERATION   3 PLS= 0.150E-02 0.000E+00 ENERGY      -84.888323 DELTAE   -0.0166436
 ITERATION   4 PLS= 0.764E-03 0.000E+00 ENERGY      -84.897355 DELTAE   -0.0090325
 CYCLE:   112 TIME:   0.059 TIME LEFT:  2.00W  GRAD.:     8.543 HEAT: -84.89275
 ITERATION   1 PLS= 0.456E-04 0.000E+00 ENERGY      -84.907733 DELTAE -184.9077326
 ITERATION   2 PLS= 0.818E-03 0.000E+00 ENERGY      -84.918176 DELTAE   -0.0104437
 ITERATION   3 PLS= 0.321E-03 0.000E+00 ENERGY      -84.919728 DELTAE   -0.0015513
 ITERATION   4 PLS= 0.170E-03 0.000E+00 ENERGY      -84.920409 DELTAE   -0.0006814
 CYCLE:   113 TIME:   0.074 TIME LEFT:  2.00W  GRAD.:     3.628 HEAT: -84.92009
 ITERATION   1 PLS= 0.248E-04 0.000E+00 ENERGY      -84.922798 DELTAE -184.9227977
 ITERATION   2 PLS= 0.107E-02 0.000E+00 ENERGY      -84.928796 DELTAE   -0.0059983
 ITERATION   3 PLS= 0.618E-03 0.000E+00 ENERGY      -84.929922 DELTAE   -0.0011263
 ITERATION   4 PLS= 0.349E-03 0.000E+00 ENERGY      -84.930665 DELTAE   -0.0007428
 CYCLE:   114 TIME:   0.059 TIME LEFT:  2.00W  GRAD.:     3.187 HEAT: -84.93028
 ITERATION   1 PLS= 0.583E-04 0.000E+00 ENERGY      -84.846035 DELTAE -184.8460347
 ITERATION   2 PLS= 0.296E-02 0.000E+00 ENERGY      -84.943344 DELTAE   -0.0973092
 ITERATION   3 PLS= 0.154E-02 0.000E+00 ENERGY      -84.961687 DELTAE   -0.0183433
 ITERATION   4 PLS= 0.795E-03 0.000E+00 ENERGY      -84.971624 DELTAE   -0.0099367
 ITERATION   5 PLS= 0.553E-04 0.000E+00 ENERGY      -84.966379 DELTAE    0.0052450
 CYCLE:   115 TIME:   0.074 TIME LEFT:  2.00W  GRAD.:     4.171 HEAT: -84.96639
 ITERATION   1 PLS= 0.327E-04 0.000E+00 ENERGY      -84.808885 DELTAE -184.8088850
 ITERATION   2 PLS= 0.398E-02 0.000E+00 ENERGY      -85.049794 DELTAE   -0.2409093
 ITERATION   3 PLS= 0.206E-02 0.000E+00 ENERGY      -85.095029 DELTAE   -0.0452350
 ITERATION   4 PLS= 0.106E-02 0.000E+00 ENERGY      -85.118776 DELTAE   -0.0237470
 ITERATION   5 PLS= 0.600E-04 0.000E+00 ENERGY      -85.106342 DELTAE    0.0124345
 CYCLE:   116 TIME:   0.082 TIME LEFT:  2.00W  GRAD.:     4.972 HEAT: -85.10637
 ITERATION   1 PLS= 0.377E-04 0.000E+00 ENERGY      -84.887978 DELTAE -184.8879780
 ITERATION   2 PLS= 0.463E-02 0.000E+00 ENERGY      -85.010468 DELTAE   -0.1224900
 ITERATION   3 PLS= 0.263E-02 0.000E+00 ENERGY      -85.033490 DELTAE   -0.0230217
 ITERATION   4 PLS= 0.144E-02 0.000E+00 ENERGY      -85.047839 DELTAE   -0.0143497
 CYCLE:   117 TIME:   0.074 TIME LEFT:  2.00W  GRAD.:     9.381 HEAT: -85.04016
 ITERATION   1 PLS= 0.139E-03 0.000E+00 ENERGY      -85.017296 DELTAE -185.0172963
 ITERATION   2 PLS= 0.316E-02 0.000E+00 ENERGY      -85.073320 DELTAE   -0.0560242
 ITERATION   3 PLS= 0.167E-02 0.000E+00 ENERGY      -85.083837 DELTAE   -0.0105169
 ITERATION   4 PLS= 0.919E-03 0.000E+00 ENERGY      -85.090494 DELTAE   -0.0066561
 CYCLE:   118 TIME:   0.074 TIME LEFT:  2.00W  GRAD.:     2.330 HEAT: -85.08696
 ITERATION   1 PLS= 0.735E-04 0.000E+00 ENERGY      -85.059013 DELTAE -185.0590133
 ITERATION   2 PLS= 0.808E-03 0.000E+00 ENERGY      -85.081205 DELTAE   -0.0221913
 ITERATION   3 PLS= 0.365E-03 0.000E+00 ENERGY      -85.085200 DELTAE   -0.0039956
 ITERATION   4 PLS= 0.176E-03 0.000E+00 ENERGY      -85.087152 DELTAE   -0.0019518
 CYCLE:   119 TIME:   0.066 TIME LEFT:  2.00W  GRAD.:     3.302 HEAT: -85.08614
 ITERATION   1 PLS= 0.114E-04 0.000E+00 ENERGY      -85.079001 DELTAE -185.0790007
 ITERATION   2 PLS= 0.447E-03 0.000E+00 ENERGY      -85.084615 DELTAE   -0.0056145
 ITERATION   3 PLS= 0.244E-03 0.000E+00 ENERGY      -85.085644 DELTAE   -0.0010292
 ITERATION   4 PLS= 0.130E-03 0.000E+00 ENERGY      -85.086177 DELTAE   -0.0005323
 CYCLE:   120 TIME:   0.082 TIME LEFT:  2.00W  GRAD.:     2.209 HEAT: -85.08590
 ITERATION   1 PLS= 0.262E-04 0.000E+00 ENERGY      -85.065112 DELTAE -185.0651120
 ITERATION   2 PLS= 0.610E-03 0.000E+00 ENERGY      -85.068632 DELTAE   -0.0035204
 ITERATION   3 PLS= 0.353E-03 0.000E+00 ENERGY      -85.069301 DELTAE   -0.0006685
 ITERATION   4 PLS= 0.198E-03 0.000E+00 ENERGY      -85.069684 DELTAE   -0.0003828
 CYCLE:   121 TIME:   0.070 TIME LEFT:  2.00W  GRAD.:     3.266 HEAT: -85.06948
 ITERATION   1 PLS= 0.333E-04 0.000E+00 ENERGY      -85.078283 DELTAE -185.0782826
 ITERATION   2 PLS= 0.873E-03 0.000E+00 ENERGY      -85.085360 DELTAE   -0.0070771
 ITERATION   3 PLS= 0.489E-03 0.000E+00 ENERGY      -85.086738 DELTAE   -0.0013782
 ITERATION   4 PLS= 0.273E-03 0.000E+00 ENERGY      -85.087674 DELTAE   -0.0009356
 CYCLE:   122 TIME:   0.059 TIME LEFT:  2.00W  GRAD.:     3.663 HEAT: -85.08716
 ITERATION   1 PLS= 0.515E-04 0.000E+00 ENERGY      -85.074052 DELTAE -185.0740518
 ITERATION   2 PLS= 0.814E-03 0.000E+00 ENERGY      -85.092135 DELTAE   -0.0180837
 ITERATION   3 PLS= 0.432E-03 0.000E+00 ENERGY      -85.095434 DELTAE   -0.0032984
 ITERATION   4 PLS= 0.225E-03 0.000E+00 ENERGY      -85.097022 DELTAE   -0.0015882
 CYCLE:   123 TIME:   0.066 TIME LEFT:  2.00W  GRAD.:     2.612 HEAT: -85.09623
 ITERATION   1 PLS= 0.251E-04 0.000E+00 ENERGY      -84.789865 DELTAE -184.7898650
 ITERATION   2 PLS= 0.335E-02 0.000E+00 ENERGY      -84.994074 DELTAE   -0.2042094
 ITERATION   3 PLS= 0.177E-02 0.000E+00 ENERGY      -85.031701 DELTAE   -0.0376263
 ITERATION   4 PLS= 0.918E-03 0.000E+00 ENERGY      -85.050852 DELTAE   -0.0191514
 ITERATION   5 PLS= 0.749E-04 0.000E+00 ENERGY      -85.040858 DELTAE    0.0099939
 CYCLE:   124 TIME:   0.062 TIME LEFT:  2.00W  GRAD.:     3.884 HEAT: -85.04088
 ITERATION   1 PLS= 0.336E-04 0.000E+00 ENERGY      -85.033782 DELTAE -185.0337824
 ITERATION   2 PLS= 0.398E-03 0.000E+00 ENERGY      -85.039032 DELTAE   -0.0052494
 ITERATION   3 PLS= 0.175E-03 0.000E+00 ENERGY      -85.039965 DELTAE   -0.0009330
 ITERATION   4 PLS= 0.105E-03 0.000E+00 ENERGY      -85.040431 DELTAE   -0.0004657
 CYCLE:   125 TIME:   0.066 TIME LEFT:  2.00W  GRAD.:     2.947 HEAT: -85.04019
 ITERATION   1 PLS= 0.185E-04 0.000E+00 ENERGY      -85.004707 DELTAE -185.0047072
 ITERATION   2 PLS= 0.153E-02 0.000E+00 ENERGY      -85.019205 DELTAE   -0.0144981
 ITERATION   3 PLS= 0.767E-03 0.000E+00 ENERGY      -85.021955 DELTAE   -0.0027500
 ITERATION   4 PLS= 0.391E-03 0.000E+00 ENERGY      -85.023589 DELTAE   -0.0016332
 CYCLE:   126 TIME:   0.062 TIME LEFT:  2.00W  GRAD.:     3.561 HEAT: -85.02271
 ITERATION   1 PLS= 0.159E-04 0.000E+00 ENERGY      -84.905292 DELTAE -184.9052921
 ITERATION   2 PLS= 0.366E-02 0.000E+00 ENERGY      -85.030007 DELTAE   -0.1247152
 ITERATION   3 PLS= 0.189E-02 0.000E+00 ENERGY      -85.053191 DELTAE   -0.0231839
 ITERATION   4 PLS= 0.972E-03 0.000E+00 ENERGY      -85.065668 DELTAE   -0.0124766
 ITERATION   5 PLS= 0.529E-04 0.000E+00 ENERGY      -85.059066 DELTAE    0.0066018
 CYCLE:   127 TIME:   0.062 TIME LEFT:  2.00W  GRAD.:     4.042 HEAT: -85.05908
 ITERATION   1 PLS= 0.274E-04 0.000E+00 ENERGY      -85.090043 DELTAE -185.0900427
 ITERATION   2 PLS= 0.375E-02 0.000E+00 ENERGY      -85.217476 DELTAE   -0.1274336
 ITERATION   3 PLS= 0.189E-02 0.000E+00 ENERGY      -85.240760 DELTAE   -0.0232836
 ITERATION   4 PLS= 0.964E-03 0.000E+00 ENERGY      -85.253400 DELTAE   -0.0126401
 ITERATION   5 PLS= 0.499E-04 0.000E+00 ENERGY      -85.246691 DELTAE    0.0067085
 CYCLE:   128 TIME:   0.066 TIME LEFT:  2.00W  GRAD.:     8.154 HEAT: -85.24671
 ITERATION   1 PLS= 0.335E-04 0.000E+00 ENERGY      -84.976930 DELTAE -184.9769298
 ITERATION   2 PLS= 0.373E-02 0.000E+00 ENERGY      -85.156758 DELTAE   -0.1798286
 ITERATION   3 PLS= 0.192E-02 0.000E+00 ENERGY      -85.189339 DELTAE   -0.0325804
 ITERATION   4 PLS= 0.993E-03 0.000E+00 ENERGY      -85.206411 DELTAE   -0.0170725
 CYCLE:   129 TIME:   0.066 TIME LEFT:  2.00W  GRAD.:     5.188 HEAT: -85.19732
 ITERATION   1 PLS= 0.573E-04 0.000E+00 ENERGY      -84.814859 DELTAE -184.8148589
 ITERATION   2 PLS= 0.450E-02 0.000E+00 ENERGY      -85.058719 DELTAE   -0.2438599
 ITERATION   3 PLS= 0.232E-02 0.000E+00 ENERGY      -85.103373 DELTAE   -0.0446539
 ITERATION   4 PLS= 0.119E-02 0.000E+00 ENERGY      -85.126800 DELTAE   -0.0234276
 ITERATION   5 PLS= 0.565E-04 0.000E+00 ENERGY      -85.114395 DELTAE    0.0124051
 CYCLE:   130 TIME:   0.094 TIME LEFT:  2.00W  GRAD.:     6.352 HEAT: -85.11443
 ITERATION   1 PLS= 0.339E-04 0.000E+00 ENERGY      -84.650628 DELTAE -184.6506283
 ITERATION   2 PLS= 0.523E-02 0.000E+00 ENERGY      -84.994585 DELTAE   -0.3439570
 ITERATION   3 PLS= 0.270E-02 0.000E+00 ENERGY      -85.057216 DELTAE   -0.0626306
 ITERATION   4 PLS= 0.139E-02 0.000E+00 ENERGY      -85.089970 DELTAE   -0.0327536
 ITERATION   5 PLS= 0.625E-04 0.000E+00 ENERGY      -85.072570 DELTAE    0.0173991
 CYCLE:   131 TIME:   0.066 TIME LEFT:  2.00W  GRAD.:     7.684 HEAT: -85.07262
 ITERATION   1 PLS= 0.387E-04 0.000E+00 ENERGY      -84.484235 DELTAE -184.4842354
 ITERATION   2 PLS= 0.561E-02 0.000E+00 ENERGY      -84.897468 DELTAE   -0.4132323
 ITERATION   3 PLS= 0.289E-02 0.000E+00 ENERGY      -84.972538 DELTAE   -0.0750700
 ITERATION   4 PLS= 0.149E-02 0.000E+00 ENERGY      -85.012228 DELTAE   -0.0396905
 ITERATION   5 PLS= 0.624E-04 0.000E+00 ENERGY      -84.991090 DELTAE    0.0211382
 CYCLE:   132 TIME:   0.066 TIME LEFT:  2.00W  GRAD.:    10.268 HEAT: -84.99114
 ITERATION   1 PLS= 0.402E-04 0.000E+00 ENERGY      -84.315743 DELTAE -184.3157428
 ITERATION   2 PLS= 0.655E-02 0.000E+00 ENERGY      -84.879667 DELTAE   -0.5639244
 ITERATION   3 PLS= 0.339E-02 0.000E+00 ENERGY      -84.982437 DELTAE   -0.1027698
 ITERATION   4 PLS= 0.175E-02 0.000E+00 ENERGY      -85.036640 DELTAE   -0.0542027
 ITERATION   5 PLS= 0.804E-04 0.000E+00 ENERGY      -85.007913 DELTAE    0.0287269
 CYCLE:   133 TIME:   0.066 TIME LEFT:  2.00W  GRAD.:    11.934 HEAT: -85.00798
 ITERATION   1 PLS= 0.507E-04 0.000E+00 ENERGY      -84.134539 DELTAE -184.1345394
 ITERATION   2 PLS= 0.679E-02 0.000E+00 ENERGY      -84.842217 DELTAE   -0.7076776
 ITERATION   3 PLS= 0.343E-02 0.000E+00 ENERGY      -84.970551 DELTAE   -0.1283343
 ITERATION   4 PLS= 0.174E-02 0.000E+00 ENERGY      -85.039086 DELTAE   -0.0685348
 ITERATION   5 PLS= 0.776E-04 0.000E+00 ENERGY      -85.002847 DELTAE    0.0362387
 CYCLE:   134 TIME:   0.066 TIME LEFT:  2.00W  GRAD.:    17.434 HEAT: -85.00293
 ITERATION   1 PLS= 0.403E-04 0.000E+00 ENERGY      -83.608480 DELTAE -183.6084804
 ITERATION   2 PLS= 0.649E-02 0.000E+00 ENERGY      -84.643861 DELTAE   -1.0353807
 ITERATION   3 PLS= 0.320E-02 0.000E+00 ENERGY      -84.818071 DELTAE   -0.1742104
 ITERATION   4 PLS= 0.166E-02 0.000E+00 ENERGY      -84.905912 DELTAE   -0.0878408
 ITERATION   5 PLS= 0.139E-03 0.000E+00 ENERGY      -84.861397 DELTAE    0.0445153
 CYCLE:   135 TIME:   0.062 TIME LEFT:  2.00W  GRAD.:    31.773 HEAT: -84.86150
 ITERATION   1 PLS= 0.872E-04 0.000E+00 ENERGY      -82.097781 DELTAE -182.0977809
 ITERATION   2 PLS= 0.147E-01 0.000E+00 ENERGY      -84.334939 DELTAE   -2.2371579
 ITERATION   3 PLS= 0.638E-02 0.000E+00 ENERGY      -84.671794 DELTAE   -0.3368553
 ITERATION   4 PLS= 0.331E-02 0.000E+00 ENERGY      -84.835758 DELTAE   -0.1639645
 ITERATION   5 PLS= 0.419E-03 0.000E+00 ENERGY      -84.753755 DELTAE    0.0820031
 CYCLE:   136 TIME:   0.066 TIME LEFT:  2.00W  GRAD.:    47.372 HEAT: -84.75401
 ITERATION   1 PLS= 0.261E-03 0.000E+00 ENERGY      -82.183635 DELTAE -182.1836354
 ITERATION   2 PLS= 0.101E-01 0.000E+00 ENERGY      -84.404558 DELTAE   -2.2209228
 ITERATION   3 PLS= 0.556E-02 0.000E+00 ENERGY      -84.788461 DELTAE   -0.3839026
 ITERATION   4 PLS= 0.313E-02 0.000E+00 ENERGY      -84.993788 DELTAE   -0.2053271
 ITERATION   5 PLS= 0.365E-03 0.000E+00 ENERGY      -84.885890 DELTAE    0.1078976
 ITERATION   6 PLS= 0.161E-03 0.000E+00 ENERGY      -84.886218 DELTAE   -0.0003277
 CYCLE:   137 TIME:   0.074 TIME LEFT:  2.00W  GRAD.:    25.970 HEAT: -84.88650
 ITERATION   1 PLS= 0.879E-04 0.000E+00 ENERGY      -81.813503 DELTAE -181.8135028
 ITERATION   2 PLS= 0.134E-01 0.000E+00 ENERGY      -84.410620 DELTAE   -2.5971173
 ITERATION   3 PLS= 0.696E-02 0.000E+00 ENERGY      -84.882303 DELTAE   -0.4716832
 ITERATION   4 PLS= 0.359E-02 0.000E+00 ENERGY      -85.136333 DELTAE   -0.2540297
 ITERATION   5 PLS= 0.142E-03 0.000E+00 ENERGY      -85.000436 DELTAE    0.1358968
 ITERATION   6 PLS= 0.914E-04 0.000E+00 ENERGY      -85.000794 DELTAE   -0.0003582
 CYCLE:   138 TIME:   0.066 TIME LEFT:  2.00W  GRAD.:    19.937 HEAT: -85.00102
 ITERATION   1 PLS= 0.582E-04 0.000E+00 ENERGY      -68.672249 DELTAE -168.6722495
 ITERATION   2 PLS= 0.253E-01 0.000E+00 ENERGY      -78.183300 DELTAE   -9.5110501
 ITERATION   3 PLS= 0.129E-01 0.000E+00 ENERGY      -79.869596 DELTAE   -1.6862962
 ITERATION   4 PLS= 0.662E-02 0.000E+00 ENERGY      -80.729037 DELTAE   -0.8594414
 ITERATION   5 PLS= 0.620E-03 0.000E+00 ENERGY      -80.281470 DELTAE    0.4475667
 ITERATION   6 PLS= 0.373E-03 0.000E+00 ENERGY      -80.282904 DELTAE   -0.0014338
 CYCLE:   139 TIME:   0.078 TIME LEFT:  2.00W  GRAD.:   141.901 HEAT: -80.28427
 ITERATION   1 PLS= 0.240E-03 0.000E+00 ENERGY      -72.095816 DELTAE -172.0958157
 ITERATION   2 PLS= 0.190E-01 0.000E+00 ENERGY      -82.201898 DELTAE  -10.1060824
 ITERATION   3 PLS= 0.659E-02 0.000E+00 ENERGY      -83.811434 DELTAE   -1.6095359
 ITERATION   4 PLS= 0.298E-02 0.000E+00 ENERGY      -84.601276 DELTAE   -0.7898417
 ITERATION   5 PLS= 0.632E-03 0.000E+00 ENERGY      -84.193083 DELTAE    0.4081924
 ITERATION   6 PLS= 0.347E-03 0.000E+00 ENERGY      -84.194487 DELTAE   -0.0014036
 CYCLE:   140 TIME:   0.074 TIME LEFT:  2.00W  GRAD.:    69.062 HEAT: -84.19599
 ITERATION   1 PLS= 0.253E-03 0.000E+00 ENERGY      -75.553598 DELTAE -175.5535982
 ITERATION   2 PLS= 0.235E-01 0.000E+00 ENERGY      -82.792984 DELTAE   -7.2393855
 ITERATION   3 PLS= 0.124E-01 0.000E+00 ENERGY      -84.107726 DELTAE   -1.3147420
 ITERATION   4 PLS= 0.644E-02 0.000E+00 ENERGY      -84.811056 DELTAE   -0.7033306
 ITERATION   5 PLS= 0.280E-03 0.000E+00 ENERGY      -84.435924 DELTAE    0.3751327
 ITERATION   6 PLS= 0.177E-03 0.000E+00 ENERGY      -84.436897 DELTAE   -0.0009732
 CYCLE:   141 TIME:   0.074 TIME LEFT:  2.00W  GRAD.:    51.103 HEAT: -84.43751
 ITERATION   1 PLS= 0.112E-03 0.000E+00 ENERGY      -69.882859 DELTAE -169.8828586
 ITERATION   2 PLS= 0.324E-01 0.000E+00 ENERGY      -82.032699 DELTAE  -12.1498406
 ITERATION   3 PLS= 0.160E-01 0.000E+00 ENERGY      -84.214569 DELTAE   -2.1818693
 ITERATION   4 PLS= 0.804E-02 0.000E+00 ENERGY      -85.311022 DELTAE   -1.0964537
 ITERATION   5 PLS= 0.327E-03 0.000E+00 ENERGY      -84.750664 DELTAE    0.5603583
 ITERATION   6 PLS= 0.187E-03 0.000E+00 ENERGY      -84.751733 DELTAE   -0.0010692
 CYCLE:   142 TIME:   0.070 TIME LEFT:  2.00W  GRAD.:    48.492 HEAT: -84.75250
 ITERATION   1 PLS= 0.133E-03 0.000E+00 ENERGY      -76.078165 DELTAE -176.0781648
 ITERATION   2 PLS= 0.226E-01 0.000E+00 ENERGY      -82.244294 DELTAE   -6.1661296
 ITERATION   3 PLS= 0.720E-02 0.000E+00 ENERGY      -83.198609 DELTAE   -0.9543144
 ITERATION   4 PLS= 0.313E-02 0.000E+00 ENERGY      -83.609056 DELTAE   -0.4104475
 ITERATION   5 PLS= 0.447E-03 0.000E+00 ENERGY      -83.419226 DELTAE    0.1898305
 ITERATION   6 PLS= 0.263E-03 0.000E+00 ENERGY      -83.419618 DELTAE   -0.0003926
 CYCLE:   143 TIME:   0.074 TIME LEFT:  2.00W  GRAD.:    95.631 HEAT: -83.42006
 ITERATION   1 PLS= 0.175E-03 0.000E+00 ENERGY      -68.952766 DELTAE -168.9527656
 ITERATION   2 PLS= 0.292E-01 0.000E+00 ENERGY      -81.766807 DELTAE  -12.8140416
 ITERATION   3 PLS= 0.147E-01 0.000E+00 ENERGY      -84.085499 DELTAE   -2.3186913
 ITERATION   4 PLS= 0.756E-02 0.000E+00 ENERGY      -85.326648 DELTAE   -1.2411492
 ITERATION   5 PLS= 0.400E-03 0.000E+00 ENERGY      -84.681798 DELTAE    0.6448502
 ITERATION   6 PLS= 0.293E-03 0.000E+00 ENERGY      -84.683273 DELTAE   -0.0014757
 CYCLE:   144 TIME:   0.078 TIME LEFT:  2.00W  GRAD.:    25.627 HEAT: -84.68438
 ITERATION   1 PLS= 0.199E-03 0.000E+00 ENERGY      -60.600946 DELTAE -160.6009458
 ITERATION   2 PLS= 0.390E-01 0.000E+00 ENERGY      -79.682640 DELTAE  -19.0816940
 ITERATION   3 PLS= 0.192E-01 0.000E+00 ENERGY      -83.121999 DELTAE   -3.4393596
 ITERATION   4 PLS= 0.963E-02 0.000E+00 ENERGY      -84.899243 DELTAE   -1.7772440
 ITERATION   5 PLS= 0.316E-03 0.000E+00 ENERGY      -83.965811 DELTAE    0.9334319
 ITERATION   6 PLS= 0.192E-03 0.000E+00 ENERGY      -83.967937 DELTAE   -0.0021257
 CYCLE:   145 TIME:   0.070 TIME LEFT:  2.00W  GRAD.:    51.884 HEAT: -83.96916
 ITERATION   1 PLS= 0.122E-03 0.000E+00 ENERGY      -52.532845 DELTAE -152.5328447
 ITERATION   2 PLS= 0.332E-01 0.000E+00 ENERGY      -75.115214 DELTAE  -22.5823696
 ITERATION   3 PLS= 0.173E-01 0.000E+00 ENERGY      -79.184633 DELTAE   -4.0694191
 ITERATION   4 PLS= 0.956E-02 0.000E+00 ENERGY      -81.419864 DELTAE   -2.2352302
 ITERATION   5 PLS= 0.929E-03 0.000E+00 ENERGY      -80.199308 DELTAE    1.2205554
 ITERATION   6 PLS= 0.370E-03 0.000E+00 ENERGY      -80.203327 DELTAE   -0.0040187
 CYCLE:   146 TIME:   0.074 TIME LEFT:  2.00W  GRAD.:    91.880 HEAT: -80.20595
 ITERATION   1 PLS= 0.219E-03 0.000E+00 ENERGY      -51.389248 DELTAE -151.3892479
 ITERATION   2 PLS= 0.565E-01 0.000E+00 ENERGY      -64.173395 DELTAE  -12.7841474
 ITERATION   3 PLS= 0.228E-01 0.000E+00 ENERGY      -65.682692 DELTAE   -1.5092967
 ITERATION   4 PLS= 0.101E-01 0.000E+00 ENERGY      -66.293274 DELTAE   -0.6105820
 ITERATION   5 PLS= 0.104E-02 0.000E+00 ENERGY      -66.035594 DELTAE    0.2576796
 ITERATION   6 PLS= 0.670E-03 0.000E+00 ENERGY      -66.037338 DELTAE   -0.0017436
 CYCLE:   147 TIME:   0.070 TIME LEFT:  2.00W  GRAD.:   251.187 HEAT: -66.04000
 ITERATION   1 PLS= 0.431E-03 0.000E+00 ENERGY      -35.996317 DELTAE -135.9963172
 ITERATION   2 PLS= 0.298E-01 0.000E+00 ENERGY      -69.303602 DELTAE  -33.3072850
 ITERATION   3 PLS= 0.178E-01 0.000E+00 ENERGY      -75.257514 DELTAE   -5.9539120
 ITERATION   4 PLS= 0.979E-02 0.000E+00 ENERGY      -78.396769 DELTAE   -3.1392545
 ITERATION   5 PLS= 0.875E-03 0.000E+00 ENERGY      -76.695606 DELTAE    1.7011630
 ITERATION   6 PLS= 0.533E-03 0.000E+00 ENERGY      -76.701581 DELTAE   -0.0059757
 CYCLE:   148 TIME:   0.074 TIME LEFT:  2.00W  GRAD.:   163.522 HEAT: -76.70635
 ITERATION   1 PLS= 0.310E-03 0.000E+00 ENERGY      -36.349536 DELTAE -136.3495356
 ITERATION   2 PLS= 0.411E-01 0.000E+00 ENERGY      -66.881982 DELTAE  -30.5324464
 ITERATION   3 PLS= 0.207E-01 0.000E+00 ENERGY      -72.343254 DELTAE   -5.4612716
 ITERATION   4 PLS= 0.106E-01 0.000E+00 ENERGY      -75.117240 DELTAE   -2.7739864
 ITERATION   5 PLS= 0.930E-03 0.000E+00 ENERGY      -73.694576 DELTAE    1.4226637
 ITERATION   6 PLS= 0.563E-03 0.000E+00 ENERGY      -73.697899 DELTAE   -0.0033224
 CYCLE:   149 TIME:   0.070 TIME LEFT:  2.00W  GRAD.:   147.286 HEAT: -73.70073
 ITERATION   1 PLS= 0.357E-03 0.000E+00 ENERGY       -7.870204 DELTAE -107.8702040
 ITERATION   2 PLS= 0.409E-01 0.000E+00 ENERGY      -39.953348 DELTAE  -32.0831438
 ITERATION   3 PLS= 0.194E-01 0.000E+00 ENERGY      -45.791289 DELTAE   -5.8379414
 ITERATION   4 PLS= 0.966E-02 0.000E+00 ENERGY      -48.715417 DELTAE   -2.9241276
 ITERATION   5 PLS= 0.875E-03 0.000E+00 ENERGY      -47.255701 DELTAE    1.4597159
 ITERATION   6 PLS= 0.539E-03 0.000E+00 ENERGY      -47.258424 DELTAE   -0.0027228
 CYCLE:   150 TIME:   0.098 TIME LEFT:  2.00W  GRAD.:   247.484 HEAT: -47.26066
 ITERATION   1 PLS= 0.342E-03 0.000E+00 ENERGY       54.629649 DELTAE  -45.3703514
 ITERATION   2 PLS= 0.377E-01 0.000E+00 ENERGY       23.256188 DELTAE  -31.3734603
 ITERATION   3 PLS= 0.170E-01 0.000E+00 ENERGY       17.391722 DELTAE   -5.8644660
 ITERATION   4 PLS= 0.825E-02 0.000E+00 ENERGY       14.323095 DELTAE   -3.0686269
 ITERATION   5 PLS= 0.111E-02 0.000E+00 ENERGY       15.820711 DELTAE    1.4976156
 ITERATION   6 PLS= 0.683E-03 0.000E+00 ENERGY       15.817416 DELTAE   -0.0032952
 CYCLE:   151 TIME:   0.074 TIME LEFT:  2.00W  GRAD.:   357.850 HEAT:  15.81407
 ITERATION   1 PLS= 0.433E-03 0.000E+00 ENERGY      174.852717 DELTAE   74.8527166
 ITERATION   2 PLS= 0.394E-01 0.000E+00 ENERGY      137.953163 DELTAE  -36.8995531
 ITERATION   3 PLS= 0.164E-01 0.000E+00 ENERGY      130.430772 DELTAE   -7.5223917
 ITERATION   4 PLS= 0.743E-02 0.000E+00 ENERGY      127.202021 DELTAE   -3.2287505
 ITERATION   5 PLS= 0.161E-02 0.000E+00 ENERGY      128.513040 DELTAE    1.3110187
 ITERATION   6 PLS= 0.104E-02 0.000E+00 ENERGY      128.501113 DELTAE   -0.0119267
 ITERATION   7 PLS= 0.674E-03 0.000E+00 ENERGY      128.482816 DELTAE   -0.0182971
[...]
      9          3  C    CARTESIAN Z     1.710957     -0.381708  KCAL/ANGSTROM
     10          4  C    CARTESIAN X    -0.889044     -2.970800  KCAL/ANGSTROM
     11          4  C    CARTESIAN Y     1.161863      2.098896  KCAL/ANGSTROM
     12          4  C    CARTESIAN Z     1.673768     -0.099307  KCAL/ANGSTROM
     13          5  C    CARTESIAN X    -1.390385      0.207640  KCAL/ANGSTROM
     14          5  C    CARTESIAN Y     2.457051     -2.305848  KCAL/ANGSTROM
     15          5  C    CARTESIAN Z     1.753156     -0.246677  KCAL/ANGSTROM
     16          6  C    CARTESIAN X    -0.517635     -2.293929  KCAL/ANGSTROM
     17          6  C    CARTESIAN Y     3.538955      1.281740  KCAL/ANGSTROM
     18          6  C    CARTESIAN Z     1.865387     -0.336988  KCAL/ANGSTROM
     19          7  H    CARTESIAN X     1.542309     -0.306479  KCAL/ANGSTROM
     20          7  H    CARTESIAN Y     4.168293     -0.264338  KCAL/ANGSTROM
     21          7  H    CARTESIAN Z     1.989431      0.169301  KCAL/ANGSTROM
     22          8  H    CARTESIAN X     2.445343     -0.083555  KCAL/ANGSTROM
     23          8  H    CARTESIAN Y     1.864207     -0.103142  KCAL/ANGSTROM
     24          8  H    CARTESIAN Z     1.874529      0.915613  KCAL/ANGSTROM
     25          9  H    CARTESIAN X    -1.572045      0.248121  KCAL/ANGSTROM
     26          9  H    CARTESIAN Y     0.313861     -0.435686  KCAL/ANGSTROM
     27          9  H    CARTESIAN Z     1.585130      0.194937  KCAL/ANGSTROM
     28         10  H    CARTESIAN X    -0.904544      1.099332  KCAL/ANGSTROM
     29         10  H    CARTESIAN Y     4.555016     -0.207916  KCAL/ANGSTROM
     30         10  H    CARTESIAN Z     1.936939      0.566832  KCAL/ANGSTROM
     31         11  C    CARTESIAN X     1.063925     -0.315620  KCAL/ANGSTROM
     32         11  C    CARTESIAN Y    -0.443991      0.795138  KCAL/ANGSTROM
     33         11  C    CARTESIAN Z     1.660169     -0.404391  KCAL/ANGSTROM
     34         12  C    CARTESIAN X     0.508728      0.048996  KCAL/ANGSTROM
     35         12  C    CARTESIAN Y    -1.346162      0.066273  KCAL/ANGSTROM
     36         12  C    CARTESIAN Z     2.755956      0.094555  KCAL/ANGSTROM
     37         13  H    CARTESIAN X     0.979701      0.233288  KCAL/ANGSTROM
     38         13  H    CARTESIAN Y    -2.340262      0.242906  KCAL/ANGSTROM
     39         13  H    CARTESIAN Z     2.746765     -0.548253  KCAL/ANGSTROM
     40         14  H    CARTESIAN X    -0.578174     -0.045799  KCAL/ANGSTROM
     41         14  H    CARTESIAN Y    -1.493574     -0.127371  KCAL/ANGSTROM
     42         14  H    CARTESIAN Z     2.685033      0.592389  KCAL/ANGSTROM
     43         15  H    CARTESIAN X     0.701792     -0.242223  KCAL/ANGSTROM
     44         15  H    CARTESIAN Y    -0.909301      0.088704  KCAL/ANGSTROM
     45         15  H    CARTESIAN Z     3.749231      0.093779  KCAL/ANGSTROM
     46         16  N    CARTESIAN X     0.756493      1.469291  KCAL/ANGSTROM
     47         16  N    CARTESIAN Y    -1.055860      0.051907  KCAL/ANGSTROM
     48         16  N    CARTESIAN Z     0.323608      0.427645  KCAL/ANGSTROM
     49         17  O    CARTESIAN X     1.693123     -0.184058  KCAL/ANGSTROM
     50         17  O    CARTESIAN Y    -1.401786      0.042386  KCAL/ANGSTROM
     51         17  O    CARTESIAN Z    -0.379641     -0.016129  KCAL/ANGSTROM
     52         18  O    CARTESIAN X    -0.404282     -1.153762  KCAL/ANGSTROM
     53         18  O    CARTESIAN Y    -1.189769     -0.309538  KCAL/ANGSTROM
     54         18  O    CARTESIAN Z    -0.028804     -0.573137  KCAL/ANGSTROM
     55         19  N    CARTESIAN X     5.081591      0.093369  KCAL/ANGSTROM
     56         19  N    CARTESIAN Y     1.361812     -0.347832  KCAL/ANGSTROM
     57         19  N    CARTESIAN Z     4.811471     -0.036268  KCAL/ANGSTROM
     58         20  C    CARTESIAN X     5.665368      0.062521  KCAL/ANGSTROM
     59         20  C    CARTESIAN Y    -0.004745      0.447794  KCAL/ANGSTROM
     60         20  C    CARTESIAN Z     4.803916     -0.121854  KCAL/ANGSTROM
     61         21  C    CARTESIAN X     6.812352     -0.039714  KCAL/ANGSTROM
     62         21  C    CARTESIAN Y    -0.118212      0.001214  KCAL/ANGSTROM
     63         21  C    CARTESIAN Z     5.820885      0.047128  KCAL/ANGSTROM
     64         22  C    CARTESIAN X     7.888221     -0.035618  KCAL/ANGSTROM
     65         22  C    CARTESIAN Y     0.925981      0.106333  KCAL/ANGSTROM
     66         22  C    CARTESIAN Z     5.505812     -0.252374  KCAL/ANGSTROM
     67         23  C    CARTESIAN X     7.255435      0.029345  KCAL/ANGSTROM
     68         23  C    CARTESIAN Y     2.319452      0.117963  KCAL/ANGSTROM
     69         23  C    CARTESIAN Z     5.568492     -0.074895  KCAL/ANGSTROM
     70         24  C    CARTESIAN X     6.101497     -0.206513  KCAL/ANGSTROM
     71         24  C    CARTESIAN Y     2.412796     -0.116276  KCAL/ANGSTROM
     72         24  C    CARTESIAN Z     4.556569     -0.086171  KCAL/ANGSTROM
     73         25  H    CARTESIAN X     5.592011      0.312987  KCAL/ANGSTROM
     74         25  H    CARTESIAN Y     3.397574      0.084045  KCAL/ANGSTROM
     75         25  H    CARTESIAN Z     4.654969      0.631200  KCAL/ANGSTROM
     76         26  H    CARTESIAN X     6.508991      0.318833  KCAL/ANGSTROM
     77         26  H    CARTESIAN Y     2.358803     -0.044868  KCAL/ANGSTROM
     78         26  H    CARTESIAN Z     3.523383      0.064737  KCAL/ANGSTROM
     79         27  H    CARTESIAN X     8.007497      0.216741  KCAL/ANGSTROM
     80         27  H    CARTESIAN Y     3.101310     -0.148070  KCAL/ANGSTROM
     81         27  H    CARTESIAN Z     5.357346      0.303685  KCAL/ANGSTROM
     82         28  H    CARTESIAN X     6.880892      0.122530  KCAL/ANGSTROM
     83         28  H    CARTESIAN Y     2.519842     -0.125078  KCAL/ANGSTROM
     84         28  H    CARTESIAN Z     6.589706     -0.229210  KCAL/ANGSTROM
     85         29  H    CARTESIAN X     7.237061      0.065683  KCAL/ANGSTROM
     86         29  H    CARTESIAN Y    -1.137831      0.435151  KCAL/ANGSTROM
     87         29  H    CARTESIAN Z     5.797978      0.155113  KCAL/ANGSTROM
     88         30  H    CARTESIAN X     6.424676     -0.123975  KCAL/ANGSTROM
     89         30  H    CARTESIAN Y     0.030806     -0.090524  KCAL/ANGSTROM
     90         30  H    CARTESIAN Z     6.846101     -0.072305  KCAL/ANGSTROM
     91         31  H    CARTESIAN X     6.038002     -0.077904  KCAL/ANGSTROM
     92         31  H    CARTESIAN Y    -0.298153      0.202867  KCAL/ANGSTROM
     93         31  H    CARTESIAN Z     3.796711     -0.044653  KCAL/ANGSTROM
     94         32  H    CARTESIAN X     2.196577      0.001516  KCAL/ANGSTROM
     95         32  H    CARTESIAN Y    -0.407842     -0.166492  KCAL/ANGSTROM
     96         32  H    CARTESIAN Z     1.749860     -0.092747  KCAL/ANGSTROM
     97         33  H    CARTESIAN X     4.354628     -0.946667  KCAL/ANGSTROM
     98         33  H    CARTESIAN Y     1.417065     -0.696204  KCAL/ANGSTROM
     99         33  H    CARTESIAN Z     4.087235      0.214593  KCAL/ANGSTROM
    100         34  H    CARTESIAN X     4.849660      0.010629  KCAL/ANGSTROM
    101         34  H    CARTESIAN Y    -0.713984      0.088358  KCAL/ANGSTROM
    102         34  H    CARTESIAN Z     5.071794      0.331226  KCAL/ANGSTROM
    103         35  H    CARTESIAN X     8.732324      0.357556  KCAL/ANGSTROM
    104         35  H    CARTESIAN Y     0.844625     -0.181884  KCAL/ANGSTROM
    105         35  H    CARTESIAN Z     6.213953     -0.371694  KCAL/ANGSTROM
    106         36  H    CARTESIAN X     8.316131     -0.426457  KCAL/ANGSTROM
    107         36  H    CARTESIAN Y     0.744664      0.142117  KCAL/ANGSTROM
    108         36  H    CARTESIAN Z     4.501138     -0.335485  KCAL/ANGSTROM
    109         37  H    CARTESIAN X    -2.468125     -0.140102  KCAL/ANGSTROM
    110         37  H    CARTESIAN Y     2.625756      0.002839  KCAL/ANGSTROM
    111         37  H    CARTESIAN Z     1.734430      0.328070  KCAL/ANGSTROM
    112         38  H    CARTESIAN X     4.738493      0.147761  KCAL/ANGSTROM
    113         38  H    CARTESIAN Y     0.111271      0.370509  KCAL/ANGSTROM
    114         38  H    CARTESIAN Z     2.386614     -1.038639  KCAL/ANGSTROM
    115         39  H    CARTESIAN X     4.359493     -0.840158  KCAL/ANGSTROM
    116         39  H    CARTESIAN Y    -0.141051     -0.328096  KCAL/ANGSTROM
    117         39  H    CARTESIAN Z     0.943054      1.303872  KCAL/ANGSTROM
    118         40  O    CARTESIAN X     4.176482      0.670480  KCAL/ANGSTROM
    119         40  O    CARTESIAN Y     0.450278      0.288087  KCAL/ANGSTROM
    120         40  O    CARTESIAN Z     1.685357      0.276619  KCAL/ANGSTROM




   ATOM   CHEMICAL          X               Y               Z
  NUMBER   SYMBOL      (ANGSTROMS)     (ANGSTROMS)     (ANGSTROMS)

     1       C          0.86071906  *   3.32234630  *   1.89818939  *
     2       C          1.36529558  *   2.02852647  *   1.82601655  *
     3       C          0.49126241  *   0.94514327  *   1.71095743  *
     4       C         -0.88904399  *   1.16186275  *   1.67376762  *
     5       C         -1.39038485  *   2.45705149  *   1.75315571  *
     6       C         -0.51763486  *   3.53895475  *   1.86538747  *
     7       H          1.54230936  *   4.16829320  *   1.98943059  *
     8       H          2.44534280  *   1.86420748  *   1.87452905  *
     9       H         -1.57204531  *   0.31386058  *   1.58512996  *
    10       H         -0.90454448  *   4.55501584  *   1.93693869  *
    11       C          1.06392495  *  -0.44399058  *   1.66016937  *
    12       C          0.50872788  *  -1.34616164  *   2.75595595  *
    13       H          0.97970111  *  -2.34026206  *   2.74676467  *
    14       H         -0.57817422  *  -1.49357441  *   2.68503271  *
    15       H          0.70179194  *  -0.90930076  *   3.74923058  *
    16       N          0.75649285  *  -1.05586009  *   0.32360798  *
    17       O          1.69312318  *  -1.40178623  *  -0.37964111  *
    18       O         -0.40428236  *  -1.18976870  *  -0.02880399  *
    19       N          5.08159075  *   1.36181165  *   4.81147103  *
    20       C          5.66536760  *  -0.00474542  *   4.80391593  *
    21       C          6.81235170  *  -0.11821153  *   5.82088466  *
    22       C          7.88822102  *   0.92598089  *   5.50581193  *
    23       C          7.25543476  *   2.31945189  *   5.56849169  *
    24       C          6.10149710  *   2.41279577  *   4.55656864  *
    25       H          5.59201107  *   3.39757411  *   4.65496864  *
    26       H          6.50899053  *   2.35880318  *   3.52338280  *
    27       H          8.00749712  *   3.10131046  *   5.35734623  *
    28       H          6.88089164  *   2.51984195  *   6.58970643  *
    29       H          7.23706120  *  -1.13783064  *   5.79797809  *
    30       H          6.42467555  *   0.03080645  *   6.84610111  *
    31       H          6.03800183  *  -0.29815332  *   3.79671121  *
    32       H          2.19657716  *  -0.40784165  *   1.74985975  *
    33       H          4.35462844  *   1.41706522  *   4.08723535  *
    34       H          4.84965978  *  -0.71398433  *   5.07179389  *
    35       H          8.73232359  *   0.84462451  *   6.21395346  *
    36       H          8.31613064  *   0.74466422  *   4.50113795  *
    37       H         -2.46812540  *   2.62575556  *   1.73443001  *
    38       H          4.73849303  *   0.11127108  *   2.38661380  *
    39       H          4.35949346  *  -0.14105100  *   0.94305384  *
    40       O          4.17648219  *   0.45027750  *   1.68535660  *

                             CARTESIAN COORDINATES

   1    C        0.860719063     3.322346304     1.898189389
   2    C        1.365295578     2.028526472     1.826016550
   3    C        0.491262407     0.945143268     1.710957430
   4    C       -0.889043992     1.161862751     1.673767619
   5    C       -1.390384853     2.457051490     1.753155715
   6    C       -0.517634863     3.538954746     1.865387469
   7    H        1.542309362     4.168293201     1.989430591
   8    H        2.445342802     1.864207481     1.874529054
   9    H       -1.572045312     0.313860576     1.585129961
  10    H       -0.904544481     4.555015845     1.936938690
  11    C        1.063924952    -0.443990579     1.660169367
  12    C        0.508727878    -1.346161638     2.755955954
  13    H        0.979701105    -2.340262062     2.746764672
  14    H       -0.578174223    -1.493574412     2.685032714
  15    H        0.701791941    -0.909300761     3.749230578
  16    N        0.756492852    -1.055860089     0.323607985
  17    O        1.693123176    -1.401786231    -0.379641114
  18    O       -0.404282363    -1.189768700    -0.028803990
  19    N        5.081590750     1.361811654     4.811471035
  20    C        5.665367604    -0.004745418     4.803915931
  21    C        6.812351696    -0.118211531     5.820884659
  22    C        7.888221018     0.925980888     5.505811926
  23    C        7.255434763     2.319451892     5.568491689
  24    C        6.101497104     2.412795769     4.556568635
  25    H        5.592011070     3.397574112     4.654968638
  26    H        6.508990533     2.358803183     3.523382797
  27    H        8.007497122     3.101310459     5.357346235
  28    H        6.880891636     2.519841951     6.589706433
  29    H        7.237061203    -1.137830645     5.797978093
  30    H        6.424675548     0.030806450     6.846101113
  31    H        6.038001832    -0.298153319     3.796711207
  32    H        2.196577155    -0.407841652     1.749859749
  33    H        4.354628439     1.417065218     4.087235346
  34    H        4.849659776    -0.713984331     5.071793894
  35    H        8.732323591     0.844624509     6.213953460
  36    H        8.316130639     0.744664221     4.501137948
  37    H       -2.468125397     2.625755565     1.734430014
  38    H        4.738493027     0.111271079     2.386613800
  39    H        4.359493456    -0.141050997     0.943053840
  40    O        4.176482193     0.450277502     1.685356601


           Empirical Formula: C13 H22 N2 O3  =    40 atoms



      MOLECULAR POINT GROUP   :   C1  


                  EIGENVALUES  
 -37.31769 -35.40491 -31.04583 -30.74663 -29.42029 -28.98297 -28.47217 -26.18291
 -26.17150 -25.65461 -24.93560 -22.29326 -22.20165 -21.32822 -21.26712 -20.38928
 -19.27664 -18.50301 -18.41352 -17.93235 -17.50238 -17.36689 -17.04357 -15.96399
 -15.59630 -15.34373 -15.24586 -14.86805 -14.77770 -14.57869 -14.21876 -14.08894
 -14.07936 -14.00712 -13.92836 -13.42756 -13.11671 -13.01540 -12.39598 -12.23007
 -12.16079 -12.01630 -11.89864 -11.74757 -11.63632 -11.41399 -11.34230 -11.29468
 -10.13551 -10.05800  -9.48014  -0.51688  -0.29288  -0.03885   0.61450   2.22633
   2.96123   3.06590   3.28873   3.74750   3.88849   3.91802   4.06766   4.21509
   4.24505   4.35489   4.55350   4.70469   4.72178   4.74217   4.87671   5.00003
   5.11278   5.39585   5.43714   5.49126   5.54119   5.56252   5.70905   5.71708
   5.80067   5.97237   6.00885   6.04762   6.06003   6.07217   6.15298   6.16298
   6.35146   6.52166   6.58388   6.58534   6.60259   6.66714


              NET ATOMIC CHARGES AND DIPOLE CONTRIBUTIONS

  ATOM NO.   TYPE          CHARGE      No. of ELECS.   s-Pop       p-Pop       
    1          C          -0.164048        4.1640     1.08644     3.07761
    2          C          -0.140489        4.1405     1.09179     3.04870
    3          C          -0.071582        4.0716     1.06675     3.00483
    4          C          -0.134074        4.1341     1.08943     3.04464
    5          C          -0.167070        4.1671     1.08609     3.08098
    6          C          -0.135652        4.1357     1.09009     3.04556
    7          H           0.166843        0.8332     0.83316
    8          H           0.179039        0.8210     0.82096
    9          H           0.173188        0.8268     0.82681
   10          H           0.163336        0.8367     0.83666
   11          C          -0.047777        4.0478     1.09691     2.95086
   12          C          -0.466734        4.4667     1.05828     3.40845
   13          H           0.177877        0.8221     0.82212
   14          H           0.175690        0.8243     0.82431
   15          H           0.185346        0.8147     0.81465
   16          N           0.623140        4.3769     1.48080     2.89606
   17          O          -0.452901        6.4529     1.93983     4.51308
   18          O          -0.449187        6.4492     1.93927     4.50991
   19          N          -0.587251        5.5873     1.67801     3.90924
   20          C          -0.118432        4.1184     1.06872     3.04971
   21          C          -0.280193        4.2802     1.06110     3.21909
   22          C          -0.268348        4.2683     1.05770     3.21064
   23          C          -0.281596        4.2816     1.06130     3.22029
   24          C          -0.114284        4.1143     1.06845     3.04583
   25          H           0.142901        0.8571     0.85710
   26          H           0.125240        0.8748     0.87476
   27          H           0.142217        0.8578     0.85778
   28          H           0.146578        0.8534     0.85342
   29          H           0.142495        0.8575     0.85751
   30          H           0.146300        0.8537     0.85370
   31          H           0.121971        0.8780     0.87803
   32          H           0.214654        0.7853     0.78535
   33          H           0.260713        0.7393     0.73929
   34          H           0.144317        0.8557     0.85568
   35          H           0.139716        0.8603     0.86028
   36          H           0.141836        0.8582     0.85816
   37          H           0.167178        0.8328     0.83282
   38          H           0.353031        0.6470     0.64697
   39          H           0.373684        0.6263     0.62632
   40          O          -0.727674        6.7277     1.81663     4.91104
 DIPOLE           X         Y         Z       TOTAL
 POINT-CHG.     3.526     0.728     4.542     5.795
 HYBRID         0.039    -0.637    -1.342     1.486
 SUM            3.564     0.091     3.199     4.791


          ATOMIC ORBITAL ELECTRON POPULATIONS

     Atom    s        px        py        pz   
    1  C   1.08644   1.02674   1.04716   1.00370
    2  C   1.09179   1.08895   0.98333   0.97642
    3  C   1.06675   0.99198   0.95090   1.06196
    4  C   1.08943   1.01617   1.05271   0.97576
    5  C   1.08609   1.08936   0.98579   1.00582
    6  C   1.09009   0.99882   1.07413   0.97261
    7  H   0.83316
    8  H   0.82096
    9  H   0.82681
   10  H   0.83666
   11  C   1.09691   1.14277   0.97187   0.83622
   12  C   1.05828   1.18392   1.13040   1.09414
   13  H   0.82212
   14  H   0.82431
   15  H   0.81465
   16  N   1.48080   0.95474   0.92736   1.01397
   17  O   1.93983   1.36631   1.55843   1.58833
   18  O   1.93927   1.09333   1.61536   1.80123
   19  N   1.67801   1.21538   1.11245   1.58141
   20  C   1.06872   1.05618   0.90476   1.08877
   21  C   1.06110   1.02843   1.09313   1.09753
   22  C   1.05770   1.05330   0.99738   1.15996
   23  C   1.06130   1.06178   1.04902   1.10949
   24  C   1.06845   0.97509   0.99416   1.07658
   25  H   0.85710
   26  H   0.87476
   27  H   0.85778
   28  H   0.85342
   29  H   0.85751
   30  H   0.85370
   31  H   0.87803
   32  H   0.78535
   33  H   0.73929
   34  H   0.85568
   35  H   0.86028
   36  H   0.85816
   37  H   0.83282
   38  H   0.64697
   39  H   0.62632
   40  O   1.81663   1.76646   1.69048   1.45411

 **********************
 *                    *
 * JOB ENDED NORMALLY *
 *                    *
 **********************



 TOTAL JOB TIME:            11.50 SECONDS

 == MOPAC DONE ==
