40
	Energy:     -85.6220800
C          0.86072        3.32235        1.89819
C          1.36530        2.02853        1.82602
C          0.49126        0.94514        1.71096
C         -0.88904        1.16186        1.67377
C         -1.39038        2.45705        1.75316
C         -0.51763        3.53895        1.86539
H          1.54231        4.16829        1.98943
H          2.44534        1.86421        1.87453
H         -1.57205        0.31386        1.58513
H         -0.90454        4.55502        1.93694
C          1.06392       -0.44399        1.66017
C          0.50873       -1.34616        2.75596
H          0.97970       -2.34026        2.74676
H         -0.57817       -1.49357        2.68503
H          0.70179       -0.90930        3.74923
N          0.75649       -1.05586        0.32361
O          1.69312       -1.40179       -0.37964
O         -0.40428       -1.18977       -0.02880
N          5.08159        1.36181        4.81147
C          5.66537       -0.00475        4.80392
C          6.81235       -0.11821        5.82088
C          7.88822        0.92598        5.50581
C          7.25543        2.31945        5.56849
C          6.10150        2.41280        4.55657
H          5.59201        3.39757        4.65497
H          6.50899        2.35880        3.52338
H          8.00750        3.10131        5.35735
H          6.88089        2.51984        6.58971
H          7.23706       -1.13783        5.79798
H          6.42468        0.03081        6.84610
H          6.03800       -0.29815        3.79671
H          2.19658       -0.40784        1.74986
H          4.35463        1.41707        4.08724
H          4.84966       -0.71398        5.07179
H          8.73232        0.84462        6.21395
H          8.31613        0.74466        4.50114
H         -2.46813        2.62576        1.73443
H          4.73849        0.11127        2.38661
H          4.35949       -0.14105        0.94305
O          4.17648        0.45028        1.68536
