
                                 *****************
                                 * O   R   C   A *
                                 *****************

                                            #,                                       
                                            ###                                      
                                            ####                                     
                                            #####                                    
                                            ######                                   
                                           ########,                                 
                                     ,,################,,,,,                         
                               ,,#################################,,                 
                          ,,##########################################,,             
                       ,#########################################, ''#####,          
                    ,#############################################,,   '####,        
                  ,##################################################,,,,####,       
                ,###########''''           ''''###############################       
              ,#####''   ,,,,##########,,,,          '''####'''          '####       
            ,##' ,,,,###########################,,,                        '##       
           ' ,,###''''                  '''############,,,                           
         ,,##''                                '''############,,,,        ,,,,,,###''
      ,#''                                            '''#######################'''  
     '                                                          ''''####''''         
             ,#######,   #######,   ,#######,      ##                                
            ,#'     '#,  ##    ##  ,#'     '#,    #''#        ######   ,####,        
            ##       ##  ##   ,#'  ##            #'  '#       #        #'  '#        
            ##       ##  #######   ##           ,######,      #####,   #    #        
            '#,     ,#'  ##    ##  '#,     ,#' ,#      #,         ##   #,  ,#        
             '#######'   ##     ##  '#######'  #'      '#     #####' # '####'        



                  #######################################################
                  #                        -***-                        #
                  #          Department of theory and spectroscopy      #
                  #    Directorship and core code : Frank Neese         #
                  #        Max Planck Institute fuer Kohlenforschung    #
                  #                Kaiser Wilhelm Platz 1               #
                  #                 D-45470 Muelheim/Ruhr               #
                  #                      Germany                        #
                  #                                                     #
                  #                  All rights reserved                #
                  #                        -***-                        #
                  #######################################################


                         Program Version 5.0.4 -  RELEASE  -


 With contributions from (in alphabetic order):
   Daniel Aravena         : Magnetic Suceptibility
   Michael Atanasov       : Ab Initio Ligand Field Theory (pilot matlab implementation)
   Alexander A. Auer      : GIAO ZORA, VPT2 properties, NMR spectrum
   Ute Becker             : Parallelization
   Giovanni Bistoni       : ED, misc. LED, open-shell LED, HFLD
   Martin Brehm           : Molecular dynamics
   Dmytro Bykov           : SCF Hessian
   Vijay G. Chilkuri      : MRCI spin determinant printing, contributions to CSF-ICE
   Dipayan Datta          : RHF DLPNO-CCSD density
   Achintya Kumar Dutta   : EOM-CC, STEOM-CC
   Dmitry Ganyushin       : Spin-Orbit,Spin-Spin,Magnetic field MRCI
   Miquel Garcia          : C-PCM and meta-GGA Hessian, CC/C-PCM, Gaussian charge scheme
   Yang Guo               : DLPNO-NEVPT2, F12-NEVPT2, CIM, IAO-localization
   Andreas Hansen         : Spin unrestricted coupled pair/coupled cluster methods
   Benjamin Helmich-Paris : MC-RPA, TRAH-SCF, COSX integrals
   Lee Huntington         : MR-EOM, pCC
   Robert Izsak           : Overlap fitted RIJCOSX, COSX-SCS-MP3, EOM
   Marcus Kettner         : VPT2
   Christian Kollmar      : KDIIS, OOCD, Brueckner-CCSD(T), CCSD density, CASPT2, CASPT2-K
   Simone Kossmann        : Meta GGA functionals, TD-DFT gradient, OOMP2, MP2 Hessian
   Martin Krupicka        : Initial AUTO-CI
   Lucas Lang             : DCDCAS
   Marvin Lechner         : AUTO-CI (C++ implementation), FIC-MRCC
   Dagmar Lenk            : GEPOL surface, SMD
   Dimitrios Liakos       : Extrapolation schemes; Compound Job, initial MDCI parallelization
   Dimitrios Manganas     : Further ROCIS development; embedding schemes
   Dimitrios Pantazis     : SARC Basis sets
   Anastasios Papadopoulos: AUTO-CI, single reference methods and gradients
   Taras Petrenko         : DFT Hessian,TD-DFT gradient, ASA, ECA, R-Raman, ABS, FL, XAS/XES, NRVS
   Peter Pinski           : DLPNO-MP2, DLPNO-MP2 Gradient
   Christoph Reimann      : Effective Core Potentials
   Marius Retegan         : Local ZFS, SOC
   Christoph Riplinger    : Optimizer, TS searches, QM/MM, DLPNO-CCSD(T), (RO)-DLPNO pert. Triples
   Tobias Risthaus        : Range-separated hybrids, TD-DFT gradient, RPA, STAB
   Michael Roemelt        : Original ROCIS implementation
   Masaaki Saitow         : Open-shell DLPNO-CCSD energy and density
   Barbara Sandhoefer     : DKH picture change effects
   Avijit Sen             : IP-ROCIS
   Kantharuban Sivalingam : CASSCF convergence, NEVPT2, FIC-MRCI
   Bernardo de Souza      : ESD, SOC TD-DFT
   Georgi Stoychev        : AutoAux, RI-MP2 NMR, DLPNO-MP2 response
   Willem Van den Heuvel  : Paramagnetic NMR
   Boris Wezisla          : Elementary symmetry handling
   Frank Wennmohs         : Technical directorship


 We gratefully acknowledge several colleagues who have allowed us to
 interface, adapt or use parts of their codes:
   Stefan Grimme, W. Hujo, H. Kruse, P. Pracht,  : VdW corrections, initial TS optimization,
                  C. Bannwarth, S. Ehlert          DFT functionals, gCP, sTDA/sTD-DF
   Ed Valeev, F. Pavosevic, A. Kumar             : LibInt (2-el integral package), F12 methods
   Garnet Chan, S. Sharma, J. Yang, R. Olivares  : DMRG
   Ulf Ekstrom                                   : XCFun DFT Library
   Mihaly Kallay                                 : mrcc  (arbitrary order and MRCC methods)
   Jiri Pittner, Ondrej Demel                    : Mk-CCSD
   Frank Weinhold                                : gennbo (NPA and NBO analysis)
   Christopher J. Cramer and Donald G. Truhlar   : smd solvation model
   Lars Goerigk                                  : TD-DFT with DH, B97 family of functionals
   V. Asgeirsson, H. Jonsson                     : NEB implementation
   FAccTs GmbH                                   : IRC, NEB, NEB-TS, DLPNO-Multilevel, CI-OPT
                                                   MM, QMMM, 2- and 3-layer-ONIOM, Crystal-QMMM,
                                                   LR-CPCM, SF, NACMEs, symmetry and pop. for TD-DFT,
                                                   nearIR, NL-DFT gradient (VV10), updates on ESD,
                                                   ML-optimized integration grids
   S Lehtola, MJT Oliveira, MAL Marques          : LibXC Library
   Liviu Ungur et al                             : ANISO software


 Your calculation uses the libint2 library for the computation of 2-el integrals
 For citations please refer to: http://libint.valeyev.net

 Your ORCA version has been built with support for libXC version: 5.1.0
 For citations please refer to: https://tddft.org/programs/libxc/

 This ORCA versions uses:
   CBLAS   interface :  Fast vector & matrix operations
   LAPACKE interface :  Fast linear algebra routines
   SCALAPACK package :  Parallel linear algebra routines
   Shared memory     :  Shared parallel matrices
   BLAS/LAPACK       :  OpenBLAS 0.3.15  USE64BITINT DYNAMIC_ARCH NO_AFFINITY Prescott SINGLE_THREADED
        Core in use  :  Prescott
   Copyright (c) 2011-2014, The OpenBLAS Project


Your calculation utilizes the atom-pairwise dispersion correction
with the Becke-Johnson damping scheme (D3BJ)
Cite in your paper:
S.Grimme, S.Ehrlich, L.Goerigk, J Comput Chem, (2011), 32, 1456–1465 
S.Grimme, J.Antony, S.Ehrlich and H.Krieg, J.Chem.Phys., 132, (2010), 154104 
   

================================================================================

----- Orbital basis set information -----
Your calculation utilizes the basis: def2-TZVP
   F. Weigend and R. Ahlrichs, Phys. Chem. Chem. Phys. 7, 3297 (2005).

----- AuxJ basis set information -----
Your calculation utilizes the auxiliary basis: def2/J
   F. Weigend, Phys. Chem. Chem. Phys. 8, 1057 (2006).

================================================================================
                                        WARNINGS
                       Please study these warnings very carefully!
================================================================================

WARNING: Gradients needed for Numerical Frequencies
  ===> : Setting RunTyp to EnGrad

INFO   : the flag for use of the SHARK integral package has been found!

================================================================================
                                       INPUT FILE
================================================================================
NAME = /home/rudenko/mop_saddle_orca_4_serv/for_orca/m,m-o2n2c6h4chno2ch3_oh/orca/start_freq_D/start_f_D.inp
|  1> !  NUMFREQ B3LYP def2-TZVP CPCM D3 
|  2> %pal nprocs 102 end
|  3> %cpcm epsilon 78.4 end 
|  4> *xyz -1 1 
|  5> C   -0.8023827115863 0.76933095669972 1.04024930540783
|  6> C   0.54272600879917 0.70843801757604 1.37694254047654
|  7> C   1.39007057645903 -0.10748267910975 0.62960156586357
|  8> C   0.877901882285 -0.84812012123904 -0.43121457109632
|  9> C   -0.47214239345132 -0.74614417622074 -0.7338017434914
| 10> C   -1.34020787011393 0.05846123040901 -0.01613713085973
| 11> H   0.96851121974368 1.26412671692993 2.21296168169006
| 12> H   1.50860315034322 -1.49083065852037 -1.02486115316416
| 13> H   -2.3854715110331 0.12448361435798 -0.26923415950947
| 14> N   -1.00865592173222 -1.51370891424745 -1.86631262150331
| 15> O   -2.19550252185025 -1.39433463641503 -2.13089836583942
| 16> O   -0.23773893145126 -2.23253868048294 -2.48631527959067
| 17> C   2.84034310693705 -0.16144792690042 1.03450436790115
| 18> H   2.96081214238078 0.44894084900889 1.9408192470743 M = 2
| 19> C   3.39518651594157 -1.5672669636111 1.23559527727708
| 20> H   4.4394205051183 -1.52394549199998 1.54126754768357
| 21> H   3.31149598566469 -2.16666841058809 0.32880893554074
| 22> H   2.82221740884558 -2.05384931598617 2.02508650251572
| 23> N   3.72205849706717 0.5506844213088 0.00933442704347
| 24> O   4.83808285163213 0.86556254310475 0.39026022768783
| 25> O   3.29928526425506 0.76241261008138 -1.11428871806732
| 26> O   2.19932978374694 4.03819754269731 4.49517462590688
| 27> H   3.02547954989768 4.28695308752337 4.92346393922766
| 28> N   -1.69508900016107 1.62901883672603 1.83263269786798
| 29> O   -2.86228220806774 1.72732470585525 1.47879664276223
| 30> O   -1.22592705757124 2.19948706219285 2.80535687682005
| 31> H   2.47934869035247 1.0768886122763 4.14986806671734
| 32> H   2.36700597582372 3.09089539923231 4.09655921851796
| 33> O   2.57134101172509 1.73886176934113 3.4558000491397
| 34> *
| 35> 
| 36>                          ****END OF INPUT****
================================================================================

                     *******************************
                     * Energy+Gradient Calculation *
                     *******************************

---------------------------------
CARTESIAN COORDINATES (ANGSTROEM)
---------------------------------
  C     -0.802383    0.769331    1.040249
  C      0.542726    0.708438    1.376943
  C      1.390071   -0.107483    0.629602
  C      0.877902   -0.848120   -0.431215
  C     -0.472142   -0.746144   -0.733802
  C     -1.340208    0.058461   -0.016137
  H      0.968511    1.264127    2.212962
  H      1.508603   -1.490831   -1.024861
  H     -2.385472    0.124484   -0.269234
  N     -1.008656   -1.513709   -1.866313
  O     -2.195503   -1.394335   -2.130898
  O     -0.237739   -2.232539   -2.486315
  C      2.840343   -0.161448    1.034504
  H      2.960812    0.448941    1.940819
  C      3.395187   -1.567267    1.235595
  H      4.439421   -1.523945    1.541268
  H      3.311496   -2.166668    0.328809
  H      2.822217   -2.053849    2.025087
  N      3.722058    0.550684    0.009334
  O      4.838083    0.865563    0.390260
  O      3.299285    0.762413   -1.114289
  O      2.199330    4.038198    4.495175
  H      3.025480    4.286953    4.923464
  N     -1.695089    1.629019    1.832633
  O     -2.862282    1.727325    1.478797
  O     -1.225927    2.199487    2.805357
  H      2.479349    1.076889    4.149868
  H      2.367006    3.090895    4.096559
  O      2.571341    1.738862    3.455800

----------------------------
CARTESIAN COORDINATES (A.U.)
----------------------------
  NO LB      ZA    FRAG     MASS         X           Y           Z
   0 C     6.0000    0    12.011   -1.516284    1.453825    1.965786
   1 C     6.0000    0    12.011    1.025604    1.338754    2.602044
   2 C     6.0000    0    12.011    2.626853   -0.203113    1.189775
   3 C     6.0000    0    12.011    1.658994   -1.602715   -0.814877
   4 C     6.0000    0    12.011   -0.892220   -1.410008   -1.386684
   5 C     6.0000    0    12.011   -2.532626    0.110476   -0.030495
   6 H     1.0000    0     1.008    1.830221    2.388853    4.181892
   7 H     1.0000    0     1.008    2.850847   -2.817262   -1.936707
   8 H     1.0000    0     1.008   -4.507888    0.235240   -0.508779
   9 N     7.0000    0    14.007   -1.906083   -2.860495   -3.526820
  10 O     8.0000    0    15.999   -4.148898   -2.634911   -4.026814
  11 O     8.0000    0    15.999   -0.449261   -4.218887   -4.698455
  12 C     6.0000    0    12.011    5.367471   -0.305092    1.954930
  13 H     1.0000    0     2.000    5.595124    0.848375    3.667617
  14 C     6.0000    0    12.011    6.415973   -2.961705    2.334937
  15 H     1.0000    0     1.008    8.389289   -2.879840    2.912574
  16 H     1.0000    0     1.008    6.257821   -4.094410    0.621359
  17 H     1.0000    0     1.008    5.333218   -3.881213    3.826859
  18 N     7.0000    0    14.007    7.033671    1.040643    0.017640
  19 O     8.0000    0    15.999    9.142652    1.635676    0.737485
  20 O     8.0000    0    15.999    6.234746    1.440751   -2.105701
  21 O     8.0000    0    15.999    4.156131    7.631087    8.494649
  22 H     1.0000    0     1.008    5.717328    8.101167    9.303998
  23 N     7.0000    0    14.007   -3.203254    3.078399    3.463174
  24 O     8.0000    0    15.999   -5.408929    3.264171    2.794521
  25 O     8.0000    0    15.999   -2.316666    4.156428    5.301356
  26 H     1.0000    0     1.008    4.685290    2.035025    7.842114
  27 H     1.0000    0     1.008    4.472993    5.840946    7.741375
  28 O     8.0000    0    15.999    4.859130    3.285973    6.530516

--------------------------------
INTERNAL COORDINATES (ANGSTROEM)
--------------------------------
 C      0   0   0     0.000000000000     0.00000000     0.00000000
 C      1   0   0     1.387943714361     0.00000000     0.00000000
 C      2   1   0     1.393641966919   119.00217166     0.00000000
 C      3   2   1     1.391470972895   119.77859898   359.71045403
 C      4   3   2     1.387291475036   119.03556428     0.72359293
 C      1   2   3     1.382224284128   122.67873497   359.55627295
 H      2   1   3     1.090417801085   122.82386435   180.77273228
 H      4   3   2     1.078553285037   121.43674573   180.23262302
 H      6   1   2     1.077493916512   121.69995498   180.57059285
 N      5   4   3     1.469552068457   119.01115706   179.12954946
 O     10   5   4     1.221826782537   118.06593805   181.16462992
 O     10   5   4     1.222878789891   117.87805124     1.12600670
 C      3   2   1     1.506701343905   117.52247991   180.72808768
 H     13   3   2     1.099315198870   107.88748178     3.39475088
 C     13   3   2     1.524669120277   114.75570866   128.09404750
 H     15  13   3     1.088915474658   110.44567524   180.91238736
 H     15  13   3     1.090205333438   111.67308303    59.17991502
 H     15  13   3     1.090115763604   108.40975949   299.74995244
 N     13   3   2     1.528243409342   111.00060493   250.81328000
 O     19  13   3     1.220558502147   116.00132491   161.91511869
 O     19  13   3     1.219054963704   119.94359238   341.37997893
 O      7   2   1     3.797219931294   163.67192560   293.00130343
 H     22   7   2     0.963241658722   137.21460450   237.32130065
 N      1   2   3     1.471006189440   118.88848740   179.86451825
 O     24   1   2     1.223602869554   118.03910725   176.13612525
 O     24   1   2     1.221367779565   117.96028100   356.01483649
 H     14  13   3     2.346491452488   154.45543193    55.70635156
 H     22   7   2     1.041340914115    32.59989662   221.02220643
 O     27  14  13     0.963535915724    59.07766086   224.97157991

---------------------------
INTERNAL COORDINATES (A.U.)
---------------------------
 C      0   0   0     0.000000000000     0.00000000     0.00000000
 C      1   0   0     2.622833509439     0.00000000     0.00000000
 C      2   1   0     2.633601646217   119.00217166     0.00000000
 C      3   2   1     2.629499062073   119.77859898   359.71045403
 C      4   3   2     2.621600955743   119.03556428     0.72359293
 C      1   2   3     2.612025352656   122.67873497   359.55627295
 H      2   1   3     2.060591015604   122.82386435   180.77273228
 H      4   3   2     2.038170329561   121.43674573   180.23262302
 H      6   1   2     2.036168413175   121.69995498   180.57059285
 N      5   4   3     2.777050948921   119.01115706   179.12954946
 O     10   5   4     2.308918002086   118.06593805   181.16462992
 O     10   5   4     2.310906007875   117.87805124     1.12600670
 C      3   2   1     2.847252905592   117.52247991   180.72808768
 H     13   3   2     2.077404660722   107.88748178     3.39475088
 C     13   3   2     2.881207082171   114.75570866   128.09404750
 H     15  13   3     2.057752030093   110.44567524   180.91238736
 H     15  13   3     2.060189509937   111.67308303    59.17991502
 H     15  13   3     2.060020247482   108.40975949   299.74995244
 N     13   3   2     2.887961509626   111.00060493   250.81328000
 O     19  13   3     2.306521299488   116.00132491   161.91511869
 O     19  13   3     2.303680023598   119.94359238   341.37997893
 O      7   2   1     7.175705740414   163.67192560   293.00130343
 H     22   7   2     1.820262935769   137.21460450   237.32130065
 N      1   2   3     2.779798839345   118.88848740   179.86451825
 O     24   1   2     2.312274320138   118.03910725   176.13612525
 O     24   1   2     2.308050612174   117.96028100   356.01483649
 H     14  13   3     4.434226220789   154.45543193    55.70635156
 H     22   7   2     1.967849139725    32.59989662   221.02220643
 O     27  14  13     1.820819000915    59.07766086   224.97157991

---------------------
BASIS SET INFORMATION
---------------------
There are 4 groups of distinct atoms

 Group   1 Type C   : 11s6p2d1f contracted to 5s3p2d1f pattern {62111/411/11/1}
 Group   2 Type H   : 5s1p contracted to 3s1p pattern {311/1}
 Group   3 Type N   : 11s6p2d1f contracted to 5s3p2d1f pattern {62111/411/11/1}
 Group   4 Type O   : 11s6p2d1f contracted to 5s3p2d1f pattern {62111/411/11/1}

Atom   0C    basis set group =>   1
Atom   1C    basis set group =>   1
Atom   2C    basis set group =>   1
Atom   3C    basis set group =>   1
Atom   4C    basis set group =>   1
Atom   5C    basis set group =>   1
Atom   6H    basis set group =>   2
Atom   7H    basis set group =>   2
Atom   8H    basis set group =>   2
Atom   9N    basis set group =>   3
Atom  10O    basis set group =>   4
Atom  11O    basis set group =>   4
Atom  12C    basis set group =>   1
Atom  13H    basis set group =>   2
Atom  14C    basis set group =>   1
Atom  15H    basis set group =>   2
Atom  16H    basis set group =>   2
Atom  17H    basis set group =>   2
Atom  18N    basis set group =>   3
Atom  19O    basis set group =>   4
Atom  20O    basis set group =>   4
Atom  21O    basis set group =>   4
Atom  22H    basis set group =>   2
Atom  23N    basis set group =>   3
Atom  24O    basis set group =>   4
Atom  25O    basis set group =>   4
Atom  26H    basis set group =>   2
Atom  27H    basis set group =>   2
Atom  28O    basis set group =>   4
---------------------------------
AUXILIARY/J BASIS SET INFORMATION
---------------------------------
There are 4 groups of distinct atoms

 Group   1 Type C   : 12s5p4d2f1g contracted to 6s4p3d1f1g pattern {711111/2111/211/2/1}
 Group   2 Type H   : 5s2p1d contracted to 3s1p1d pattern {311/2/1}
 Group   3 Type N   : 12s5p4d2f1g contracted to 6s4p3d1f1g pattern {711111/2111/211/2/1}
 Group   4 Type O   : 12s5p4d2f1g contracted to 6s4p3d1f1g pattern {711111/2111/211/2/1}

Atom   0C    basis set group =>   1
Atom   1C    basis set group =>   1
Atom   2C    basis set group =>   1
Atom   3C    basis set group =>   1
Atom   4C    basis set group =>   1
Atom   5C    basis set group =>   1
Atom   6H    basis set group =>   2
Atom   7H    basis set group =>   2
Atom   8H    basis set group =>   2
Atom   9N    basis set group =>   3
Atom  10O    basis set group =>   4
Atom  11O    basis set group =>   4
Atom  12C    basis set group =>   1
Atom  13H    basis set group =>   2
Atom  14C    basis set group =>   1
Atom  15H    basis set group =>   2
Atom  16H    basis set group =>   2
Atom  17H    basis set group =>   2
Atom  18N    basis set group =>   3
Atom  19O    basis set group =>   4
Atom  20O    basis set group =>   4
Atom  21O    basis set group =>   4
Atom  22H    basis set group =>   2
Atom  23N    basis set group =>   3
Atom  24O    basis set group =>   4
Atom  25O    basis set group =>   4
Atom  26H    basis set group =>   2
Atom  27H    basis set group =>   2
Atom  28O    basis set group =>   4


           ************************************************************
           *        Program running with 102 parallel MPI-processes   *
           *              working on a common directory               *
           ************************************************************
------------------------------------------------------------------------------
                           ORCA GTO INTEGRAL CALCULATION
                           -- RI-GTO INTEGRALS CHOSEN --
------------------------------------------------------------------------------
------------------------------------------------------------------------------
                   ___                                                        
                  /   \      - P O W E R E D   B Y -                         
                 /     \                                                     
                 |  |  |   _    _      __       _____    __    __             
                 |  |  |  | |  | |    /  \     |  _  \  |  |  /  |          
                  \  \/   | |  | |   /    \    | | | |  |  | /  /          
                 / \  \   | |__| |  /  /\  \   | |_| |  |  |/  /          
                |  |  |   |  __  | /  /__\  \  |    /   |      \           
                |  |  |   | |  | | |   __   |  |    \   |  |\   \          
                \     /   | |  | | |  |  |  |  | |\  \  |  | \   \       
                 \___/    |_|  |_| |__|  |__|  |_| \__\ |__|  \__/        
                                                                              
                      - O R C A' S   B I G   F R I E N D -                    
                                      &                                       
                       - I N T E G R A L  F E E D E R -                       
                                                                              
 v1 FN, 2020, v2 2021                                                         
------------------------------------------------------------------------------


Reading SHARK input file /home/rudenko/mop_saddle_orca_4_serv/for_orca/m,m-o2n2c6h4chno2ch3_oh/orca/start_freq_D/start_f_D.SHARKINP.tmp ... ok
----------------------
SHARK INTEGRAL PACKAGE
----------------------

Number of atoms                             ...     29
Number of basis functions                   ...    649
Number of shells                            ...    249
Maximum angular momentum                    ...      3
Integral batch strategy                     ... SHARK/LIBINT Hybrid
RI-J (if used) integral strategy            ... SPLIT-RIJ (Revised 2003 algorithm where possible)
Printlevel                                  ...      1
Contraction scheme used                     ... SEGMENTED contraction
Coulomb Range Separation                    ... NOT USED
Exchange Range Separation                   ... NOT USED
Finite Nucleus Model                        ... NOT USED
Auxiliary Coulomb fitting basis             ... AVAILABLE
   # of basis functions in Aux-J            ...   1041
   # of shells in Aux-J                     ...    335
   Maximum angular momentum in Aux-J        ...      4
Auxiliary J/K fitting basis                 ... NOT available
Auxiliary Correlation fitting basis         ... NOT available
Auxiliary 'external' fitting basis          ... NOT available
Integral threshold                          ...     2.500000e-11
Primitive cut-off                           ...     2.500000e-12
Primitive pair pre-selection threshold      ...     2.500000e-12

Calculating pre-screening integrals         ... done (  0.1 sec) Dimension = 249
Organizing shell pair data                  ... done (  0.7 sec)
Shell pair information
Total number of shell pairs                 ...     31125
Shell pairs after pre-screening             ...     21748
Total number of primitive shell pairs       ...     97468
Primitive shell pairs kept                  ...     45380
          la=0 lb=0:   5313 shell pairs
          la=1 lb=0:   6217 shell pairs
          la=1 lb=1:   1833 shell pairs
          la=2 lb=0:   3130 shell pairs
          la=2 lb=1:   1871 shell pairs
          la=2 lb=2:    480 shell pairs
          la=3 lb=0:   1469 shell pairs
          la=3 lb=1:    896 shell pairs
          la=3 lb=2:    431 shell pairs
          la=3 lb=3:    108 shell pairs

Calculating one electron integrals          ... done (  0.2 sec)
Calculating RI/J V-Matrix + Cholesky decomp.... done (  0.2 sec)
Calculating Nuclear repulsion               ... done (  0.0 sec) ENN=   1469.871939297257 Eh

SHARK setup successfully completed in   1.6 seconds

Maximum memory used throughout the entire GTOINT-calculation: 35.7 MB


           ************************************************************
           *        Program running with 102 parallel MPI-processes   *
           *              working on a common directory               *
           ************************************************************
-------------------------------------------------------------------------------
                                 ORCA SCF
-------------------------------------------------------------------------------

------------
SCF SETTINGS
------------
Hamiltonian:
 Density Functional     Method          .... DFT(GTOs)
 Exchange Functional    Exchange        .... B88
   X-Alpha parameter    XAlpha          ....  0.666667
   Becke's b parameter  XBeta           ....  0.004200
 Correlation Functional Correlation     .... LYP
 LDA part of GGA corr.  LDAOpt          .... VWN-5
 Gradients option       PostSCFGGA      .... off
 Hybrid DFT is turned on
   Fraction HF Exchange ScalHFX         ....  0.200000
   Scaling of DF-GGA-X  ScalDFX         ....  0.720000
   Scaling of DF-GGA-C  ScalDFC         ....  0.810000
   Scaling of DF-LDA-C  ScalLDAC        ....  1.000000
   Perturbative correction              ....  0.000000
   Density functional embedding theory  .... OFF
   NL short-range parameter             ....  4.800000
 RI-approximation to the Coulomb term is turned on
   Number of AuxJ basis functions       .... 1041
   RIJ-COSX (HFX calculated with COS-X)).... on


General Settings:
 Integral files         IntName         .... /home/rudenko/mop_saddle_orca_4_serv/for_orca/m,m-o2n2c6h4chno2ch3_oh/orca/start_freq_D/start_f_D
 Hartree-Fock type      HFTyp           .... RHF
 Total Charge           Charge          ....   -1
 Multiplicity           Mult            ....    1
 Number of Electrons    NEL             ....  144
 Basis Dimension        Dim             ....  649
 Nuclear Repulsion      ENuc            ....   1469.8719392973 Eh

Convergence Acceleration:
 DIIS                   CNVDIIS         .... on
   Start iteration      DIISMaxIt       ....    12
   Startup error        DIISStart       ....  0.200000
   # of expansion vecs  DIISMaxEq       ....     5
   Bias factor          DIISBfac        ....   1.050
   Max. coefficient     DIISMaxC        ....  10.000
 Trust-Rad. Augm. Hess. CNVTRAH         .... auto
   Auto Start mean grad. ratio tolernc. ....  1.125000
   Auto Start start iteration           ....    20
   Auto Start num. interpolation iter.  ....    10
   Max. Number of Micro iterations      ....    16
   Max. Number of Macro iterations      .... Maxiter - #DIIS iter
   Number of Davidson start vectors     ....     2
   Converg. threshold I  (grad. norm)   ....   1.000e-05
   Converg. threshold II (energy diff.) ....   1.000e-08
   Grad. Scal. Fac. for Micro threshold ....   0.100
   Minimum threshold for Micro iter.    ....   0.010
   NR start threshold (gradient norm)   ....   0.001
   Initial trust radius                 ....   0.400
   Minimum AH scaling param. (alpha)    ....   1.000
   Maximum AH scaling param. (alpha)    .... 1000.000
   Orbital update algorithm             .... Taylor
   White noise on init. David. guess    .... on
   Maximum white noise                  ....   0.010
   Quad. conv. algorithm                .... NR
 SOSCF                  CNVSOSCF        .... on
   Start iteration      SOSCFMaxIt      ....   150
   Startup grad/error   SOSCFStart      ....  0.003300
 Level Shifting         CNVShift        .... on
   Level shift para.    LevelShift      ....    0.2500
   Turn off err/grad.   ShiftErr        ....    0.0010
 Zerner damping         CNVZerner       .... off
 Static damping         CNVDamp         .... on
   Fraction old density DampFac         ....    0.7000
   Max. Damping (<1)    DampMax         ....    0.9800
   Min. Damping (>=0)   DampMin         ....    0.0000
   Turn off err/grad.   DampErr         ....    0.1000
 Fernandez-Rico         CNVRico         .... off

SCF Procedure:
 Maximum # iterations   MaxIter         ....   125
 SCF integral mode      SCFMode         .... Direct
   Integral package                     .... SHARK and LIBINT hybrid scheme
 Reset frequency        DirectResetFreq ....    20
 Integral Threshold     Thresh          ....  2.500e-11 Eh
 Primitive CutOff       TCut            ....  2.500e-12 Eh

Convergence Tolerance:
 Convergence Check Mode ConvCheckMode   .... Total+1el-Energy
 Convergence forced     ConvForced      .... 0
 Energy Change          TolE            ....  1.000e-08 Eh
 1-El. energy change                    ....  1.000e-05 Eh
 Orbital Gradient       TolG            ....  1.000e-05
 Orbital Rotation angle TolX            ....  1.000e-05
 DIIS Error             TolErr          ....  5.000e-07


Diagonalization of the overlap matrix:
Smallest eigenvalue                        ... 5.818e-06
Time for diagonalization                   ...    0.264 sec
Threshold for overlap eigenvalues          ... 1.000e-08
Number of eigenvalues below threshold      ... 0
Time for construction of square roots      ...    0.360 sec
Total time needed                          ...    0.629 sec

Time for model grid setup =    0.246 sec

------------------------------
INITIAL GUESS: MODEL POTENTIAL
------------------------------
Loading Hartree-Fock densities                     ... done
Calculating cut-offs                               ... done
Initializing the effective Hamiltonian             ... done
Setting up the integral package (SHARK)            ... done
Starting the Coulomb interaction                   ... done (   0.1 sec)
Reading the grid                                   ... done
Mapping shells                                     ... done
Starting the XC term evaluation                    ... done (   0.1 sec)
  promolecular density results
     # of electrons  =    142.991813562
     EX              =   -129.354290611
     EC              =     -5.050307374
     EX+EC           =   -134.404597984
Transforming the Hamiltonian                       ... done (   0.3 sec)
Diagonalizing the Hamiltonian                      ... done (   0.3 sec)
Back transforming the eigenvectors                 ... done (   0.1 sec)
Now organizing SCF variables                       ... done
                      ------------------
                      INITIAL GUESS DONE (   1.2 sec)
                      ------------------
-------------------
DFT GRID GENERATION
-------------------

General Integration Accuracy     IntAcc      ... 4.388
Radial Grid Type                 RadialGrid  ... OptM3 with GC (2021)
Angular Grid (max. ang.)         AngularGrid ... 4 (Lebedev-302)
Angular grid pruning method      GridPruning ... 4 (adaptive)
Weight generation scheme         WeightScheme... Becke
Basis function cutoff            BFCut       ... 1.0000e-11
Integration weight cutoff        WCut        ... 1.0000e-14
Angular grids for H and He will be reduced by one unit
Partially contracted basis set               ... off
Rotationally invariant grid construction     ... off

Total number of grid points                  ...   146569
Total number of batches                      ...     2307
Average number of points per batch           ...       63
Average number of grid points per atom       ...     5054
Time for grid setup =    1.251 sec

--------------------
COSX GRID GENERATION
--------------------

GRIDX 1
-------
General Integration Accuracy     IntAcc      ... 3.816
Radial Grid Type                 RadialGrid  ... OptM3 with GC (2021)
Angular Grid (max. ang.)         AngularGrid ... 1 (Lebedev-50)
Angular grid pruning method      GridPruning ... 4 (adaptive)
Weight generation scheme         WeightScheme... Becke
Basis function cutoff            BFCut       ... 1.0000e-11
Integration weight cutoff        WCut        ... 1.0000e-14
Angular grids for H and He will be reduced by one unit
Partially contracted basis set               ... on
Rotationally invariant grid construction     ... off

Total number of grid points                  ...    18556
Total number of batches                      ...      302
Average number of points per batch           ...       61
Average number of grid points per atom       ...      640
UseSFitting                                  ... on

GRIDX 2
-------
General Integration Accuracy     IntAcc      ... 4.020
Radial Grid Type                 RadialGrid  ... OptM3 with GC (2021)
Angular Grid (max. ang.)         AngularGrid ... 2 (Lebedev-110)
Angular grid pruning method      GridPruning ... 4 (adaptive)
Weight generation scheme         WeightScheme... Becke
Basis function cutoff            BFCut       ... 1.0000e-11
Integration weight cutoff        WCut        ... 1.0000e-14
Angular grids for H and He will be reduced by one unit
Partially contracted basis set               ... on
Rotationally invariant grid construction     ... off

Total number of grid points                  ...    41442
Total number of batches                      ...      662
Average number of points per batch           ...       62
Average number of grid points per atom       ...     1429
UseSFitting                                  ... on

GRIDX 3
-------
General Integration Accuracy     IntAcc      ... 4.338
Radial Grid Type                 RadialGrid  ... OptM3 with GC (2021)
Angular Grid (max. ang.)         AngularGrid ... 3 (Lebedev-194)
Angular grid pruning method      GridPruning ... 4 (adaptive)
Weight generation scheme         WeightScheme... Becke
Basis function cutoff            BFCut       ... 1.0000e-11
Integration weight cutoff        WCut        ... 1.0000e-14
Angular grids for H and He will be reduced by one unit
Partially contracted basis set               ... on
Rotationally invariant grid construction     ... off

Total number of grid points                  ...    91149
Total number of batches                      ...     1437
Average number of points per batch           ...       63
Average number of grid points per atom       ...     3143
UseSFitting                                  ... on

Time for X-Grid setup             =    2.190 sec


--------------------
CPCM SOLVATION MODEL
--------------------
CPCM parameters:
  Epsilon                                         ...      78.4000
  Refrac                                          ...       1.3300
  Rsolv                                           ...       1.3000
  Surface type                                    ... GAUSSIAN VDW
  Epsilon function type                           ...         CPCM
Radii:
 Radius for C  used is    3.8550 Bohr (=   2.0400 Ang.)
 Radius for H  used is    2.4944 Bohr (=   1.3200 Ang.)
 Radius for N  used is    3.5149 Bohr (=   1.8600 Ang.)
 Radius for O  used is    3.4469 Bohr (=   1.8240 Ang.)
Calculating surface                               ...        done! (  0.0s)
GEPOL surface points                              ...         1614
GEPOL Volume                                      ...    2014.3836
GEPOL Surface-area                                ...    1124.8002
Calculating surface distance matrix               ...        done! (  0.1s)
Performing Cholesky decomposition & store         ...        done! (  0.5s)
Overall time for CPCM initialization              ...                 0.6s
--------------
SCF ITERATIONS
--------------
ITER       Energy         Delta-E        Max-DP      RMS-DP      [F,P]     Damp
               ***  Starting incremental Fock matrix formation  ***
  0  -1075.8882594831   0.000000000000 1.32376127  0.00690593  0.4482366 0.7000
  1  -1076.2923932826  -0.404133799530 1.05627718  0.00565213  0.1601314 0.7000
                               ***Turning on DIIS***
  2  -1076.4159034032  -0.123510120550 0.68750080  0.00427533  0.0375717 0.0000
  3  -1076.6630085845  -0.247105181297 1.02815271  0.00540425  0.0909953 0.0000
  4  -1076.6958855040  -0.032876919538 0.23381379  0.00125171  0.0216051 0.0000
  5  -1076.6990134642  -0.003127960185 0.07963648  0.00042498  0.0051430 0.0000
                      *** Initiating the SOSCF procedure ***
                           *** Shutting down DIIS ***
                      *** Re-Reading the Fockian *** 
                      *** Removing any level shift *** 
ITER      Energy       Delta-E        Grad      Rot      Max-DP    RMS-DP
  6  -1076.69910737  -0.0000939050  0.000608  0.000608  0.026905  0.000145
               *** Restarting incremental Fock matrix formation ***
  7  -1076.69909972   0.0000076465  0.000392  0.002770  0.006490  0.000051
  8  -1076.69910446  -0.0000047365  0.000180  0.001511  0.011449  0.000066
  9  -1076.69910641  -0.0000019557  0.000125  0.000740  0.007611  0.000045
 10  -1076.69910684  -0.0000004276  0.000158  0.000340  0.002217  0.000014
 11  -1076.69910687  -0.0000000268  0.000132  0.000341  0.004239  0.000025
 12  -1076.69910708  -0.0000002123  0.000024  0.000069  0.000603  0.000003
 13  -1076.69910706   0.0000000245  0.000025  0.000088  0.000192  0.000002
 14  -1076.69910711  -0.0000000569  0.000004  0.000009  0.001479  0.000009
 15  -1076.69910710   0.0000000091  0.000005  0.000013  0.000527  0.000004
                  ***Gradient check signals convergence***
              ***Rediagonalizing the Fockian in SOSCF/NRSCF***

               *****************************************************
               *                     SUCCESS                       *
               *           SCF CONVERGED AFTER  16 CYCLES          *
               *****************************************************

Old exchange energy                            =    -26.115866039 Eh
New exchange energy                            =    -26.115839446 Eh
Exchange energy change after final integration =      0.000026593 Eh
Total energy after final integration           =  -1076.699080527 Eh
Final COS-X integration done in                =     2.639 sec

----------------
TOTAL SCF ENERGY
----------------

Total Energy       :        -1076.69908053 Eh          -29298.47149 eV

Components:
Nuclear Repulsion  :         1469.87193930 Eh           39997.24889 eV
Electronic Energy  :        -2546.57101982 Eh          -69295.72038 eV
One Electron Energy:        -4410.77938402 Eh         -120023.40891 eV
Two Electron Energy:         1864.20836420 Eh           50727.68854 eV
Max COSX asymmetry :            0.00000460 Eh               0.00013 eV
CPCM Dielectric    :           -0.11034537 Eh              -3.00265 eV

Virial components:
Potential Energy   :        -2149.27070628 Eh          -58484.62922 eV
Kinetic Energy     :         1072.57162575 Eh           29186.15773 eV
Virial Ratio       :            2.00384819


DFT components:
N(Alpha)           :       71.999971623965 electrons
N(Beta)            :       71.999971623965 electrons
N(Total)           :      143.999943247930 electrons
E(X)               :     -104.166949270421 Eh       
E(C)               :       -5.970638709748 Eh       
E(XC)              :     -110.137587980169 Eh       
DFET-embed. en.    :        0.000000000000 Eh       
CPCM Solvation Model Properties:
Surface-charge          :            0.97546242
Charge-correction       :           -0.00276418 Eh              -0.07522 eV
Free-energy (cav+disp)  :  This term is not implemented in the current solvation scheme

---------------
SCF CONVERGENCE
---------------

  Last Energy change         ...   -1.4922e-08  Tolerance :   1.0000e-08
  Last MAX-Density change    ...    2.6645e-15  Tolerance :   1.0000e-07
  Last RMS-Density change    ...    1.9104e-17  Tolerance :   5.0000e-09
  Last Orbital Gradient      ...    1.4858e-06  Tolerance :   1.0000e-05
  Last Orbital Rotation      ...    5.6029e-06  Tolerance :   1.0000e-05

             **** THE GBW FILE WAS UPDATED (/home/rudenko/mop_saddle_orca_4_serv/for_orca/m,m-o2n2c6h4chno2ch3_oh/orca/start_freq_D/start_f_D.gbw) ****
             **** DENSITY /home/rudenko/mop_saddle_orca_4_serv/for_orca/m,m-o2n2c6h4chno2ch3_oh/orca/start_freq_D/start_f_D.scfp WAS UPDATED ****
             **** ENERGY FILE WAS UPDATED (/home/rudenko/mop_saddle_orca_4_serv/for_orca/m,m-o2n2c6h4chno2ch3_oh/orca/start_freq_D/start_f_D.en.tmp) ****
             **** THE GBW FILE WAS UPDATED (/home/rudenko/mop_saddle_orca_4_serv/for_orca/m,m-o2n2c6h4chno2ch3_oh/orca/start_freq_D/start_f_D.gbw) ****
             **** DENSITY /home/rudenko/mop_saddle_orca_4_serv/for_orca/m,m-o2n2c6h4chno2ch3_oh/orca/start_freq_D/start_f_D.scfp WAS UPDATED ****
----------------
ORBITAL ENERGIES
----------------

  NO   OCC          E(Eh)            E(eV) 
   0   2.0000     -19.176034      -521.8064 
   1   2.0000     -19.175784      -521.7996 
   2   2.0000     -19.174528      -521.7654 
   3   2.0000     -19.174150      -521.7551 
   4   2.0000     -19.171226      -521.6756 
   5   2.0000     -19.168640      -521.6052 
   6   2.0000     -19.067073      -518.8414 
   7   2.0000     -19.017369      -517.4889 
   8   2.0000     -14.569808      -396.4646 
   9   2.0000     -14.567924      -396.4134 
  10   2.0000     -14.552491      -395.9934 
  11   2.0000     -10.253338      -279.0075 
  12   2.0000     -10.251298      -278.9520 
  13   2.0000     -10.230595      -278.3886 
  14   2.0000     -10.221554      -278.1426 
  15   2.0000     -10.216613      -278.0082 
  16   2.0000     -10.214937      -277.9626 
  17   2.0000     -10.205988      -277.7190 
  18   2.0000     -10.173986      -276.8482 
  19   2.0000      -1.250541       -34.0289 
  20   2.0000      -1.248718       -33.9794 
  21   2.0000      -1.240860       -33.7655 
  22   2.0000      -1.075711       -29.2716 
  23   2.0000      -1.073800       -29.2196 
  24   2.0000      -1.067700       -29.0536 
  25   2.0000      -0.947028       -25.7699 
  26   2.0000      -0.919844       -25.0302 
  27   2.0000      -0.864916       -23.5356 
  28   2.0000      -0.852293       -23.1921 
  29   2.0000      -0.843459       -22.9517 
  30   2.0000      -0.786845       -21.4111 
  31   2.0000      -0.732034       -19.9197 
  32   2.0000      -0.717279       -19.5181 
  33   2.0000      -0.699967       -19.0471 
  34   2.0000      -0.646084       -17.5808 
  35   2.0000      -0.605942       -16.4885 
  36   2.0000      -0.594373       -16.1737 
  37   2.0000      -0.579951       -15.7813 
  38   2.0000      -0.557070       -15.1587 
  39   2.0000      -0.556244       -15.1362 
  40   2.0000      -0.553508       -15.0617 
  41   2.0000      -0.547020       -14.8852 
  42   2.0000      -0.537044       -14.6137 
  43   2.0000      -0.533403       -14.5146 
  44   2.0000      -0.529549       -14.4098 
  45   2.0000      -0.521753       -14.1976 
  46   2.0000      -0.517010       -14.0685 
  47   2.0000      -0.494903       -13.4670 
  48   2.0000      -0.473760       -12.8917 
  49   2.0000      -0.458315       -12.4714 
  50   2.0000      -0.424122       -11.5409 
  51   2.0000      -0.410036       -11.1576 
  52   2.0000      -0.408591       -11.1183 
  53   2.0000      -0.407303       -11.0833 
  54   2.0000      -0.383663       -10.4400 
  55   2.0000      -0.376399       -10.2423 
  56   2.0000      -0.368050       -10.0151 
  57   2.0000      -0.339966        -9.2509 
  58   2.0000      -0.337484        -9.1834 
  59   2.0000      -0.336607        -9.1596 
  60   2.0000      -0.335368        -9.1258 
  61   2.0000      -0.331895        -9.0313 
  62   2.0000      -0.329543        -8.9673 
  63   2.0000      -0.320374        -8.7178 
  64   2.0000      -0.317030        -8.6268 
  65   2.0000      -0.314931        -8.5697 
  66   2.0000      -0.313681        -8.5357 
  67   2.0000      -0.298985        -8.1358 
  68   2.0000      -0.286515        -7.7965 
  69   2.0000      -0.271064        -7.3760 
  70   2.0000      -0.223438        -6.0800 
  71   2.0000      -0.219174        -5.9640 
  72   0.0000      -0.111895        -3.0448 
  73   0.0000      -0.106374        -2.8946 
  74   0.0000      -0.078091        -2.1250 
  75   0.0000      -0.035773        -0.9734 
  76   0.0000      -0.004887        -0.1330 
  77   0.0000       0.042949         1.1687 
  78   0.0000       0.059833         1.6281 
  79   0.0000       0.070736         1.9248 
  80   0.0000       0.078987         2.1494 
  81   0.0000       0.089460         2.4343 
  82   0.0000       0.101892         2.7726 
  83   0.0000       0.106807         2.9064 
  84   0.0000       0.115831         3.1519 
  85   0.0000       0.121506         3.3064 
  86   0.0000       0.126729         3.4485 
  87   0.0000       0.131685         3.5833 
  88   0.0000       0.141873         3.8606 
  89   0.0000       0.151962         4.1351 
  90   0.0000       0.166033         4.5180 
  91   0.0000       0.175516         4.7760 
  92   0.0000       0.176652         4.8070 
  93   0.0000       0.187636         5.1058 
  94   0.0000       0.196863         5.3569 
  95   0.0000       0.200523         5.4565 
  96   0.0000       0.206963         5.6318 
  97   0.0000       0.210289         5.7223 
  98   0.0000       0.225400         6.1334 
  99   0.0000       0.230393         6.2693 
 100   0.0000       0.238846         6.4993 
 101   0.0000       0.243569         6.6278 
 102   0.0000       0.246871         6.7177 
 103   0.0000       0.260094         7.0775 
 104   0.0000       0.262210         7.1351 
 105   0.0000       0.268985         7.3195 
 106   0.0000       0.275450         7.4954 
 107   0.0000       0.285459         7.7677 
 108   0.0000       0.288488         7.8502 
 109   0.0000       0.297815         8.1039 
 110   0.0000       0.301772         8.2116 
 111   0.0000       0.309037         8.4093 
 112   0.0000       0.315551         8.5866 
 113   0.0000       0.324459         8.8290 
 114   0.0000       0.326840         8.8938 
 115   0.0000       0.337192         9.1755 
 116   0.0000       0.340687         9.2706 
 117   0.0000       0.348680         9.4881 
 118   0.0000       0.354169         9.6374 
 119   0.0000       0.358387         9.7522 
 120   0.0000       0.371549        10.1104 
 121   0.0000       0.373787        10.1712 
 122   0.0000       0.382206        10.4003 
 123   0.0000       0.385624        10.4934 
 124   0.0000       0.392634        10.6841 
 125   0.0000       0.401098        10.9144 
 126   0.0000       0.402968        10.9653 
 127   0.0000       0.406319        11.0565 
 128   0.0000       0.414853        11.2887 
 129   0.0000       0.422765        11.5040 
 130   0.0000       0.426732        11.6120 
 131   0.0000       0.430508        11.7147 
 132   0.0000       0.435398        11.8478 
 133   0.0000       0.439087        11.9482 
 134   0.0000       0.441512        12.0142 
 135   0.0000       0.445745        12.1293 
 136   0.0000       0.450589        12.2612 
 137   0.0000       0.458734        12.4828 
 138   0.0000       0.459702        12.5091 
 139   0.0000       0.472110        12.8468 
 140   0.0000       0.478470        13.0198 
 141   0.0000       0.480094        13.0640 
 142   0.0000       0.490883        13.3576 
 143   0.0000       0.494331        13.4514 
 144   0.0000       0.508374        13.8336 
 145   0.0000       0.509391        13.8612 
 146   0.0000       0.514755        14.0072 
 147   0.0000       0.516429        14.0528 
 148   0.0000       0.519272        14.1301 
 149   0.0000       0.527795        14.3620 
 150   0.0000       0.535319        14.5668 
 151   0.0000       0.550449        14.9785 
 152   0.0000       0.553177        15.0527 
 153   0.0000       0.555054        15.1038 
 154   0.0000       0.561538        15.2802 
 155   0.0000       0.578626        15.7452 
 156   0.0000       0.583806        15.8862 
 157   0.0000       0.586893        15.9702 
 158   0.0000       0.594317        16.1722 
 159   0.0000       0.598345        16.2818 
 160   0.0000       0.601693        16.3729 
 161   0.0000       0.606217        16.4960 
 162   0.0000       0.621112        16.9013 
 163   0.0000       0.623305        16.9610 
 164   0.0000       0.627643        17.0790 
 165   0.0000       0.634233        17.2583 
 166   0.0000       0.641788        17.4639 
 167   0.0000       0.643831        17.5195 
 168   0.0000       0.653028        17.7698 
 169   0.0000       0.661767        18.0076 
 170   0.0000       0.667401        18.1609 
 171   0.0000       0.675191        18.3729 
 172   0.0000       0.686406        18.6780 
 173   0.0000       0.695313        18.9204 
 174   0.0000       0.702349        19.1119 
 175   0.0000       0.709027        19.2936 
 176   0.0000       0.716376        19.4936 
 177   0.0000       0.730503        19.8780 
 178   0.0000       0.737110        20.0578 
 179   0.0000       0.740007        20.1366 
 180   0.0000       0.769906        20.9502 
 181   0.0000       0.775156        21.0931 
 182   0.0000       0.791419        21.5356 
 183   0.0000       0.804405        21.8890 
 184   0.0000       0.810813        22.0633 
 185   0.0000       0.814432        22.1618 
 186   0.0000       0.827398        22.5146 
 187   0.0000       0.832750        22.6603 
 188   0.0000       0.842233        22.9183 
 189   0.0000       0.860383        23.4122 
 190   0.0000       0.871715        23.7206 
 191   0.0000       0.884423        24.0664 
 192   0.0000       0.890381        24.2285 
 193   0.0000       0.901642        24.5349 
 194   0.0000       0.932749        25.3814 
 195   0.0000       0.938061        25.5259 
 196   0.0000       0.950868        25.8744 
 197   0.0000       0.955501        26.0005 
 198   0.0000       0.968899        26.3651 
 199   0.0000       0.974322        26.5126 
 200   0.0000       0.983924        26.7739 
 201   0.0000       1.006900        27.3991 
 202   0.0000       1.012323        27.5467 
 203   0.0000       1.026601        27.9352 
 204   0.0000       1.033613        28.1260 
 205   0.0000       1.058046        28.7909 
 206   0.0000       1.063310        28.9341 
 207   0.0000       1.069743        29.1092 
 208   0.0000       1.077069        29.3085 
 209   0.0000       1.085454        29.5367 
 210   0.0000       1.098666        29.8962 
 211   0.0000       1.103620        30.0310 
 212   0.0000       1.110890        30.2289 
 213   0.0000       1.136000        30.9121 
 214   0.0000       1.147069        31.2133 
 215   0.0000       1.155774        31.4502 
 216   0.0000       1.175320        31.9821 
 217   0.0000       1.189800        32.3761 
 218   0.0000       1.205032        32.7906 
 219   0.0000       1.218860        33.1669 
 220   0.0000       1.235859        33.6294 
 221   0.0000       1.245686        33.8968 
 222   0.0000       1.251208        34.0471 
 223   0.0000       1.259599        34.2754 
 224   0.0000       1.262932        34.3661 
 225   0.0000       1.276875        34.7455 
 226   0.0000       1.288865        35.0718 
 227   0.0000       1.308113        35.5956 
 228   0.0000       1.314278        35.7633 
 229   0.0000       1.318358        35.8743 
 230   0.0000       1.327379        36.1198 
 231   0.0000       1.341167        36.4950 
 232   0.0000       1.347214        36.6596 
 233   0.0000       1.351318        36.7712 
 234   0.0000       1.367729        37.2178 
 235   0.0000       1.389182        37.8016 
 236   0.0000       1.403153        38.1817 
 237   0.0000       1.403864        38.2011 
 238   0.0000       1.414637        38.4942 
 239   0.0000       1.417254        38.5654 
 240   0.0000       1.425710        38.7955 
 241   0.0000       1.440497        39.1979 
 242   0.0000       1.445572        39.3360 
 243   0.0000       1.453602        39.5545 
 244   0.0000       1.464328        39.8464 
 245   0.0000       1.476830        40.1866 
 246   0.0000       1.493686        40.6453 
 247   0.0000       1.499857        40.8132 
 248   0.0000       1.511898        41.1408 
 249   0.0000       1.525550        41.5123 
 250   0.0000       1.545390        42.0522 
 251   0.0000       1.553684        42.2779 
 252   0.0000       1.557028        42.3689 
 253   0.0000       1.574628        42.8478 
 254   0.0000       1.584439        43.1148 
 255   0.0000       1.594375        43.3851 
 256   0.0000       1.617862        44.0243 
 257   0.0000       1.620239        44.0889 
 258   0.0000       1.626113        44.2488 
 259   0.0000       1.630496        44.3680 
 260   0.0000       1.634581        44.4792 
 261   0.0000       1.652488        44.9665 
 262   0.0000       1.665360        45.3167 
 263   0.0000       1.670765        45.4638 
 264   0.0000       1.677128        45.6370 
 265   0.0000       1.679133        45.6915 
 266   0.0000       1.694166        46.1006 
 267   0.0000       1.699643        46.2496 
 268   0.0000       1.708385        46.4875 
 269   0.0000       1.714942        46.6660 
 270   0.0000       1.720963        46.8298 
 271   0.0000       1.736781        47.2602 
 272   0.0000       1.743770        47.4504 
 273   0.0000       1.750024        47.6206 
 274   0.0000       1.765937        48.0536 
 275   0.0000       1.768728        48.1295 
 276   0.0000       1.772323        48.2274 
 277   0.0000       1.803876        49.0860 
 278   0.0000       1.809435        49.2372 
 279   0.0000       1.831342        49.8333 
 280   0.0000       1.841624        50.1131 
 281   0.0000       1.854484        50.4631 
 282   0.0000       1.862104        50.6704 
 283   0.0000       1.877868        51.0994 
 284   0.0000       1.909406        51.9576 
 285   0.0000       1.910754        51.9943 
 286   0.0000       1.916978        52.1636 
 287   0.0000       1.935504        52.6677 
 288   0.0000       1.937206        52.7141 
 289   0.0000       1.943480        52.8848 
 290   0.0000       1.946032        52.9542 
 291   0.0000       1.963882        53.4400 
 292   0.0000       1.967526        53.5391 
 293   0.0000       1.975111        53.7455 
 294   0.0000       2.002288        54.4850 
 295   0.0000       2.002532        54.4917 
 296   0.0000       2.025084        55.1053 
 297   0.0000       2.030499        55.2527 
 298   0.0000       2.037991        55.4566 
 299   0.0000       2.050143        55.7872 
 300   0.0000       2.052572        55.8533 
 301   0.0000       2.068613        56.2898 
 302   0.0000       2.076544        56.5056 
 303   0.0000       2.080110        56.6027 
 304   0.0000       2.093564        56.9688 
 305   0.0000       2.103795        57.2472 
 306   0.0000       2.114519        57.5390 
 307   0.0000       2.116285        57.5870 
 308   0.0000       2.119484        57.6741 
 309   0.0000       2.121498        57.7289 
 310   0.0000       2.132888        58.0388 
 311   0.0000       2.139600        58.2215 
 312   0.0000       2.156940        58.6933 
 313   0.0000       2.166177        58.9447 
 314   0.0000       2.170261        59.0558 
 315   0.0000       2.177361        59.2490 
 316   0.0000       2.193412        59.6858 
 317   0.0000       2.207812        60.0776 
 318   0.0000       2.225046        60.5466 
 319   0.0000       2.240895        60.9779 
 320   0.0000       2.250534        61.2401 
 321   0.0000       2.260375        61.5079 
 322   0.0000       2.270229        61.7761 
 323   0.0000       2.273429        61.8632 
 324   0.0000       2.280225        62.0481 
 325   0.0000       2.293614        62.4124 
 326   0.0000       2.297176        62.5093 
 327   0.0000       2.318923        63.1011 
 328   0.0000       2.338068        63.6221 
 329   0.0000       2.349520        63.9337 
 330   0.0000       2.366047        64.3834 
 331   0.0000       2.384740        64.8921 
 332   0.0000       2.390506        65.0490 
 333   0.0000       2.424055        65.9619 
 334   0.0000       2.435316        66.2683 
 335   0.0000       2.449093        66.6432 
 336   0.0000       2.455435        66.8158 
 337   0.0000       2.462015        66.9948 
 338   0.0000       2.480056        67.4858 
 339   0.0000       2.484758        67.6137 
 340   0.0000       2.496196        67.9249 
 341   0.0000       2.505191        68.1697 
 342   0.0000       2.537641        69.0527 
 343   0.0000       2.563188        69.7479 
 344   0.0000       2.565120        69.8005 
 345   0.0000       2.575375        70.0795 
 346   0.0000       2.590834        70.5002 
 347   0.0000       2.594298        70.5944 
 348   0.0000       2.601211        70.7825 
 349   0.0000       2.605499        70.8992 
 350   0.0000       2.611470        71.0617 
 351   0.0000       2.619862        71.2901 
 352   0.0000       2.633245        71.6542 
 353   0.0000       2.637666        71.7745 
 354   0.0000       2.653401        72.2027 
 355   0.0000       2.653570        72.2073 
 356   0.0000       2.665809        72.5403 
 357   0.0000       2.669798        72.6489 
 358   0.0000       2.676910        72.8424 
 359   0.0000       2.695736        73.3547 
 360   0.0000       2.701455        73.5103 
 361   0.0000       2.713972        73.8509 
 362   0.0000       2.715702        73.8980 
 363   0.0000       2.719865        74.0113 
 364   0.0000       2.724232        74.1301 
 365   0.0000       2.728693        74.2515 
 366   0.0000       2.735259        74.4302 
 367   0.0000       2.742397        74.6244 
 368   0.0000       2.752937        74.9112 
 369   0.0000       2.777296        75.5741 
 370   0.0000       2.782762        75.7228 
 371   0.0000       2.804171        76.3054 
 372   0.0000       2.806673        76.3735 
 373   0.0000       2.816742        76.6474 
 374   0.0000       2.823698        76.8367 
 375   0.0000       2.833342        77.0992 
 376   0.0000       2.841723        77.3272 
 377   0.0000       2.868365        78.0522 
 378   0.0000       2.879802        78.3634 
 379   0.0000       2.893526        78.7368 
 380   0.0000       2.895316        78.7856 
 381   0.0000       2.909988        79.1848 
 382   0.0000       2.925423        79.6048 
 383   0.0000       2.930163        79.7338 
 384   0.0000       2.935954        79.8914 
 385   0.0000       2.942480        80.0689 
 386   0.0000       2.954770        80.4034 
 387   0.0000       2.967526        80.7505 
 388   0.0000       2.981671        81.1354 
 389   0.0000       3.001822        81.6837 
 390   0.0000       3.015019        82.0428 
 391   0.0000       3.033461        82.5447 
 392   0.0000       3.039366        82.7054 
 393   0.0000       3.051907        83.0466 
 394   0.0000       3.062711        83.3406 
 395   0.0000       3.071426        83.5777 
 396   0.0000       3.098882        84.3249 
 397   0.0000       3.109011        84.6005 
 398   0.0000       3.116600        84.8070 
 399   0.0000       3.122690        84.9727 
 400   0.0000       3.131982        85.2256 
 401   0.0000       3.141397        85.4818 
 402   0.0000       3.147184        85.6392 
 403   0.0000       3.153629        85.8146 
 404   0.0000       3.182115        86.5897 
 405   0.0000       3.187409        86.7338 
 406   0.0000       3.194465        86.9258 
 407   0.0000       3.206576        87.2554 
 408   0.0000       3.223356        87.7120 
 409   0.0000       3.232280        87.9548 
 410   0.0000       3.233612        87.9911 
 411   0.0000       3.244256        88.2807 
 412   0.0000       3.259167        88.6864 
 413   0.0000       3.265457        88.8576 
 414   0.0000       3.277998        89.1989 
 415   0.0000       3.286255        89.4235 
 416   0.0000       3.292511        89.5938 
 417   0.0000       3.299298        89.7785 
 418   0.0000       3.309145        90.0464 
 419   0.0000       3.322950        90.4221 
 420   0.0000       3.345165        91.0266 
 421   0.0000       3.353308        91.2481 
 422   0.0000       3.370470        91.7152 
 423   0.0000       3.375014        91.8388 
 424   0.0000       3.385065        92.1123 
 425   0.0000       3.396665        92.4280 
 426   0.0000       3.398277        92.4718 
 427   0.0000       3.413754        92.8930 
 428   0.0000       3.430549        93.3500 
 429   0.0000       3.446361        93.7802 
 430   0.0000       3.463797        94.2547 
 431   0.0000       3.485861        94.8551 
 432   0.0000       3.501717        95.2866 
 433   0.0000       3.510491        95.5253 
 434   0.0000       3.522737        95.8586 
 435   0.0000       3.534217        96.1709 
 436   0.0000       3.553787        96.7035 
 437   0.0000       3.590518        97.7030 
 438   0.0000       3.619879        98.5019 
 439   0.0000       3.630549        98.7923 
 440   0.0000       3.645201        99.1910 
 441   0.0000       3.674167        99.9792 
 442   0.0000       3.692113       100.4675 
 443   0.0000       3.715346       101.0997 
 444   0.0000       3.728741       101.4642 
 445   0.0000       3.737951       101.7148 
 446   0.0000       3.743849       101.8753 
 447   0.0000       3.758482       102.2735 
 448   0.0000       3.769849       102.5828 
 449   0.0000       3.786840       103.0451 
 450   0.0000       3.796026       103.2951 
 451   0.0000       3.818767       103.9139 
 452   0.0000       3.846611       104.6716 
 453   0.0000       3.853770       104.8664 
 454   0.0000       3.870001       105.3081 
 455   0.0000       3.892183       105.9117 
 456   0.0000       3.936621       107.1209 
 457   0.0000       3.960892       107.7814 
 458   0.0000       3.968277       107.9823 
 459   0.0000       3.972634       108.1009 
 460   0.0000       3.983033       108.3838 
 461   0.0000       4.006414       109.0201 
 462   0.0000       4.014237       109.2329 
 463   0.0000       4.023888       109.4956 
 464   0.0000       4.054770       110.3359 
 465   0.0000       4.057586       110.4125 
 466   0.0000       4.058304       110.4321 
 467   0.0000       4.063212       110.5656 
 468   0.0000       4.082865       111.1004 
 469   0.0000       4.105455       111.7151 
 470   0.0000       4.114911       111.9724 
 471   0.0000       4.129978       112.3824 
 472   0.0000       4.151205       112.9600 
 473   0.0000       4.155976       113.0899 
 474   0.0000       4.167053       113.3913 
 475   0.0000       4.210976       114.5865 
 476   0.0000       4.217001       114.7504 
 477   0.0000       4.234198       115.2184 
 478   0.0000       4.253257       115.7370 
 479   0.0000       4.274538       116.3161 
 480   0.0000       4.282202       116.5246 
 481   0.0000       4.295590       116.8890 
 482   0.0000       4.321436       117.5922 
 483   0.0000       4.354982       118.5051 
 484   0.0000       4.376213       119.0828 
 485   0.0000       4.443924       120.9253 
 486   0.0000       4.482078       121.9636 
 487   0.0000       4.495269       122.3225 
 488   0.0000       4.514302       122.8404 
 489   0.0000       4.521031       123.0235 
 490   0.0000       4.548094       123.7599 
 491   0.0000       4.559156       124.0609 
 492   0.0000       4.578458       124.5862 
 493   0.0000       4.579444       124.6130 
 494   0.0000       4.611643       125.4892 
 495   0.0000       4.616980       125.6344 
 496   0.0000       4.645894       126.4212 
 497   0.0000       4.657166       126.7279 
 498   0.0000       4.673199       127.1642 
 499   0.0000       4.677699       127.2867 
 500   0.0000       4.699512       127.8802 
 501   0.0000       4.704915       128.0272 
 502   0.0000       4.733366       128.8014 
 503   0.0000       4.739510       128.9686 
 504   0.0000       4.753194       129.3410 
 505   0.0000       4.784858       130.2026 
 506   0.0000       4.790533       130.3570 
 507   0.0000       4.813332       130.9774 
 508   0.0000       4.819367       131.1416 
 509   0.0000       4.834306       131.5482 
 510   0.0000       4.857841       132.1886 
 511   0.0000       4.893664       133.1634 
 512   0.0000       4.910867       133.6315 
 513   0.0000       4.958498       134.9276 
 514   0.0000       4.962020       135.0234 
 515   0.0000       5.000855       136.0802 
 516   0.0000       5.009580       136.3176 
 517   0.0000       5.054360       137.5361 
 518   0.0000       5.062856       137.7673 
 519   0.0000       5.084661       138.3606 
 520   0.0000       5.099842       138.7738 
 521   0.0000       5.103220       138.8657 
 522   0.0000       5.108278       139.0033 
 523   0.0000       5.111812       139.0995 
 524   0.0000       5.120461       139.3348 
 525   0.0000       5.125057       139.4599 
 526   0.0000       5.126183       139.4905 
 527   0.0000       5.128865       139.5635 
 528   0.0000       5.130925       139.6196 
 529   0.0000       5.137308       139.7933 
 530   0.0000       5.147474       140.0699 
 531   0.0000       5.156819       140.3242 
 532   0.0000       5.192611       141.2981 
 533   0.0000       5.208319       141.7256 
 534   0.0000       5.211011       141.7988 
 535   0.0000       5.217818       141.9841 
 536   0.0000       5.234257       142.4314 
 537   0.0000       5.252882       142.9382 
 538   0.0000       5.278016       143.6221 
 539   0.0000       5.280981       143.7028 
 540   0.0000       5.283901       143.7823 
 541   0.0000       5.286866       143.8629 
 542   0.0000       5.293152       144.0340 
 543   0.0000       5.297034       144.1396 
 544   0.0000       5.329839       145.0323 
 545   0.0000       5.361114       145.8833 
 546   0.0000       5.376975       146.3149 
 547   0.0000       5.397402       146.8708 
 548   0.0000       5.401944       146.9944 
 549   0.0000       5.410340       147.2228 
 550   0.0000       5.429172       147.7353 
 551   0.0000       5.437015       147.9487 
 552   0.0000       5.439356       148.0124 
 553   0.0000       5.460505       148.5879 
 554   0.0000       5.487896       149.3332 
 555   0.0000       5.495365       149.5365 
 556   0.0000       5.505777       149.8198 
 557   0.0000       5.533336       150.5697 
 558   0.0000       5.546136       150.9180 
 559   0.0000       5.581894       151.8911 
 560   0.0000       5.592861       152.1895 
 561   0.0000       5.597714       152.3215 
 562   0.0000       5.602106       152.4411 
 563   0.0000       5.618832       152.8962 
 564   0.0000       5.707896       155.3198 
 565   0.0000       5.716806       155.5622 
 566   0.0000       5.763882       156.8432 
 567   0.0000       5.799115       157.8019 
 568   0.0000       5.836804       158.8275 
 569   0.0000       5.952362       161.9720 
 570   0.0000       5.957075       162.1003 
 571   0.0000       5.962994       162.2613 
 572   0.0000       6.082107       165.5025 
 573   0.0000       6.214694       169.1104 
 574   0.0000       6.217200       169.1786 
 575   0.0000       6.227419       169.4567 
 576   0.0000       6.251910       170.1231 
 577   0.0000       6.260098       170.3459 
 578   0.0000       6.262811       170.4197 
 579   0.0000       6.302626       171.5032 
 580   0.0000       6.304129       171.5441 
 581   0.0000       6.310368       171.7138 
 582   0.0000       6.313128       171.7889 
 583   0.0000       6.338339       172.4750 
 584   0.0000       6.348024       172.7385 
 585   0.0000       6.369744       173.3296 
 586   0.0000       6.391558       173.9231 
 587   0.0000       6.394339       173.9988 
 588   0.0000       6.395243       174.0234 
 589   0.0000       6.401489       174.1934 
 590   0.0000       6.403045       174.2357 
 591   0.0000       6.416130       174.5918 
 592   0.0000       6.420917       174.7220 
 593   0.0000       6.435921       175.1303 
 594   0.0000       6.446583       175.4205 
 595   0.0000       6.450485       175.5266 
 596   0.0000       6.464643       175.9119 
 597   0.0000       6.523342       177.5092 
 598   0.0000       6.539767       177.9561 
 599   0.0000       6.672582       181.5702 
 600   0.0000       6.726038       183.0248 
 601   0.0000       6.754455       183.7981 
 602   0.0000       6.832272       185.9156 
 603   0.0000       6.833731       185.9553 
 604   0.0000       6.839455       186.1110 
 605   0.0000       6.848937       186.3691 
 606   0.0000       6.857528       186.6028 
 607   0.0000       6.860593       186.6862 
 608   0.0000       6.875192       187.0835 
 609   0.0000       6.917575       188.2368 
 610   0.0000       6.921564       188.3453 
 611   0.0000       6.927099       188.4959 
 612   0.0000       6.999792       190.4740 
 613   0.0000       7.095180       193.0697 
 614   0.0000       7.104973       193.3362 
 615   0.0000       7.111401       193.5111 
 616   0.0000       7.120418       193.7564 
 617   0.0000       7.188920       195.6205 
 618   0.0000       7.252673       197.3553 
 619   0.0000       7.256242       197.4524 
 620   0.0000       7.257550       197.4880 
 621   0.0000       7.312052       198.9711 
 622   0.0000       7.365823       200.4342 
 623   0.0000       7.397622       201.2995 
 624   0.0000       7.405085       201.5026 
 625   0.0000       7.408872       201.6056 
 626   0.0000       7.450941       202.7504 
 627   0.0000       7.508551       204.3181 
 628   0.0000       7.524109       204.7414 
 629   0.0000       7.555023       205.5826 
 630   0.0000      22.366553       608.6248 
 631   0.0000      22.409985       609.8067 
 632   0.0000      22.624608       615.6469 
 633   0.0000      22.801398       620.4576 
 634   0.0000      22.834054       621.3462 
 635   0.0000      22.987123       625.5114 
 636   0.0000      23.005499       626.0115 
 637   0.0000      23.291904       633.8049 
 638   0.0000      32.487844       884.0392 
 639   0.0000      32.506124       884.5366 
 640   0.0000      32.533199       885.2733 
 641   0.0000      43.413495      1181.3413 
 642   0.0000      43.601715      1186.4630 
 643   0.0000      43.981395      1196.7946 
 644   0.0000      44.016221      1197.7423 
 645   0.0000      44.036135      1198.2842 
 646   0.0000      44.074973      1199.3410 
 647   0.0000      44.080967      1199.5041 
 648   0.0000      44.181098      1202.2288 

                    ********************************
                    * MULLIKEN POPULATION ANALYSIS *
                    ********************************

-----------------------
MULLIKEN ATOMIC CHARGES
-----------------------
   0 C :    0.130661
   1 C :   -0.161450
   2 C :    0.163920
   3 C :   -0.221367
   4 C :    0.135648
   5 C :   -0.186360
   6 H :    0.139147
   7 H :    0.177347
   8 H :    0.185188
   9 N :    0.463883
  10 O :   -0.344091
  11 O :   -0.343440
  12 C :    0.094893
  13 H :    0.061710
  14 C :   -0.391219
  15 H :    0.145168
  16 H :    0.145360
  17 H :    0.143506
  18 N :    0.411076
  19 O :   -0.346998
  20 O :   -0.338286
  21 O :   -0.822629
  22 H :    0.318728
  23 N :    0.466411
  24 O :   -0.348481
  25 O :   -0.342851
  26 H :    0.288979
  27 H :    0.351295
  28 O :   -0.975748
Sum of atomic charges:   -1.0000000

--------------------------------
MULLIKEN REDUCED ORBITAL CHARGES
--------------------------------
  0 C s       :     3.078824  s :     3.078824
      pz      :     0.896829  p :     2.660523
      px      :     0.852417
      py      :     0.911277
      dz2     :     0.021679  d :     0.118046
      dxz     :     0.035326
      dyz     :     0.012451
      dx2y2   :     0.017370
      dxy     :     0.031220
      f0      :     0.001590  f :     0.011947
      f+1     :     0.001455
      f-1     :     0.001333
      f+2     :     0.002452
      f-2     :     0.001961
      f+3     :     0.001177
      f-3     :     0.001979
  1 C s       :     3.323205  s :     3.323205
      pz      :     0.933589  p :     2.741024
      px      :     0.906016
      py      :     0.901418
      dz2     :     0.013754  d :     0.089694
      dxz     :     0.024467
      dyz     :     0.012292
      dx2y2   :     0.016921
      dxy     :     0.022260
      f0      :     0.000479  f :     0.007527
      f+1     :     0.001294
      f-1     :     0.000913
      f+2     :     0.001461
      f-2     :     0.000903
      f+3     :     0.000979
      f-3     :     0.001497
  2 C s       :     3.187922  s :     3.187922
      pz      :     0.855498  p :     2.514782
      px      :     0.774755
      py      :     0.884528
      dz2     :     0.026086  d :     0.123221
      dxz     :     0.028538
      dyz     :     0.016857
      dx2y2   :     0.024622
      dxy     :     0.027118
      f0      :     0.001193  f :     0.010156
      f+1     :     0.001509
      f-1     :     0.001189
      f+2     :     0.002259
      f-2     :     0.001225
      f+3     :     0.001241
      f-3     :     0.001540
  3 C s       :     3.312279  s :     3.312279
      pz      :     0.914330  p :     2.812546
      px      :     0.963090
      py      :     0.935126
      dz2     :     0.016319  d :     0.088923
      dxz     :     0.024099
      dyz     :     0.013213
      dx2y2   :     0.012855
      dxy     :     0.022437
      f0      :     0.001204  f :     0.007619
      f+1     :     0.000847
      f-1     :     0.000714
      f+2     :     0.001604
      f-2     :     0.001212
      f+3     :     0.000739
      f-3     :     0.001297
  4 C s       :     3.061336  s :     3.061336
      pz      :     0.851347  p :     2.672995
      px      :     0.894237
      py      :     0.927411
      dz2     :     0.023699  d :     0.117947
      dxz     :     0.029858
      dyz     :     0.014831
      dx2y2   :     0.020152
      dxy     :     0.029407
      f0      :     0.001179  f :     0.012075
      f+1     :     0.001828
      f-1     :     0.001929
      f+2     :     0.002496
      f-2     :     0.001672
      f+3     :     0.001134
      f-3     :     0.001837
  5 C s       :     3.303457  s :     3.303457
      pz      :     0.897301  p :     2.782172
      px      :     0.994952
      py      :     0.889919
      dz2     :     0.024915  d :     0.092911
      dxz     :     0.018849
      dyz     :     0.014413
      dx2y2   :     0.020830
      dxy     :     0.013904
      f0      :     0.001018  f :     0.007820
      f+1     :     0.001110
      f-1     :     0.001178
      f+2     :     0.001744
      f-2     :     0.000968
      f+3     :     0.001186
      f-3     :     0.000617
  6 H s       :     0.829973  s :     0.829973
      pz      :     0.015037  p :     0.030880
      px      :     0.008077
      py      :     0.007766
  7 H s       :     0.799571  s :     0.799571
      pz      :     0.007643  p :     0.023082
      px      :     0.007343
      py      :     0.008096
  8 H s       :     0.791560  s :     0.791560
      pz      :     0.004418  p :     0.023252
      px      :     0.014978
      py      :     0.003856
  9 N s       :     3.259847  s :     3.259847
      pz      :     1.073924  p :     3.015211
      px      :     0.884567
      py      :     1.056721
      dz2     :     0.041264  d :     0.246777
      dxz     :     0.065185
      dyz     :     0.022493
      dx2y2   :     0.054629
      dxy     :     0.063207
      f0      :     0.001297  f :     0.014281
      f+1     :     0.002451
      f-1     :     0.001356
      f+2     :     0.002843
      f-2     :     0.001502
      f+3     :     0.001843
      f-3     :     0.002990
 10 O s       :     3.885930  s :     3.885930
      pz      :     1.660830  p :     4.413358
      px      :     1.152547
      py      :     1.599981
      dz2     :     0.005276  d :     0.041543
      dxz     :     0.010890
      dyz     :     0.001061
      dx2y2   :     0.013889
      dxy     :     0.010427
      f0      :     0.000330  f :     0.003260
      f+1     :     0.000596
      f-1     :     0.000046
      f+2     :     0.000555
      f-2     :     0.000144
      f+3     :     0.000844
      f-3     :     0.000745
 11 O s       :     3.885106  s :     3.885106
      pz      :     1.512392  p :     4.413641
      px      :     1.541410
      py      :     1.359839
      dz2     :     0.006571  d :     0.041442
      dxz     :     0.009449
      dyz     :     0.007333
      dx2y2   :     0.007888
      dxy     :     0.010201
      f0      :     0.000311  f :     0.003251
      f+1     :     0.000458
      f-1     :     0.000291
      f+2     :     0.000398
      f-2     :     0.000817
      f+3     :     0.000523
      f-3     :     0.000453
 12 C s       :     3.137505  s :     3.137505
      pz      :     0.895674  p :     2.619912
      px      :     0.824075
      py      :     0.900164
      dz2     :     0.012832  d :     0.138313
      dxz     :     0.026053
      dyz     :     0.035998
      dx2y2   :     0.028057
      dxy     :     0.035372
      f0      :     0.000842  f :     0.009377
      f+1     :     0.001299
      f-1     :     0.001143
      f+2     :     0.001624
      f-2     :     0.001361
      f+3     :     0.001311
      f-3     :     0.001797
 13 H s       :     0.906929  s :     0.906929
      pz      :     0.017169  p :     0.031360
      px      :     0.003803
      py      :     0.010389
 14 C s       :     3.330759  s :     3.330759
      pz      :     1.064583  p :     3.011617
      px      :     1.054834
      py      :     0.892201
[...]
     85       0.011060   0.000161   0.000011  -0.000013  -0.000007   0.000004
     86       0.005347   0.000234  -0.000016  -0.000002  -0.000003  -0.000005
                 84         85         86    
      0      -0.001439  -0.000006  -0.000011
      1      -0.001570  -0.000001   0.000005
      2      -0.002426   0.000019  -0.000002
      3      -0.000573   0.000107   0.000013
      4      -0.000109   0.000120   0.000002
      5      -0.000307   0.000178   0.000019
      6      -0.000085   0.000006  -0.000005
      7       0.000015   0.000013  -0.000000
      8      -0.000032   0.000011  -0.000007
      9      -0.000584   0.000002  -0.000001
     10       0.000130   0.000002   0.000004
     11      -0.000018   0.000001   0.000002
     12      -0.002144   0.000008   0.000001
     13       0.001767  -0.000002   0.000002
     14       0.001511  -0.000002   0.000003
     15       0.084666   0.000007   0.000003
     16      -0.005336   0.000010   0.000001
     17       0.020466   0.000009   0.000000
     18       0.000081  -0.002058  -0.000070
     19       0.000559  -0.001329  -0.000008
     20       0.000877  -0.002955  -0.000157
     21      -0.000332   0.000055  -0.000001
     22      -0.000011  -0.000052  -0.000002
     23      -0.000174  -0.000057   0.000005
     24      -0.966517  -0.000113  -0.000010
     25       0.061321   0.000028   0.000006
     26      -0.233328  -0.000023  -0.000001
     27       0.001138  -0.000003  -0.000000
     28      -0.000264  -0.000006  -0.000002
     29       0.000052  -0.000011  -0.000001
     30      -0.000410   0.000004   0.000002
     31       0.000424   0.000004   0.000000
     32       0.000385   0.000003   0.000002
     33      -0.000131   0.000003   0.000001
     34      -0.000028   0.000005   0.000001
     35      -0.000084   0.000003   0.000004
     36       0.000097   0.000002  -0.000014
     37       0.000025   0.000003   0.000004
     38       0.000020   0.000054   0.000021
     39      -0.000078   0.000055   0.000149
     40       0.000035  -0.000290  -0.000083
     41       0.000040  -0.000757  -0.000135
     42      -0.000070  -0.000014   0.000002
     43      -0.000073  -0.000024  -0.000001
     44      -0.000029  -0.000008   0.000006
     45       0.000117  -0.000011  -0.000014
     46       0.000177   0.000005   0.000002
     47       0.000055  -0.000019   0.000002
     48       0.000050   0.000014  -0.000002
     49       0.000407   0.000082   0.000020
     50       0.000613   0.000157   0.000008
     51       0.000274   0.000029   0.000002
     52       0.000178  -0.000047   0.000018
     53      -0.000351  -0.000039  -0.000010
     54       0.000027   0.000006   0.000010
     55       0.000014   0.000026   0.000018
     56      -0.000005   0.000001  -0.000007
     57      -0.000036  -0.000006  -0.000007
     58      -0.000015  -0.000001   0.000001
     59       0.000003   0.000002   0.000003
     60      -0.000019   0.000004   0.000001
     61      -0.000006  -0.000004  -0.000003
     62       0.000004   0.000012   0.000009
     63       0.000000  -0.001062  -0.051824
     64      -0.000008  -0.000577  -0.018452
     65      -0.000004  -0.000590  -0.028251
     66      -0.000022   0.017731   0.846774
     67      -0.000003   0.005713   0.276115
     68      -0.000004   0.009252   0.449079
     69       0.001051  -0.000002  -0.000005
     70       0.000088  -0.000000   0.000003
     71       0.000496  -0.000002   0.000001
     72      -0.000248   0.000004   0.000001
     73      -0.000352  -0.000000   0.000001
     74      -0.000545   0.000001  -0.000001
     75      -0.000157   0.000004  -0.000002
     76       0.000045  -0.000001   0.000003
     77       0.000003   0.000006  -0.000002
     78       0.000018  -0.093826   0.002220
     79       0.000090  -0.687963   0.014356
     80      -0.000069   0.716590  -0.015069
     81      -0.000012  -0.000313  -0.025559
     82       0.000136   0.002413   0.011345
     83       0.000053  -0.004568  -0.004059
     84      -0.000006   0.005902  -0.000060
     85      -0.000015   0.043418  -0.000588
     86      -0.000007  -0.044785   0.001148


-----------
IR SPECTRUM
-----------

 Mode   freq       eps      Int      T**2         TX        TY        TZ
       cm**-1   L/(mol*cm) km/mol    a.u.
----------------------------------------------------------------------------
  8:     18.37   0.003417   17.27  0.058051  ( 0.025806 -0.125306  0.204164)
  9:     30.51   0.001814    9.17  0.018552  ( 0.129632 -0.013958 -0.039406)
 10:     39.35   0.004592   23.21  0.036413  (-0.162007 -0.085377  0.053646)
 11:     41.88   0.000073    0.37  0.000545  ( 0.010831  0.004573  0.020159)
 12:     48.05   0.005757   29.09  0.037389  ( 0.009273 -0.192027 -0.020706)
 13:     52.22   0.000384    1.94  0.002296  ( 0.013170  0.015454  0.043407)
 14:     72.36   0.001445    7.30  0.006233  ( 0.012241 -0.033022  0.070660)
 15:     78.80   0.003072   15.53  0.012166  ( 0.099616 -0.039331 -0.026371)
 16:    111.98   0.033807  170.84  0.094209  (-0.196814  0.015111 -0.235043)
 17:    129.06   0.000784    3.96  0.001897  ( 0.043441  0.002920 -0.001043)
 18:    144.63   0.001295    6.54  0.002795  (-0.041712  0.025208  0.020474)
 19:    151.09   0.001335    6.75  0.002758  (-0.005950 -0.016569  0.049477)
 20:    161.60   0.002179   11.01  0.004208  ( 0.056183  0.031793  0.006382)
 21:    203.76   0.000148    0.75  0.000227  ( 0.008577 -0.005138  0.011258)
 22:    226.65   0.000183    0.92  0.000252  ( 0.007959 -0.013721 -0.000206)
 23:    238.06   0.001337    6.76  0.001753  ( 0.034723 -0.019329  0.013161)
 24:    295.41   0.000652    3.29  0.000688  (-0.022885 -0.009512  0.008611)
 25:    314.06   0.011074   55.96  0.011004  ( 0.014187  0.085830  0.058616)
 26:    321.91   0.043006  217.33  0.041690  (-0.010354  0.174249  0.105924)
 27:    343.83   0.000642    3.25  0.000583  (-0.015189  0.004015 -0.018336)
 28:    365.22   0.000694    3.51  0.000593  ( 0.009873 -0.013221 -0.017919)
 29:    370.78   0.003014   15.23  0.002536  (-0.002314 -0.043858 -0.024647)
 30:    416.45   0.021384  108.07  0.016024  (-0.017150  0.108981  0.062070)
 31:    446.12   0.000753    3.81  0.000527  ( 0.007850  0.007702  0.020145)
 32:    483.54   0.000088    0.44  0.000057  ( 0.005587  0.001313 -0.004854)
 33:    527.64   0.003468   17.53  0.002051  (-0.044190 -0.005471 -0.008282)
 34:    542.44   0.001248    6.31  0.000718  (-0.024531  0.010713  0.001224)
 35:    564.08   0.029506  149.11  0.016324  (-0.033327 -0.106569 -0.062096)
 36:    599.13   0.001517    7.66  0.000790  (-0.008408  0.022347  0.014830)
 37:    624.73   0.004833   24.42  0.002414  (-0.042323 -0.008759  0.023372)
 38:    668.44   0.003115   15.74  0.001454  ( 0.017192  0.030933  0.014207)
 39:    711.89   0.009857   49.81  0.004321  (-0.012058  0.031470 -0.056435)
 40:    732.13   0.004676   23.63  0.001993  (-0.014765 -0.018683  0.037763)
 41:    750.34   0.013281   67.12  0.005524  (-0.012523  0.059322  0.042984)
 42:    765.46   0.005560   28.10  0.002267  ( 0.016155  0.035961 -0.026691)
 43:    795.79   0.000092    0.46  0.000036  (-0.004135 -0.002762  0.003359)
 44:    816.52   0.004549   22.99  0.001739  ( 0.039308 -0.008149  0.011277)
 45:    868.21   0.006074   30.70  0.002183  (-0.033275 -0.022542  0.023831)
 46:    888.88   0.003661   18.50  0.001285  ( 0.026433  0.006688 -0.023278)
 47:    934.22   0.012527   63.30  0.004184  (-0.010552  0.046145  0.044087)
 48:    944.07   0.004824   24.38  0.001594  ( 0.010042  0.015513  0.035397)
 49:    953.51   0.001603    8.10  0.000525  (-0.005506  0.005143 -0.021633)
 50:    965.02   0.003347   16.92  0.001082  (-0.012119 -0.028897  0.010024)
 51:   1008.54   0.001164    5.88  0.000360  (-0.013390  0.001095  0.013404)
 52:   1023.80   0.001322    6.68  0.000403  (-0.013560 -0.001385 -0.014732)
 53:   1059.51   0.002124   10.73  0.000626  (-0.012177 -0.021797 -0.001484)
 54:   1090.64   0.023680  119.67  0.006776  ( 0.013907 -0.047798 -0.065556)
 55:   1118.40   0.002589   13.08  0.000722  (-0.008783  0.020376  0.015169)
 56:   1134.45   0.002348   11.87  0.000646  ( 0.012546  0.005718  0.021351)
 57:   1143.40   0.024920  125.93  0.006801  (-0.024927 -0.024924  0.074556)
 58:   1149.99   0.008278   41.83  0.002246  ( 0.047387  0.000666  0.000584)
 59:   1167.58   0.020042  101.28  0.005357  (-0.067370 -0.011651 -0.026118)
 60:   1284.04   0.002334   11.80  0.000567  (-0.016198 -0.006663 -0.016140)
 61:   1304.04   0.009834   49.70  0.002353  ( 0.043439  0.007169  0.020371)
 62:   1358.93   0.179741  908.34  0.041275  ( 0.029612 -0.130473 -0.152890)
 63:   1366.54   0.011950   60.39  0.002729  (-0.024861 -0.029167 -0.035498)
 64:   1376.18   0.054022  273.01  0.012250  ( 0.109438 -0.005895  0.015450)
 65:   1385.17   0.017815   90.03  0.004014  (-0.039841 -0.018773  0.045539)
 66:   1421.35   0.021029  106.27  0.004617  (-0.039397 -0.030913  0.045926)
 67:   1460.35   0.000740    3.74  0.000158  ( 0.006065  0.006819  0.008656)
 68:   1471.28   0.004280   21.63  0.000908  (-0.027206 -0.001686 -0.012839)
 69:   1487.28   0.005980   30.22  0.001255  ( 0.022589 -0.008666  0.025873)
 70:   1488.51   0.013621   68.83  0.002856  (-0.052225  0.009237  0.006536)
 71:   1552.03   0.059307  299.72  0.011925  ( 0.009718 -0.062972 -0.088684)
 72:   1556.22   0.084342  426.23  0.016913  ( 0.090068  0.004893  0.093683)
 73:   1558.37   0.210650  1064.54  0.042183  ( 0.191194 -0.009450  0.074419)
 74:   1625.00   0.013380   67.62  0.002569  ( 0.014243 -0.033074 -0.035675)
 75:   1631.20   0.018798   95.00  0.003596  (-0.053760  0.023112 -0.013109)
 76:   1658.35   0.006014   30.39  0.001132  (-0.032443  0.002544 -0.008522)
 77:   2167.20   0.122601  619.58  0.017654  ( 0.012742 -0.094118 -0.092915)
 78:   2320.77   0.614488  3105.37  0.082627  (-0.011518  0.257978  0.126263)
 79:   3048.72   0.075305  380.56  0.007708  ( 0.048966  0.036880  0.062852)
 80:   3049.61   0.011319   57.20  0.001158  (-0.023407  0.003956 -0.024387)
 81:   3117.08   0.002474   12.50  0.000248  ( 0.002675 -0.004079 -0.014962)
 82:   3128.41   0.002443   12.34  0.000244  (-0.014304 -0.002475 -0.005738)
 83:   3241.35   0.001987   10.04  0.000191  (-0.004681  0.008420  0.009926)
 84:   3255.04   0.007524   38.02  0.000721  (-0.026115  0.001819 -0.005999)
 85:   3794.59   0.000090    0.46  0.000007  ( 0.001135  0.002395 -0.000636)
 86:   3814.63   0.005557   28.08  0.000455  ( 0.014047  0.011668  0.011007)

* The epsilon (eps) is given for a Dirac delta lineshape.
** The dipole moment derivative (T) already includes vibrational overlap.

The first frequency considered to be a vibration is 8
The total number of vibrations considered is 79


--------------------------
THERMOCHEMISTRY AT 298.15K
--------------------------

Temperature         ... 298.15 K
Pressure            ... 1.00 atm
Total Mass          ... 277.17 AMU

Throughout the following assumptions are being made:
  (1) The electronic state is orbitally nondegenerate
  (2) There are no thermally accessible electronically excited states
  (3) Hindered rotations indicated by low frequency modes are not
      treated as such but are treated as vibrations and this may
      cause some error
  (4) All equations used are the standard statistical mechanics
      equations for an ideal gas
  (5) All vibrations are strictly harmonic

freq.      18.37  E(vib)   ...       0.57 
freq.      30.51  E(vib)   ...       0.55 
freq.      39.35  E(vib)   ...       0.54 
freq.      41.88  E(vib)   ...       0.53 
freq.      48.05  E(vib)   ...       0.53 
freq.      52.22  E(vib)   ...       0.52 
freq.      72.36  E(vib)   ...       0.50 
freq.      78.80  E(vib)   ...       0.49 
freq.     111.98  E(vib)   ...       0.45 
freq.     129.06  E(vib)   ...       0.43 
freq.     144.63  E(vib)   ...       0.41 
freq.     151.09  E(vib)   ...       0.40 
freq.     161.60  E(vib)   ...       0.39 
freq.     203.76  E(vib)   ...       0.35 
freq.     226.65  E(vib)   ...       0.33 
freq.     238.06  E(vib)   ...       0.32 
freq.     295.41  E(vib)   ...       0.27 
freq.     314.06  E(vib)   ...       0.25 
freq.     321.91  E(vib)   ...       0.25 
freq.     343.83  E(vib)   ...       0.23 
freq.     365.22  E(vib)   ...       0.22 
freq.     370.78  E(vib)   ...       0.21 
freq.     416.45  E(vib)   ...       0.18 
freq.     446.12  E(vib)   ...       0.17 
freq.     483.54  E(vib)   ...       0.15 
freq.     527.64  E(vib)   ...       0.13 
freq.     542.44  E(vib)   ...       0.12 
freq.     564.08  E(vib)   ...       0.11 
freq.     599.13  E(vib)   ...       0.10 
freq.     624.73  E(vib)   ...       0.09 
freq.     668.44  E(vib)   ...       0.08 
freq.     711.89  E(vib)   ...       0.07 
freq.     732.13  E(vib)   ...       0.06 
freq.     750.34  E(vib)   ...       0.06 
freq.     765.46  E(vib)   ...       0.06 
freq.     795.79  E(vib)   ...       0.05 
freq.     816.52  E(vib)   ...       0.05 
freq.     868.21  E(vib)   ...       0.04 
freq.     888.88  E(vib)   ...       0.04 
freq.     934.22  E(vib)   ...       0.03 
freq.     944.07  E(vib)   ...       0.03 
freq.     953.51  E(vib)   ...       0.03 
freq.     965.02  E(vib)   ...       0.03 
freq.    1008.54  E(vib)   ...       0.02 
freq.    1023.80  E(vib)   ...       0.02 
freq.    1059.51  E(vib)   ...       0.02 
freq.    1090.64  E(vib)   ...       0.02 
freq.    1118.40  E(vib)   ...       0.01 
freq.    1134.45  E(vib)   ...       0.01 
freq.    1143.40  E(vib)   ...       0.01 
freq.    1149.99  E(vib)   ...       0.01 
freq.    1167.58  E(vib)   ...       0.01 
freq.    1284.04  E(vib)   ...       0.01 
freq.    1304.04  E(vib)   ...       0.01 
freq.    1358.93  E(vib)   ...       0.01 
freq.    1366.54  E(vib)   ...       0.01 
freq.    1376.18  E(vib)   ...       0.01 
freq.    1385.17  E(vib)   ...       0.00 
freq.    1421.35  E(vib)   ...       0.00 
freq.    1460.35  E(vib)   ...       0.00 
freq.    1471.28  E(vib)   ...       0.00 
freq.    1487.28  E(vib)   ...       0.00 
freq.    1488.51  E(vib)   ...       0.00 
freq.    1552.03  E(vib)   ...       0.00 
freq.    1556.22  E(vib)   ...       0.00 
freq.    1558.37  E(vib)   ...       0.00 
freq.    1625.00  E(vib)   ...       0.00 
freq.    1631.20  E(vib)   ...       0.00 
freq.    1658.35  E(vib)   ...       0.00 
freq.    2167.20  E(vib)   ...       0.00 
freq.    2320.77  E(vib)   ...       0.00 
freq.    3048.72  E(vib)   ...       0.00 
freq.    3049.61  E(vib)   ...       0.00 
freq.    3117.08  E(vib)   ...       0.00 
freq.    3128.41  E(vib)   ...       0.00 
freq.    3241.35  E(vib)   ...       0.00 
freq.    3255.04  E(vib)   ...       0.00 
freq.    3794.59  E(vib)   ...       0.00 
freq.    3814.63  E(vib)   ...       0.00 

------------
INNER ENERGY
------------

The inner energy is: U= E(el) + E(ZPE) + E(vib) + E(rot) + E(trans)
    E(el)   - is the total energy from the electronic structure calculation
              = E(kin-el) + E(nuc-el) + E(el-el) + E(nuc-nuc)
    E(ZPE)  - the the zero temperature vibrational energy from the frequency calculation
    E(vib)  - the the finite temperature correction to E(ZPE) due to population
              of excited vibrational states
    E(rot)  - is the rotational thermal energy
    E(trans)- is the translational thermal energy

Summary of contributions to the inner energy U:
Electronic energy                ...  -1076.75398601 Eh
Zero point energy                ...      0.19268008 Eh     120.91 kcal/mol
Thermal vibrational correction   ...      0.01687285 Eh      10.59 kcal/mol
Thermal rotational correction    ...      0.00141627 Eh       0.89 kcal/mol
Thermal translational correction ...      0.00141627 Eh       0.89 kcal/mol
-----------------------------------------------------------------------
Total thermal energy                  -1076.54160053 Eh


Summary of corrections to the electronic energy:
(perhaps to be used in another calculation)
Total thermal correction                  0.01970540 Eh      12.37 kcal/mol
Non-thermal (ZPE) correction              0.19268008 Eh     120.91 kcal/mol
-----------------------------------------------------------------------
Total correction                          0.21238548 Eh     133.27 kcal/mol


--------
ENTHALPY
--------

The enthalpy is H = U + kB*T
                kB is Boltzmann's constant
Total free energy                 ...  -1076.54160053 Eh 
Thermal Enthalpy correction       ...      0.00094421 Eh       0.59 kcal/mol
-----------------------------------------------------------------------
Total Enthalpy                    ...  -1076.54065632 Eh


Note: Only C1 symmetry has been detected, increase convergence thresholds 
      if your molecule has a higher symmetry. Symmetry factor of 1.0 is   
      used for the rotational entropy correction. 
 

Note: Rotational entropy computed according to Herzberg 
Infrared and Raman Spectra, Chapter V,1, Van Nostrand Reinhold, 1945 
Point Group:  C1, Symmetry Number:   1  
Rotational constants in cm-1:     0.012245     0.008951     0.005605 

Vibrational entropy computed according to the QRRHO of S. Grimme
Chem.Eur.J. 2012 18 9955


-------
ENTROPY
-------

The entropy contributions are T*S = T*(S(el)+S(vib)+S(rot)+S(trans))
     S(el)   - electronic entropy
     S(vib)  - vibrational entropy
     S(rot)  - rotational entropy
     S(trans)- translational entropy
The entropies will be listed as multiplied by the temperature to get
units of energy

Electronic entropy                ...      0.00000000 Eh      0.00 kcal/mol
Vibrational entropy               ...      0.03111992 Eh     19.53 kcal/mol
Rotational entropy                ...      0.01626298 Eh     10.21 kcal/mol
Translational entropy             ...      0.02031509 Eh     12.75 kcal/mol
-----------------------------------------------------------------------
Final entropy term                ...      0.06769798 Eh     42.48 kcal/mol

In case the symmetry of your molecule has not been determined correctly
or in case you have a reason to use a different symmetry number we print 
out the resulting rotational entropy values for sn=1,12 :
 --------------------------------------------------------
|  sn= 1 | S(rot)=       0.01626298 Eh     10.21 kcal/mol|
|  sn= 2 | S(rot)=       0.01560852 Eh      9.79 kcal/mol|
|  sn= 3 | S(rot)=       0.01522569 Eh      9.55 kcal/mol|
|  sn= 4 | S(rot)=       0.01495407 Eh      9.38 kcal/mol|
|  sn= 5 | S(rot)=       0.01474338 Eh      9.25 kcal/mol|
|  sn= 6 | S(rot)=       0.01457123 Eh      9.14 kcal/mol|
|  sn= 7 | S(rot)=       0.01442569 Eh      9.05 kcal/mol|
|  sn= 8 | S(rot)=       0.01429961 Eh      8.97 kcal/mol|
|  sn= 9 | S(rot)=       0.01418840 Eh      8.90 kcal/mol|
|  sn=10 | S(rot)=       0.01408892 Eh      8.84 kcal/mol|
|  sn=11 | S(rot)=       0.01399893 Eh      8.78 kcal/mol|
|  sn=12 | S(rot)=       0.01391678 Eh      8.73 kcal/mol|
 --------------------------------------------------------


-------------------
GIBBS FREE ENERGY
-------------------

The Gibbs free energy is G = H - T*S

Total enthalpy                    ...  -1076.54065632 Eh 
Total entropy correction          ...     -0.06769798 Eh    -42.48 kcal/mol
-----------------------------------------------------------------------
Final Gibbs free energy         ...  -1076.60835430 Eh

For completeness - the Gibbs free energy minus the electronic energy
G-E(el)                           ...      0.14563170 Eh     91.39 kcal/mol



Timings for individual modules:

Sum of individual times         ...     2690.177 sec (=  44.836 min)
GTO integral calculation        ...       11.097 sec (=   0.185 min)   0.4 %
SCF iterations                  ...      142.496 sec (=   2.375 min)   5.3 %
SCF Gradient evaluation         ...       27.812 sec (=   0.464 min)   1.0 %
Numerical frequency calculation ...     2508.773 sec (=  41.813 min)  93.3 %
                             ****ORCA TERMINATED NORMALLY****
TOTAL RUN TIME: 0 days 0 hours 43 minutes 23 seconds 375 msec
