
                                 *****************
                                 * O   R   C   A *
                                 *****************

                                            #,                                       
                                            ###                                      
                                            ####                                     
                                            #####                                    
                                            ######                                   
                                           ########,                                 
                                     ,,################,,,,,                         
                               ,,#################################,,                 
                          ,,##########################################,,             
                       ,#########################################, ''#####,          
                    ,#############################################,,   '####,        
                  ,##################################################,,,,####,       
                ,###########''''           ''''###############################       
              ,#####''   ,,,,##########,,,,          '''####'''          '####       
            ,##' ,,,,###########################,,,                        '##       
           ' ,,###''''                  '''############,,,                           
         ,,##''                                '''############,,,,        ,,,,,,###''
      ,#''                                            '''#######################'''  
     '                                                          ''''####''''         
             ,#######,   #######,   ,#######,      ##                                
            ,#'     '#,  ##    ##  ,#'     '#,    #''#        ######   ,####,        
            ##       ##  ##   ,#'  ##            #'  '#       #        #'  '#        
            ##       ##  #######   ##           ,######,      #####,   #    #        
            '#,     ,#'  ##    ##  '#,     ,#' ,#      #,         ##   #,  ,#        
             '#######'   ##     ##  '#######'  #'      '#     #####' # '####'        



                  #######################################################
                  #                        -***-                        #
                  #          Department of theory and spectroscopy      #
                  #    Directorship and core code : Frank Neese         #
                  #        Max Planck Institute fuer Kohlenforschung    #
                  #                Kaiser Wilhelm Platz 1               #
                  #                 D-45470 Muelheim/Ruhr               #
                  #                      Germany                        #
                  #                                                     #
                  #                  All rights reserved                #
                  #                        -***-                        #
                  #######################################################


                         Program Version 5.0.4 -  RELEASE  -


 With contributions from (in alphabetic order):
   Daniel Aravena         : Magnetic Suceptibility
   Michael Atanasov       : Ab Initio Ligand Field Theory (pilot matlab implementation)
   Alexander A. Auer      : GIAO ZORA, VPT2 properties, NMR spectrum
   Ute Becker             : Parallelization
   Giovanni Bistoni       : ED, misc. LED, open-shell LED, HFLD
   Martin Brehm           : Molecular dynamics
   Dmytro Bykov           : SCF Hessian
   Vijay G. Chilkuri      : MRCI spin determinant printing, contributions to CSF-ICE
   Dipayan Datta          : RHF DLPNO-CCSD density
   Achintya Kumar Dutta   : EOM-CC, STEOM-CC
   Dmitry Ganyushin       : Spin-Orbit,Spin-Spin,Magnetic field MRCI
   Miquel Garcia          : C-PCM and meta-GGA Hessian, CC/C-PCM, Gaussian charge scheme
   Yang Guo               : DLPNO-NEVPT2, F12-NEVPT2, CIM, IAO-localization
   Andreas Hansen         : Spin unrestricted coupled pair/coupled cluster methods
   Benjamin Helmich-Paris : MC-RPA, TRAH-SCF, COSX integrals
   Lee Huntington         : MR-EOM, pCC
   Robert Izsak           : Overlap fitted RIJCOSX, COSX-SCS-MP3, EOM
   Marcus Kettner         : VPT2
   Christian Kollmar      : KDIIS, OOCD, Brueckner-CCSD(T), CCSD density, CASPT2, CASPT2-K
   Simone Kossmann        : Meta GGA functionals, TD-DFT gradient, OOMP2, MP2 Hessian
   Martin Krupicka        : Initial AUTO-CI
   Lucas Lang             : DCDCAS
   Marvin Lechner         : AUTO-CI (C++ implementation), FIC-MRCC
   Dagmar Lenk            : GEPOL surface, SMD
   Dimitrios Liakos       : Extrapolation schemes; Compound Job, initial MDCI parallelization
   Dimitrios Manganas     : Further ROCIS development; embedding schemes
   Dimitrios Pantazis     : SARC Basis sets
   Anastasios Papadopoulos: AUTO-CI, single reference methods and gradients
   Taras Petrenko         : DFT Hessian,TD-DFT gradient, ASA, ECA, R-Raman, ABS, FL, XAS/XES, NRVS
   Peter Pinski           : DLPNO-MP2, DLPNO-MP2 Gradient
   Christoph Reimann      : Effective Core Potentials
   Marius Retegan         : Local ZFS, SOC
   Christoph Riplinger    : Optimizer, TS searches, QM/MM, DLPNO-CCSD(T), (RO)-DLPNO pert. Triples
   Tobias Risthaus        : Range-separated hybrids, TD-DFT gradient, RPA, STAB
   Michael Roemelt        : Original ROCIS implementation
   Masaaki Saitow         : Open-shell DLPNO-CCSD energy and density
   Barbara Sandhoefer     : DKH picture change effects
   Avijit Sen             : IP-ROCIS
   Kantharuban Sivalingam : CASSCF convergence, NEVPT2, FIC-MRCI
   Bernardo de Souza      : ESD, SOC TD-DFT
   Georgi Stoychev        : AutoAux, RI-MP2 NMR, DLPNO-MP2 response
   Willem Van den Heuvel  : Paramagnetic NMR
   Boris Wezisla          : Elementary symmetry handling
   Frank Wennmohs         : Technical directorship


 We gratefully acknowledge several colleagues who have allowed us to
 interface, adapt or use parts of their codes:
   Stefan Grimme, W. Hujo, H. Kruse, P. Pracht,  : VdW corrections, initial TS optimization,
                  C. Bannwarth, S. Ehlert          DFT functionals, gCP, sTDA/sTD-DF
   Ed Valeev, F. Pavosevic, A. Kumar             : LibInt (2-el integral package), F12 methods
   Garnet Chan, S. Sharma, J. Yang, R. Olivares  : DMRG
   Ulf Ekstrom                                   : XCFun DFT Library
   Mihaly Kallay                                 : mrcc  (arbitrary order and MRCC methods)
   Jiri Pittner, Ondrej Demel                    : Mk-CCSD
   Frank Weinhold                                : gennbo (NPA and NBO analysis)
   Christopher J. Cramer and Donald G. Truhlar   : smd solvation model
   Lars Goerigk                                  : TD-DFT with DH, B97 family of functionals
   V. Asgeirsson, H. Jonsson                     : NEB implementation
   FAccTs GmbH                                   : IRC, NEB, NEB-TS, DLPNO-Multilevel, CI-OPT
                                                   MM, QMMM, 2- and 3-layer-ONIOM, Crystal-QMMM,
                                                   LR-CPCM, SF, NACMEs, symmetry and pop. for TD-DFT,
                                                   nearIR, NL-DFT gradient (VV10), updates on ESD,
                                                   ML-optimized integration grids
   S Lehtola, MJT Oliveira, MAL Marques          : LibXC Library
   Liviu Ungur et al                             : ANISO software


 Your calculation uses the libint2 library for the computation of 2-el integrals
 For citations please refer to: http://libint.valeyev.net

 Your ORCA version has been built with support for libXC version: 5.1.0
 For citations please refer to: https://tddft.org/programs/libxc/

 This ORCA versions uses:
   CBLAS   interface :  Fast vector & matrix operations
   LAPACKE interface :  Fast linear algebra routines
   SCALAPACK package :  Parallel linear algebra routines
   Shared memory     :  Shared parallel matrices
   BLAS/LAPACK       :  OpenBLAS 0.3.15  USE64BITINT DYNAMIC_ARCH NO_AFFINITY Prescott SINGLE_THREADED
        Core in use  :  Prescott
   Copyright (c) 2011-2014, The OpenBLAS Project


Your calculation utilizes the atom-pairwise dispersion correction
with the Becke-Johnson damping scheme (D3BJ)
Cite in your paper:
S.Grimme, S.Ehrlich, L.Goerigk, J Comput Chem, (2011), 32, 1456–1465 
S.Grimme, J.Antony, S.Ehrlich and H.Krieg, J.Chem.Phys., 132, (2010), 154104 
   

================================================================================

----- Orbital basis set information -----
Your calculation utilizes the basis: def2-TZVP
   F. Weigend and R. Ahlrichs, Phys. Chem. Chem. Phys. 7, 3297 (2005).

----- AuxJ basis set information -----
Your calculation utilizes the auxiliary basis: def2/J
   F. Weigend, Phys. Chem. Chem. Phys. 8, 1057 (2006).

================================================================================
                                        WARNINGS
                       Please study these warnings very carefully!
================================================================================


WARNING: Geometry Optimization
  ===> : Switching off AutoStart
         For restart on a previous wavefunction, please use MOREAD

INFO   : the flag for use of the SHARK integral package has been found!

================================================================================
                                       INPUT FILE
================================================================================
NAME = /home/rudenko/mop_saddle_orca_4_serv/for_orca/CH3NO2_ch2clcoo_near_freez/orca/orca_end/end.inp
|  1> !  opt B3LYP def2-TZVP CPCM D3 
|  2> %pal nprocs 102 end
|  3> %cpcm epsilon 78.4 end 
|  4> *xyz -1 1 
|  5> C   0.50386005 -0.824864 0.69608122
|  6> H   1.05537301 -1.68769307 0.37046437
|  7> H   2.251026 0.47923159 0.3333236
|  8> H   0.51444158 -0.62939704 1.75236591
|  9> N   -0.20512456 -0.0936515 -0.13880216
| 10> O   -0.85817092 0.91458428 0.25463463
| 11> O   -0.24969895 -0.35058148 -1.37586016
| 12> C   5.99910852 0.32063898 -0.6063833
| 13> O   7.07716908 -0.02034138 -1.04047139
| 14> O   5.01180749 -0.57601212 -0.58689411
| 15> C   5.68597616 1.69080594 -0.07474958
| 16> Cl   5.82939698 1.58786992 1.68560676
| 17> H   4.65701456 2.03628898 -0.32000545
| 18> H   6.39555004 2.45963189 -0.43879567
| 19> H   2.9393566 -0.21343456 1.52736729
| 20> O   3.10239569 0.42106008 0.80473485
| 21> H   4.14422363 -0.23843602 -0.09274323
| 22> *
| 23> 
| 24>                          ****END OF INPUT****
================================================================================

                       *****************************
                       * Geometry Optimization Run *
                       *****************************

Geometry optimization settings:
Update method            Update   .... BFGS
Choice of coordinates    CoordSys .... Z-matrix Internals
Initial Hessian          InHess   .... Almoef's Model

Convergence Tolerances:
Energy Change            TolE     ....  5.0000e-06 Eh
Max. Gradient            TolMAXG  ....  3.0000e-04 Eh/bohr
RMS Gradient             TolRMSG  ....  1.0000e-04 Eh/bohr
Max. Displacement        TolMAXD  ....  4.0000e-03 bohr
RMS Displacement         TolRMSD  ....  2.0000e-03 bohr
Strict Convergence                ....  False
------------------------------------------------------------------------------
                        ORCA OPTIMIZATION COORDINATE SETUP
------------------------------------------------------------------------------

The optimization will be done in new redundant internal coordinates
Making redundant internal coordinates   ...  (new redundants) done
Evaluating the initial hessian          ...  (Almloef) done
Evaluating the coordinates              ...  done
Calculating the B-matrix                .... done
Calculating the G-matrix                .... done
Diagonalizing the G-matrix              .... done
Small eigenvalue found = 7.981e-03
Small eigenvalue found = 1.937e-02
The first mode is                       ....  135
The number of degrees of freedom        ....   45

    -----------------------------------------------------------------
                    Redundant Internal Coordinates


    -----------------------------------------------------------------
         Definition                    Initial Value    Approx d2E/dq
    -----------------------------------------------------------------
      1. B(H   1,C   0)                  1.0746         0.381124   
      2. B(H   2,C   0)                  2.2102         0.005878   
      3. B(H   2,H   1)                  2.4752         0.000425   
      4. B(H   3,C   0)                  1.0743         0.381521   
      5. B(H   3,H   2)                  2.5017         0.000386   
      6. B(N   4,C   0)                  1.3170         0.731846   
      7. B(N   4,H   2)                  2.5659         0.001425   
      8. B(O   5,N   4)                  1.2640         0.796106   
      9. B(O   6,N   4)                  1.2642         0.795515   
     10. B(O   8,C   7)                  1.2112         1.079442   
     11. B(O   9,C   7)                  1.3338         0.687823   
     12. B(C  10,C   7)                  1.5027         0.413016   
     13. B(Cl 11,C  10)                  1.7692         0.348151   
     14. B(H  12,C  10)                  1.1128         0.331196   
     15. B(H  13,C  10)                  1.1078         0.337364   
     16. B(H  14,H   3)                  2.4706         0.000432   
     17. B(H  14,H   1)                  2.6573         0.000218   
     18. B(H  14,C   0)                  2.6451         0.001190   
     19. B(O  15,H  14)                  0.9754         0.491396   
     20. B(O  15,H   2)                  0.9749         0.492248   
     21. B(H  16,O   9)                  1.0540         0.368171   
     22. B(H  16,O  15)                  1.5251         0.065230   
     23. A(N   4,C   0,H  14)          124.5123         0.163578   
     24. A(H   3,C   0,H  14)           68.8911         0.145122   
     25. A(H   1,C   0,N   4)          122.0079         0.364262   
     26. A(H   2,C   0,H   3)           92.6501         0.169572   
     27. A(H   1,C   0,H   3)          116.0400         0.296140   
     28. A(H   2,C   0,H  14)           35.6412         0.110825   
     29. A(H   3,C   0,N   4)          121.8444         0.364327   
     30. A(H   2,C   0,N   4)           89.6512         0.196070   
     31. A(H   1,C   0,H  14)           78.9459         0.145108   
     32. A(H   1,C   0,H   2)           91.0497         0.169553   
     33. A(C   0,H   1,H  14)           77.6711         0.119549   
     34. A(C   0,H   1,H   2)           63.2249         0.124544   
     35. A(H   2,H   1,H  14)           34.7499         0.094243   
     36. A(C   0,H   2,H   1)           25.7254         0.102826   
     37. A(H   1,H   2,O  15)          111.2447         0.126224   
     38. A(H   3,H   2,N   4)           48.7728         0.098699   
     39. A(H   1,H   2,N   4)           49.0728         0.098915   
     40. A(N   4,H   2,O  15)          155.7255         0.149502   
     41. A(C   0,H   2,N   4)           30.8802         0.111471   
     42. A(H   1,H   2,H   3)           42.9630         0.094967   
     43. A(C   0,H   2,H   3)           25.4015         0.102524   
     44. A(H   3,H   2,O  15)          107.7868         0.125412   
     45. A(C   0,H   2,O  15)          125.1535         0.173361   
     46. A(H   2,H   3,H  14)           36.1382         0.094990   
     47. A(C   0,H   3,H  14)           87.1774         0.124688   
     48. A(C   0,H   3,H   2)           61.9484         0.123777   
     49. A(O   5,N   4,O   6)          116.6440         0.462665   
     50. A(H   2,N   4,O   6)          105.0207         0.166595   
     51. A(H   2,N   4,O   5)          105.0215         0.166608   
     52. A(C   0,N   4,H   2)           59.4686         0.165788   
     53. A(C   0,N   4,O   6)          121.7667         0.458718   
     54. A(C   0,N   4,O   5)          121.5794         0.458780   
     55. A(O   8,C   7,O   9)          118.3484         0.482943   
     56. A(O   9,C   7,C  10)          116.9710         0.408585   
     57. A(O   8,C   7,C  10)          124.6797         0.442904   
     58. A(C   7,O   9,H  16)          113.6307         0.355170   
     59. A(H  12,C  10,H  13)          107.7218         0.284151   
     60. A(Cl 11,C  10,H  13)          108.3879         0.330365   
     61. A(C   7,C  10,H  13)          112.5252         0.326198   
     62. A(Cl 11,C  10,H  12)          108.1993         0.329359   
     63. A(C   7,C  10,H  12)          113.4409         0.325210   
     64. A(C   7,C  10,Cl 11)          106.3844         0.381147   
     65. A(H   1,H  14,O  15)           99.0246         0.120981   
     66. A(C   0,H  14,O  15)           94.0968         0.147738   
     67. A(H   1,H  14,H   3)           41.4415         0.094263   
     68. A(C   0,H  14,H   3)           23.9315         0.098667   
     69. A(H   3,H  14,O  15)          109.9414         0.126351   
     70. A(C   0,H  14,H   1)           23.3830         0.097277   
     71. A(H  14,O  15,H  16)          105.5975         0.232696   
     72. A(H   2,O  15,H  16)          109.7439         0.232753   
     73. A(H   2,O  15,H  14)          104.5419         0.316044   
     74. A(O   9,H  16,O  15)          167.6212         0.223607   
     75. D(H   2,H   1,C   0,H  14)    -33.7197         0.164132   
     76. D(H   2,H   1,C   0,N   4)     90.2448         0.164132   
     77. D(H  14,H   1,C   0,H   2)     33.7197         0.164132   
     78. D(H  14,H   1,C   0,N   4)    123.9645         0.164132   
     79. D(H   2,H   1,C   0,H   3)    -93.4640         0.164132   
     80. D(H  14,H   1,C   0,H   3)    -59.7443         0.164132   
     81. D(N   4,H   2,H   1,C   0)    -35.1725         0.001502   
     82. D(H   3,H   2,H   1,H  14)    -73.5167         0.001502   
     83. D(H   3,H   2,C   0,H   1)   -116.1288         0.001523   
     84. D(O  15,H   2,H   1,C   0)    128.0467         0.001502   
     85. D(H   3,H   2,H   1,C   0)     34.4083         0.001502   
     86. D(H   1,H   2,C   0,N   4)   -122.0071         0.001523   
     87. D(N   4,H   2,C   0,H   3)   -121.8642         0.001523   
     88. D(O  15,H   2,C   0,H  14)      5.3674         0.001523   
     89. D(H   1,H   2,C   0,H   3)    116.1288         0.001523   
     90. D(N   4,H   2,C   0,H  14)   -168.7649         0.001523   
     91. D(N   4,H   2,C   0,H   1)    122.0071         0.001523   
     92. D(C   0,H   2,H   1,H  14)   -107.9250         0.001502   
     93. D(O  15,H   2,H   1,H  14)     20.1217         0.001502   
     94. D(O  15,H   2,C   0,N   4)    174.1324         0.001523   
     95. D(H   3,H   2,C   0,H  14)    -46.9008         0.001523   
     96. D(N   4,H   2,H   1,H  14)   -143.0975         0.001502   
     97. D(O  15,H   2,C   0,H   3)     52.2682         0.001523   
     98. D(H   3,H   2,C   0,N   4)    121.8642         0.001523   
     99. D(H   1,H   2,C   0,H  14)     69.2280         0.001523   
    100. D(O  15,H   2,C   0,H   1)    -63.8606         0.001523   
    101. D(H  14,H   3,C   0,N   4)   -118.3707         0.164553   
    102. D(H   2,H   3,C   0,N   4)    -91.2362         0.164553   
    103. D(H   2,H   3,C   0,H  14)     27.1345         0.164553   
    104. D(H   2,H   3,C   0,H   1)     92.4660         0.164553   
    105. D(H  14,H   3,H   2,N   4)    164.8482         0.001502   
    106. D(H  14,H   3,H   2,H   1)     94.5513         0.001502   
    107. D(H  14,H   3,H   2,C   0)    129.4276         0.001502   
    108. D(H  14,H   3,H   2,O  15)     -7.7993         0.001502   
    109. D(C   0,H   3,H   2,N   4)     35.4207         0.001502   
    110. D(C   0,H   3,H   2,H   1)    -34.8762         0.001502   
    111. D(C   0,H   3,H   2,O  15)   -137.2268         0.001502   
    112. D(H  14,H   3,C   0,H   2)    -27.1345         0.164553   
    113. D(H  14,H   3,C   0,H   1)     65.3315         0.164553   
    114. D(O   6,N   4,H   2,H   3)   -147.3040         0.001502   
    115. D(O   6,N   4,H   2,H   1)    -89.1767         0.001502   
    116. D(O   6,N   4,H   2,O  15)   -130.0620         0.001502   
    117. D(O   5,N   4,H   2,H   3)     89.1404         0.001502   
    118. D(O   5,N   4,H   2,H   1)    147.2677         0.001502   
    119. D(O   5,N   4,H   2,O  15)    106.3824         0.001502   
    120. D(C   0,N   4,H   2,H   3)    -28.9729         0.001502   
    121. D(C   0,N   4,H   2,H   1)     29.1544         0.001502   
    122. D(O   6,N   4,C   0,H  14)     97.2716         0.055976   
    123. D(H   2,N   4,C   0,H   3)     92.9032         0.055976   
    124. D(H   2,N   4,C   0,H   1)    -91.0199         0.055976   
    125. D(C   0,N   4,H   2,O  15)    -11.7309         0.001502   
    126. D(O   6,N   4,C   0,H   2)     89.3522         0.055976   
    127. D(O   6,N   4,C   0,H   3)   -177.7446         0.055976   
    128. D(O   5,N   4,H   2,C   0)    118.1133         0.001502   
    129. D(H   2,N   4,C   0,H  14)      7.9194         0.055976   
    130. D(O   5,N   4,C   0,H   1)    179.5153         0.055976   
    131. D(O   5,N   4,C   0,H   2)    -89.4649         0.055976   
    132. D(O   6,N   4,H   2,C   0)   -118.3311         0.001502   
    133. D(O   5,N   4,C   0,H  14)    -81.5455         0.055976   
    134. D(O   6,N   4,C   0,H   1)     -1.6676         0.055976   
    135. D(O   5,N   4,C   0,H   3)      3.4383         0.055976   
    136. D(H  16,O   9,C   7,C  10)     -6.5030         0.035312   
    137. D(H  16,O   9,C   7,O   8)    173.1815         0.035312   
    138. D(H  13,C  10,C   7,O   9)   -159.6267         0.012627   
    139. D(H  13,C  10,C   7,O   8)     20.7109         0.012627   
    140. D(H  12,C  10,C   7,O   9)    -37.0112         0.012627   
    141. D(H  12,C  10,C   7,O   8)    143.3264         0.012627   
    142. D(Cl 11,C  10,C   7,O   9)     81.8253         0.012627   
    143. D(Cl 11,C  10,C   7,O   8)    -97.8371         0.012627   
    144. D(H   1,H  14,H   3,H   2)    -72.9649         0.001502   
    145. D(H   1,H  14,H   3,C   0)    -29.9244         0.001502   
    146. D(O  15,H  14,H   3,H   2)      7.8969         0.001502   
    147. D(O  15,H  14,H   3,C   0)     50.9374         0.001502   
    148. D(H   3,H  14,H   1,H   2)     91.0562         0.001501   
    149. D(H   3,H  14,H   1,C   0)     30.6557         0.001501   
    150. D(C   0,H  14,H   1,H   2)     60.4005         0.001501   
    151. D(O  15,H  14,H   1,H   2)    -18.9352         0.001501   
    152. D(O  15,H  14,H   1,C   0)    -79.3357         0.001501   
    153. D(H   3,H  14,C   0,H   2)    128.5693         0.001501   
    154. D(H   3,H  14,C   0,N   4)    114.8925         0.001501   
    155. D(H   3,H  14,C   0,H   1)   -123.7031         0.001501   
    156. D(H   1,H  14,C   0,H   2)   -107.7277         0.001501   
    157. D(H   1,H  14,C   0,N   4)   -121.4044         0.001501   
    158. D(H   1,H  14,C   0,H   3)    123.7031         0.001501   
    159. D(O  15,H  14,C   0,H   2)     -4.3955         0.001501   
    160. D(C   0,H  14,H   3,H   2)    -43.0405         0.001502   
    161. D(O  15,H  14,C   0,N   4)    -18.0722         0.001501   
    162. D(O  15,H  14,C   0,H   3)   -132.9647         0.001501   
    163. D(O  15,H  14,C   0,H   1)    103.3322         0.001501   
    164. D(H  16,O  15,H  14,H   1)    -86.7478         0.361793   
    165. D(H  16,O  15,H  14,C   0)   -109.7658         0.361793   
    166. D(H   2,O  15,H  14,H   3)    -12.4036         0.361793   
    167. D(H   2,O  15,H  14,H   1)     29.0218         0.361793   
    168. D(H   2,O  15,H  14,C   0)      6.0038         0.361793   
    169. D(H  16,O  15,H   2,N   4)    111.3929         0.392031   
    170. D(H  16,O  15,H   2,H   3)    124.9327         0.392031   
    171. D(H  16,O  15,H   2,H   1)     79.3471         0.392031   
    172. D(H  16,O  15,H   2,C   0)    104.0603         0.392031   
    173. D(H  14,O  15,H   2,N   4)     -1.4514         0.392031   
    174. D(H  14,O  15,H   2,H   3)     12.0883         0.392031   
    175. D(H  14,O  15,H   2,H   1)    -33.4973         0.392031   
    176. D(H  16,O  15,H  14,H   3)   -128.1733         0.361793   
    177. D(H  14,O  15,H   2,C   0)     -8.7840         0.392031   
    178. D(O   9,H  16,O  15,H  14)    -93.8804         0.004078   
    179. D(O   9,H  16,O  15,H   2)    153.9614         0.004078   
    180. D(O  15,H  16,O   9,C   7)    -31.2144         0.127304   
    -----------------------------------------------------------------

Number of atoms                         .... 17
Number of degrees of freedom            .... 180

         *************************************************************
         *                GEOMETRY OPTIMIZATION CYCLE   1            *
         *************************************************************
---------------------------------
CARTESIAN COORDINATES (ANGSTROEM)
---------------------------------
  C      0.503860   -0.824864    0.696081
  H      1.055373   -1.687693    0.370464
  H      2.251026    0.479232    0.333324
  H      0.514442   -0.629397    1.752366
  N     -0.205125   -0.093651   -0.138802
  O     -0.858171    0.914584    0.254635
  O     -0.249699   -0.350581   -1.375860
  C      5.999109    0.320639   -0.606383
  O      7.077169   -0.020341   -1.040471
  O      5.011807   -0.576012   -0.586894
  C      5.685976    1.690806   -0.074750
  Cl     5.829397    1.587870    1.685607
  H      4.657015    2.036289   -0.320005
  H      6.395550    2.459632   -0.438796
  H      2.939357   -0.213435    1.527367
  O      3.102396    0.421060    0.804735
  H      4.144224   -0.238436   -0.092743

----------------------------
CARTESIAN COORDINATES (A.U.)
----------------------------
  NO LB      ZA    FRAG     MASS         X           Y           Z
   0 C     6.0000    0    12.011    0.952158   -1.558767    1.315403
   1 H     1.0000    0     1.008    1.994366   -3.189278    0.700076
   2 H     1.0000    0     1.008    4.253823    0.905616    0.629890
   3 H     1.0000    0     1.008    0.972154   -1.189388    3.311492
   4 N     7.0000    0    14.007   -0.387629   -0.176976   -0.262298
   5 O     8.0000    0    15.999   -1.621708    1.728314    0.481190
   6 O     8.0000    0    15.999   -0.471863   -0.662503   -2.599999
   7 C     6.0000    0    12.011   11.336672    0.605920   -1.145898
   8 O     8.0000    0    15.999   13.373911   -0.038440   -1.966206
   9 O     8.0000    0    15.999    9.470944   -1.088505   -1.109069
  10 C     6.0000    0    12.011   10.744938    3.195160   -0.141256
  11 Cl   17.0000    0    35.453   11.015964    3.000639    3.185335
  12 H     1.0000    0     1.008    8.800482    3.848029   -0.604723
  13 H     1.0000    0     1.008   12.085838    4.648031   -0.829204
  14 H     1.0000    0     1.008    5.554579   -0.403333    2.886306
  15 O     8.0000    0    15.999    5.862678    0.795688    1.520728
  16 H     1.0000    0     1.008    7.831448   -0.450579   -0.175259

--------------------------------
INTERNAL COORDINATES (ANGSTROEM)
--------------------------------
 C      0   0   0     0.000000000000     0.00000000     0.00000000
 H      1   0   0     1.074554271356     0.00000000     0.00000000
 H      1   2   0     2.210169055879    91.04966686     0.00000000
 H      1   2   3     1.074270286081   116.03998526   266.53601780
 N      1   2   3     1.316951462877   122.00791477    90.24482186
 O      5   1   2     1.264041709797   121.57942951   179.51526062
 O      5   1   2     1.264243800155   121.76670043   358.33235425
 C      3   1   2     3.867340591490   141.42751617   352.66781136
 O      8   3   1     1.211162518745   164.00549806    25.39216955
 O      8   3   1     1.333838951110    46.10389940    10.26739638
 C      8   3   1     1.502678869684    71.01536059   194.98047694
 Cl    11   8   3     1.769186196985   106.38439832    85.63447566
 H     11   8   3     1.112776234007   113.44090133   326.79803892
 H     11   8   3     1.107753577388   112.52519336   204.18248468
 H      3   1   2     1.542506318911    87.75035356   290.77199322
 O      3   1   2     0.974906580270   125.15352387   296.13942314
 H     10   8   3     1.053966066640   113.63069125   348.49566319

---------------------------
INTERNAL COORDINATES (A.U.)
---------------------------
 C      0   0   0     0.000000000000     0.00000000     0.00000000
 H      1   0   0     2.030613288898     0.00000000     0.00000000
 H      1   2   0     4.176614225279    91.04966686     0.00000000
 H      1   2   3     2.030076634503   116.03998526   266.53601780
 N      1   2   3     2.488677596504   122.00791477    90.24482186
 O      5   1   2     2.388692653370   121.57942951   179.51526062
 O      5   1   2     2.389074548801   121.76670043   358.33235425
 C      3   1   2     7.308214584513   141.42751617   352.66781136
 O      8   3   1     2.288765464099   164.00549806    25.39216955
 O      8   3   1     2.520590324354    46.10389940    10.26739638
 C      8   3   1     2.839651530934    71.01536059   194.98047694
 Cl    11   8   3     3.343277392215   106.38439832    85.63447566
 H     11   8   3     2.102842330610   113.44090133   326.79803892
 H     11   8   3     2.093350885135   112.52519336   204.18248468
 H      3   1   2     2.914914502585    87.75035356   290.77199322
 O      3   1   2     1.842306442867   125.15352387   296.13942314
 H     10   8   3     1.991707220396   113.63069125   348.49566319

---------------------
BASIS SET INFORMATION
---------------------
There are 5 groups of distinct atoms

 Group   1 Type C   : 11s6p2d1f contracted to 5s3p2d1f pattern {62111/411/11/1}
 Group   2 Type H   : 5s1p contracted to 3s1p pattern {311/1}
 Group   3 Type N   : 11s6p2d1f contracted to 5s3p2d1f pattern {62111/411/11/1}
 Group   4 Type O   : 11s6p2d1f contracted to 5s3p2d1f pattern {62111/411/11/1}
 Group   5 Type Cl  : 14s9p3d1f contracted to 5s5p2d1f pattern {73211/51111/21/1}

Atom   0C    basis set group =>   1
Atom   1H    basis set group =>   2
Atom   2H    basis set group =>   2
Atom   3H    basis set group =>   2
Atom   4N    basis set group =>   3
Atom   5O    basis set group =>   4
Atom   6O    basis set group =>   4
Atom   7C    basis set group =>   1
Atom   8O    basis set group =>   4
Atom   9O    basis set group =>   4
Atom  10C    basis set group =>   1
Atom  11Cl   basis set group =>   5
Atom  12H    basis set group =>   2
Atom  13H    basis set group =>   2
Atom  14H    basis set group =>   2
Atom  15O    basis set group =>   4
Atom  16H    basis set group =>   2
---------------------------------
AUXILIARY/J BASIS SET INFORMATION
---------------------------------
There are 5 groups of distinct atoms

 Group   1 Type C   : 12s5p4d2f1g contracted to 6s4p3d1f1g pattern {711111/2111/211/2/1}
 Group   2 Type H   : 5s2p1d contracted to 3s1p1d pattern {311/2/1}
 Group   3 Type N   : 12s5p4d2f1g contracted to 6s4p3d1f1g pattern {711111/2111/211/2/1}
 Group   4 Type O   : 12s5p4d2f1g contracted to 6s4p3d1f1g pattern {711111/2111/211/2/1}
 Group   5 Type Cl  : 14s5p5d2f1g contracted to 8s4p3d1f1g pattern {71111111/2111/311/2/1}

Atom   0C    basis set group =>   1
Atom   1H    basis set group =>   2
Atom   2H    basis set group =>   2
Atom   3H    basis set group =>   2
Atom   4N    basis set group =>   3
Atom   5O    basis set group =>   4
Atom   6O    basis set group =>   4
Atom   7C    basis set group =>   1
Atom   8O    basis set group =>   4
Atom   9O    basis set group =>   4
Atom  10C    basis set group =>   1
Atom  11Cl   basis set group =>   5
Atom  12H    basis set group =>   2
Atom  13H    basis set group =>   2
Atom  14H    basis set group =>   2
Atom  15O    basis set group =>   4
Atom  16H    basis set group =>   2


           ************************************************************
           *        Program running with 102 parallel MPI-processes   *
           *              working on a common directory               *
           ************************************************************
------------------------------------------------------------------------------
                           ORCA GTO INTEGRAL CALCULATION
                           -- RI-GTO INTEGRALS CHOSEN --
------------------------------------------------------------------------------
------------------------------------------------------------------------------
                   ___                                                        
                  /   \      - P O W E R E D   B Y -                         
                 /     \                                                     
                 |  |  |   _    _      __       _____    __    __             
                 |  |  |  | |  | |    /  \     |  _  \  |  |  /  |          
                  \  \/   | |  | |   /    \    | | | |  |  | /  /          
                 / \  \   | |__| |  /  /\  \   | |_| |  |  |/  /          
                |  |  |   |  __  | /  /__\  \  |    /   |      \           
                |  |  |   | |  | | |   __   |  |    \   |  |\   \          
                \     /   | |  | | |  |  |  |  | |\  \  |  | \   \       
                 \___/    |_|  |_| |__|  |__|  |_| \__\ |__|  \__/        
                                                                              
                      - O R C A' S   B I G   F R I E N D -                    
                                      &                                       
                       - I N T E G R A L  F E E D E R -                       
                                                                              
 v1 FN, 2020, v2 2021                                                         
------------------------------------------------------------------------------


Reading SHARK input file /home/rudenko/mop_saddle_orca_4_serv/for_orca/CH3NO2_ch2clcoo_near_freez/orca/orca_end/end.SHARKINP.tmp ... ok
----------------------
SHARK INTEGRAL PACKAGE
----------------------

Number of atoms                             ...     17
Number of basis functions                   ...    358
Number of shells                            ...    140
Maximum angular momentum                    ...      3
Integral batch strategy                     ... SHARK/LIBINT Hybrid
RI-J (if used) integral strategy            ... SPLIT-RIJ (Revised 2003 algorithm where possible)
Printlevel                                  ...      1
Contraction scheme used                     ... SEGMENTED contraction
Coulomb Range Separation                    ... NOT USED
Exchange Range Separation                   ... NOT USED
Finite Nucleus Model                        ... NOT USED
Auxiliary Coulomb fitting basis             ... AVAILABLE
   # of basis functions in Aux-J            ...    569
   # of shells in Aux-J                     ...    187
   Maximum angular momentum in Aux-J        ...      4
Auxiliary J/K fitting basis                 ... NOT available
Auxiliary Correlation fitting basis         ... NOT available
Auxiliary 'external' fitting basis          ... NOT available
Integral threshold                          ...     2.500000e-11
Primitive cut-off                           ...     2.500000e-12
Primitive pair pre-selection threshold      ...     2.500000e-12

Calculating pre-screening integrals         ... done (  0.1 sec) Dimension = 140
Organizing shell pair data                  ... done (  0.2 sec)
Shell pair information
Total number of shell pairs                 ...      9870
Shell pairs after pre-screening             ...      7293
Total number of primitive shell pairs       ...     31380
Primitive shell pairs kept                  ...     16056
          la=0 lb=0:   1874 shell pairs
          la=1 lb=0:   2139 shell pairs
          la=1 lb=1:    636 shell pairs
          la=2 lb=0:    997 shell pairs
          la=2 lb=1:    584 shell pairs
          la=2 lb=2:    143 shell pairs
          la=3 lb=0:    487 shell pairs
          la=3 lb=1:    278 shell pairs
          la=3 lb=2:    123 shell pairs
          la=3 lb=3:     32 shell pairs

Calculating one electron integrals          ... done (  0.0 sec)
Calculating RI/J V-Matrix + Cholesky decomp.... done (  0.0 sec)
Calculating Nuclear repulsion               ... done (  0.0 sec) ENN=    597.188907138189 Eh

SHARK setup successfully completed in   0.7 seconds

Maximum memory used throughout the entire GTOINT-calculation: 22.0 MB


           ************************************************************
           *        Program running with 102 parallel MPI-processes   *
           *              working on a common directory               *
           ************************************************************
-------------------------------------------------------------------------------
                                 ORCA SCF
-------------------------------------------------------------------------------

------------
SCF SETTINGS
------------
Hamiltonian:
 Density Functional     Method          .... DFT(GTOs)
 Exchange Functional    Exchange        .... B88
   X-Alpha parameter    XAlpha          ....  0.666667
   Becke's b parameter  XBeta           ....  0.004200
 Correlation Functional Correlation     .... LYP
 LDA part of GGA corr.  LDAOpt          .... VWN-5
 Gradients option       PostSCFGGA      .... off
 Hybrid DFT is turned on
   Fraction HF Exchange ScalHFX         ....  0.200000
   Scaling of DF-GGA-X  ScalDFX         ....  0.720000
   Scaling of DF-GGA-C  ScalDFC         ....  0.810000
   Scaling of DF-LDA-C  ScalLDAC        ....  1.000000
   Perturbative correction              ....  0.000000
   Density functional embedding theory  .... OFF
   NL short-range parameter             ....  4.800000
 RI-approximation to the Coulomb term is turned on
   Number of AuxJ basis functions       .... 569
   RIJ-COSX (HFX calculated with COS-X)).... on


General Settings:
 Integral files         IntName         .... /home/rudenko/mop_saddle_orca_4_serv/for_orca/CH3NO2_ch2clcoo_near_freez/orca/orca_end/end
 Hartree-Fock type      HFTyp           .... RHF
 Total Charge           Charge          ....   -1
 Multiplicity           Mult            ....    1
 Number of Electrons    NEL             ....   90
 Basis Dimension        Dim             ....  358
 Nuclear Repulsion      ENuc            ....    597.1889071382 Eh

Convergence Acceleration:
 DIIS                   CNVDIIS         .... on
   Start iteration      DIISMaxIt       ....    12
   Startup error        DIISStart       ....  0.200000
   # of expansion vecs  DIISMaxEq       ....     5
   Bias factor          DIISBfac        ....   1.050
   Max. coefficient     DIISMaxC        ....  10.000
 Trust-Rad. Augm. Hess. CNVTRAH         .... auto
   Auto Start mean grad. ratio tolernc. ....  1.125000
   Auto Start start iteration           ....    20
   Auto Start num. interpolation iter.  ....    10
   Max. Number of Micro iterations      ....    16
   Max. Number of Macro iterations      .... Maxiter - #DIIS iter
   Number of Davidson start vectors     ....     2
   Converg. threshold I  (grad. norm)   ....   1.000e-05
   Converg. threshold II (energy diff.) ....   1.000e-08
   Grad. Scal. Fac. for Micro threshold ....   0.100
   Minimum threshold for Micro iter.    ....   0.010
   NR start threshold (gradient norm)   ....   0.001
   Initial trust radius                 ....   0.400
   Minimum AH scaling param. (alpha)    ....   1.000
   Maximum AH scaling param. (alpha)    .... 1000.000
   Orbital update algorithm             .... Taylor
   White noise on init. David. guess    .... on
   Maximum white noise                  ....   0.010
   Quad. conv. algorithm                .... NR
 SOSCF                  CNVSOSCF        .... on
   Start iteration      SOSCFMaxIt      ....   150
   Startup grad/error   SOSCFStart      ....  0.003300
 Level Shifting         CNVShift        .... on
   Level shift para.    LevelShift      ....    0.2500
   Turn off err/grad.   ShiftErr        ....    0.0010
 Zerner damping         CNVZerner       .... off
 Static damping         CNVDamp         .... on
   Fraction old density DampFac         ....    0.7000
   Max. Damping (<1)    DampMax         ....    0.9800
   Min. Damping (>=0)   DampMin         ....    0.0000
   Turn off err/grad.   DampErr         ....    0.1000
 Fernandez-Rico         CNVRico         .... off

SCF Procedure:
 Maximum # iterations   MaxIter         ....   125
 SCF integral mode      SCFMode         .... Direct
   Integral package                     .... SHARK and LIBINT hybrid scheme
 Reset frequency        DirectResetFreq ....    20
 Integral Threshold     Thresh          ....  2.500e-11 Eh
 Primitive CutOff       TCut            ....  2.500e-12 Eh

Convergence Tolerance:
 Convergence Check Mode ConvCheckMode   .... Total+1el-Energy
 Convergence forced     ConvForced      .... 0
 Energy Change          TolE            ....  1.000e-08 Eh
 1-El. energy change                    ....  1.000e-05 Eh
 Orbital Gradient       TolG            ....  1.000e-05
 Orbital Rotation angle TolX            ....  1.000e-05
 DIIS Error             TolErr          ....  5.000e-07


Diagonalization of the overlap matrix:
Smallest eigenvalue                        ... 3.894e-04
Time for diagonalization                   ...    0.053 sec
Threshold for overlap eigenvalues          ... 1.000e-08
Number of eigenvalues below threshold      ... 0
Time for construction of square roots      ...    0.071 sec
Total time needed                          ...    0.126 sec

Time for model grid setup =    0.137 sec

------------------------------
INITIAL GUESS: MODEL POTENTIAL
------------------------------
Loading Hartree-Fock densities                     ... done
Calculating cut-offs                               ... done
Initializing the effective Hamiltonian             ... done
Setting up the integral package (SHARK)            ... done
Starting the Coulomb interaction                   ... done (   0.0 sec)
Reading the grid                                   ... done
Mapping shells                                     ... done
Starting the XC term evaluation                    ... done (   0.0 sec)
  promolecular density results
     # of electrons  =     88.990883458
     EX              =    -92.540719388
     EC              =     -3.234073303
     EX+EC           =    -95.774792691
Transforming the Hamiltonian                       ... done (   0.1 sec)
Diagonalizing the Hamiltonian                      ... done (   0.1 sec)
Back transforming the eigenvectors                 ... done (   0.0 sec)
Now organizing SCF variables                       ... done
                      ------------------
                      INITIAL GUESS DONE (   0.4 sec)
                      ------------------
-------------------
DFT GRID GENERATION
-------------------

General Integration Accuracy     IntAcc      ... 4.388
Radial Grid Type                 RadialGrid  ... OptM3 with GC (2021)
Angular Grid (max. ang.)         AngularGrid ... 4 (Lebedev-302)
Angular grid pruning method      GridPruning ... 4 (adaptive)
Weight generation scheme         WeightScheme... Becke
Basis function cutoff            BFCut       ... 1.0000e-11
Integration weight cutoff        WCut        ... 1.0000e-14
Angular grids for H and He will be reduced by one unit
Partially contracted basis set               ... off
Rotationally invariant grid construction     ... off

Total number of grid points                  ...    84651
Total number of batches                      ...     1333
Average number of points per batch           ...       63
Average number of grid points per atom       ...     4979
Time for grid setup =    0.721 sec

--------------------
COSX GRID GENERATION
--------------------

GRIDX 1
-------
General Integration Accuracy     IntAcc      ... 3.816
Radial Grid Type                 RadialGrid  ... OptM3 with GC (2021)
Angular Grid (max. ang.)         AngularGrid ... 1 (Lebedev-50)
Angular grid pruning method      GridPruning ... 4 (adaptive)
Weight generation scheme         WeightScheme... Becke
Basis function cutoff            BFCut       ... 1.0000e-11
Integration weight cutoff        WCut        ... 1.0000e-14
Angular grids for H and He will be reduced by one unit
Partially contracted basis set               ... on
Rotationally invariant grid construction     ... off

Total number of grid points                  ...    10670
Total number of batches                      ...      178
Average number of points per batch           ...       59
Average number of grid points per atom       ...      628
UseSFitting                                  ... on

GRIDX 2
-------
General Integration Accuracy     IntAcc      ... 4.020
Radial Grid Type                 RadialGrid  ... OptM3 with GC (2021)
Angular Grid (max. ang.)         AngularGrid ... 2 (Lebedev-110)
Angular grid pruning method      GridPruning ... 4 (adaptive)
Weight generation scheme         WeightScheme... Becke
Basis function cutoff            BFCut       ... 1.0000e-11
Integration weight cutoff        WCut        ... 1.0000e-14
Angular grids for H and He will be reduced by one unit
Partially contracted basis set               ... on
Rotationally invariant grid construction     ... off

Total number of grid points                  ...    23780
Total number of batches                      ...      380
Average number of points per batch           ...       62
Average number of grid points per atom       ...     1399
UseSFitting                                  ... on

GRIDX 3
-------
General Integration Accuracy     IntAcc      ... 4.338
Radial Grid Type                 RadialGrid  ... OptM3 with GC (2021)
Angular Grid (max. ang.)         AngularGrid ... 3 (Lebedev-194)
Angular grid pruning method      GridPruning ... 4 (adaptive)
Weight generation scheme         WeightScheme... Becke
Basis function cutoff            BFCut       ... 1.0000e-11
Integration weight cutoff        WCut        ... 1.0000e-14
Angular grids for H and He will be reduced by one unit
Partially contracted basis set               ... on
Rotationally invariant grid construction     ... off

Total number of grid points                  ...    52910
Total number of batches                      ...      836
Average number of points per batch           ...       63
Average number of grid points per atom       ...     3112
UseSFitting                                  ... on

Time for X-Grid setup             =    0.857 sec


--------------------
CPCM SOLVATION MODEL
--------------------
CPCM parameters:
  Epsilon                                         ...      78.4000
  Refrac                                          ...       1.3300
  Rsolv                                           ...       1.3000
  Surface type                                    ... GAUSSIAN VDW
  Epsilon function type                           ...         CPCM
Radii:
 Radius for C  used is    3.8550 Bohr (=   2.0400 Ang.)
 Radius for H  used is    2.4944 Bohr (=   1.3200 Ang.)
 Radius for N  used is    3.5149 Bohr (=   1.8600 Ang.)
 Radius for O  used is    3.4469 Bohr (=   1.8240 Ang.)
 Radius for Cl used is    3.9684 Bohr (=   2.1000 Ang.)
Calculating surface                               ...        done! (  0.0s)
GEPOL surface points                              ...         1047
GEPOL Volume                                      ...    1287.5660
GEPOL Surface-area                                ...     773.1968
Calculating surface distance matrix               ...        done! (  0.0s)
Performing Cholesky decomposition & store         ...        done! (  0.3s)
Overall time for CPCM initialization              ...                 0.3s
--------------
SCF ITERATIONS
--------------
ITER       Energy         Delta-E        Max-DP      RMS-DP      [F,P]     Damp
               ***  Starting incremental Fock matrix formation  ***
  0  -1009.1471582916   0.000000000000 0.07869035  0.00119878  0.3081146 0.7000
  1  -1009.3644887412  -0.217330449602 0.07506890  0.00084881  0.1198976 0.7000
                               ***Turning on DIIS***
  2  -1009.4375538358  -0.073065094620 0.09315240  0.00123090  0.0400500 0.0000
  3  -1009.5683293398  -0.130775503980 0.06576154  0.00061266  0.0652558 0.0000
  4  -1009.5906378702  -0.022308530410 0.02269179  0.00021695  0.0185653 0.0000
                      *** Initiating the SOSCF procedure ***
                           *** Shutting down DIIS ***
                      *** Re-Reading the Fockian *** 
                      *** Removing any level shift *** 
ITER      Energy       Delta-E        Grad      Rot      Max-DP    RMS-DP
  5  -1009.59223910  -0.0016012280  0.000639  0.000639  0.008649  0.000074
               *** Restarting incremental Fock matrix formation ***
  6  -1009.59225533  -0.0000162342  0.000418  0.001418  0.003574  0.000041
  7  -1009.59224524   0.0000100948  0.001025  0.001247  0.001062  0.000015
  8  -1009.59226431  -0.0000190766  0.000111  0.000288  0.000682  0.000007
  9  -1009.59226373   0.0000005847  0.000171  0.000174  0.000333  0.000004
 10  -1009.59226467  -0.0000009421  0.000014  0.000028  0.000063  0.000001
 11  -1009.59226466   0.0000000108  0.000021  0.000017  0.000029  0.000000
                  ***Gradient check signals convergence***
              ***Rediagonalizing the Fockian in SOSCF/NRSCF***

               *****************************************************
               *                     SUCCESS                       *
               *           SCF CONVERGED AFTER  12 CYCLES          *
               *****************************************************

Old exchange energy                            =    -18.692356412 Eh
New exchange energy                            =    -18.692378044 Eh
Exchange energy change after final integration =     -0.000021633 Eh
Total energy after final integration           =  -1009.592286306 Eh
Final COS-X integration done in                =     0.868 sec

----------------
TOTAL SCF ENERGY
----------------

Total Energy       :        -1009.59228631 Eh          -27472.40278 eV

Components:
Nuclear Repulsion  :          597.18890714 Eh           16250.33631 eV
Electronic Energy  :        -1606.78119344 Eh          -43722.73909 eV
One Electron Energy:        -2587.81062595 Eh          -70417.90711 eV
Two Electron Energy:          981.02943250 Eh           26695.16801 eV
Max COSX asymmetry :            0.00000129 Eh               0.00004 eV
CPCM Dielectric    :           -0.11009439 Eh              -2.99582 eV

Virial components:
Potential Energy   :        -2016.60770514 Eh          -54874.68543 eV
Kinetic Energy     :         1007.01541884 Eh           27402.28265 eV
Virial Ratio       :            2.00255892


DFT components:
N(Alpha)           :       44.999985424805 electrons
N(Beta)            :       44.999985424805 electrons
N(Total)           :       89.999970849609 electrons
E(X)               :      -74.433334763539 Eh       
E(C)               :       -3.840897204597 Eh       
E(XC)              :      -78.274231968136 Eh       
DFET-embed. en.    :        0.000000000000 Eh       
CPCM Solvation Model Properties:
Surface-charge          :            0.97553355
Charge-correction       :           -0.00274531 Eh              -0.07470 eV
Free-energy (cav+disp)  :  This term is not implemented in the current solvation scheme

---------------
SCF CONVERGENCE
---------------

  Last Energy change         ...   -1.2952e-08  Tolerance :   1.0000e-08
  Last MAX-Density change    ...    6.2172e-15  Tolerance :   1.0000e-07
  Last RMS-Density change    ...    3.0261e-17  Tolerance :   5.0000e-09
  Last Orbital Gradient      ...    2.4360e-06  Tolerance :   1.0000e-05
  Last Orbital Rotation      ...    5.5544e-06  Tolerance :   1.0000e-05

             **** THE GBW FILE WAS UPDATED (/home/rudenko/mop_saddle_orca_4_serv/for_orca/CH3NO2_ch2clcoo_near_freez/orca/orca_end/end.gbw) ****
             **** DENSITY /home/rudenko/mop_saddle_orca_4_serv/for_orca/CH3NO2_ch2clcoo_near_freez/orca/orca_end/end.scfp WAS UPDATED ****
             **** ENERGY FILE WAS UPDATED (/home/rudenko/mop_saddle_orca_4_serv/for_orca/CH3NO2_ch2clcoo_near_freez/orca/orca_end/end.en.tmp) ****
             **** THE GBW FILE WAS UPDATED (/home/rudenko/mop_saddle_orca_4_serv/for_orca/CH3NO2_ch2clcoo_near_freez/orca/orca_end/end.gbw) ****
             **** DENSITY /home/rudenko/mop_saddle_orca_4_serv/for_orca/CH3NO2_ch2clcoo_near_freez/orca/orca_end/end.scfp WAS UPDATED ****
----------------
ORBITAL ENERGIES
----------------

  NO   OCC          E(Eh)            E(eV) 
   0   2.0000    -101.522470     -2762.5669 
   1   2.0000     -19.150093      -521.1005 
   2   2.0000     -19.149161      -521.0752 
   3   2.0000     -19.113590      -520.1072 
   4   2.0000     -19.073699      -519.0217 
   5   2.0000     -19.073506      -519.0165 
   6   2.0000     -14.476982      -393.9387 
   7   2.0000     -10.307628      -280.4848 
   8   2.0000     -10.237963      -278.5891 
   9   2.0000     -10.154978      -276.3310 
  10   2.0000      -9.455115      -257.2868 
  11   2.0000      -7.216798      -196.3791 
  12   2.0000      -7.208043      -196.1408 
  13   2.0000      -7.207721      -196.1321 
  14   2.0000      -1.145118       -31.1602 
  15   2.0000      -1.094624       -29.7862 
  16   2.0000      -1.036025       -28.1917 
  17   2.0000      -1.005093       -27.3500 
  18   2.0000      -0.957677       -26.0597 
  19   2.0000      -0.870831       -23.6965 
  20   2.0000      -0.785024       -21.3616 
  21   2.0000      -0.709070       -19.2948 
  22   2.0000      -0.601204       -16.3596 
  23   2.0000      -0.558361       -15.1938 
  24   2.0000      -0.546814       -14.8796 
  25   2.0000      -0.529564       -14.4102 
  26   2.0000      -0.486044       -13.2259 
  27   2.0000      -0.482321       -13.1246 
  28   2.0000      -0.472234       -12.8501 
  29   2.0000      -0.469847       -12.7852 
  30   2.0000      -0.467054       -12.7092 
  31   2.0000      -0.448188       -12.1958 
  32   2.0000      -0.413930       -11.2636 
  33   2.0000      -0.404287       -11.0012 
  34   2.0000      -0.386781       -10.5249 
  35   2.0000      -0.380683       -10.3589 
  36   2.0000      -0.341139        -9.2829 
  37   2.0000      -0.320036        -8.7086 
  38   2.0000      -0.316227        -8.6050 
  39   2.0000      -0.302251        -8.2247 
  40   2.0000      -0.281202        -7.6519 
  41   2.0000      -0.271506        -7.3881 
  42   2.0000      -0.255520        -6.9530 
  43   2.0000      -0.226118        -6.1530 
  44   2.0000      -0.195736        -5.3262 
  45   0.0000      -0.025290        -0.6882 
  46   0.0000       0.005589         0.1521 
  47   0.0000       0.035902         0.9769 
  48   0.0000       0.052006         1.4151 
  49   0.0000       0.089387         2.4324 
  50   0.0000       0.094105         2.5607 
  51   0.0000       0.104088         2.8324 
  52   0.0000       0.112370         3.0577 
  53   0.0000       0.127486         3.4691 
  54   0.0000       0.131222         3.5707 
  55   0.0000       0.143991         3.9182 
  56   0.0000       0.167612         4.5610 
  57   0.0000       0.186923         5.0864 
  58   0.0000       0.195693         5.3251 
  59   0.0000       0.215801         5.8722 
  60   0.0000       0.229932         6.2568 
  61   0.0000       0.247266         6.7284 
  62   0.0000       0.251048         6.8314 
  63   0.0000       0.257891         7.0176 
  64   0.0000       0.266406         7.2493 
  65   0.0000       0.288797         7.8586 
  66   0.0000       0.296309         8.0630 
  67   0.0000       0.303944         8.2707 
  68   0.0000       0.322566         8.7775 
  69   0.0000       0.327885         8.9222 
  70   0.0000       0.333357         9.0711 
  71   0.0000       0.345331         9.3969 
  72   0.0000       0.359465         9.7816 
  73   0.0000       0.371835        10.1181 
  74   0.0000       0.378280        10.2935 
  75   0.0000       0.388278        10.5656 
  76   0.0000       0.395577        10.7642 
  77   0.0000       0.416034        11.3209 
  78   0.0000       0.417575        11.3628 
  79   0.0000       0.422759        11.5039 
  80   0.0000       0.431931        11.7534 
  81   0.0000       0.440191        11.9782 
  82   0.0000       0.455724        12.4009 
  83   0.0000       0.457280        12.4432 
  84   0.0000       0.462785        12.5930 
  85   0.0000       0.477850        13.0030 
  86   0.0000       0.485453        13.2098 
  87   0.0000       0.499421        13.5899 
  88   0.0000       0.502616        13.6769 
  89   0.0000       0.509202        13.8561 
  90   0.0000       0.523311        14.2400 
  91   0.0000       0.528504        14.3813 
  92   0.0000       0.532195        14.4818 
  93   0.0000       0.539878        14.6908 
  94   0.0000       0.561782        15.2869 
  95   0.0000       0.574618        15.6361 
  96   0.0000       0.584025        15.8921 
  97   0.0000       0.598763        16.2932 
  98   0.0000       0.612532        16.6679 
  99   0.0000       0.626351        17.0439 
 100   0.0000       0.639623        17.4050 
 101   0.0000       0.649013        17.6605 
 102   0.0000       0.662176        18.0187 
 103   0.0000       0.693034        18.8584 
 104   0.0000       0.711386        19.3578 
 105   0.0000       0.725562        19.7435 
 106   0.0000       0.732688        19.9375 
 107   0.0000       0.761410        20.7190 
 108   0.0000       0.773997        21.0615 
 109   0.0000       0.792512        21.5653 
 110   0.0000       0.815948        22.2031 
 111   0.0000       0.832270        22.6472 
 112   0.0000       0.872306        23.7367 
 113   0.0000       0.878059        23.8932 
 114   0.0000       0.888743        24.1839 
 115   0.0000       0.896974        24.4079 
 116   0.0000       0.941350        25.6154 
 117   0.0000       0.980189        26.6723 
 118   0.0000       0.991628        26.9836 
 119   0.0000       1.008268        27.4364 
 120   0.0000       1.032179        28.0870 
 121   0.0000       1.047898        28.5147 
 122   0.0000       1.077745        29.3269 
 123   0.0000       1.086360        29.5613 
 124   0.0000       1.106844        30.1188 
 125   0.0000       1.117268        30.4024 
 126   0.0000       1.136540        30.9268 
 127   0.0000       1.174409        31.9573 
 128   0.0000       1.204958        32.7886 
 129   0.0000       1.282316        34.8936 
 130   0.0000       1.298191        35.3256 
 131   0.0000       1.306624        35.5550 
 132   0.0000       1.349877        36.7320 
 133   0.0000       1.371103        37.3096 
 134   0.0000       1.381033        37.5798 
 135   0.0000       1.413805        38.4716 
 136   0.0000       1.427099        38.8333 
 137   0.0000       1.436432        39.0873 
 138   0.0000       1.452371        39.5210 
 139   0.0000       1.469462        39.9861 
 140   0.0000       1.520929        41.3866 
 141   0.0000       1.531740        41.6808 
 142   0.0000       1.551523        42.2191 
 143   0.0000       1.559871        42.4462 
 144   0.0000       1.585874        43.1538 
 145   0.0000       1.598070        43.4857 
 146   0.0000       1.604720        43.6666 
 147   0.0000       1.634544        44.4782 
 148   0.0000       1.648766        44.8652 
 149   0.0000       1.656089        45.0645 
 150   0.0000       1.665155        45.3112 
 151   0.0000       1.696844        46.1735 
 152   0.0000       1.722225        46.8641 
 153   0.0000       1.738973        47.3199 
 154   0.0000       1.741568        47.3905 
 155   0.0000       1.774539        48.2877 
 156   0.0000       1.781664        48.4815 
 157   0.0000       1.801183        49.0127 
 158   0.0000       1.808421        49.2096 
 159   0.0000       1.811504        49.2935 
 160   0.0000       1.823630        49.6235 
 161   0.0000       1.831645        49.8416 
 162   0.0000       1.844362        50.1876 
 163   0.0000       1.864370        50.7321 
 164   0.0000       1.880794        51.1790 
 165   0.0000       1.886653        51.3384 
 166   0.0000       1.899459        51.6869 
 167   0.0000       1.900555        51.7167 
 168   0.0000       1.933708        52.6189 
 169   0.0000       1.964506        53.4569 
 170   0.0000       1.979034        53.8522 
 171   0.0000       1.986551        54.0568 
 172   0.0000       2.008333        54.6495 
 173   0.0000       2.021957        55.0202 
 174   0.0000       2.042223        55.5717 
 175   0.0000       2.045511        55.6612 
 176   0.0000       2.050916        55.8083 
 177   0.0000       2.072273        56.3894 
 178   0.0000       2.080995        56.6268 
 179   0.0000       2.097893        57.0866 
 180   0.0000       2.124315        57.8056 
 181   0.0000       2.128945        57.9315 
 182   0.0000       2.150368        58.5145 
 183   0.0000       2.177468        59.2519 
 184   0.0000       2.203356        59.9564 
 185   0.0000       2.213040        60.2199 
 186   0.0000       2.230593        60.6975 
 187   0.0000       2.239266        60.9335 
 188   0.0000       2.242444        61.0200 
 189   0.0000       2.255929        61.3870 
 190   0.0000       2.268516        61.7295 
 191   0.0000       2.292986        62.3953 
 192   0.0000       2.303805        62.6897 
 193   0.0000       2.308790        62.8254 
 194   0.0000       2.329840        63.3982 
 195   0.0000       2.354681        64.0741 
 196   0.0000       2.373169        64.5772 
 197   0.0000       2.381281        64.7980 
 198   0.0000       2.401766        65.3554 
 199   0.0000       2.434768        66.2534 
 200   0.0000       2.449093        66.6432 
 201   0.0000       2.480844        67.5072 
 202   0.0000       2.502763        68.1037 
 203   0.0000       2.534984        68.9804 
 204   0.0000       2.542154        69.1755 
 205   0.0000       2.593489        70.5724 
 206   0.0000       2.607439        70.9520 
 207   0.0000       2.637599        71.7727 
 208   0.0000       2.644246        71.9536 
 209   0.0000       2.662367        72.4467 
 210   0.0000       2.670391        72.6650 
 211   0.0000       2.679417        72.9106 
 212   0.0000       2.698532        73.4308 
 213   0.0000       2.725990        74.1780 
 214   0.0000       2.747205        74.7552 
 215   0.0000       2.771039        75.4038 
 216   0.0000       2.790910        75.9445 
 217   0.0000       2.808821        76.4319 
 218   0.0000       2.822626        76.8076 
 219   0.0000       2.853197        77.6394 
 220   0.0000       2.873491        78.1917 
 221   0.0000       2.908100        79.1334 
 222   0.0000       2.912974        79.2660 
 223   0.0000       2.926970        79.6469 
 224   0.0000       2.947983        80.2187 
 225   0.0000       2.977145        81.0122 
 226   0.0000       2.987290        81.2883 
 227   0.0000       3.001817        81.6836 
 228   0.0000       3.022192        82.2380 
 229   0.0000       3.038989        82.6951 
 230   0.0000       3.050029        82.9955 
 231   0.0000       3.056940        83.1836 
 232   0.0000       3.096375        84.2567 
 233   0.0000       3.120598        84.9158 
 234   0.0000       3.152207        85.7759 
 235   0.0000       3.166968        86.1776 
 236   0.0000       3.170800        86.2818 
 237   0.0000       3.197420        87.0062 
 238   0.0000       3.230232        87.8991 
 239   0.0000       3.259842        88.7048 
 240   0.0000       3.309522        90.0567 
 241   0.0000       3.315600        90.2221 
 242   0.0000       3.336518        90.7913 
 243   0.0000       3.340850        90.9091 
 244   0.0000       3.354372        91.2771 
 245   0.0000       3.365777        91.5875 
 246   0.0000       3.403548        92.6153 
 247   0.0000       3.426657        93.2441 
 248   0.0000       3.501586        95.2830 
 249   0.0000       3.549290        96.5811 
 250   0.0000       3.577918        97.3601 
 251   0.0000       3.598414        97.9178 
 252   0.0000       3.618583        98.4667 
 253   0.0000       3.690909       100.4347 
 254   0.0000       3.739230       101.7496 
 255   0.0000       3.767109       102.5082 
 256   0.0000       3.791239       103.1649 
 257   0.0000       3.809527       103.6625 
 258   0.0000       3.862628       105.1074 
 259   0.0000       3.896269       106.0229 
 260   0.0000       3.921444       106.7079 
 261   0.0000       3.996879       108.7606 
 262   0.0000       4.009487       109.1037 
 263   0.0000       4.091319       111.3304 
 264   0.0000       4.110680       111.8573 
 265   0.0000       4.125329       112.2559 
 266   0.0000       4.134021       112.4924 
 267   0.0000       4.146465       112.8310 
 268   0.0000       4.213781       114.6628 
 269   0.0000       4.315197       117.4225 
 270   0.0000       4.334824       117.9565 
 271   0.0000       4.444233       120.9337 
 272   0.0000       4.498987       122.4237 
 273   0.0000       4.566878       124.2711 
 274   0.0000       4.639551       126.2486 
 275   0.0000       4.673791       127.1803 
 276   0.0000       4.740645       128.9995 
 277   0.0000       4.746146       129.1492 
 278   0.0000       4.754270       129.3703 
 279   0.0000       4.799612       130.6041 
 280   0.0000       4.952108       134.7537 
 281   0.0000       4.985323       135.6575 
 282   0.0000       5.095604       138.6584 
 283   0.0000       5.152803       140.2149 
 284   0.0000       5.180444       140.9671 
 285   0.0000       5.192461       141.2940 
 286   0.0000       5.194120       141.3392 
 287   0.0000       5.197983       141.4443 
 288   0.0000       5.203503       141.5945 
 289   0.0000       5.206793       141.6840 
 290   0.0000       5.259577       143.1204 
 291   0.0000       5.290396       143.9590 
 292   0.0000       5.296802       144.1333 
 293   0.0000       5.300170       144.2250 
 294   0.0000       5.310735       144.5124 
 295   0.0000       5.388606       146.6314 
 296   0.0000       5.420033       147.4866 
 297   0.0000       5.426892       147.6732 
 298   0.0000       5.439100       148.0054 
 299   0.0000       5.451865       148.3528 
 300   0.0000       5.564367       151.4141 
 301   0.0000       5.601792       152.4325 
 302   0.0000       5.621756       152.9758 
 303   0.0000       5.714678       155.5043 
 304   0.0000       5.741977       156.2471 
 305   0.0000       5.762619       156.8088 
 306   0.0000       5.868359       159.6862 
 307   0.0000       5.934768       161.4932 
 308   0.0000       5.963884       162.2855 
 309   0.0000       6.002965       163.3490 
 310   0.0000       6.132753       166.8807 
 311   0.0000       6.160882       167.6461 
 312   0.0000       6.237024       169.7181 
 313   0.0000       6.254194       170.1853 
 314   0.0000       6.297763       171.3709 
 315   0.0000       6.314775       171.8338 
 316   0.0000       6.337052       172.4399 
 317   0.0000       6.351210       172.8252 
 318   0.0000       6.367690       173.2737 
 319   0.0000       6.376717       173.5193 
 320   0.0000       6.412655       174.4972 
 321   0.0000       6.417009       174.6157 
 322   0.0000       6.442075       175.2978 
 323   0.0000       6.465794       175.9432 
 324   0.0000       6.490464       176.6145 
 325   0.0000       6.652575       181.0258 
 326   0.0000       6.701993       182.3705 
 327   0.0000       6.705342       182.4616 
 328   0.0000       6.742212       183.4649 
 329   0.0000       6.797262       184.9629 
 330   0.0000       6.808222       185.2611 
 331   0.0000       6.866996       186.8605 
 332   0.0000       6.867994       186.8876 
 333   0.0000       6.894626       187.6123 
 334   0.0000       6.946870       189.0339 
 335   0.0000       6.984812       190.0664 
 336   0.0000       7.042922       191.6476 
 337   0.0000       7.081385       192.6943 
 338   0.0000       7.111591       193.5162 
 339   0.0000       7.142229       194.3499 
 340   0.0000       7.211274       196.2287 
 341   0.0000       7.243201       197.0975 
 342   0.0000       7.342116       199.7891 
 343   0.0000       7.417742       201.8470 
 344   0.0000       7.563107       205.8026 
 345   0.0000      10.722549       291.7754 
 346   0.0000      10.756607       292.7022 
 347   0.0000      11.221535       305.3535 
 348   0.0000      22.114729       601.7724 
 349   0.0000      22.542460       613.4115 
 350   0.0000      23.243716       632.4937 
 351   0.0000      25.398240       691.1212 
 352   0.0000      32.224033       876.8605 
 353   0.0000      43.483862      1183.2560 
 354   0.0000      43.765510      1190.9201 
 355   0.0000      43.836623      1192.8552 
 356   0.0000      43.948267      1195.8931 
 357   0.0000      44.060466      1198.9462 

                    ********************************
                    * MULLIKEN POPULATION ANALYSIS *
                    ********************************

-----------------------
MULLIKEN ATOMIC CHARGES
-----------------------
   0 C :   -0.524581
   1 H :    0.148647
   2 H :    0.404120
   3 H :    0.147337
   4 N :    0.426460
   5 O :   -0.604967
   6 O :   -0.604608
   7 C :    0.290649
   8 O :   -0.396885
   9 O :   -0.417741
  10 C :   -0.135568
  11 Cl:   -0.164687
  12 H :    0.171654
  13 H :    0.170687
  14 H :    0.373796
  15 O :   -0.646611
  16 H :    0.362299
Sum of atomic charges:   -1.0000000

--------------------------------
MULLIKEN REDUCED ORBITAL CHARGES
--------------------------------
  0 C s       :     3.287240  s :     3.287240
      pz      :     0.968110  p :     3.172504
      px      :     1.133692
      py      :     1.070702
      dz2     :     0.016200  d :     0.056656
      dxz     :     0.009170
      dyz     :     0.011610
      dx2y2   :     0.009916
      dxy     :     0.009760
      f0      :     0.001420  f :     0.008182
      f+1     :     0.000938
      f-1     :     0.001178
      f+2     :     0.001175
      f-2     :     0.001450
      f+3     :     0.001073
      f-3     :     0.000948
  1 H s       :     0.828326  s :     0.828326
      pz      :     0.003860  p :     0.023026
      px      :     0.008034
      py      :     0.011132
  2 H s       :     0.549386  s :     0.549386
      pz      :     0.012973  p :     0.046495
      px      :     0.021137
      py      :     0.012385
  3 H s       :     0.829597  s :     0.829597
      pz      :     0.012904  p :     0.023066
      px      :     0.005470
      py      :     0.004692
  4 N s       :     3.289574  s :     3.289574
      pz      :     0.917997  p :     3.042800
      px      :     1.109661
      py      :     1.015142
      dz2     :     0.046863  d :     0.227174
      dxz     :     0.051049
      dyz     :     0.063503
      dx2y2   :     0.044275
      dxy     :     0.021485
      f0      :     0.002489  f :     0.013991
      f+1     :     0.002791
      f-1     :     0.003123
      f+2     :     0.001418
      f-2     :     0.001293
      f+3     :     0.001271
      f-3     :     0.001606
  5 O s       :     3.874850  s :     3.874850
      pz      :     1.816774  p :     4.692062
      px      :     1.550150
      py      :     1.325138
      dz2     :     0.004401  d :     0.035141
      dxz     :     0.003659
      dyz     :     0.006794
      dx2y2   :     0.009249
      dxy     :     0.011038
      f0      :     0.000330  f :     0.002915
      f+1     :     0.000163
      f-1     :     0.000376
      f+2     :     0.000234
      f-2     :     0.000553
      f+3     :     0.000698
      f-3     :     0.000562
  6 O s       :     3.874184  s :     3.874184
      pz      :     1.148364  p :     4.692410
      px      :     1.751343
      py      :     1.792702
      dz2     :     0.017402  d :     0.035104
      dxz     :     0.007897
      dyz     :     0.008633
      dx2y2   :     0.000566
      dxy     :     0.000605
      f0      :     0.001330  f :     0.002911
      f+1     :     0.000616
      f-1     :     0.000787
      f+2     :     0.000078
      f-2     :     0.000089
      f+3     :     0.000007
      f-3     :     0.000004
  7 C s       :     3.086039  s :     3.086039
      pz      :     0.766793  p :     2.355385
      px      :     0.728692
      py      :     0.859900
      dz2     :     0.024682  d :     0.242394
      dxz     :     0.055449
      dyz     :     0.024858
      dx2y2   :     0.068774
      dxy     :     0.068631
      f0      :     0.002032  f :     0.025533
      f+1     :     0.002926
      f-1     :     0.001505
      f+2     :     0.002021
      f-2     :     0.004432
      f+3     :     0.007285
      f-3     :     0.005332
  8 O s       :     3.787690  s :     3.787690
      pz      :     1.430386  p :     4.578326
      px      :     1.415989
      py      :     1.731951
      dz2     :     0.004544  d :     0.029015
      dxz     :     0.008567
      dyz     :     0.001730
      dx2y2   :     0.006944
      dxy     :     0.007230
      f0      :     0.000093  f :     0.001855
      f+1     :     0.000395
      f-1     :     0.000035
      f+2     :     0.000303
      f-2     :     0.000219
      f+3     :     0.000404
      f-3     :     0.000406
  9 O s       :     3.759861  s :     3.759861
      pz      :     1.680569  p :     4.627292
      px      :     1.341912
      py      :     1.604810
      dz2     :     0.002887  d :     0.028964
      dxz     :     0.005415
      dyz     :     0.004558
      dx2y2   :     0.006300
      dxy     :     0.009804
      f0      :     0.000257  f :     0.001624
      f+1     :     0.000178
      f-1     :     0.000111
      f+2     :     0.000125
      f-2     :     0.000281
      f+3     :     0.000299
      f-3     :     0.000373
 10 C s       :     3.220601  s :     3.220601
      pz      :     0.748674  p :     2.815080
      px      :     1.097826
      py      :     0.968580
      dz2     :     0.022294  d :     0.093779
      dxz     :     0.021714
      dyz     :     0.025032
      dx2y2   :     0.010221
      dxy     :     0.014517
      f0      :     0.001621  f :     0.006109
      f+1     :     0.000999
      f-1     :     0.001247
      f+2     :     0.000218
      f-2     :     0.000299
      f+3     :     0.000809
      f-3     :     0.000916
 11 Cls       :     5.910507  s :     5.910507
      pz      :     3.274648  p :    11.189176
      px      :     3.962319
      py      :     3.952210
      dz2     :     0.030391  d :     0.059554
      dxz     :     0.014017
      dyz     :     0.013505
      dx2y2   :     0.000839
      dxy     :     0.000803
      f0      :     0.002801  f :     0.005450
      f+1     :     0.001281
      f-1     :     0.001217
      f+2     :     0.000067
      f-2     :     0.000067
      f+3     :     0.000008
      f-3     :     0.000010
 12 H s       :     0.806829  s :     0.806829
      pz      :     0.003794  p :     0.021518
      px      :     0.012721
      py      :     0.005002
 13 H s       :     0.807751  s :     0.807751
      pz      :     0.004478  p :     0.021562
      px      :     0.007853
      py      :     0.009232
 14 H s       :     0.582585  s :     0.582585
      pz      :     0.017084  p :     0.043620
      px      :     0.010133
      py      :     0.016403
 15 O s       :     3.789661  s :     3.789661
      pz      :     1.538183  p :     4.836196
      px      :     1.565484
      py      :     1.732530
      dz2     :     0.000720  d :     0.019610
      dxz     :     0.005093
      dyz     :     0.005534
      dx2y2   :     0.005910
      dxy     :     0.002353
      f0      :     0.000107  f :     0.001144
      f+1     :     0.000015
      f-1     :     0.000351
      f+2     :     0.000417
      f-2     :     0.000090
      f+3     :     0.000140
      f-3     :     0.000022
 16 H s       :     0.575316  s :     0.575316
      pz      :     0.019481  p :     0.062384
      px      :     0.030567
      py      :     0.012336


                     *******************************
                     * LOEWDIN POPULATION ANALYSIS *
                     *******************************

----------------------
LOEWDIN ATOMIC CHARGES
----------------------
   0 C :   -0.427431
   1 H :    0.101981
   2 H :    0.173994
   3 H :    0.101989
   4 N :   -0.130985
   5 O :   -0.306264
   6 O :   -0.306417
   7 C :   -0.580662
   8 O :    0.040644
   9 O :    0.059543
  10 C :   -0.465947
  11 Cl:    0.295779
  12 H :    0.144240
  13 H :    0.144203
  14 H :    0.184408
  15 O :   -0.209336
  16 H :    0.180260

-------------------------------
LOEWDIN REDUCED ORBITAL CHARGES
-------------------------------
  0 C s       :     2.877280  s :     2.877280
      pz      :     1.029185  p :     3.228061
      px      :     1.115565
      py      :     1.083311
      dz2     :     0.090770  d :     0.279181
      dxz     :     0.046559
      dyz     :     0.054306
      dx2y2   :     0.034792
      dxy     :     0.052754
      f0      :     0.005614  f :     0.042909
      f+1     :     0.005429
      f-1     :     0.006287
      f+2     :     0.007284
      f-2     :     0.009110
      f+3     :     0.005224
      f-3     :     0.003961
  1 H s       :     0.827704  s :     0.827704
      pz      :     0.013061  p :     0.070315
      px      :     0.024721
      py      :     0.032532
  2 H s       :     0.660675  s :     0.660675
      pz      :     0.043140  p :     0.165331
      px      :     0.085456
      py      :     0.036735
  3 H s       :     0.827638  s :     0.827638
      pz      :     0.037345  p :     0.070373
      px      :     0.017672
      py      :     0.015356
  4 N s       :     2.924390  s :     2.924390
      pz      :     1.132157  p :     3.365241
      px      :     1.112308
      py      :     1.120776
      dz2     :     0.183040  d :     0.770166
      dxz     :     0.158778
      dyz     :     0.205900
      dx2y2   :     0.133220
      dxy     :     0.089229
      f0      :     0.012963  f :     0.071187
      f+1     :     0.014404
      f-1     :     0.016584
      f+2     :     0.008247
      f-2     :     0.006493
      f+3     :     0.006355
      f-3     :     0.006142
  5 O s       :     3.525440  s :     3.525440
      pz      :     1.743410  p :     4.681691
      px      :     1.538484
      py      :     1.399797
      dz2     :     0.011660  d :     0.089536
      dxz     :     0.009005
      dyz     :     0.018374
      dx2y2   :     0.022039
      dxy     :     0.028458
      f0      :     0.001020  f :     0.009597
      f+1     :     0.000523
      f-1     :     0.001230
      f+2     :     0.000761
      f-2     :     0.001903
      f+3     :     0.002345
      f-3     :     0.001815
  6 O s       :     3.525720  s :     3.525720
      pz      :     1.286935  p :     4.681640
      px      :     1.677267
      py      :     1.717438
      dz2     :     0.044418  d :     0.089471
      dxz     :     0.019671
      dyz     :     0.022766
      dx2y2   :     0.001246
      dxy     :     0.001370
      f0      :     0.004307  f :     0.009587
      f+1     :     0.002032
      f-1     :     0.002713
      f+2     :     0.000255
      f-2     :     0.000259
      f+3     :     0.000012
      f-3     :     0.000008
  7 C s       :     2.780827  s :     2.780827
      pz      :     0.784494  p :     2.687628
      px      :     0.929439
      py      :     0.973694
      dz2     :     0.096366  d :     0.954512
      dxz     :     0.179060
      dyz     :     0.106220
      dx2y2   :     0.271567
      dxy     :     0.301299
      f0      :     0.010955  f :     0.157695
      f+1     :     0.017056
      f-1     :     0.008310
[...]
GEPOL Surface-area                                ...     741.1866
Calculating surface distance matrix               ...        done! (  0.0s)
Performing Cholesky decomposition & store         ...        done! (  0.5s)
Overall time for CPCM initialization              ...                 0.5s
--------------
SCF ITERATIONS
--------------
ITER       Energy         Delta-E        Max-DP      RMS-DP      [F,P]     Damp
               ***  Starting incremental Fock matrix formation  ***
                      *** Initiating the SOSCF procedure ***
                      *** Re-Reading the Fockian *** 
                      *** Removing any level shift *** 
ITER      Energy       Delta-E        Grad      Rot      Max-DP    RMS-DP
  0  -1009.60838415 -1009.6083841508  0.001027  0.001027  0.004200  0.000056
               *** Restarting incremental Fock matrix formation ***
  1  -1009.60853384  -0.0001496867  0.000448  0.001082  0.001254  0.000025
  2  -1009.60855023  -0.0000163952  0.000226  0.000898  0.000486  0.000010
  3  -1009.60854808   0.0000021479  0.000492  0.000637  0.000344  0.000006
  4  -1009.60855122  -0.0000031359  0.000025  0.000054  0.000093  0.000001
  5  -1009.60855119   0.0000000276  0.000042  0.000025  0.000063  0.000001
  6  -1009.60855126  -0.0000000639  0.000004  0.000007  0.000010  0.000000
  7  -1009.60855125   0.0000000053  0.000004  0.000005  0.000007  0.000000
                  ***Gradient check signals convergence***
              ***Rediagonalizing the Fockian in SOSCF/NRSCF***

               *****************************************************
               *                     SUCCESS                       *
               *           SCF CONVERGED AFTER   8 CYCLES          *
               *****************************************************

Old exchange energy                            =    -18.684961607 Eh
New exchange energy                            =    -18.684986610 Eh
Exchange energy change after final integration =     -0.000025003 Eh
Total energy after final integration           =  -1009.608576260 Eh
Final COS-X integration done in                =     1.454 sec
Total Energy       :        -1009.60857626 Eh          -27472.84605 eV
  Last Energy change         ...   -5.4790e-09  Tolerance :   1.0000e-08
  Last MAX-Density change    ...    2.7756e-15  Tolerance :   1.0000e-07
             **** THE GBW FILE WAS UPDATED (/home/rudenko/mop_saddle_orca_4_serv/for_orca/CH3NO2_ch2clcoo_near_freez/orca/orca_end/end.gbw) ****
             **** DENSITY /home/rudenko/mop_saddle_orca_4_serv/for_orca/CH3NO2_ch2clcoo_near_freez/orca/orca_end/end.scfp WAS UPDATED ****
             **** ENERGY FILE WAS UPDATED (/home/rudenko/mop_saddle_orca_4_serv/for_orca/CH3NO2_ch2clcoo_near_freez/orca/orca_end/end.en.tmp) ****
             **** THE GBW FILE WAS UPDATED (/home/rudenko/mop_saddle_orca_4_serv/for_orca/CH3NO2_ch2clcoo_near_freez/orca/orca_end/end.gbw) ****
             **** DENSITY /home/rudenko/mop_saddle_orca_4_serv/for_orca/CH3NO2_ch2clcoo_near_freez/orca/orca_end/end.scfp WAS UPDATED ****
Total SCF time: 0 days 0 hours 0 min 33 sec 

Maximum memory used throughout the entire SCF-calculation: 82.3 MB


-------------------------------------------------------------------------------
                          DFT DISPERSION CORRECTION                            
                                                                               
                              DFTD3 V3.1  Rev 1                                
                          USING Becke-Johnson damping                          
-------------------------------------------------------------------------------
-------------------------   ----------------
Dispersion correction           -0.025145279
-------------------------   ----------------


-------------------------   --------------------
FINAL SINGLE POINT ENERGY     -1009.633721538718
-------------------------   --------------------



           ************************************************************
           *        Program running with 102 parallel MPI-processes   *
           *              working on a common directory               *
           ************************************************************
------------------------------------------------------------------------------
                         ORCA SCF GRADIENT CALCULATION
------------------------------------------------------------------------------

 ... reading COSX grid (gridx3)
Gradient of the Kohn-Sham DFT energy:
Kohn-Sham wavefunction type      ... RKS
Hartree-Fock exchange scaling    ...    0.200
Number of operators              ...    1
Number of atoms                  ...   17
Basis set dimensions             ...  358
Integral neglect threshold       ... 2.5e-11
Integral primitive cutoff        ... 2.5e-12
SHARK Integral package           ... ON

Nuc. rep. gradient       (SHARK) ... done (  0.0 sec)
HCore & Overlap gradient (SHARK) ... done (  0.1 sec)
RI-J gradient            (SHARK) ... done (  0.4 sec)
COSX-gradient                    ... done (  1.3 sec)
Exchange-correlation gradient    ... done
Dispersion correction            ... done

------------------
CARTESIAN GRADIENT
------------------

   1   C   :   -0.002446019   -0.001046038   -0.000526811
   2   H   :    0.000829971    0.000142151    0.000064692
   3   H   :    0.000598796   -0.000265141    0.000067163
   4   H   :    0.000528576    0.000012661    0.000768110
   5   N   :    0.000524415    0.000700100    0.000119108
   6   O   :   -0.000147120    0.000195995   -0.000309685
   7   O   :    0.000297110    0.000069098   -0.000157358
   8   C   :    0.000789872   -0.000691484    0.000795106
   9   O   :    0.000134530   -0.000054448   -0.000292288
  10   O   :   -0.000448270    0.000645487   -0.001285112
  11   C   :   -0.000845643   -0.000170478   -0.000119421
  12   Cl  :    0.000158361    0.000170288    0.000410037
  13   H   :    0.000012314    0.000557223    0.000144448
  14   H   :   -0.000068370   -0.000016048   -0.000150858
  15   H   :   -0.000179808    0.000761586    0.000083207
  16   O   :    0.000325800   -0.000369243   -0.000408985
  17   H   :   -0.000167221   -0.000329771    0.000695414

Difference to translation invariance:
           :   -0.0001027047    0.0003119372   -0.0001032336

Difference to rotation invariance:
           :    0.0001840035    0.0012884227    0.0039221504

Norm of the cartesian gradient     ...    0.0041860526
RMS gradient                       ...    0.0005861646
MAX gradient                       ...    0.0024460194

-------
TIMINGS
-------

Total SCF gradient time            ...        6.548 sec

One electron gradient       ....       0.092 sec  (  1.4%)
RI-J Coulomb gradient       ....       0.411 sec  (  6.3%)
COSX gradient               ....       1.294 sec  ( 19.8%)
XC gradient                 ....       1.570 sec  ( 24.0%)
CPCM gradient               ....       0.220 sec  (  3.4%)
   A-Matrix (El+Nuc)        ....       0.052 sec  (  0.8%)
   Potential                ....       0.168 sec  (  2.6%)

Maximum memory used throughout the entire SCFGRAD-calculation: 54.4 MB
------------------------------------------------------------------------------
                         ORCA GEOMETRY RELAXATION STEP
------------------------------------------------------------------------------

Reading the OPT-File                    .... done
Getting information on internals        .... done
Copying old internal coords+grads       .... done
Making the new internal coordinates     .... (new redundants).... done
Validating the new internal coordinates .... (new redundants).... done
Calculating the B-matrix                .... done
Calculating the G,G- and P matrices     .... done
Transforming gradient to internals      .... done
Projecting the internal gradient        .... done
Number of atoms                         ....  17
Number of internal coordinates          ....  84
Current Energy                          .... -1009.633721539 Eh
Current gradient norm                   ....     0.004186053 Eh/bohr
Maximum allowed component of the step   ....  0.300
Current trust radius                    ....  0.300
Updating the Hessian (BFGS)             .... done
Forming the augmented Hessian           .... done
Diagonalizing the augmented Hessian     .... done
Last element of RFO vector              ....  0.000000338
Lowest eigenvalues of augmented Hessian:
 -153.212089807 -0.052251031 -0.000034281  0.000277398  0.000594077
Warning: RFO finds a terribly low value for the scaling factor
Trying a QUASI-NEWTON step instead
Doing a quasi-Newton Step:
Inverting the Hessian                   .... done
Computing the step                      .... done
Length of the computed step             ....  0.192059422
Converting the step to cartesian space:
 Initial RMS(Int)=    0.0209554009
Transforming coordinates:
 Iter   0:  RMS(Cart)=    0.0162337860 RMS(Int)=    0.0120154337
 Iter   1:  RMS(Cart)=    0.0001135015 RMS(Int)=    0.0001146263
 Iter   2:  RMS(Cart)=    0.0000018755 RMS(Int)=    0.0000010270
 Iter   3:  RMS(Cart)=    0.0000000281 RMS(Int)=    0.0000000556
done
Storing new coordinates                 .... done

                                .--------------------.
          ----------------------|Geometry convergence|-------------------------
          Item                value                   Tolerance       Converged
          ---------------------------------------------------------------------
          Energy change      -0.0000346019            0.0000050000      NO
          RMS gradient        0.0002829352            0.0001000000      NO
          MAX gradient        0.0011136732            0.0003000000      NO
          RMS step            0.0209554009            0.0020000000      NO
          MAX step            0.0721577177            0.0040000000      NO
          ........................................................
          Max(Bonds)      0.0382      Max(Angles)    3.25
          Max(Dihed)        3.55      Max(Improp)    0.00
          ---------------------------------------------------------------------

The optimization has not yet converged - more geometry cycles are needed


    ---------------------------------------------------------------------------
                         Redundant Internal Coordinates
                            (Angstroem and degrees)

        Definition                    Value    dE/dq     Step     New-Value
    ----------------------------------------------------------------------------
     1. B(H   1,C   0)                1.0766  0.000073 -0.0079    1.0686   
     2. B(H   2,H   1)                2.4690 -0.000123  0.0382    2.5072   
     3. B(H   2,C   0)                2.0749  0.000288  0.0016    2.0765   
     4. B(H   3,C   0)                1.0774  0.000252  0.0069    1.0843   
     5. B(H   3,H   2)                2.3210  0.000119 -0.0317    2.2893   
     6. B(N   4,C   0)                1.3316  0.001114 -0.0004    1.3312   
     7. B(N   4,H   2)                2.4890  0.000106  0.0003    2.4893   
     8. B(O   5,N   4)                1.2827  0.000155  0.0000    1.2827   
     9. B(O   6,N   4)                1.2830  0.000279 -0.0002    1.2828   
    10. B(O   8,C   7)                1.2124  0.000325 -0.0002    1.2122   
    11. B(O   9,C   7)                1.3224 -0.000842  0.0006    1.3230   
    12. B(C  10,C   7)                1.5190  0.000614  0.0001    1.5191   
    13. B(Cl 11,C  10)                1.8166  0.000449 -0.0001    1.8165   
    14. B(H  12,C  10)                1.0840  0.000043  0.0001    1.0841   
    15. B(H  13,C  10)                1.0837  0.000078 -0.0001    1.0836   
    16. B(H  14,H   3)                3.6472 -0.000264 -0.0030    3.6441   
    17. B(H  14,H   1)                3.8187 -0.000180 -0.0210    3.7977   
    18. B(H  14,C   0)                3.5833  0.000169 -0.0107    3.5726   
    19. B(O  15,H  14)                0.9657  0.000009 -0.0002    0.9656   
    20. B(O  15,H   2)                0.9837 -0.000147  0.0053    0.9890   
    21. B(O  15,C   0)                3.0297  0.000227 -0.0005    3.0291   
    22. B(H  16,O   9)                1.0050  0.000205 -0.0004    1.0046   
    23. B(H  16,O  15)                1.6193 -0.000261 -0.0019    1.6174   
    24. B(H  16,H  14)                2.2411 -0.000135  0.0100    2.2511   
    25. A(H   1,C   0,N   4)          117.49 -0.000078    0.08    117.57   
    26. A(H   3,C   0,N   4)          117.87  0.000017   -0.21    117.66   
    27. A(H   1,C   0,H   3)          123.92  0.000187    0.17    124.09   
    28. A(N   4,C   0,O  15)           86.00 -0.000281    0.33     86.33   
    29. A(H   1,C   0,O  15)           99.27 -0.000274   -0.39     98.89   
    30. A(H   3,C   0,O  15)           92.70 -0.000197    0.20     92.90   
    31. A(C   0,N   4,O   6)          120.74  0.000022   -0.01    120.73   
    32. A(O   5,N   4,O   6)          118.38 -0.000298    0.02    118.40   
    33. A(C   0,N   4,O   5)          120.86  0.000279   -0.00    120.86   
    34. A(O   8,C   7,O   9)          121.09 -0.000006   -0.02    121.08   
    35. A(O   9,C   7,C  10)          117.28 -0.000109    0.04    117.31   
    36. A(O   8,C   7,C  10)          121.61  0.000116   -0.01    121.60   
    37. A(C   7,O   9,H  16)          113.50 -0.000076    0.06    113.57   
    38. A(H  12,C  10,H  13)          110.97 -0.000216   -0.02    110.95   
    39. A(Cl 11,C  10,H  13)          107.02  0.000148    0.02    107.03   
    40. A(Cl 11,C  10,H  12)          107.09 -0.000391    0.11    107.20   
    41. A(C   7,C  10,H  12)          113.25  0.000802   -0.22    113.03   
    42. A(C   7,C  10,H  13)          109.61 -0.000291    0.03    109.64   
    43. A(C   7,C  10,Cl 11)          108.66 -0.000082    0.14    108.80   
    44. A(O  15,H  14,H  16)           39.65 -0.000082   -0.76     38.88   
    45. A(C   0,O  15,H  16)           95.62 -0.000019   -3.25     92.37   
    46. A(H  14,O  15,H  16)          117.99  0.000086    1.12    119.11   
    47. A(H   2,O  15,H  16)          103.51 -0.000148    2.22    105.73   
    48. A(C   0,O  15,H  14)          117.79 -0.000042   -0.60    117.19   
    49. A(C   0,O  15,H   2)           11.46 -0.000145    0.75     12.21   
    50. A(H   2,O  15,H  14)          106.44  0.000095   -0.28    106.16   
    51. A(H  14,H  16,O  15)           22.37 -0.000004   -0.36     22.01   
    52. A(O   9,H  16,H  14)          161.00  0.000592   -0.33    160.67   
    53. D(O   6,N   4,C   0,H   3)   -175.45 -0.000512    0.22   -175.23   
    54. D(O   6,N   4,C   0,H   1)     -4.77  0.000315    0.07     -4.70   
    55. D(O   5,N   4,C   0,O  15)    -84.71 -0.000219   -0.19    -84.89   
    56. D(O   6,N   4,C   0,O  15)     93.61 -0.000139   -0.20     93.41   
    57. D(O   5,N   4,C   0,H   1)    176.91  0.000235    0.08    177.00   
    58. D(O   5,N   4,C   0,H   3)      6.23 -0.000592    0.24      6.47   
    59. D(H  16,O   9,C   7,O   8)   -175.21 -0.000176    0.65   -174.56   
    60. D(H  16,O   9,C   7,C  10)      6.23 -0.000251    0.66      6.89   
    61. D(H  13,C  10,C   7,O   9)   -167.64 -0.000033   -1.07   -168.70   
    62. D(H  12,C  10,C   7,O   9)    -43.13  0.000045   -1.27    -44.41   
    63. D(H  12,C  10,C   7,O   8)    138.31 -0.000029   -1.26    137.06   
    64. D(Cl 11,C  10,C   7,O   9)     75.73 -0.000002   -1.16     74.58   
    65. D(Cl 11,C  10,C   7,O   8)   -102.82 -0.000075   -1.14   -103.96   
    66. D(H  13,C  10,C   7,O   8)     13.81 -0.000106   -1.05     12.76   
    67. D(H   2,O  15,C   0,H   1)    -78.26 -0.000054   -1.31    -79.57   
    68. D(C   0,O  15,H  14,H  16)    113.91  0.000009   -3.55    110.37   
    69. D(C   0,O  15,O   9,C   7)     80.92  0.000344    1.29     82.21   
    70. D(H  14,O  15,O   9,C   7)   -154.69  0.000353   -1.25   -155.93   
    71. D(H   2,O  15,O   9,C   7)     89.27  0.000233   -3.28     85.99   
    72. D(H  16,O  15,C   0,N   4)    -61.33 -0.000140   -0.65    -61.98   
    73. D(H  16,O  15,C   0,H   3)   -179.10 -0.000164   -0.54   -179.64   
    74. D(H  16,O  15,C   0,H   1)     55.89 -0.000263   -0.55     55.34   
    75. D(H  14,O  15,C   0,N   4)    172.88 -0.000212    0.33    173.20   
    76. D(H  14,O  15,C   0,H   3)     55.11 -0.000235    0.44     55.55   
    77. D(H  14,O  15,C   0,H   1)    -69.90 -0.000334    0.42    -69.48   
    78. D(H   2,O  15,H  14,H  16)    115.64 -0.000069    3.29    118.92   
    79. D(H   2,O  15,C   0,N   4)    164.52  0.000069   -1.41    163.12   
    80. D(H   2,O  15,C   0,H   3)     46.76  0.000045   -1.30     45.46   
    81. D(H  14,H  16,O  15,H   2)   -117.21 -0.000059   -1.88   -119.09   
    82. D(O   9,H  16,H  14,O  15)   -161.56  0.000128   -0.86   -162.42   
    83. D(H  14,H  16,O   9,C   7)   -168.80  0.000197   -0.50   -169.30   
    84. D(H  14,H  16,O  15,C   0)   -125.65  0.000022    2.41   -123.24   
    ----------------------------------------------------------------------------




    ----------------------------------------------------------------------------
                                  WARNING !!!
       The optimization did not converge but reached the maximum number of
       optimization cycles.
       Please check your results very carefully.
    ----------------------------------------------------------------------------



                            ***************************************
                            *     ORCA property calculations      *
                            ***************************************

                                    ---------------------
                                    Active property flags
                                    ---------------------
   (+) Dipole Moment


------------------------------------------------------------------------------
                       ORCA ELECTRIC PROPERTIES CALCULATION
------------------------------------------------------------------------------

Dipole Moment Calculation                       ... on
Quadrupole Moment Calculation                   ... off
Polarizability Calculation                      ... off
GBWName                                         ... /home/rudenko/mop_saddle_orca_4_serv/for_orca/CH3NO2_ch2clcoo_near_freez/orca/orca_end/end.gbw
Electron density                                ... /home/rudenko/mop_saddle_orca_4_serv/for_orca/CH3NO2_ch2clcoo_near_freez/orca/orca_end/end.scfp
The origin for moment calculation is the CENTER OF MASS  = ( 7.006709,  1.220006 -0.117629)

-------------
DIPOLE MOMENT
-------------
                                X             Y             Z
Electronic contribution:      9.59161       5.08211      -0.43775
Nuclear contribution   :     -9.03466      -5.72372       3.93568
                        -----------------------------------------
Total Dipole Moment    :      0.55695      -0.64161       3.49793
                        -----------------------------------------
Magnitude (a.u.)       :      3.59963
Magnitude (Debye)      :      9.14954



--------------------
Rotational spectrum 
--------------------
 
Rotational constants in cm-1:     0.043592     0.020802     0.019103 
Rotational constants in MHz :  1306.853471   623.630153   572.699974 

 Dipole components along the rotational axes: 
x,y,z [a.u.] :     0.638491     2.483743     2.526009 
x,y,z [Debye]:     1.622915     6.313174     6.420603 

 

Timings for individual modules:

Sum of individual times         ...     2766.029 sec (=  46.100 min)
GTO integral calculation        ...      261.331 sec (=   4.356 min)   9.4 %
SCF iterations                  ...     2002.766 sec (=  33.379 min)  72.4 %
SCF Gradient evaluation         ...      500.560 sec (=   8.343 min)  18.1 %
Geometry relaxation             ...        1.372 sec (=   0.023 min)   0.0 %
                             ****ORCA TERMINATED NORMALLY****
TOTAL RUN TIME: 0 days 0 hours 50 minutes 8 seconds 773 msec
