 *******************************************************************************
 **                                                                           **
 **                              MOPAC v22.1.0                                **
 **                                                                           **
 *******************************************************************************
 **          Digital Object Identifier (DOI): 10.5281/zenodo.6511958          **
 **    Visit the DOI location for information on how to cite this program.    **
 *******************************************************************************

                              PM7 CALCULATION RESULTS

 *******************************************************************************
 *  CALCULATION DONE:                                Sat Mar 23 21:01:50 2024  *
 *  PM7        - The PM7 Hamiltonian to be used
 *  SINGLET    - SPIN STATE DEFINED AS A SINGLET
 *
 *
 *
 *                 CHARGE ON SYSTEM = 0
 *
 *
 *
 *  EPS=78.4   - USE ANDREAS KLAMT'S COSMO IMPLICIT SOLVATION MODEL
 *  THREADS    - USE A MAXIMUM OF 40 THREADS
 *  T=         - A TIME OF 14.0 DAYS REQUESTED
 *  DUMP=N     - RESTART FILE WRITTEN EVERY 30.0 MINUTES REQUESTED
 *  ITRY=      - DO A MAXIMUM OF 15000 ITERATIONS FOR SCF
 *  AUX        - OUTPUT AUXILIARY INFORMATION
 *  PL         - MONITOR CONVERGENCE IN DENSITY MATRIX
 *******************************************************************************
PM7 CHARGE=0 SINGLET AUX DUMP=30M ITRY=15000 eps=78.4 T=14D PL THREADS=40

 Mopac file generated by Gabedit
   ATOM   CHEMICAL          X               Y               Z
  NUMBER   SYMBOL      (ANGSTROMS)     (ANGSTROMS)     (ANGSTROMS)

     1       C          0.20191000  *   3.44567000  *   1.05866000  *
     2       C          0.87572000  *   2.22732000  *   1.07972000  *
     3       C          0.22299000  *   1.07282000  *   1.52189000  *
     4       C         -1.11911000  *   1.13808000  *   1.89724000  *
     5       C         -1.79327000  *   2.35585000  *   1.86223000  *
     6       C         -1.13287000  *   3.51230000  *   1.45505000  *
     7       H          0.71355000  *   4.35062000  *   0.73017000  *
     8       H          1.91449000  *   2.17436000  *   0.74645000  *
     9       H         -1.64795000  *   0.23669000  *   2.21226000  *
    10       H         -1.66370000  *   4.46588000  *   1.44418000  *
    11       C          0.99751000  *  -0.21611000  *   1.58988000  *
    12       C          0.56059000  *  -1.15349000  *   2.70885000  *
    13       H          1.22144000  *  -2.02955000  *   2.79276000  *
    14       H         -0.46581000  *  -1.52608000  *   2.57914000  *
    15       H          0.59611000  *  -0.63949000  *   3.68292000  *
    16       N          0.82910000  *  -0.93765000  *   0.28209000  *
    17       O          1.83254000  *  -1.21707000  *  -0.35505000  *
    18       O         -0.29129000  *  -1.21815000  *  -0.10842000  *
    19       N          4.87925300  *   0.50382300  *   4.03841600  *
    20       C          5.61693300  *  -0.77635700  *   4.17078600  *
    21       C          6.45714300  *  -0.76196700  *   5.46697600  *
    22       N          7.40474300  *   0.37984300  *   5.43363600  *
    23       C          6.66041300  *   1.65844300  *   5.31445600  *
    24       C          5.82303300  *   1.64842300  *   4.01707600  *
    25       H          5.22829300  *   2.58543300  *   3.94584600  *
    26       H          6.49841300  *   1.62374300  *   3.13457600  *
    27       H          7.39872300  *   2.48893300  *   5.28081600  *
    28       H          5.99822300  *   1.84582300  *   6.18737600  *
    29       H          7.04687300  *  -1.70129700  *   5.54518600  *
    30       H          5.78295300  *  -0.72551700  *   6.34945600  *
    31       H          6.27635300  *  -0.97801700  *   3.29972600  *
    32       H          2.10584000  *   0.00536000  *   1.70726000  *
    33       H          4.32171300  *   0.49903300  *   3.17294600  *
    34       H          4.87189300  *  -1.60065700  *   4.21588600  *
    35       H          7.96860300  *   0.38688300  *   6.29266600  *
    36       H          3.98662700  *   0.88081500  *   1.65955600  *
    37       H          3.04205000  *   1.39053100  *   2.74629900  *
    38       O          3.44029300  *   0.58276500  *   2.39861200  *
    39       H         -2.84097000  *   2.41144000  *   2.15929000  *



          CARTESIAN COORDINATES 

    NO.       ATOM           X           Y           Z

     1         C          0.2019      3.4457      1.0587
     2         C          0.8757      2.2273      1.0797
     3         C          0.2230      1.0728      1.5219
     4         C         -1.1191      1.1381      1.8972
     5         C         -1.7933      2.3559      1.8622
     6         C         -1.1329      3.5123      1.4550
     7         H          0.7136      4.3506      0.7302
     8         H          1.9145      2.1744      0.7465
     9         H         -1.6480      0.2367      2.2123
    10         H         -1.6637      4.4659      1.4442
    11         C          0.9975     -0.2161      1.5899
    12         C          0.5606     -1.1535      2.7088
    13         H          1.2214     -2.0295      2.7928
    14         H         -0.4658     -1.5261      2.5791
    15         H          0.5961     -0.6395      3.6829
    16         N          0.8291     -0.9377      0.2821
    17         O          1.8325     -1.2171     -0.3551
    18         O         -0.2913     -1.2182     -0.1084
    19         N          4.8793      0.5038      4.0384
    20         C          5.6169     -0.7764      4.1708
    21         C          6.4571     -0.7620      5.4670
    22         N          7.4047      0.3798      5.4336
    23         C          6.6604      1.6584      5.3145
    24         C          5.8230      1.6484      4.0171
    25         H          5.2283      2.5854      3.9458
    26         H          6.4984      1.6237      3.1346
    27         H          7.3987      2.4889      5.2808
    28         H          5.9982      1.8458      6.1874
    29         H          7.0469     -1.7013      5.5452
    30         H          5.7830     -0.7255      6.3495
    31         H          6.2764     -0.9780      3.2997
    32         H          2.1058      0.0054      1.7073
    33         H          4.3217      0.4990      3.1729
    34         H          4.8719     -1.6007      4.2159
    35         H          7.9686      0.3869      6.2927
    36         H          3.9866      0.8808      1.6596
    37         H          3.0421      1.3905      2.7463
    38         O          3.4403      0.5828      2.3986
    39         H         -2.8410      2.4114      2.1593

 General Reference for PM7:
 "Optimization of Parameters for Semiempirical Methods VI: More Modifications to the 
 NDDO Approximations and Re-optimization of Parameters", J. J. P. Stewart, J. Mol. Mod., 1:32, 19 (2013)
 https://link.springer.com/article/10.1007/s00894-012-1667-x

           Empirical Formula: C12 H21 N3 O3  =    39 atoms



      MOLECULAR POINT GROUP   :   C1  


 SINGLET STATE CALCULATION


      RHF CALCULATION, NO. OF DOUBLY OCCUPIED LEVELS = 51


          Geometry optimization using L-BFGS
 ITERATION   1 PLS= 0.100E+01 0.000E+00 ENERGY    17488.120185 DELTAE    0.0000000
 ITERATION   2 PLS= 0.117E+01 0.000E+00 ENERGY      177.233734 DELTAE    0.0000000
 ITERATION   3 PLS= 0.981E-01 0.000E+00 ENERGY       83.532318 DELTAE  -93.7014158
 ITERATION   4 PLS= 0.624E-01 0.000E+00 ENERGY     -116.513805 DELTAE -200.0461226
 ITERATION   5 PLS= 0.213E-01 0.000E+00 ENERGY        2.456457 DELTAE  118.9702613
 ITERATION   6 PLS= 0.209E-01 0.000E+00 ENERGY       -2.631884 DELTAE   -5.0883409
 ITERATION   7 PLS= 0.157E-01 0.000E+00 ENERGY       -7.532916 DELTAE   -4.9010318
 ITERATION   8 PLS= 0.569E-02 0.000E+00 ENERGY       -4.548941 DELTAE    2.9839749
 ITERATION   9 PLS= 0.234E-02 0.000E+00 ENERGY       -4.569272 DELTAE   -0.0203312
 ITERATION  10 PLS= 0.128E-02 0.000E+00 ENERGY       -4.586776 DELTAE   -0.0175039
 ITERATION  11 PLS= 0.501E-03 0.000E+00 ENERGY       -4.576820 DELTAE    0.0099561
 ITERATION  12 PLS= 0.382E-03 0.000E+00 ENERGY       -4.577048 DELTAE   -0.0002274
 ITERATION  13 PLS= 0.289E-03 0.000E+00 ENERGY       -4.577907 DELTAE   -0.0008594
 ITERATION  14 PLS= 0.697E-04 0.000E+00 ENERGY       -4.577276 DELTAE    0.0006307
 ITERATION   1 PLS= 0.274E-04 0.000E+00 ENERGY      -26.522510 DELTAE -126.5225097
 ITERATION   2 PLS= 0.231E-01 0.000E+00 ENERGY      -28.328630 DELTAE   -1.8061205
 ITERATION   3 PLS= 0.111E-01 0.000E+00 ENERGY      -28.706604 DELTAE   -0.3779738
 ITERATION   4 PLS= 0.571E-02 0.000E+00 ENERGY      -28.995795 DELTAE   -0.2891907
 ITERATION   5 PLS= 0.124E-02 0.000E+00 ENERGY      -28.859502 DELTAE    0.1362931
 ITERATION   6 PLS= 0.822E-03 0.000E+00 ENERGY      -28.861225 DELTAE   -0.0017229
 ITERATION   7 PLS= 0.613E-03 0.000E+00 ENERGY      -28.866035 DELTAE   -0.0048108
 ITERATION   8 PLS= 0.152E-03 0.000E+00 ENERGY      -28.862655 DELTAE    0.0033806
 ITERATION   9 PLS= 0.110E-03 0.000E+00 ENERGY      -28.862679 DELTAE   -0.0000243
 CYCLE:     1 TIME:   0.133 TIME LEFT:  2.00W  GRAD.:   155.833 HEAT: -28.86275
 ITERATION   1 PLS= 0.822E-04 0.000E+00 ENERGY      -29.110351 DELTAE -129.1103506
 ITERATION   2 PLS= 0.237E-03 0.000E+00 ENERGY      -29.110962 DELTAE   -0.0006112
 ITERATION   3 PLS= 0.118E-03 0.000E+00 ENERGY      -29.111082 DELTAE   -0.0001206
 ITERATION   4 PLS= 0.606E-04 0.000E+00 ENERGY      -29.111159 DELTAE   -0.0000763
 CYCLE:     2 TIME:   0.062 TIME LEFT:  2.00W  GRAD.:   154.024 HEAT: -29.11112
 ITERATION   1 PLS= 0.850E-05 0.000E+00 ENERGY      -38.566504 DELTAE -138.5665043
 ITERATION   2 PLS= 0.230E-01 0.000E+00 ENERGY      -43.739471 DELTAE   -5.1729670
 ITERATION   3 PLS= 0.998E-02 0.000E+00 ENERGY      -44.684117 DELTAE   -0.9446455
 ITERATION   4 PLS= 0.469E-02 0.000E+00 ENERGY      -45.283211 DELTAE   -0.5990944
 ITERATION   5 PLS= 0.478E-03 0.000E+00 ENERGY      -44.974016 DELTAE    0.3091953
 ITERATION   6 PLS= 0.234E-03 0.000E+00 ENERGY      -44.974415 DELTAE   -0.0003994
 CYCLE:     3 TIME:   0.062 TIME LEFT:  2.00W  GRAD.:    99.586 HEAT: -44.97472
 ITERATION   1 PLS= 0.119E-03 0.000E+00 ENERGY      -22.728020 DELTAE -122.7280196
 ITERATION   2 PLS= 0.242E-01 0.000E+00 ENERGY      -27.850819 DELTAE   -5.1227998
 ITERATION   3 PLS= 0.101E-01 0.000E+00 ENERGY      -28.811512 DELTAE   -0.9606929
 ITERATION   4 PLS= 0.496E-02 0.000E+00 ENERGY      -29.425656 DELTAE   -0.6141434
 ITERATION   5 PLS= 0.632E-03 0.000E+00 ENERGY      -29.110770 DELTAE    0.3148854
 ITERATION   6 PLS= 0.286E-03 0.000E+00 ENERGY      -29.111205 DELTAE   -0.0004351
 CYCLE:     4 TIME:   0.062 TIME LEFT:  2.00W  GRAD.:   154.080 HEAT: -29.11153
 ITERATION   1 PLS= 0.148E-03 0.000E+00 ENERGY      -38.579629 DELTAE -138.5796285
 ITERATION   2 PLS= 0.230E-01 0.000E+00 ENERGY      -43.751190 DELTAE   -5.1715615
 ITERATION   3 PLS= 0.998E-02 0.000E+00 ENERGY      -44.695865 DELTAE   -0.9446752
 ITERATION   4 PLS= 0.469E-02 0.000E+00 ENERGY      -45.294830 DELTAE   -0.5989649
 ITERATION   5 PLS= 0.477E-03 0.000E+00 ENERGY      -44.985821 DELTAE    0.3090090
 ITERATION   6 PLS= 0.234E-03 0.000E+00 ENERGY      -44.986217 DELTAE   -0.0003960
 CYCLE:     5 TIME:   0.086 TIME LEFT:  2.00W  GRAD.:    99.649 HEAT: -44.98651
 ITERATION   1 PLS= 0.119E-03 0.000E+00 ENERGY       -2.129986 DELTAE -102.1299862
 ITERATION   2 PLS= 0.695E-01 0.000E+00 ENERGY      -33.681213 DELTAE  -31.5512272
 ITERATION   3 PLS= 0.228E-01 0.000E+00 ENERGY      -38.200081 DELTAE   -4.5188673
 ITERATION   4 PLS= 0.107E-01 0.000E+00 ENERGY      -40.875535 DELTAE   -2.6754541
 ITERATION   5 PLS= 0.207E-02 0.000E+00 ENERGY      -39.546532 DELTAE    1.3290031
 ITERATION   6 PLS= 0.127E-02 0.000E+00 ENERGY      -39.550692 DELTAE   -0.0041604
 CYCLE:     6 TIME:   0.062 TIME LEFT:  2.00W  GRAD.:   282.520 HEAT: -39.55546
 ITERATION   1 PLS= 0.800E-03 0.000E+00 ENERGY      -40.901326 DELTAE -140.9013265
 ITERATION   2 PLS= 0.627E-01 0.000E+00 ENERGY      -51.848067 DELTAE  -10.9467401
 ITERATION   3 PLS= 0.231E-01 0.000E+00 ENERGY      -52.645580 DELTAE   -0.7975135
 ITERATION   4 PLS= 0.107E-01 0.000E+00 ENERGY      -52.984899 DELTAE   -0.3393189
 ITERATION   5 PLS= 0.135E-02 0.000E+00 ENERGY      -52.836794 DELTAE    0.1481052
 ITERATION   6 PLS= 0.966E-03 0.000E+00 ENERGY      -52.838846 DELTAE   -0.0020526
 CYCLE:     7 TIME:   0.070 TIME LEFT:  2.00W  GRAD.:    84.292 HEAT: -52.84236
 ITERATION   1 PLS= 0.656E-03 0.000E+00 ENERGY      -53.729237 DELTAE -153.7292369
 ITERATION   2 PLS= 0.774E-02 0.000E+00 ENERGY      -54.644318 DELTAE   -0.9150808
 ITERATION   3 PLS= 0.373E-02 0.000E+00 ENERGY      -54.794820 DELTAE   -0.1505023
 ITERATION   4 PLS= 0.201E-02 0.000E+00 ENERGY      -54.880386 DELTAE   -0.0855662
 ITERATION   5 PLS= 0.255E-03 0.000E+00 ENERGY      -54.838693 DELTAE    0.0416934
 CYCLE:     8 TIME:   0.062 TIME LEFT:  2.00W  GRAD.:    41.150 HEAT: -54.83880
 ITERATION   1 PLS= 0.131E-03 0.000E+00 ENERGY      -55.298018 DELTAE -155.2980182
 ITERATION   2 PLS= 0.670E-02 0.000E+00 ENERGY      -55.590901 DELTAE   -0.2928823
 ITERATION   3 PLS= 0.235E-02 0.000E+00 ENERGY      -55.632531 DELTAE   -0.0416309
 ITERATION   4 PLS= 0.108E-02 0.000E+00 ENERGY      -55.654845 DELTAE   -0.0223136
 ITERATION   5 PLS= 0.195E-03 0.000E+00 ENERGY      -55.644643 DELTAE    0.0102019
 CYCLE:     9 TIME:   0.055 TIME LEFT:  2.00W  GRAD.:    28.437 HEAT: -55.64469
 ITERATION   1 PLS= 0.119E-03 0.000E+00 ENERGY      -56.574031 DELTAE -156.5740313
 ITERATION   2 PLS= 0.615E-02 0.000E+00 ENERGY      -56.782139 DELTAE   -0.2081082
 ITERATION   3 PLS= 0.269E-02 0.000E+00 ENERGY      -56.814731 DELTAE   -0.0325912
 ITERATION   4 PLS= 0.124E-02 0.000E+00 ENERGY      -56.832804 DELTAE   -0.0180737
 CYCLE:    10 TIME:   0.086 TIME LEFT:  2.00W  GRAD.:    37.099 HEAT: -56.82399
 ITERATION   1 PLS= 0.228E-03 0.000E+00 ENERGY      -58.053109 DELTAE -158.0531094
 ITERATION   2 PLS= 0.184E-01 0.000E+00 ENERGY      -59.891164 DELTAE   -1.8380550
 ITERATION   3 PLS= 0.829E-02 0.000E+00 ENERGY      -60.188678 DELTAE   -0.2975134
 ITERATION   4 PLS= 0.387E-02 0.000E+00 ENERGY      -60.356592 DELTAE   -0.1679146
 ITERATION   5 PLS= 0.655E-03 0.000E+00 ENERGY      -60.271005 DELTAE    0.0855872
 CYCLE:    11 TIME:   0.062 TIME LEFT:  2.00W  GRAD.:    62.638 HEAT: -60.27141
 ITERATION   1 PLS= 0.397E-03 0.000E+00 ENERGY      -61.267413 DELTAE -161.2674127
 ITERATION   2 PLS= 0.155E-01 0.000E+00 ENERGY      -62.966494 DELTAE   -1.6990812
 ITERATION   3 PLS= 0.721E-02 0.000E+00 ENERGY      -63.254469 DELTAE   -0.2879750
 ITERATION   4 PLS= 0.335E-02 0.000E+00 ENERGY      -63.419502 DELTAE   -0.1650329
 ITERATION   5 PLS= 0.537E-03 0.000E+00 ENERGY      -63.334720 DELTAE    0.0847820
 CYCLE:    12 TIME:   0.062 TIME LEFT:  2.00W  GRAD.:    64.423 HEAT: -63.33503
 ITERATION   1 PLS= 0.322E-03 0.000E+00 ENERGY      -57.808819 DELTAE -157.8088187
 ITERATION   2 PLS= 0.133E-01 0.000E+00 ENERGY      -61.961590 DELTAE   -4.1527714
 ITERATION   3 PLS= 0.691E-02 0.000E+00 ENERGY      -62.577399 DELTAE   -0.6158094
 ITERATION   4 PLS= 0.390E-02 0.000E+00 ENERGY      -62.921172 DELTAE   -0.3437730
 ITERATION   5 PLS= 0.989E-03 0.000E+00 ENERGY      -62.729575 DELTAE    0.1915978
 ITERATION   6 PLS= 0.678E-03 0.000E+00 ENERGY      -62.731015 DELTAE   -0.0014400
 CYCLE:    13 TIME:   0.078 TIME LEFT:  2.00W  GRAD.:   135.307 HEAT: -62.73385
 ITERATION   1 PLS= 0.502E-03 0.000E+00 ENERGY      -64.008777 DELTAE -164.0087771
 ITERATION   2 PLS= 0.101E-01 0.000E+00 ENERGY      -65.682363 DELTAE   -1.6735856
 ITERATION   3 PLS= 0.482E-02 0.000E+00 ENERGY      -65.916907 DELTAE   -0.2345448
 ITERATION   4 PLS= 0.231E-02 0.000E+00 ENERGY      -66.037602 DELTAE   -0.1206945
 ITERATION   5 PLS= 0.734E-03 0.000E+00 ENERGY      -65.969237 DELTAE    0.0683650
 CYCLE:    14 TIME:   0.062 TIME LEFT:  2.00W  GRAD.:    27.507 HEAT: -65.96989
 ITERATION   1 PLS= 0.495E-03 0.000E+00 ENERGY      -66.421244 DELTAE -166.4212444
 ITERATION   2 PLS= 0.384E-02 0.000E+00 ENERGY      -66.509346 DELTAE   -0.0881020
 ITERATION   3 PLS= 0.219E-02 0.000E+00 ENERGY      -66.524546 DELTAE   -0.0151996
 ITERATION   4 PLS= 0.126E-02 0.000E+00 ENERGY      -66.535593 DELTAE   -0.0110473
 CYCLE:    15 TIME:   0.062 TIME LEFT:  2.00W  GRAD.:    23.753 HEAT: -66.52955
 ITERATION   1 PLS= 0.190E-03 0.000E+00 ENERGY      -67.006220 DELTAE -167.0062197
 ITERATION   2 PLS= 0.990E-02 0.000E+00 ENERGY      -67.758974 DELTAE   -0.7527547
 ITERATION   3 PLS= 0.486E-02 0.000E+00 ENERGY      -67.876510 DELTAE   -0.1175352
 ITERATION   4 PLS= 0.259E-02 0.000E+00 ENERGY      -67.949420 DELTAE   -0.0729107
 ITERATION   5 PLS= 0.426E-03 0.000E+00 ENERGY      -67.909422 DELTAE    0.0399987
 CYCLE:    16 TIME:   0.055 TIME LEFT:  2.00W  GRAD.:    29.609 HEAT: -67.90967
 ITERATION   1 PLS= 0.195E-03 0.000E+00 ENERGY      -66.870666 DELTAE -166.8706658
 ITERATION   2 PLS= 0.627E-02 0.000E+00 ENERGY      -67.985606 DELTAE   -1.1149400
 ITERATION   3 PLS= 0.337E-02 0.000E+00 ENERGY      -68.143972 DELTAE   -0.1583665
 ITERATION   4 PLS= 0.211E-02 0.000E+00 ENERGY      -68.236960 DELTAE   -0.0929878
 ITERATION   5 PLS= 0.343E-03 0.000E+00 ENERGY      -68.183116 DELTAE    0.0538442
 CYCLE:    17 TIME:   0.062 TIME LEFT:  2.00W  GRAD.:    72.408 HEAT: -68.18359
 ITERATION   1 PLS= 0.212E-03 0.000E+00 ENERGY      -68.928028 DELTAE -168.9280277
 ITERATION   2 PLS= 0.253E-02 0.000E+00 ENERGY      -69.150129 DELTAE   -0.2221015
 ITERATION   3 PLS= 0.111E-02 0.000E+00 ENERGY      -69.179859 DELTAE   -0.0297301
 ITERATION   4 PLS= 0.684E-03 0.000E+00 ENERGY      -69.194258 DELTAE   -0.0143986
 CYCLE:    18 TIME:   0.055 TIME LEFT:  2.00W  GRAD.:    29.208 HEAT: -69.18598
 ITERATION   1 PLS= 0.128E-03 0.000E+00 ENERGY      -69.511858 DELTAE -169.5118577
 ITERATION   2 PLS= 0.235E-02 0.000E+00 ENERGY      -69.701262 DELTAE   -0.1894045
 ITERATION   3 PLS= 0.134E-02 0.000E+00 ENERGY      -69.733206 DELTAE   -0.0319435
 ITERATION   4 PLS= 0.812E-03 0.000E+00 ENERGY      -69.754447 DELTAE   -0.0212412
 ITERATION   5 PLS= 0.137E-03 0.000E+00 ENERGY      -69.742353 DELTAE    0.0120935
 CYCLE:    19 TIME:   0.062 TIME LEFT:  2.00W  GRAD.:    17.734 HEAT: -69.74241
 ITERATION   1 PLS= 0.834E-04 0.000E+00 ENERGY      -69.767563 DELTAE -169.7675626
 ITERATION   2 PLS= 0.488E-02 0.000E+00 ENERGY      -70.226524 DELTAE   -0.4589613
 ITERATION   3 PLS= 0.285E-02 0.000E+00 ENERGY      -70.310464 DELTAE   -0.0839406
 ITERATION   4 PLS= 0.176E-02 0.000E+00 ENERGY      -70.374661 DELTAE   -0.0641968
 ITERATION   5 PLS= 0.222E-03 0.000E+00 ENERGY      -70.336112 DELTAE    0.0385496
 CYCLE:    20 TIME:   0.062 TIME LEFT:  2.00W  GRAD.:    22.198 HEAT: -70.33631
 ITERATION   1 PLS= 0.135E-03 0.000E+00 ENERGY      -69.925378 DELTAE -169.9253782
 ITERATION   2 PLS= 0.783E-02 0.000E+00 ENERGY      -70.838052 DELTAE   -0.9126740
 ITERATION   3 PLS= 0.446E-02 0.000E+00 ENERGY      -71.006195 DELTAE   -0.1681431
 ITERATION   4 PLS= 0.265E-02 0.000E+00 ENERGY      -71.132574 DELTAE   -0.1263790
 ITERATION   5 PLS= 0.401E-03 0.000E+00 ENERGY      -71.057891 DELTAE    0.0746829
 CYCLE:    21 TIME:   0.062 TIME LEFT:  2.00W  GRAD.:    24.383 HEAT: -71.05826
 ITERATION   1 PLS= 0.242E-03 0.000E+00 ENERGY      -65.270304 DELTAE -165.2703042
 ITERATION   2 PLS= 0.210E-01 0.000E+00 ENERGY      -69.380790 DELTAE   -4.1104862
 ITERATION   3 PLS= 0.804E-02 0.000E+00 ENERGY      -69.993708 DELTAE   -0.6129177
 ITERATION   4 PLS= 0.494E-02 0.000E+00 ENERGY      -70.369373 DELTAE   -0.3756650
 ITERATION   5 PLS= 0.109E-02 0.000E+00 ENERGY      -70.177915 DELTAE    0.1914580
 ITERATION   6 PLS= 0.686E-03 0.000E+00 ENERGY      -70.178892 DELTAE   -0.0009771
 CYCLE:    22 TIME:   0.078 TIME LEFT:  2.00W  GRAD.:    92.093 HEAT: -70.18009
 ITERATION   1 PLS= 0.427E-03 0.000E+00 ENERGY      -69.900216 DELTAE -169.9002162
 ITERATION   2 PLS= 0.153E-01 0.000E+00 ENERGY      -71.137056 DELTAE   -1.2368397
 ITERATION   3 PLS= 0.578E-02 0.000E+00 ENERGY      -71.281007 DELTAE   -0.1439506
 ITERATION   4 PLS= 0.270E-02 0.000E+00 ENERGY      -71.358729 DELTAE   -0.0777223
 ITERATION   5 PLS= 0.630E-03 0.000E+00 ENERGY      -71.321765 DELTAE    0.0369642
 CYCLE:    23 TIME:   0.062 TIME LEFT:  2.00W  GRAD.:    13.456 HEAT: -71.32205
 ITERATION   1 PLS= 0.379E-03 0.000E+00 ENERGY      -71.426386 DELTAE -171.4263861
 ITERATION   2 PLS= 0.149E-02 0.000E+00 ENERGY      -71.445642 DELTAE   -0.0192557
 ITERATION   3 PLS= 0.804E-03 0.000E+00 ENERGY      -71.449262 DELTAE   -0.0036199
 ITERATION   4 PLS= 0.496E-03 0.000E+00 ENERGY      -71.452238 DELTAE   -0.0029761
 CYCLE:    24 TIME:   0.055 TIME LEFT:  2.00W  GRAD.:    11.263 HEAT: -71.45047
 ITERATION   1 PLS= 0.621E-04 0.000E+00 ENERGY      -71.478398 DELTAE -171.4783983
 ITERATION   2 PLS= 0.357E-02 0.000E+00 ENERGY      -71.674974 DELTAE   -0.1965756
 ITERATION   3 PLS= 0.179E-02 0.000E+00 ENERGY      -71.710736 DELTAE   -0.0357623
 ITERATION   4 PLS= 0.961E-03 0.000E+00 ENERGY      -71.731763 DELTAE   -0.0210269
 ITERATION   5 PLS= 0.131E-03 0.000E+00 ENERGY      -71.721387 DELTAE    0.0103757
 CYCLE:    25 TIME:   0.062 TIME LEFT:  2.00W  GRAD.:    16.633 HEAT: -71.72145
 ITERATION   1 PLS= 0.953E-04 0.000E+00 ENERGY      -71.554198 DELTAE -171.5541980
 ITERATION   2 PLS= 0.241E-02 0.000E+00 ENERGY      -71.802007 DELTAE   -0.2478086
 ITERATION   3 PLS= 0.112E-02 0.000E+00 ENERGY      -71.840090 DELTAE   -0.0380830
 ITERATION   4 PLS= 0.548E-03 0.000E+00 ENERGY      -71.860219 DELTAE   -0.0201296
 CYCLE:    26 TIME:   0.062 TIME LEFT:  2.00W  GRAD.:    27.579 HEAT: -71.85032
 ITERATION   1 PLS= 0.137E-03 0.000E+00 ENERGY      -71.906864 DELTAE -171.9068643
 ITERATION   2 PLS= 0.142E-02 0.000E+00 ENERGY      -71.944351 DELTAE   -0.0374863
 ITERATION   3 PLS= 0.824E-03 0.000E+00 ENERGY      -71.949212 DELTAE   -0.0048614
 ITERATION   4 PLS= 0.449E-03 0.000E+00 ENERGY      -71.951625 DELTAE   -0.0024129
 CYCLE:    27 TIME:   0.055 TIME LEFT:  2.00W  GRAD.:     9.665 HEAT: -71.95031
 ITERATION   1 PLS= 0.718E-04 0.000E+00 ENERGY      -72.010614 DELTAE -172.0106143
 ITERATION   2 PLS= 0.971E-03 0.000E+00 ENERGY      -72.026432 DELTAE   -0.0158176
 ITERATION   3 PLS= 0.485E-03 0.000E+00 ENERGY      -72.028800 DELTAE   -0.0023684
 ITERATION   4 PLS= 0.289E-03 0.000E+00 ENERGY      -72.030399 DELTAE   -0.0015987
 CYCLE:    28 TIME:   0.055 TIME LEFT:  2.00W  GRAD.:     7.264 HEAT: -72.02945
 ITERATION   1 PLS= 0.422E-04 0.000E+00 ENERGY      -72.095947 DELTAE -172.0959474
 ITERATION   2 PLS= 0.264E-02 0.000E+00 ENERGY      -72.157373 DELTAE   -0.0614256
 ITERATION   3 PLS= 0.127E-02 0.000E+00 ENERGY      -72.167459 DELTAE   -0.0100857
 ITERATION   4 PLS= 0.676E-03 0.000E+00 ENERGY      -72.174322 DELTAE   -0.0068630
 CYCLE:    29 TIME:   0.055 TIME LEFT:  2.00W  GRAD.:    10.289 HEAT: -72.17038
 ITERATION   1 PLS= 0.882E-04 0.000E+00 ENERGY      -72.146779 DELTAE -172.1467789
 ITERATION   2 PLS= 0.369E-02 0.000E+00 ENERGY      -72.263586 DELTAE   -0.1168069
 ITERATION   3 PLS= 0.195E-02 0.000E+00 ENERGY      -72.286751 DELTAE   -0.0231648
 ITERATION   4 PLS= 0.107E-02 0.000E+00 ENERGY      -72.303334 DELTAE   -0.0165839
 CYCLE:    30 TIME:   0.109 TIME LEFT:  2.00W  GRAD.:    13.627 HEAT: -72.29419
 ITERATION   1 PLS= 0.127E-03 0.000E+00 ENERGY      -71.803908 DELTAE -171.8039077
 ITERATION   2 PLS= 0.547E-02 0.000E+00 ENERGY      -72.266519 DELTAE   -0.4626115
 ITERATION   3 PLS= 0.275E-02 0.000E+00 ENERGY      -72.358109 DELTAE   -0.0915893
 ITERATION   4 PLS= 0.146E-02 0.000E+00 ENERGY      -72.418175 DELTAE   -0.0600664
 ITERATION   5 PLS= 0.184E-03 0.000E+00 ENERGY      -72.387442 DELTAE    0.0307332
 CYCLE:    31 TIME:   0.055 TIME LEFT:  2.00W  GRAD.:    24.143 HEAT: -72.38751
 ITERATION   1 PLS= 0.116E-03 0.000E+00 ENERGY      -72.469898 DELTAE -172.4698981
 ITERATION   2 PLS= 0.197E-02 0.000E+00 ENERGY      -72.518157 DELTAE   -0.0482587
 ITERATION   3 PLS= 0.952E-03 0.000E+00 ENERGY      -72.523688 DELTAE   -0.0055311
 ITERATION   4 PLS= 0.495E-03 0.000E+00 ENERGY      -72.526284 DELTAE   -0.0025957
 CYCLE:    32 TIME:   0.062 TIME LEFT:  2.00W  GRAD.:     7.337 HEAT: -72.52500
 ITERATION   1 PLS= 0.770E-04 0.000E+00 ENERGY      -72.562638 DELTAE -172.5626384
 ITERATION   2 PLS= 0.118E-02 0.000E+00 ENERGY      -72.570376 DELTAE   -0.0077373
 ITERATION   3 PLS= 0.580E-03 0.000E+00 ENERGY      -72.571759 DELTAE   -0.0013828
 ITERATION   4 PLS= 0.315E-03 0.000E+00 ENERGY      -72.572728 DELTAE   -0.0009696
 CYCLE:    33 TIME:   0.055 TIME LEFT:  2.00W  GRAD.:     6.930 HEAT: -72.57219
 ITERATION   1 PLS= 0.412E-04 0.000E+00 ENERGY      -72.589215 DELTAE -172.5892150
 ITERATION   2 PLS= 0.158E-02 0.000E+00 ENERGY      -72.643163 DELTAE   -0.0539485
 ITERATION   3 PLS= 0.786E-03 0.000E+00 ENERGY      -72.655089 DELTAE   -0.0119251
 ITERATION   4 PLS= 0.427E-03 0.000E+00 ENERGY      -72.664188 DELTAE   -0.0090995
 CYCLE:    34 TIME:   0.055 TIME LEFT:  2.00W  GRAD.:     9.176 HEAT: -72.65907
 ITERATION   1 PLS= 0.594E-04 0.000E+00 ENERGY      -72.538660 DELTAE -172.5386605
 ITERATION   2 PLS= 0.278E-02 0.000E+00 ENERGY      -72.747044 DELTAE   -0.2083834
 ITERATION   3 PLS= 0.151E-02 0.000E+00 ENERGY      -72.790868 DELTAE   -0.0438245
 ITERATION   4 PLS= 0.868E-03 0.000E+00 ENERGY      -72.826164 DELTAE   -0.0352958
 ITERATION   5 PLS= 0.103E-03 0.000E+00 ENERGY      -72.805258 DELTAE    0.0209057
 CYCLE:    35 TIME:   0.062 TIME LEFT:  2.00W  GRAD.:    10.641 HEAT: -72.80533
 ITERATION   1 PLS= 0.637E-04 0.000E+00 ENERGY      -72.275971 DELTAE -172.2759712
 ITERATION   2 PLS= 0.359E-02 0.000E+00 ENERGY      -72.921249 DELTAE   -0.6452774
 ITERATION   3 PLS= 0.198E-02 0.000E+00 ENERGY      -73.047681 DELTAE   -0.1264325
 ITERATION   4 PLS= 0.118E-02 0.000E+00 ENERGY      -73.141531 DELTAE   -0.0938496
 ITERATION   5 PLS= 0.183E-03 0.000E+00 ENERGY      -73.087120 DELTAE    0.0544107
 CYCLE:    36 TIME:   0.047 TIME LEFT:  2.00W  GRAD.:    34.654 HEAT: -73.08731
 ITERATION   1 PLS= 0.107E-03 0.000E+00 ENERGY      -73.110620 DELTAE -173.1106205
 ITERATION   2 PLS= 0.241E-02 0.000E+00 ENERGY      -73.239625 DELTAE   -0.1290041
 ITERATION   3 PLS= 0.888E-03 0.000E+00 ENERGY      -73.260287 DELTAE   -0.0206629
 ITERATION   4 PLS= 0.435E-03 0.000E+00 ENERGY      -73.271852 DELTAE   -0.0115648
 CYCLE:    37 TIME:   0.055 TIME LEFT:  2.00W  GRAD.:     5.907 HEAT: -73.26599
 ITERATION   1 PLS= 0.116E-03 0.000E+00 ENERGY      -72.907371 DELTAE -172.9073710
 ITERATION   2 PLS= 0.225E-02 0.000E+00 ENERGY      -72.912341 DELTAE   -0.0049698
 ITERATION   3 PLS= 0.102E-02 0.000E+00 ENERGY      -72.913432 DELTAE   -0.0010910
 ITERATION   4 PLS= 0.508E-03 0.000E+00 ENERGY      -72.914425 DELTAE   -0.0009929
 CYCLE:    38 TIME:   0.078 TIME LEFT:  2.00W  GRAD.:     4.064 HEAT: -72.91389
 ITERATION   1 PLS= 0.823E-04 0.000E+00 ENERGY      -72.935099 DELTAE -172.9350995
 ITERATION   2 PLS= 0.122E-02 0.000E+00 ENERGY      -72.947450 DELTAE   -0.0123503
 ITERATION   3 PLS= 0.544E-03 0.000E+00 ENERGY      -72.949618 DELTAE   -0.0021682
 ITERATION   4 PLS= 0.275E-03 0.000E+00 ENERGY      -72.951014 DELTAE   -0.0013957
 CYCLE:    39 TIME:   0.062 TIME LEFT:  2.00W  GRAD.:     5.367 HEAT: -72.95028
 ITERATION   1 PLS= 0.371E-04 0.000E+00 ENERGY      -72.930873 DELTAE -172.9308728
 ITERATION   2 PLS= 0.156E-02 0.000E+00 ENERGY      -72.963151 DELTAE   -0.0322784
 ITERATION   3 PLS= 0.854E-03 0.000E+00 ENERGY      -72.969450 DELTAE   -0.0062991
 ITERATION   4 PLS= 0.484E-03 0.000E+00 ENERGY      -72.974163 DELTAE   -0.0047124
 CYCLE:    40 TIME:   0.055 TIME LEFT:  2.00W  GRAD.:     5.916 HEAT: -72.97142
 ITERATION   1 PLS= 0.674E-04 0.000E+00 ENERGY      -73.161835 DELTAE -173.1618348
 ITERATION   2 PLS= 0.279E-02 0.000E+00 ENERGY      -73.362441 DELTAE   -0.2006063
 ITERATION   3 PLS= 0.128E-02 0.000E+00 ENERGY      -73.399288 DELTAE   -0.0368468
 ITERATION   4 PLS= 0.727E-03 0.000E+00 ENERGY      -73.420270 DELTAE   -0.0209819
 CYCLE:    41 TIME:   0.062 TIME LEFT:  2.00W  GRAD.:    13.630 HEAT: -73.41033
 ITERATION   1 PLS= 0.160E-03 0.000E+00 ENERGY      -73.407272 DELTAE -173.4072719
 ITERATION   2 PLS= 0.239E-02 0.000E+00 ENERGY      -73.433763 DELTAE   -0.0264914
 ITERATION   3 PLS= 0.863E-03 0.000E+00 ENERGY      -73.436613 DELTAE   -0.0028503
 ITERATION   4 PLS= 0.396E-03 0.000E+00 ENERGY      -73.438023 DELTAE   -0.0014094
 CYCLE:    42 TIME:   0.062 TIME LEFT:  2.00W  GRAD.:     4.187 HEAT: -73.43737
 ITERATION   1 PLS= 0.783E-04 0.000E+00 ENERGY      -73.429730 DELTAE -173.4297301
 ITERATION   2 PLS= 0.736E-03 0.000E+00 ENERGY      -73.434707 DELTAE   -0.0049770
 ITERATION   3 PLS= 0.370E-03 0.000E+00 ENERGY      -73.435455 DELTAE   -0.0007476
 ITERATION   4 PLS= 0.226E-03 0.000E+00 ENERGY      -73.435968 DELTAE   -0.0005130
 CYCLE:    43 TIME:   0.062 TIME LEFT:  2.00W  GRAD.:     4.555 HEAT: -73.43568
 ITERATION   1 PLS= 0.305E-04 0.000E+00 ENERGY      -73.424856 DELTAE -173.4248563
 ITERATION   2 PLS= 0.108E-02 0.000E+00 ENERGY      -73.444781 DELTAE   -0.0199243
 ITERATION   3 PLS= 0.588E-03 0.000E+00 ENERGY      -73.448330 DELTAE   -0.0035496
 ITERATION   4 PLS= 0.326E-03 0.000E+00 ENERGY      -73.450730 DELTAE   -0.0024002
 CYCLE:    44 TIME:   0.055 TIME LEFT:  2.00W  GRAD.:     5.601 HEAT: -73.44938
 ITERATION   1 PLS= 0.517E-04 0.000E+00 ENERGY      -73.478088 DELTAE -173.4780878
 ITERATION   2 PLS= 0.177E-02 0.000E+00 ENERGY      -73.539150 DELTAE   -0.0610625
 ITERATION   3 PLS= 0.846E-03 0.000E+00 ENERGY      -73.550766 DELTAE   -0.0116154
 ITERATION   4 PLS= 0.410E-03 0.000E+00 ENERGY      -73.557816 DELTAE   -0.0070500
 CYCLE:    45 TIME:   0.117 TIME LEFT:  2.00W  GRAD.:     6.513 HEAT: -73.55415
 ITERATION   1 PLS= 0.614E-04 0.000E+00 ENERGY      -73.518804 DELTAE -173.5188042
 ITERATION   2 PLS= 0.252E-02 0.000E+00 ENERGY      -73.611826 DELTAE   -0.0930222
 ITERATION   3 PLS= 0.120E-02 0.000E+00 ENERGY      -73.629283 DELTAE   -0.0174566
 ITERATION   4 PLS= 0.583E-03 0.000E+00 ENERGY      -73.639873 DELTAE   -0.0105896
 CYCLE:    46 TIME:   0.055 TIME LEFT:  2.00W  GRAD.:     6.437 HEAT: -73.63434
 ITERATION   1 PLS= 0.741E-04 0.000E+00 ENERGY      -73.665692 DELTAE -173.6656918
 ITERATION   2 PLS= 0.716E-03 0.000E+00 ENERGY      -73.670147 DELTAE   -0.0044549
 ITERATION   3 PLS= 0.276E-03 0.000E+00 ENERGY      -73.670738 DELTAE   -0.0005918
 ITERATION   4 PLS= 0.148E-03 0.000E+00 ENERGY      -73.671048 DELTAE   -0.0003098
 CYCLE:    47 TIME:   0.086 TIME LEFT:  2.00W  GRAD.:     3.615 HEAT: -73.67090
 ITERATION   1 PLS= 0.247E-04 0.000E+00 ENERGY      -73.692110 DELTAE -173.6921095
 ITERATION   2 PLS= 0.675E-03 0.000E+00 ENERGY      -73.700439 DELTAE   -0.0083290
 ITERATION   3 PLS= 0.379E-03 0.000E+00 ENERGY      -73.701897 DELTAE   -0.0014588
 ITERATION   4 PLS= 0.216E-03 0.000E+00 ENERGY      -73.702867 DELTAE   -0.0009696
 CYCLE:    48 TIME:   0.070 TIME LEFT:  2.00W  GRAD.:     4.591 HEAT: -73.70235
 ITERATION   1 PLS= 0.408E-04 0.000E+00 ENERGY      -73.628183 DELTAE -173.6281826
 ITERATION   2 PLS= 0.133E-02 0.000E+00 ENERGY      -73.656811 DELTAE   -0.0286288
 ITERATION   3 PLS= 0.603E-03 0.000E+00 ENERGY      -73.662474 DELTAE   -0.0056627
 ITERATION   4 PLS= 0.282E-03 0.000E+00 ENERGY      -73.666205 DELTAE   -0.0037310
 CYCLE:    49 TIME:   0.062 TIME LEFT:  2.00W  GRAD.:     5.456 HEAT: -73.66419
 ITERATION   1 PLS= 0.557E-04 0.000E+00 ENERGY      -73.531204 DELTAE -173.5312043
 ITERATION   2 PLS= 0.152E-02 0.000E+00 ENERGY      -73.638619 DELTAE   -0.1074142
 ITERATION   3 PLS= 0.790E-03 0.000E+00 ENERGY      -73.658611 DELTAE   -0.0199921
 ITERATION   4 PLS= 0.468E-03 0.000E+00 ENERGY      -73.671681 DELTAE   -0.0130699
 CYCLE:    50 TIME:   0.055 TIME LEFT:  2.00W  GRAD.:    13.615 HEAT: -73.66459
 ITERATION   1 PLS= 0.110E-03 0.000E+00 ENERGY      -73.671102 DELTAE -173.6711020
 ITERATION   2 PLS= 0.823E-03 0.000E+00 ENERGY      -73.686085 DELTAE   -0.0149832
 ITERATION   3 PLS= 0.408E-03 0.000E+00 ENERGY      -73.688202 DELTAE   -0.0021164
 ITERATION   4 PLS= 0.225E-03 0.000E+00 ENERGY      -73.689325 DELTAE   -0.0011230
 CYCLE:    51 TIME:   0.070 TIME LEFT:  2.00W  GRAD.:     4.173 HEAT: -73.68877
 ITERATION   1 PLS= 0.370E-04 0.000E+00 ENERGY      -73.698507 DELTAE -173.6985067
 ITERATION   2 PLS= 0.423E-03 0.000E+00 ENERGY      -73.700755 DELTAE   -0.0022480
 ITERATION   3 PLS= 0.142E-03 0.000E+00 ENERGY      -73.701115 DELTAE   -0.0003603
 ITERATION   4 PLS= 0.677E-04 0.000E+00 ENERGY      -73.701320 DELTAE   -0.0002048
 CYCLE:    52 TIME:   0.094 TIME LEFT:  2.00W  GRAD.:     2.645 HEAT: -73.70122
 ITERATION   1 PLS= 0.139E-04 0.000E+00 ENERGY      -73.682334 DELTAE -173.6823342
 ITERATION   2 PLS= 0.735E-03 0.000E+00 ENERGY      -73.693683 DELTAE   -0.0113492
 ITERATION   3 PLS= 0.345E-03 0.000E+00 ENERGY      -73.695850 DELTAE   -0.0021664
 ITERATION   4 PLS= 0.189E-03 0.000E+00 ENERGY      -73.697310 DELTAE   -0.0014605
 CYCLE:    53 TIME:   0.078 TIME LEFT:  2.00W  GRAD.:     3.801 HEAT: -73.69651
 ITERATION   1 PLS= 0.352E-04 0.000E+00 ENERGY      -73.671700 DELTAE -173.6716995
 ITERATION   2 PLS= 0.886E-03 0.000E+00 ENERGY      -73.693550 DELTAE   -0.0218505
 ITERATION   3 PLS= 0.544E-03 0.000E+00 ENERGY      -73.697768 DELTAE   -0.0042175
 ITERATION   4 PLS= 0.333E-03 0.000E+00 ENERGY      -73.700836 DELTAE   -0.0030688
 CYCLE:    54 TIME:   0.070 TIME LEFT:  2.00W  GRAD.:     4.558 HEAT: -73.69904
 ITERATION   1 PLS= 0.403E-04 0.000E+00 ENERGY      -73.546680 DELTAE -173.5466802
 ITERATION   2 PLS= 0.354E-02 0.000E+00 ENERGY      -73.659341 DELTAE   -0.1126603
 ITERATION   3 PLS= 0.184E-02 0.000E+00 ENERGY      -73.678872 DELTAE   -0.0195314
 ITERATION   4 PLS= 0.103E-02 0.000E+00 ENERGY      -73.692166 DELTAE   -0.0132939
 CYCLE:    55 TIME:   0.102 TIME LEFT:  2.00W  GRAD.:    13.563 HEAT: -73.68472
 ITERATION   1 PLS= 0.109E-03 0.000E+00 ENERGY      -73.708425 DELTAE -173.7084247
 ITERATION   2 PLS= 0.123E-02 0.000E+00 ENERGY      -73.719903 DELTAE   -0.0114783
 ITERATION   3 PLS= 0.417E-03 0.000E+00 ENERGY      -73.721157 DELTAE   -0.0012536
 ITERATION   4 PLS= 0.189E-03 0.000E+00 ENERGY      -73.721662 DELTAE   -0.0005056
 CYCLE:    56 TIME:   0.055 TIME LEFT:  2.00W  GRAD.:     3.435 HEAT: -73.72142
 ITERATION   1 PLS= 0.444E-04 0.000E+00 ENERGY      -73.731890 DELTAE -173.7318898
 ITERATION   2 PLS= 0.285E-03 0.000E+00 ENERGY      -73.734839 DELTAE   -0.0029490
 ITERATION   3 PLS= 0.134E-03 0.000E+00 ENERGY      -73.735394 DELTAE   -0.0005547
 ITERATION   4 PLS= 0.646E-04 0.000E+00 ENERGY      -73.735739 DELTAE   -0.0003460
 CYCLE:    57 TIME:   0.062 TIME LEFT:  2.00W  GRAD.:     2.185 HEAT: -73.73556
 ITERATION   1 PLS= 0.173E-04 0.000E+00 ENERGY      -73.730704 DELTAE -173.7307040
 ITERATION   2 PLS= 0.753E-03 0.000E+00 ENERGY      -73.737711 DELTAE   -0.0070069
 ITERATION   3 PLS= 0.422E-03 0.000E+00 ENERGY      -73.738980 DELTAE   -0.0012689
 ITERATION   4 PLS= 0.235E-03 0.000E+00 ENERGY      -73.739888 DELTAE   -0.0009084
 CYCLE:    58 TIME:   0.062 TIME LEFT:  2.00W  GRAD.:     2.677 HEAT: -73.73936
 ITERATION   1 PLS= 0.319E-04 0.000E+00 ENERGY      -73.708004 DELTAE -173.7080041
 ITERATION   2 PLS= 0.129E-02 0.000E+00 ENERGY      -73.750403 DELTAE   -0.0423984
 ITERATION   3 PLS= 0.754E-03 0.000E+00 ENERGY      -73.758511 DELTAE   -0.0081085
 ITERATION   4 PLS= 0.450E-03 0.000E+00 ENERGY      -73.765026 DELTAE   -0.0065147
 ITERATION   5 PLS= 0.605E-04 0.000E+00 ENERGY      -73.760970 DELTAE    0.0040559
 CYCLE:    59 TIME:   0.086 TIME LEFT:  2.00W  GRAD.:     4.242 HEAT: -73.76100
 ITERATION   1 PLS= 0.297E-04 0.000E+00 ENERGY      -73.668720 DELTAE -173.6687198
 ITERATION   2 PLS= 0.182E-02 0.000E+00 ENERGY      -73.780492 DELTAE   -0.1117724
 ITERATION   3 PLS= 0.124E-02 0.000E+00 ENERGY      -73.801692 DELTAE   -0.0211994
 ITERATION   4 PLS= 0.759E-03 0.000E+00 ENERGY      -73.818592 DELTAE   -0.0169001
 ITERATION   5 PLS= 0.963E-04 0.000E+00 ENERGY      -73.808167 DELTAE    0.0104248
 CYCLE:    60 TIME:   0.062 TIME LEFT:  2.00W  GRAD.:     7.760 HEAT: -73.80824
 ITERATION   1 PLS= 0.513E-04 0.000E+00 ENERGY      -73.623835 DELTAE -173.6238349
 ITERATION   2 PLS= 0.115E-02 0.000E+00 ENERGY      -73.635864 DELTAE   -0.0120286
 ITERATION   3 PLS= 0.463E-03 0.000E+00 ENERGY      -73.637837 DELTAE   -0.0019732
 ITERATION   4 PLS= 0.208E-03 0.000E+00 ENERGY      -73.638954 DELTAE   -0.0011168
 CYCLE:    61 TIME:   0.055 TIME LEFT:  2.00W  GRAD.:     3.392 HEAT: -73.63843
 ITERATION   1 PLS= 0.419E-04 0.000E+00 ENERGY      -73.638362 DELTAE -173.6383624
 ITERATION   2 PLS= 0.523E-03 0.000E+00 ENERGY      -73.641753 DELTAE   -0.0033910
 ITERATION   3 PLS= 0.278E-03 0.000E+00 ENERGY      -73.642345 DELTAE   -0.0005921
 ITERATION   4 PLS= 0.139E-03 0.000E+00 ENERGY      -73.642734 DELTAE   -0.0003883
 CYCLE:    62 TIME:   0.070 TIME LEFT:  2.00W  GRAD.:     2.943 HEAT: -73.64253
 ITERATION   1 PLS= 0.193E-04 0.000E+00 ENERGY      -73.399267 DELTAE -173.3992669
 ITERATION   2 PLS= 0.902E-03 0.000E+00 ENERGY      -73.437203 DELTAE   -0.0379362
 ITERATION   3 PLS= 0.544E-03 0.000E+00 ENERGY      -73.444536 DELTAE   -0.0073331
 ITERATION   4 PLS= 0.328E-03 0.000E+00 ENERGY      -73.450303 DELTAE   -0.0057664
 ITERATION   5 PLS= 0.646E-04 0.000E+00 ENERGY      -73.446770 DELTAE    0.0035331
 CYCLE:    63 TIME:   0.062 TIME LEFT:  2.00W  GRAD.:     3.436 HEAT: -73.44679
 ITERATION   1 PLS= 0.340E-04 0.000E+00 ENERGY      -73.300147 DELTAE -173.3001465
 ITERATION   2 PLS= 0.151E-02 0.000E+00 ENERGY      -73.430801 DELTAE   -0.1306541
 ITERATION   3 PLS= 0.101E-02 0.000E+00 ENERGY      -73.455981 DELTAE   -0.0251806
 ITERATION   4 PLS= 0.623E-03 0.000E+00 ENERGY      -73.479102 DELTAE   -0.0231207
 ITERATION   5 PLS= 0.864E-04 0.000E+00 ENERGY      -73.463429 DELTAE    0.0156733
 CYCLE:    64 TIME:   0.055 TIME LEFT:  2.00W  GRAD.:     4.553 HEAT: -73.46359
 ITERATION   1 PLS= 0.423E-04 0.000E+00 ENERGY      -73.258295 DELTAE -173.2582953
 ITERATION   2 PLS= 0.207E-02 0.000E+00 ENERGY      -73.424739 DELTAE   -0.1664438
 ITERATION   3 PLS= 0.121E-02 0.000E+00 ENERGY      -73.456375 DELTAE   -0.0316355
 ITERATION   4 PLS= 0.733E-03 0.000E+00 ENERGY      -73.485180 DELTAE   -0.0288051
 ITERATION   5 PLS= 0.797E-04 0.000E+00 ENERGY      -73.465852 DELTAE    0.0193281
 CYCLE:    65 TIME:   0.062 TIME LEFT:  2.00W  GRAD.:     7.474 HEAT: -73.46605
 ITERATION   1 PLS= 0.364E-04 0.000E+00 ENERGY      -73.170038 DELTAE -173.1700377
 ITERATION   2 PLS= 0.192E-02 0.000E+00 ENERGY      -73.366734 DELTAE   -0.1966966
 ITERATION   3 PLS= 0.124E-02 0.000E+00 ENERGY      -73.404191 DELTAE   -0.0374571
 ITERATION   4 PLS= 0.788E-03 0.000E+00 ENERGY      -73.439604 DELTAE   -0.0354126
 ITERATION   5 PLS= 0.688E-04 0.000E+00 ENERGY      -73.415192 DELTAE    0.0244120
 CYCLE:    66 TIME:   0.055 TIME LEFT:  2.00W  GRAD.:     6.788 HEAT: -73.41547
 ITERATION   1 PLS= 0.344E-04 0.000E+00 ENERGY      -73.099908 DELTAE -173.0999080
 ITERATION   2 PLS= 0.244E-02 0.000E+00 ENERGY      -73.377363 DELTAE   -0.2774551
 ITERATION   3 PLS= 0.158E-02 0.000E+00 ENERGY      -73.429997 DELTAE   -0.0526341
 ITERATION   4 PLS= 0.984E-03 0.000E+00 ENERGY      -73.477798 DELTAE   -0.0478010
 ITERATION   5 PLS= 0.101E-03 0.000E+00 ENERGY      -73.445633 DELTAE    0.0321649
 CYCLE:    67 TIME:   0.070 TIME LEFT:  2.00W  GRAD.:     5.928 HEAT: -73.44597
 ITERATION   1 PLS= 0.539E-04 0.000E+00 ENERGY      -72.720635 DELTAE -172.7206353
 ITERATION   2 PLS= 0.241E-02 0.000E+00 ENERGY      -73.117664 DELTAE   -0.3970284
 ITERATION   3 PLS= 0.166E-02 0.000E+00 ENERGY      -73.191986 DELTAE   -0.0743227
 ITERATION   4 PLS= 0.106E-02 0.000E+00 ENERGY      -73.255007 DELTAE   -0.0630207
 ITERATION   5 PLS= 0.170E-03 0.000E+00 ENERGY      -73.213739 DELTAE    0.0412683
 CYCLE:    68 TIME:   0.055 TIME LEFT:  2.00W  GRAD.:     8.448 HEAT: -73.21411
 ITERATION   1 PLS= 0.917E-04 0.000E+00 ENERGY      -72.512838 DELTAE -172.5128378
 ITERATION   2 PLS= 0.574E-02 0.000E+00 ENERGY      -73.119886 DELTAE   -0.6070486
 ITERATION   3 PLS= 0.334E-02 0.000E+00 ENERGY      -73.230653 DELTAE   -0.1107666
 ITERATION   4 PLS= 0.194E-02 0.000E+00 ENERGY      -73.313224 DELTAE   -0.0825707
 ITERATION   5 PLS= 0.289E-03 0.000E+00 ENERGY      -73.263338 DELTAE    0.0498857
 CYCLE:    69 TIME:   0.070 TIME LEFT:  2.00W  GRAD.:    15.571 HEAT: -73.26366
 ITERATION   1 PLS= 0.145E-03 0.000E+00 ENERGY      -72.504011 DELTAE -172.5040114
 ITERATION   2 PLS= 0.464E-02 0.000E+00 ENERGY      -73.283338 DELTAE   -0.7793271
 ITERATION   3 PLS= 0.279E-02 0.000E+00 ENERGY      -73.429295 DELTAE   -0.1459563
 ITERATION   4 PLS= 0.170E-02 0.000E+00 ENERGY      -73.553694 DELTAE   -0.1243987
 ITERATION   5 PLS= 0.215E-03 0.000E+00 ENERGY      -73.471975 DELTAE    0.0817190
 CYCLE:    70 TIME:   0.062 TIME LEFT:  2.00W  GRAD.:     5.067 HEAT: -73.47272
 ITERATION   1 PLS= 0.911E-04 0.000E+00 ENERGY      -72.188190 DELTAE -172.1881902
 ITERATION   2 PLS= 0.396E-02 0.000E+00 ENERGY      -73.180207 DELTAE   -0.9920167
 ITERATION   3 PLS= 0.267E-02 0.000E+00 ENERGY      -73.367762 DELTAE   -0.1875547
 ITERATION   4 PLS= 0.171E-02 0.000E+00 ENERGY      -73.538341 DELTAE   -0.1705792
 ITERATION   5 PLS= 0.234E-03 0.000E+00 ENERGY      -73.422606 DELTAE    0.1157352
 ITERATION   6 PLS= 0.112E-03 0.000E+00 ENERGY      -73.423850 DELTAE   -0.0012441
 CYCLE:    71 TIME:   0.070 TIME LEFT:  2.00W  GRAD.:     4.839 HEAT: -73.42451
 ITERATION   1 PLS= 0.584E-04 0.000E+00 ENERGY      -71.652107 DELTAE -171.6521068
 ITERATION   2 PLS= 0.576E-02 0.000E+00 ENERGY      -73.100907 DELTAE   -1.4488001
 ITERATION   3 PLS= 0.362E-02 0.000E+00 ENERGY      -73.371660 DELTAE   -0.2707536
 ITERATION   4 PLS= 0.223E-02 0.000E+00 ENERGY      -73.605993 DELTAE   -0.2343327
 ITERATION   5 PLS= 0.228E-03 0.000E+00 ENERGY      -73.450627 DELTAE    0.1553662
 ITERATION   6 PLS= 0.122E-03 0.000E+00 ENERGY      -73.452131 DELTAE   -0.0015041
 CYCLE:    72 TIME:   0.062 TIME LEFT:  2.00W  GRAD.:    14.979 HEAT: -73.45288
 ITERATION   1 PLS= 0.696E-04 0.000E+00 ENERGY      -73.329016 DELTAE -173.3290163
 ITERATION   2 PLS= 0.243E-02 0.000E+00 ENERGY      -73.468836 DELTAE   -0.1398197
 ITERATION   3 PLS= 0.121E-02 0.000E+00 ENERGY      -73.492622 DELTAE   -0.0237859
 ITERATION   4 PLS= 0.704E-03 0.000E+00 ENERGY      -73.508403 DELTAE   -0.0157807
 CYCLE:    73 TIME:   0.055 TIME LEFT:  2.00W  GRAD.:     7.750 HEAT: -73.49922
 ITERATION   1 PLS= 0.121E-03 0.000E+00 ENERGY      -73.500555 DELTAE -173.5005548
 ITERATION   2 PLS= 0.527E-03 0.000E+00 ENERGY      -73.512246 DELTAE   -0.0116910
 ITERATION   3 PLS= 0.274E-03 0.000E+00 ENERGY      -73.514283 DELTAE   -0.0020377
 ITERATION   4 PLS= 0.171E-03 0.000E+00 ENERGY      -73.515795 DELTAE   -0.0015114
 CYCLE:    74 TIME:   0.055 TIME LEFT:  2.00W  GRAD.:     4.181 HEAT: -73.51493
 ITERATION   1 PLS= 0.378E-04 0.000E+00 ENERGY      -73.382573 DELTAE -173.3825729
 ITERATION   2 PLS= 0.137E-02 0.000E+00 ENERGY      -73.424228 DELTAE   -0.0416552
 ITERATION   3 PLS= 0.606E-03 0.000E+00 ENERGY      -73.431925 DELTAE   -0.0076968
 ITERATION   4 PLS= 0.322E-03 0.000E+00 ENERGY      -73.436904 DELTAE   -0.0049787
 CYCLE:    75 TIME:   0.078 TIME LEFT:  2.00W  GRAD.:     8.506 HEAT: -73.43439
 ITERATION   1 PLS= 0.700E-04 0.000E+00 ENERGY      -73.098998 DELTAE -173.0989978
 ITERATION   2 PLS= 0.231E-02 0.000E+00 ENERGY      -73.328485 DELTAE   -0.2294877
 ITERATION   3 PLS= 0.156E-02 0.000E+00 ENERGY      -73.370951 DELTAE   -0.0424659
 ITERATION   4 PLS= 0.992E-03 0.000E+00 ENERGY      -73.405360 DELTAE   -0.0344085
 ITERATION   5 PLS= 0.105E-03 0.000E+00 ENERGY      -73.383366 DELTAE    0.0219941
 CYCLE:    76 TIME:   0.062 TIME LEFT:  2.00W  GRAD.:     6.661 HEAT: -73.38355
 ITERATION   1 PLS= 0.565E-04 0.000E+00 ENERGY      -70.824586 DELTAE -170.8245861
 ITERATION   2 PLS= 0.758E-02 0.000E+00 ENERGY      -72.839824 DELTAE   -2.0152381
 ITERATION   3 PLS= 0.486E-02 0.000E+00 ENERGY      -73.216082 DELTAE   -0.3762574
 ITERATION   4 PLS= 0.301E-02 0.000E+00 ENERGY      -73.532864 DELTAE   -0.3167826
 ITERATION   5 PLS= 0.254E-03 0.000E+00 ENERGY      -73.326662 DELTAE    0.2062021
 ITERATION   6 PLS= 0.152E-03 0.000E+00 ENERGY      -73.328491 DELTAE   -0.0018289
 CYCLE:    77 TIME:   0.070 TIME LEFT:  2.00W  GRAD.:    10.297 HEAT: -73.32946
 ITERATION   1 PLS= 0.861E-04 0.000E+00 ENERGY      -72.698145 DELTAE -172.6981448
 ITERATION   2 PLS= 0.300E-02 0.000E+00 ENERGY      -73.231994 DELTAE   -0.5338491
 ITERATION   3 PLS= 0.181E-02 0.000E+00 ENERGY      -73.331314 DELTAE   -0.0993197
 ITERATION   4 PLS= 0.114E-02 0.000E+00 ENERGY      -73.404847 DELTAE   -0.0735339
 ITERATION   5 PLS= 0.224E-03 0.000E+00 ENERGY      -73.361086 DELTAE    0.0437619
 CYCLE:    78 TIME:   0.062 TIME LEFT:  2.00W  GRAD.:    15.271 HEAT: -73.36138
 ITERATION   1 PLS= 0.121E-03 0.000E+00 ENERGY      -73.375412 DELTAE -173.3754117
 ITERATION   2 PLS= 0.122E-02 0.000E+00 ENERGY      -73.400495 DELTAE   -0.0250832
 ITERATION   3 PLS= 0.573E-03 0.000E+00 ENERGY      -73.404337 DELTAE   -0.0038421
 ITERATION   4 PLS= 0.276E-03 0.000E+00 ENERGY      -73.406901 DELTAE   -0.0025639
 CYCLE:    79 TIME:   0.062 TIME LEFT:  2.00W  GRAD.:     4.639 HEAT: -73.40576
 ITERATION   1 PLS= 0.863E-04 0.000E+00 ENERGY      -72.909518 DELTAE -172.9095176
 ITERATION   2 PLS= 0.401E-02 0.000E+00 ENERGY      -73.367516 DELTAE   -0.4579986
 ITERATION   3 PLS= 0.245E-02 0.000E+00 ENERGY      -73.452737 DELTAE   -0.0852209
 ITERATION   4 PLS= 0.149E-02 0.000E+00 ENERGY      -73.521722 DELTAE   -0.0689853
 ITERATION   5 PLS= 0.133E-03 0.000E+00 ENERGY      -73.477864 DELTAE    0.0438581
 CYCLE:    80 TIME:   0.062 TIME LEFT:  2.00W  GRAD.:     4.778 HEAT: -73.47821
 ITERATION   1 PLS= 0.800E-04 0.000E+00 ENERGY      -70.014726 DELTAE -170.0147256
 ITERATION   2 PLS= 0.900E-02 0.000E+00 ENERGY      -72.434557 DELTAE   -2.4198310
 ITERATION   3 PLS= 0.558E-02 0.000E+00 ENERGY      -72.886321 DELTAE   -0.4517648
 ITERATION   4 PLS= 0.338E-02 0.000E+00 ENERGY      -73.252609 DELTAE   -0.3662873
 ITERATION   5 PLS= 0.306E-03 0.000E+00 ENERGY      -73.019893 DELTAE    0.2327153
 ITERATION   6 PLS= 0.188E-03 0.000E+00 ENERGY      -73.021734 DELTAE   -0.0018402
 CYCLE:    81 TIME:   0.078 TIME LEFT:  2.00W  GRAD.:    12.314 HEAT: -73.02272
 ITERATION   1 PLS= 0.112E-03 0.000E+00 ENERGY      -70.247802 DELTAE -170.2478020
 ITERATION   2 PLS= 0.940E-02 0.000E+00 ENERGY      -72.838384 DELTAE   -2.5905822
 ITERATION   3 PLS= 0.577E-02 0.000E+00 ENERGY      -73.320237 DELTAE   -0.4818530
 ITERATION   4 PLS= 0.352E-02 0.000E+00 ENERGY      -73.714003 DELTAE   -0.3937660
 ITERATION   5 PLS= 0.374E-03 0.000E+00 ENERGY      -73.461854 DELTAE    0.2521494
 ITERATION   6 PLS= 0.185E-03 0.000E+00 ENERGY      -73.463924 DELTAE   -0.0020699
 CYCLE:    82 TIME:   0.062 TIME LEFT:  2.00W  GRAD.:     7.678 HEAT: -73.46504
 ITERATION   1 PLS= 0.108E-03 0.000E+00 ENERGY      -73.056909 DELTAE -173.0569092
 ITERATION   2 PLS= 0.412E-02 0.000E+00 ENERGY      -73.406308 DELTAE   -0.3493985
 ITERATION   3 PLS= 0.252E-02 0.000E+00 ENERGY      -73.470897 DELTAE   -0.0645889
 ITERATION   4 PLS= 0.150E-02 0.000E+00 ENERGY      -73.520500 DELTAE   -0.0496035
 ITERATION   5 PLS= 0.138E-03 0.000E+00 ENERGY      -73.489979 DELTAE    0.0305208
 CYCLE:    83 TIME:   0.062 TIME LEFT:  2.00W  GRAD.:     3.408 HEAT: -73.49019
 ITERATION   1 PLS= 0.849E-04 0.000E+00 ENERGY      -71.117152 DELTAE -171.1171518
 ITERATION   2 PLS= 0.720E-02 0.000E+00 ENERGY      -72.698513 DELTAE   -1.5813608
 ITERATION   3 PLS= 0.448E-02 0.000E+00 ENERGY      -72.993262 DELTAE   -0.2947490
 ITERATION   4 PLS= 0.271E-02 0.000E+00 ENERGY      -73.225515 DELTAE   -0.2322530
 ITERATION   5 PLS= 0.290E-03 0.000E+00 ENERGY      -73.080274 DELTAE    0.1452409
 ITERATION   6 PLS= 0.176E-03 0.000E+00 ENERGY      -73.081349 DELTAE   -0.0010750
 CYCLE:    84 TIME:   0.102 TIME LEFT:  2.00W  GRAD.:     6.933 HEAT: -73.08195
 ITERATION   1 PLS= 0.105E-03 0.000E+00 ENERGY      -73.150020 DELTAE -173.1500196
 ITERATION   2 PLS= 0.936E-03 0.000E+00 ENERGY      -73.163802 DELTAE   -0.0137825
 ITERATION   3 PLS= 0.483E-03 0.000E+00 ENERGY      -73.166487 DELTAE   -0.0026851
 ITERATION   4 PLS= 0.258E-03 0.000E+00 ENERGY      -73.168291 DELTAE   -0.0018040
 CYCLE:    85 TIME:   0.062 TIME LEFT:  2.00W  GRAD.:     5.745 HEAT: -73.16735
 ITERATION   1 PLS= 0.388E-04 0.000E+00 ENERGY      -72.404498 DELTAE -172.4044983
 ITERATION   2 PLS= 0.309E-02 0.000E+00 ENERGY      -72.944083 DELTAE   -0.5395845
 ITERATION   3 PLS= 0.176E-02 0.000E+00 ENERGY      -73.043475 DELTAE   -0.0993923
 ITERATION   4 PLS= 0.115E-02 0.000E+00 ENERGY      -73.110081 DELTAE   -0.0666054
 ITERATION   5 PLS= 0.256E-03 0.000E+00 ENERGY      -73.071888 DELTAE    0.0381922
 CYCLE:    86 TIME:   0.062 TIME LEFT:  2.00W  GRAD.:     6.454 HEAT: -73.07210
 ITERATION   1 PLS= 0.152E-03 0.000E+00 ENERGY      -71.031401 DELTAE -171.0314015
 ITERATION   2 PLS= 0.756E-02 0.000E+00 ENERGY      -72.703795 DELTAE   -1.6723933
 ITERATION   3 PLS= 0.455E-02 0.000E+00 ENERGY      -73.013303 DELTAE   -0.3095084
 ITERATION   4 PLS= 0.269E-02 0.000E+00 ENERGY      -73.237459 DELTAE   -0.2241554
 ITERATION   5 PLS= 0.410E-03 0.000E+00 ENERGY      -73.103501 DELTAE    0.1339571
 ITERATION   6 PLS= 0.219E-03 0.000E+00 ENERGY      -73.104356 DELTAE   -0.0008540
 CYCLE:    87 TIME:   0.070 TIME LEFT:  2.00W  GRAD.:     8.277 HEAT: -73.10489
 ITERATION   1 PLS= 0.125E-03 0.000E+00 ENERGY      -73.116807 DELTAE -173.1168069
 ITERATION   2 PLS= 0.826E-03 0.000E+00 ENERGY      -73.135258 DELTAE   -0.0184508
 ITERATION   3 PLS= 0.467E-03 0.000E+00 ENERGY      -73.138447 DELTAE   -0.0031891
 ITERATION   4 PLS= 0.272E-03 0.000E+00 ENERGY      -73.140578 DELTAE   -0.0021311
 CYCLE:    88 TIME:   0.055 TIME LEFT:  2.00W  GRAD.:     3.912 HEAT: -73.13936
 ITERATION   1 PLS= 0.339E-04 0.000E+00 ENERGY      -73.110184 DELTAE -173.1101845
 ITERATION   2 PLS= 0.102E-02 0.000E+00 ENERGY      -73.149805 DELTAE   -0.0396209
 ITERATION   3 PLS= 0.561E-03 0.000E+00 ENERGY      -73.157046 DELTAE   -0.0072403
 ITERATION   4 PLS= 0.328E-03 0.000E+00 ENERGY      -73.161852 DELTAE   -0.0048061
 CYCLE:    89 TIME:   0.055 TIME LEFT:  2.00W  GRAD.:     4.501 HEAT: -73.15913
 ITERATION   1 PLS= 0.710E-04 0.000E+00 ENERGY      -70.619764 DELTAE -170.6197645
 ITERATION   2 PLS= 0.747E-02 0.000E+00 ENERGY      -72.664737 DELTAE   -2.0449725
 ITERATION   3 PLS= 0.462E-02 0.000E+00 ENERGY      -73.042564 DELTAE   -0.3778268
 ITERATION   4 PLS= 0.274E-02 0.000E+00 ENERGY      -73.303502 DELTAE   -0.2609383
 ITERATION   5 PLS= 0.469E-03 0.000E+00 ENERGY      -73.151731 DELTAE    0.1517713
 ITERATION   6 PLS= 0.266E-03 0.000E+00 ENERGY      -73.152628 DELTAE   -0.0008971
 CYCLE:    90 TIME:   0.133 TIME LEFT:  2.00W  GRAD.:    10.997 HEAT: -73.15323
 ITERATION   1 PLS= 0.154E-03 0.000E+00 ENERGY      -72.748248 DELTAE -172.7482483
 ITERATION   2 PLS= 0.329E-02 0.000E+00 ENERGY      -73.041191 DELTAE   -0.2929430
 ITERATION   3 PLS= 0.202E-02 0.000E+00 ENERGY      -73.095287 DELTAE   -0.0540953
 ITERATION   4 PLS= 0.119E-02 0.000E+00 ENERGY      -73.136648 DELTAE   -0.0413610
 ITERATION   5 PLS= 0.147E-03 0.000E+00 ENERGY      -73.111393 DELTAE    0.0252549


           HEAT OF FORMATION IS ESSENTIALLY STATIONARY
 ITERATION   1 PLS= 0.773E-04 0.000E+00 ENERGY       38.818403 DELTAE  -61.1815973
 ITERATION   2 PLS= 0.515E-01 0.000E+00 ENERGY      -51.713070 DELTAE  -90.5314724
 ITERATION   3 PLS= 0.309E-01 0.000E+00 ENERGY      -68.740805 DELTAE  -17.0277352
 ITERATION   4 PLS= 0.191E-01 0.000E+00 ENERGY      -82.184265 DELTAE  -13.4434599
 ITERATION   5 PLS= 0.388E-02 0.000E+00 ENERGY      -73.727858 DELTAE    8.4564070
 ITERATION   6 PLS= 0.157E-02 0.000E+00 ENERGY      -73.792721 DELTAE   -0.0648636
 ITERATION   7 PLS= 0.955E-03 0.000E+00 ENERGY      -73.827912 DELTAE   -0.0351904
 ITERATION   8 PLS= 0.166E-03 0.000E+00 ENERGY      -73.808081 DELTAE    0.0198305


          CURRENT BEST VALUE OF HEAT OF FORMATION =    -73.808216

* ===============================
* Input file for Mopac
* ===============================
 PM7 CHARGE=0 SINGLET AUX DUMP=30M ITRY=15000 eps=78.4 T=14D PL THREADS=40

 Mopac file generated by Gabedit
  C     0.09418645 +1   3.37957821 +1   0.97106636 +1
  C     0.73178473 +1   2.14268938 +1   0.96667527 +1
  C     0.06351591 +1   1.00742541 +1   1.43057123 +1
  C    -1.25671230 +1   1.10920339 +1   1.87155626 +1
  C    -1.89225856 +1   2.35055433 +1   1.87779929 +1
  C    -1.21830045 +1   3.48443941 +1   1.43213834 +1
  H     0.62242512 +1   4.26357944 +1   0.61413373 +1
  H     1.75912889 +1   2.06516431 +1   0.59933557 +1
  H    -1.80065835 +1   0.22490664 +1   2.20825649 +1
  H    -1.71488683 +1   4.45531918 +1   1.44188346 +1
  C     0.81388114 +1  -0.29685057 +1   1.46189503 +1
  C     0.43512995 +1  -1.19298960 +1   2.63294631 +1
  H     1.08693383 +1  -2.07416245 +1   2.71444606 +1
  H    -0.59880534 +1  -1.56171975 +1   2.57812194 +1
  H     0.52890786 +1  -0.63935348 +1   3.58030833 +1
  N     0.53179524 +1  -1.03803345 +1   0.18795490 +1
  O     1.46910254 +1  -1.27624335 +1  -0.56199951 +1
  O    -0.61119647 +1  -1.37736938 +1  -0.07252836 +1
  N     5.03019193 +1   0.39525673 +1   4.22737944 +1
  C     5.80093343 +1  -0.86219840 +1   4.36835128 +1
  C     6.63822077 +1  -0.81152953 +1   5.66496888 +1
  N     7.55446617 +1   0.35529868 +1   5.62337417 +1
  C     6.78289405 +1   1.61482774 +1   5.48198091 +1
  C     5.94141867 +1   1.56558745 +1   4.19047254 +1
  H     5.31720365 +1   2.48266400 +1   4.11102431 +1
  H     6.61385745 +1   1.55391771 +1   3.30649333 +1
  H     7.50362782 +1   2.45893694 +1   5.43088897 +1
  H     6.11979563 +1   1.80988043 +1   6.35149558 +1
  H     7.25577132 +1  -1.73052888 +1   5.75426086 +1
  H     5.95986545 +1  -0.78840387 +1   6.54483073 +1
  H     6.46647154 +1  -1.05687037 +1   3.50072197 +1
  H     1.93369950 +1  -0.09405451 +1   1.49470861 +1
  H     4.47475238 +1   0.37448122 +1   3.36111895 +1
  H     5.07671790 +1  -1.70445327 +1   4.41810215 +1
  H     8.10817780 +1   0.38962548 +1   6.48835182 +1
  H     4.19113197 +1   1.65757387 +1   1.12074126 +1
  H     3.31853731 +1   2.04052367 +1   2.31113754 +1
  O     3.60547147 +1   1.27821022 +1   1.79255837 +1
  H    -2.91784284 +1   2.43455223 +1   2.23934228 +1



 -------------------------------------------------------------------------------
 PM7 CHARGE=0 SINGLET AUX DUMP=30M ITRY=15000 eps=78.4 T=14D PL THREADS=40

 Mopac file generated by Gabedit


     HERBERTS TEST WAS SATISFIED IN BFGS                      
     SCF FIELD WAS ACHIEVED                                   


                              PM7 CALCULATION
                                                       MOPAC v22.1.0 Linux
                                                       Sat Mar 23 21:01:57 2024




          FINAL HEAT OF FORMATION =        -73.80822 KCAL/MOL =    -308.81358 KJ/MOL
          VAN DER WAALS AREA      =        311.67 SQUARE ANGSTROMS



          DIELECTRIC ENERGY       =         -1.09518 EV
          COSMO AREA              =        311.67 SQUARE ANGSTROMS
          COSMO VOLUME            =        337.50 CUBIC ANGSTROMS

          GRADIENT NORM           =          7.76014          =       1.24262 PER ATOM
          IONIZATION POTENTIAL    =          9.226738 EV
          HOMO LUMO ENERGIES (EV) =         -9.227 -0.560
          NO. OF FILLED LEVELS    =         51
          MOLECULAR WEIGHT        =        255.3162         POINT GROUP:  C1  

          MOLECULAR DIMENSIONS (Angstroms)

            Atom       Atom       Distance
            H    39    H    35    11.99204
            H    28    O    17     6.36531
            H    14    H     7     5.86545


          SCF CALCULATIONS        =         93

          WALL-CLOCK TIME         =      6.203 SECONDS
          COMPUTATION TIME        =          5 MINUTES AND 36.428 SECONDS



       FINAL  POINT  AND  DERIVATIVES

   PARAMETER     ATOM    TYPE            VALUE        GRADIENT
      1          1  C    CARTESIAN X     0.094186      1.363212  KCAL/ANGSTROM
      2          1  C    CARTESIAN Y     3.379578      0.486876  KCAL/ANGSTROM
      3          1  C    CARTESIAN Z     0.971066     -0.021551  KCAL/ANGSTROM
      4          2  C    CARTESIAN X     0.731785     -0.321365  KCAL/ANGSTROM
      5          2  C    CARTESIAN Y     2.142689     -0.979179  KCAL/ANGSTROM
      6          2  C    CARTESIAN Z     0.966675      0.123365  KCAL/ANGSTROM
      7          3  C    CARTESIAN X     0.063516      1.140101  KCAL/ANGSTROM
      8          3  C    CARTESIAN Y     1.007425     -0.083872  KCAL/ANGSTROM
      9          3  C    CARTESIAN Z     1.430571     -0.440612  KCAL/ANGSTROM
     10          4  C    CARTESIAN X    -1.256712     -0.266956  KCAL/ANGSTROM
     11          4  C    CARTESIAN Y     1.109203     -1.268066  KCAL/ANGSTROM
     12          4  C    CARTESIAN Z     1.871556      0.929984  KCAL/ANGSTROM
     13          5  C    CARTESIAN X    -1.892259     -0.180130  KCAL/ANGSTROM
     14          5  C    CARTESIAN Y     2.350554      1.797257  KCAL/ANGSTROM
     15          5  C    CARTESIAN Z     1.877799     -0.525606  KCAL/ANGSTROM
     16          6  C    CARTESIAN X    -1.218300     -1.665021  KCAL/ANGSTROM
     17          6  C    CARTESIAN Y     3.484439     -0.905633  KCAL/ANGSTROM
     18          6  C    CARTESIAN Z     1.432138      0.752396  KCAL/ANGSTROM
     19          7  H    CARTESIAN X     0.622425      0.154511  KCAL/ANGSTROM
     20          7  H    CARTESIAN Y     4.263579     -0.545008  KCAL/ANGSTROM
     21          7  H    CARTESIAN Z     0.614134      0.052156  KCAL/ANGSTROM
     22          8  H    CARTESIAN X     1.759129     -0.071115  KCAL/ANGSTROM
     23          8  H    CARTESIAN Y     2.065164     -0.204563  KCAL/ANGSTROM
     24          8  H    CARTESIAN Z     0.599336      0.184346  KCAL/ANGSTROM
     25          9  H    CARTESIAN X    -1.800658     -0.418638  KCAL/ANGSTROM
     26          9  H    CARTESIAN Y     0.224907      0.169151  KCAL/ANGSTROM
     27          9  H    CARTESIAN Z     2.208256     -0.367500  KCAL/ANGSTROM
     28         10  H    CARTESIAN X    -1.714887      0.212706  KCAL/ANGSTROM
     29         10  H    CARTESIAN Y     4.455319     -0.144602  KCAL/ANGSTROM
     30         10  H    CARTESIAN Z     1.441883      0.024707  KCAL/ANGSTROM
     31         11  C    CARTESIAN X     0.813881      0.037300  KCAL/ANGSTROM
     32         11  C    CARTESIAN Y    -0.296851      0.386249  KCAL/ANGSTROM
     33         11  C    CARTESIAN Z     1.461895     -0.531786  KCAL/ANGSTROM
     34         12  C    CARTESIAN X     0.435130     -0.135560  KCAL/ANGSTROM
     35         12  C    CARTESIAN Y    -1.192990      0.136616  KCAL/ANGSTROM
     36         12  C    CARTESIAN Z     2.632946     -0.900779  KCAL/ANGSTROM
     37         13  H    CARTESIAN X     1.086934     -0.837179  KCAL/ANGSTROM
     38         13  H    CARTESIAN Y    -2.074162      0.152283  KCAL/ANGSTROM
     39         13  H    CARTESIAN Z     2.714446      0.207690  KCAL/ANGSTROM
     40         14  H    CARTESIAN X    -0.598805      0.484718  KCAL/ANGSTROM
     41         14  H    CARTESIAN Y    -1.561720     -0.096801  KCAL/ANGSTROM
     42         14  H    CARTESIAN Z     2.578122      0.002694  KCAL/ANGSTROM
     43         15  H    CARTESIAN X     0.528908     -0.108358  KCAL/ANGSTROM
     44         15  H    CARTESIAN Y    -0.639353      0.146804  KCAL/ANGSTROM
     45         15  H    CARTESIAN Z     3.580308     -1.000326  KCAL/ANGSTROM
     46         16  N    CARTESIAN X     0.531795     -0.784078  KCAL/ANGSTROM
     47         16  N    CARTESIAN Y    -1.038033      0.314238  KCAL/ANGSTROM
     48         16  N    CARTESIAN Z     0.187955      3.785504  KCAL/ANGSTROM
     49         17  O    CARTESIAN X     1.469103      2.954609  KCAL/ANGSTROM
     50         17  O    CARTESIAN Y    -1.276243     -0.745829  KCAL/ANGSTROM
     51         17  O    CARTESIAN Z    -0.562000     -2.505965  KCAL/ANGSTROM
     52         18  O    CARTESIAN X    -0.611196     -2.010136  KCAL/ANGSTROM
     53         18  O    CARTESIAN Y    -1.377369     -0.063605  KCAL/ANGSTROM
     54         18  O    CARTESIAN Z    -0.072528     -0.439384  KCAL/ANGSTROM
     55         19  N    CARTESIAN X     5.030192     -0.124793  KCAL/ANGSTROM
     56         19  N    CARTESIAN Y     0.395257     -0.049378  KCAL/ANGSTROM
     57         19  N    CARTESIAN Z     4.227379      0.325039  KCAL/ANGSTROM
     58         20  C    CARTESIAN X     5.800933     -0.277216  KCAL/ANGSTROM
     59         20  C    CARTESIAN Y    -0.862198      0.382013  KCAL/ANGSTROM
     60         20  C    CARTESIAN Z     4.368351      0.108459  KCAL/ANGSTROM
     61         21  C    CARTESIAN X     6.638221      0.379255  KCAL/ANGSTROM
     62         21  C    CARTESIAN Y    -0.811530      0.007992  KCAL/ANGSTROM
     63         21  C    CARTESIAN Z     5.664969     -0.263613  KCAL/ANGSTROM
     64         22  N    CARTESIAN X     7.554466     -0.072433  KCAL/ANGSTROM
     65         22  N    CARTESIAN Y     0.355299     -0.205285  KCAL/ANGSTROM
     66         22  N    CARTESIAN Z     5.623374     -0.703235  KCAL/ANGSTROM
     67         23  C    CARTESIAN X     6.782894      0.288134  KCAL/ANGSTROM
     68         23  C    CARTESIAN Y     1.614828     -0.284511  KCAL/ANGSTROM
     69         23  C    CARTESIAN Z     5.481981     -0.141161  KCAL/ANGSTROM
     70         24  C    CARTESIAN X     5.941419      0.082084  KCAL/ANGSTROM
     71         24  C    CARTESIAN Y     1.565587     -0.107025  KCAL/ANGSTROM
     72         24  C    CARTESIAN Z     4.190473      0.168923  KCAL/ANGSTROM
     73         25  H    CARTESIAN X     5.317204     -0.056052  KCAL/ANGSTROM
     74         25  H    CARTESIAN Y     2.482664     -0.166880  KCAL/ANGSTROM
     75         25  H    CARTESIAN Z     4.111024      0.099278  KCAL/ANGSTROM
     76         26  H    CARTESIAN X     6.613857     -0.062916  KCAL/ANGSTROM
     77         26  H    CARTESIAN Y     1.553918      0.440155  KCAL/ANGSTROM
     78         26  H    CARTESIAN Z     3.306493      0.369726  KCAL/ANGSTROM
     79         27  H    CARTESIAN X     7.503628     -0.396427  KCAL/ANGSTROM
     80         27  H    CARTESIAN Y     2.458937     -0.272485  KCAL/ANGSTROM
     81         27  H    CARTESIAN Z     5.430889      0.002092  KCAL/ANGSTROM
     82         28  H    CARTESIAN X     6.119796      0.057951  KCAL/ANGSTROM
     83         28  H    CARTESIAN Y     1.809880      0.572592  KCAL/ANGSTROM
     84         28  H    CARTESIAN Z     6.351496     -0.568724  KCAL/ANGSTROM
     85         29  H    CARTESIAN X     7.255771     -0.091684  KCAL/ANGSTROM
     86         29  H    CARTESIAN Y    -1.730529      0.600018  KCAL/ANGSTROM
     87         29  H    CARTESIAN Z     5.754261      0.065680  KCAL/ANGSTROM
     88         30  H    CARTESIAN X     5.959865     -0.174889  KCAL/ANGSTROM
     89         30  H    CARTESIAN Y    -0.788404     -0.345636  KCAL/ANGSTROM
     90         30  H    CARTESIAN Z     6.544831     -0.152536  KCAL/ANGSTROM
     91         31  H    CARTESIAN X     6.466472     -0.075034  KCAL/ANGSTROM
     92         31  H    CARTESIAN Y    -1.056870     -0.465386  KCAL/ANGSTROM
     93         31  H    CARTESIAN Z     3.500722      0.309192  KCAL/ANGSTROM
     94         32  H    CARTESIAN X     1.933700      0.212604  KCAL/ANGSTROM
     95         32  H    CARTESIAN Y    -0.094055      0.406504  KCAL/ANGSTROM
     96         32  H    CARTESIAN Z     1.494709      0.383552  KCAL/ANGSTROM
     97         33  H    CARTESIAN X     4.474752      0.219194  KCAL/ANGSTROM
     98         33  H    CARTESIAN Y     0.374481     -0.250028  KCAL/ANGSTROM
     99         33  H    CARTESIAN Z     3.361119      0.193418  KCAL/ANGSTROM
    100         34  H    CARTESIAN X     5.076718     -0.106973  KCAL/ANGSTROM
    101         34  H    CARTESIAN Y    -1.704453      0.223896  KCAL/ANGSTROM
    102         34  H    CARTESIAN Z     4.418102     -0.065863  KCAL/ANGSTROM
    103         35  H    CARTESIAN X     8.108178      0.094314  KCAL/ANGSTROM
    104         35  H    CARTESIAN Y     0.389625      0.274720  KCAL/ANGSTROM
    105         35  H    CARTESIAN Z     6.488352     -0.639517  KCAL/ANGSTROM
    106         36  H    CARTESIAN X     4.191132      0.599234  KCAL/ANGSTROM
    107         36  H    CARTESIAN Y     1.657574      0.219523  KCAL/ANGSTROM
    108         36  H    CARTESIAN Z     1.120741     -0.446777  KCAL/ANGSTROM
    109         37  H    CARTESIAN X     3.318537     -0.005204  KCAL/ANGSTROM
    110         37  H    CARTESIAN Y     2.040524     -0.004481  KCAL/ANGSTROM
    111         37  H    CARTESIAN Z     2.311138      0.544077  KCAL/ANGSTROM
    112         38  O    CARTESIAN X     3.605471     -0.255197  KCAL/ANGSTROM
    113         38  O    CARTESIAN Y     1.278210      0.095830  KCAL/ANGSTROM
    114         38  O    CARTESIAN Z     1.792558      0.671003  KCAL/ANGSTROM
    115         39  H    CARTESIAN X    -2.917843      0.217503  KCAL/ANGSTROM
    116         39  H    CARTESIAN Y     2.434552      0.375632  KCAL/ANGSTROM
    117         39  H    CARTESIAN Z     2.239342      0.411696  KCAL/ANGSTROM




   ATOM   CHEMICAL          X               Y               Z
  NUMBER   SYMBOL      (ANGSTROMS)     (ANGSTROMS)     (ANGSTROMS)

     1       C          0.09418645  *   3.37957821  *   0.97106636  *
     2       C          0.73178473  *   2.14268938  *   0.96667527  *
     3       C          0.06351591  *   1.00742541  *   1.43057123  *
     4       C         -1.25671230  *   1.10920339  *   1.87155626  *
     5       C         -1.89225856  *   2.35055433  *   1.87779929  *
     6       C         -1.21830045  *   3.48443941  *   1.43213834  *
     7       H          0.62242512  *   4.26357944  *   0.61413373  *
     8       H          1.75912889  *   2.06516431  *   0.59933557  *
     9       H         -1.80065835  *   0.22490664  *   2.20825649  *
    10       H         -1.71488683  *   4.45531918  *   1.44188346  *
    11       C          0.81388114  *  -0.29685057  *   1.46189503  *
    12       C          0.43512995  *  -1.19298960  *   2.63294631  *
    13       H          1.08693383  *  -2.07416245  *   2.71444606  *
    14       H         -0.59880534  *  -1.56171975  *   2.57812194  *
    15       H          0.52890786  *  -0.63935348  *   3.58030833  *
    16       N          0.53179524  *  -1.03803345  *   0.18795490  *
    17       O          1.46910254  *  -1.27624335  *  -0.56199951  *
    18       O         -0.61119647  *  -1.37736938  *  -0.07252836  *
    19       N          5.03019193  *   0.39525673  *   4.22737944  *
    20       C          5.80093343  *  -0.86219840  *   4.36835128  *
    21       C          6.63822077  *  -0.81152953  *   5.66496888  *
    22       N          7.55446617  *   0.35529868  *   5.62337417  *
    23       C          6.78289405  *   1.61482774  *   5.48198091  *
    24       C          5.94141867  *   1.56558745  *   4.19047254  *
    25       H          5.31720365  *   2.48266400  *   4.11102431  *
    26       H          6.61385745  *   1.55391771  *   3.30649333  *
    27       H          7.50362782  *   2.45893694  *   5.43088897  *
    28       H          6.11979563  *   1.80988043  *   6.35149558  *
    29       H          7.25577132  *  -1.73052888  *   5.75426086  *
    30       H          5.95986545  *  -0.78840387  *   6.54483073  *
    31       H          6.46647154  *  -1.05687037  *   3.50072197  *
    32       H          1.93369950  *  -0.09405451  *   1.49470861  *
    33       H          4.47475238  *   0.37448122  *   3.36111895  *
    34       H          5.07671790  *  -1.70445327  *   4.41810215  *
    35       H          8.10817780  *   0.38962548  *   6.48835182  *
    36       H          4.19113197  *   1.65757387  *   1.12074126  *
    37       H          3.31853731  *   2.04052367  *   2.31113754  *
    38       O          3.60547147  *   1.27821022  *   1.79255837  *
    39       H         -2.91784284  *   2.43455223  *   2.23934228  *

                             CARTESIAN COORDINATES

   1    C        0.094186454     3.379578214     0.971066365
   2    C        0.731784733     2.142689383     0.966675270
   3    C        0.063515912     1.007425406     1.430571234
   4    C       -1.256712297     1.109203392     1.871556262
   5    C       -1.892258563     2.350554326     1.877799291
   6    C       -1.218300449     3.484439414     1.432138339
   7    H        0.622425116     4.263579442     0.614133728
   8    H        1.759128894     2.065164315     0.599335566
   9    H       -1.800658347     0.224906643     2.208256486
  10    H       -1.714886833     4.455319183     1.441883464
  11    C        0.813881137    -0.296850570     1.461895029
  12    C        0.435129953    -1.192989599     2.632946313
  13    H        1.086933835    -2.074162451     2.714446058
  14    H       -0.598805339    -1.561719747     2.578121937
  15    H        0.528907857    -0.639353478     3.580308327
  16    N        0.531795236    -1.038033451     0.187954901
  17    O        1.469102540    -1.276243354    -0.561999508
  18    O       -0.611196469    -1.377369382    -0.072528356
  19    N        5.030191932     0.395256733     4.227379439
  20    C        5.800933434    -0.862198398     4.368351283
  21    C        6.638220767    -0.811529530     5.664968879
  22    N        7.554466168     0.355298683     5.623374172
  23    C        6.782894048     1.614827737     5.481980914
  24    C        5.941418668     1.565587447     4.190472542
  25    H        5.317203651     2.482664004     4.111024308
  26    H        6.613857448     1.553917711     3.306493331
  27    H        7.503627817     2.458936935     5.430888971
  28    H        6.119795632     1.809880427     6.351495581
  29    H        7.255771317    -1.730528875     5.754260864
  30    H        5.959865449    -0.788403866     6.544830731
  31    H        6.466471542    -1.056870367     3.500721965
  32    H        1.933699500    -0.094054511     1.494708612
  33    H        4.474752383     0.374481217     3.361118951
  34    H        5.076717897    -1.704453275     4.418102151
  35    H        8.108177802     0.389625480     6.488351825
  36    H        4.191131967     1.657573865     1.120741256
  37    H        3.318537311     2.040523669     2.311137537
  38    O        3.605471466     1.278210218     1.792558368
  39    H       -2.917842840     2.434552232     2.239342278


           Empirical Formula: C12 H21 N3 O3  =    39 atoms



      MOLECULAR POINT GROUP   :   C1  


                  EIGENVALUES  
 -37.31418 -35.98968 -34.28129 -31.04996 -30.75396 -29.12770 -28.98097 -26.35930
 -26.22034 -25.67691 -24.93464 -24.51857 -22.29077 -21.67737 -21.25007 -20.31697
 -19.49853 -18.52414 -18.50893 -18.10758 -17.55789 -17.42214 -17.08751 -16.00009
 -15.87875 -15.74775 -15.32918 -14.97430 -14.94943 -14.90998 -14.49788 -14.26006
 -14.24624 -14.00474 -13.84733 -13.53007 -13.12352 -12.87738 -12.42184 -12.25576
 -12.20601 -11.96260 -11.92062 -11.82064 -11.78819 -11.52056 -11.49897 -10.13749
 -10.09426  -9.66346  -9.22674  -0.55952  -0.32551  -0.06259   0.63268   2.22055
   2.90758   3.05152   3.22087   3.26276   3.80592   4.00221   4.04255   4.12289
   4.27616   4.39285   4.44720   4.54663   4.71198   4.87767   4.97615   4.99529
   5.13632   5.38109   5.42539   5.46104   5.47651   5.54265   5.62252   5.70136
   5.96082   5.97208   6.01859   6.02911   6.06170   6.07519   6.14409   6.16291
   6.20802   6.58180   6.63101   6.74129   6.89474


              NET ATOMIC CHARGES AND DIPOLE CONTRIBUTIONS

  ATOM NO.   TYPE          CHARGE      No. of ELECS.   s-Pop       p-Pop       
    1          C          -0.164456        4.1645     1.08672     3.07774
    2          C          -0.139903        4.1399     1.09201     3.04790
    3          C          -0.075506        4.0755     1.06643     3.00908
    4          C          -0.128571        4.1286     1.08951     3.03906
    5          C          -0.169235        4.1692     1.08653     3.08271
    6          C          -0.134708        4.1347     1.09018     3.04453
    7          H           0.166632        0.8334     0.83337
    8          H           0.178035        0.8220     0.82196
    9          H           0.171935        0.8281     0.82807
   10          H           0.163762        0.8362     0.83624
   11          C          -0.044705        4.0447     1.09739     2.94731
   12          C          -0.469111        4.4691     1.05762     3.41149
   13          H           0.177924        0.8221     0.82208
   14          H           0.177039        0.8230     0.82296
   15          H           0.185525        0.8145     0.81448
   16          N           0.621698        4.3783     1.48228     2.89602
   17          O          -0.458458        6.4585     1.94046     4.51800
   18          O          -0.446492        6.4465     1.93931     4.50718
   19          N          -0.586731        5.5867     1.67815     3.90858
   20          C          -0.123959        4.1240     1.07001     3.05395
   21          C          -0.125980        4.1260     1.07073     3.05525
   22          N          -0.578800        5.5788     1.67792     3.90088
   23          C          -0.128127        4.1281     1.07026     3.05787
   24          C          -0.123168        4.1232     1.06987     3.05330
   25          H           0.145092        0.8549     0.85491
   26          H           0.129211        0.8708     0.87079
   27          H           0.145046        0.8550     0.85495
   28          H           0.130557        0.8694     0.86944
   29          H           0.145735        0.8543     0.85427
   30          H           0.129975        0.8700     0.87003
   31          H           0.129290        0.8707     0.87071
   32          H           0.219838        0.7802     0.78016
   33          H           0.286804        0.7132     0.71320
   34          H           0.145261        0.8547     0.85474
   35          H           0.274281        0.7257     0.72572
   36          H           0.378714        0.6213     0.62129
   37          H           0.370783        0.6292     0.62922
   38          O          -0.742004        6.7420     1.81600     4.92600
   39          H           0.166780        0.8332     0.83322
 DIPOLE           X         Y         Z       TOTAL
 POINT-CHG.     1.209     5.240     4.770     7.188
 HYBRID        -0.058     0.029    -0.454     0.459
 SUM            1.151     5.269     4.315     6.907


          ATOMIC ORBITAL ELECTRON POPULATIONS

     Atom    s        px        py        pz   
    1  C   1.08672   1.01094   1.05499   1.01181
    2  C   1.09201   1.08016   0.98131   0.98643
    3  C   1.06643   0.99261   0.96076   1.05570
    4  C   1.08951   0.99809   1.05711   0.98386
    5  C   1.08653   1.08247   0.98568   1.01455
    6  C   1.09018   1.00548   1.06736   0.97169
    7  H   0.83337
    8  H   0.82196
    9  H   0.82807
   10  H   0.83624
   11  C   1.09739   1.14211   0.95343   0.85177
   12  C   1.05762   1.19981   1.13267   1.07901
   13  H   0.82208
   14  H   0.82296
   15  H   0.81448
   16  N   1.48228   0.95337   0.93625   1.00639
   17  O   1.94046   1.36066   1.62451   1.53284
   18  O   1.93931   1.10849   1.58324   1.81545
   19  N   1.67815   1.29404   1.09553   1.51901
   20  C   1.07001   1.04948   0.94692   1.05755
   21  C   1.07073   1.02286   0.97452   1.05786
   22  N   1.67792   1.29523   1.10052   1.50513
   23  C   1.07026   1.05062   0.94421   1.06304
   24  C   1.06987   1.02319   0.97632   1.05379
   25  H   0.85491
   26  H   0.87079
   27  H   0.85495
   28  H   0.86944
   29  H   0.85427
   30  H   0.87003
   31  H   0.87071
   32  H   0.78016
   33  H   0.71320
   34  H   0.85474
   35  H   0.72572
   36  H   0.62129
   37  H   0.62922
   38  O   1.81600   1.77285   1.52546   1.62769
   39  H   0.83322

 **********************
 *                    *
 * JOB ENDED NORMALLY *
 *                    *
 **********************



 TOTAL JOB TIME:             6.22 SECONDS

 == MOPAC DONE ==
