 *******************************************************************************
 **                                                                           **
 **                              MOPAC v22.0.6                                **
 **                                                                           **
 *******************************************************************************
 **          Digital Object Identifier (DOI): 10.5281/zenodo.6511958          **
 **    Visit the DOI location for information on how to cite this program.    **
 *******************************************************************************

                              PM7 CALCULATION RESULTS

 *******************************************************************************
 *  CALCULATION DONE:                                Sun Mar 24 01:32:46 2024  *
 *  PM7        - The PM7 Hamiltonian to be used
 *  SINGLET    - SPIN STATE DEFINED AS A SINGLET
 *
 *
 *
 *                 CHARGE ON SYSTEM = 0
 *
 *
 *
 *  EPS=78.4   - USE ANDREAS KLAMT'S COSMO IMPLICIT SOLVATION MODEL
 *  THREADS    - USE A MAXIMUM OF 30 THREADS
 *  T=         - A TIME OF 14.0 DAYS REQUESTED
 *  DUMP=N     - RESTART FILE WRITTEN EVERY 30.0 MINUTES REQUESTED
 *  RELSCF     - DEFAULT SCF CRITERION MULTIPLIED BY 1.0000
 *              (DEFAULT SCF CRITERION = 0.00010)
 *  ITRY=      - DO A MAXIMUM OF 15000 ITERATIONS FOR SCF
 *  AUX        - OUTPUT AUXILIARY INFORMATION
 *  BONDS      - FINAL BOND-ORDER MATRIX TO BE PRINTED
 *******************************************************************************
PM7 BONDS AUX DUMP=30M ITRY=15000 T=14D THREADS=30 CHARGE=0 SINGLET eps=78.4 RELSCF=1
 Title: ASE calculation

   ATOM   CHEMICAL          X               Y               Z
  NUMBER   SYMBOL      (ANGSTROMS)     (ANGSTROMS)     (ANGSTROMS)

     1       C          0.30554957     -0.77508293      0.61285559   
     2       H          0.57876423  *  -0.14739853  *  -0.22320772  *
     3       H          0.05622502  *  -0.25075667  *   1.52188491  *
     4       H          2.06291692     -1.11725526  *   1.01579869  *
     5       N         -0.18181249  *  -2.01515774  *   0.38454050  *
     6       O         -0.69691310  *  -2.68469606  *   1.30316502  *
     7       O         -0.07706214  *  -2.54879888  *  -0.73903771  *
     8       H          3.62871751  *  -1.64107341  *   1.15406049  *
     9       O          2.81601528     -1.17410237      1.64880762   
    10       H          3.11449386  *  -0.22049214  *   1.69080395  *
    11       H          5.56839278  *  -1.55033567  *   0.50810888  *
    12       O          5.04480759  *  -2.21315256  *   0.99933843  *
    13       H          5.46089887  *  -2.21351264  *   1.88485764  *



          CARTESIAN COORDINATES 

    NO.       ATOM           X           Y           Z

     1         C          0.3055     -0.7751      0.6129
     2         H          0.5788     -0.1474     -0.2232
     3         H          0.0562     -0.2508      1.5219
     4         H          2.0629     -1.1173      1.0158
     5         N         -0.1818     -2.0152      0.3845
     6         O         -0.6969     -2.6847      1.3032
     7         O         -0.0771     -2.5488     -0.7390
     8         H          3.6287     -1.6411      1.1541
     9         O          2.8160     -1.1741      1.6488
    10         H          3.1145     -0.2205      1.6908
    11         H          5.5684     -1.5503      0.5081
    12         O          5.0448     -2.2132      0.9993
    13         H          5.4609     -2.2135      1.8849

 General Reference for PM7:
 "Optimization of Parameters for Semiempirical Methods VI: More Modifications to the 
 NDDO Approximations and Re-optimization of Parameters", J. J. P. Stewart, J. Mol. Mod., 1:32, 19 (2013)
 https://link.springer.com/article/10.1007/s00894-012-1667-x

           Empirical Formula: C H7 N O4  =    13 atoms



      MOLECULAR POINT GROUP   :   C1  


 SINGLET STATE CALCULATION


      RHF CALCULATION, NO. OF DOUBLY OCCUPIED LEVELS = 20


          Geometry optimization using EF
  SCF CRITERION =    0.1000E-03

          DIAGONAL MATRIX USED AS START HESSIAN

 CYCLE:     1 TIME:   0.035 TIME LEFT:  2.00W  GRAD.:    51.033 HEAT: -139.4261

     TRUST RADIUS NOW LESS THAN  0.00010 OPTIMIZATION TERMINATING
      THE GEOMETRY MAY NOT BE COMPLETELY OPTIMIZED
      (TO CONTINUE, ADD 'LET DDMIN=0.0' TO THE KEYWORD LINE)

 -------------------------------------------------------------------------------
 PM7 BONDS AUX DUMP=30M ITRY=15000 T=14D THREADS=30 CHARGE=0 SINGLET eps=78.4 RELSCF=1
 Title: ASE calculation



     GEOMETRY OPTIMISED USING EIGENVECTOR FOLLOWING (EF).     
     SCF FIELD WAS ACHIEVED                                   


                              PM7 CALCULATION
                                                       MOPAC v22.0.6 Linux
                                                       Sun Mar 24 01:32:46 2024




          FINAL HEAT OF FORMATION =       -139.42609 KCAL/MOL =    -583.35874 KJ/MOL
          VAN DER WAALS AREA      =        144.86 SQUARE ANGSTROMS



          DIELECTRIC ENERGY       =         -2.90184 EV
          COSMO AREA              =        144.86 SQUARE ANGSTROMS
          COSMO VOLUME            =        118.87 CUBIC ANGSTROMS

          GRADIENT NORM           =         51.03349          =       14.15414 PER ATOM
          IONIZATION POTENTIAL    =          9.479980 EV
          HOMO LUMO ENERGIES (EV) =         -9.480  0.696
          NO. OF FILLED LEVELS    =         20
          MOLECULAR WEIGHT        =         97.0706         POINT GROUP:  C1  

          MOLECULAR DIMENSIONS (Angstroms)

            Atom       Atom       Distance
            H    11    O     6     6.41661
            H    13    H     2     3.92477
            H    10    O     7     3.26839


          SCF CALCULATIONS        =         14

          WALL-CLOCK TIME         =      0.228 SECONDS
          COMPUTATION TIME        =      5.163 SECONDS



       FINAL  POINT  AND  DERIVATIVES

   PARAMETER     ATOM    TYPE            VALUE        GRADIENT
      1          2  H    CARTESIAN X     0.578764     -4.044284  KCAL/ANGSTROM
      2          2  H    CARTESIAN Y    -0.147399      2.689992  KCAL/ANGSTROM
      3          2  H    CARTESIAN Z    -0.223208     -3.612337  KCAL/ANGSTROM
      4          3  H    CARTESIAN X     0.056225     -5.308738  KCAL/ANGSTROM
      5          3  H    CARTESIAN Y    -0.250757      3.392084  KCAL/ANGSTROM
      6          3  H    CARTESIAN Z     1.521885      0.647648  KCAL/ANGSTROM
      7          4  H    CARTESIAN Y    -1.117255      4.504217  KCAL/ANGSTROM
      8          4  H    CARTESIAN Z     1.015799     26.744320  KCAL/ANGSTROM
      9          5  N    CARTESIAN X    -0.181812    -16.713913  KCAL/ANGSTROM
     10          5  N    CARTESIAN Y    -2.015158    -30.220457  KCAL/ANGSTROM
     11          5  N    CARTESIAN Z     0.384541     -6.747673  KCAL/ANGSTROM
     12          6  O    CARTESIAN X    -0.696913      4.141116  KCAL/ANGSTROM
     13          6  O    CARTESIAN Y    -2.684696      5.698955  KCAL/ANGSTROM
     14          6  O    CARTESIAN Z     1.303165     -6.978657  KCAL/ANGSTROM
     15          7  O    CARTESIAN X    -0.077062      0.145371  KCAL/ANGSTROM
     16          7  O    CARTESIAN Y    -2.548799      4.936673  KCAL/ANGSTROM
     17          7  O    CARTESIAN Z    -0.739038      8.751971  KCAL/ANGSTROM
     18          8  H    CARTESIAN X     3.628718    -14.084398  KCAL/ANGSTROM
     19          8  H    CARTESIAN Y    -1.641073      5.894877  KCAL/ANGSTROM
     20          8  H    CARTESIAN Z     1.154060      0.957889  KCAL/ANGSTROM
     21         10  H    CARTESIAN X     3.114494     -4.397466  KCAL/ANGSTROM
     22         10  H    CARTESIAN Y    -0.220492     -7.976895  KCAL/ANGSTROM
     23         10  H    CARTESIAN Z     1.690804     -3.159586  KCAL/ANGSTROM
     24         11  H    CARTESIAN X     5.568393      0.311953  KCAL/ANGSTROM
     25         11  H    CARTESIAN Y    -1.550336     -0.571201  KCAL/ANGSTROM
     26         11  H    CARTESIAN Z     0.508109      0.867567  KCAL/ANGSTROM
     27         12  O    CARTESIAN X     5.044808      4.889612  KCAL/ANGSTROM
     28         12  O    CARTESIAN Y    -2.213153     -0.871392  KCAL/ANGSTROM
     29         12  O    CARTESIAN Z     0.999338      1.036484  KCAL/ANGSTROM
     30         13  H    CARTESIAN X     5.460899      0.743694  KCAL/ANGSTROM
     31         13  H    CARTESIAN Y    -2.213513      0.174540  KCAL/ANGSTROM
     32         13  H    CARTESIAN Z     1.884858      0.388393  KCAL/ANGSTROM




   ATOM   CHEMICAL          X               Y               Z
  NUMBER   SYMBOL      (ANGSTROMS)     (ANGSTROMS)     (ANGSTROMS)

     1       C          0.30554957     -0.77508293      0.61285559   
     2       H          0.57876423  *  -0.14739853  *  -0.22320772  *
     3       H          0.05622502  *  -0.25075667  *   1.52188491  *
     4       H          2.06291692     -1.11725526  *   1.01579869  *
     5       N         -0.18181249  *  -2.01515774  *   0.38454050  *
     6       O         -0.69691310  *  -2.68469606  *   1.30316502  *
     7       O         -0.07706214  *  -2.54879888  *  -0.73903771  *
     8       H          3.62871751  *  -1.64107341  *   1.15406049  *
     9       O          2.81601528     -1.17410237      1.64880762   
    10       H          3.11449386  *  -0.22049214  *   1.69080395  *
    11       H          5.56839278  *  -1.55033567  *   0.50810888  *
    12       O          5.04480759  *  -2.21315256  *   0.99933843  *
    13       H          5.46089887  *  -2.21351264  *   1.88485764  *

                             CARTESIAN COORDINATES

   1    C        0.305549570    -0.775082930     0.612855590
   2    H        0.578764230    -0.147398530    -0.223207720
   3    H        0.056225020    -0.250756670     1.521884910
   4    H        2.062916920    -1.117255260     1.015798690
   5    N       -0.181812490    -2.015157740     0.384540500
   6    O       -0.696913100    -2.684696060     1.303165020
   7    O       -0.077062140    -2.548798880    -0.739037710
   8    H        3.628717510    -1.641073410     1.154060490
   9    O        2.816015280    -1.174102370     1.648807620
  10    H        3.114493860    -0.220492140     1.690803950
  11    H        5.568392780    -1.550335670     0.508108880
  12    O        5.044807590    -2.213152560     0.999338430
  13    H        5.460898870    -2.213512640     1.884857640


           Empirical Formula: C H7 N O4  =    13 atoms



      MOLECULAR POINT GROUP   :   C1  


                  EIGENVALUES  
 -36.15677 -32.56282 -29.74320 -28.69410 -26.38371 -21.24769 -19.23727 -18.84138
 -17.99882 -17.65405 -17.18042 -16.39557 -15.68511 -15.03333 -13.65508 -13.03129
 -11.35134 -11.14417 -11.05454  -9.47998   0.69555   1.65293   1.92475   3.74601
   4.79743   4.89809   5.30620   5.70410   6.05511   6.36065   6.70903


              NET ATOMIC CHARGES AND DIPOLE CONTRIBUTIONS

  ATOM NO.   TYPE          CHARGE      No. of ELECS.   s-Pop       p-Pop       
    1          C          -0.688705        4.6887     1.08734     3.60136
    2          H           0.187261        0.8127     0.81274
    3          H           0.186660        0.8133     0.81334
    4          H           0.405577        0.5944     0.59442
    5          N           0.759361        4.2406     1.41179     2.82885
    6          O          -0.683875        6.6839     1.94219     4.74169
    7          O          -0.683481        6.6835     1.94233     4.74116
    8          H           0.447828        0.5522     0.55217
    9          O          -0.445631        6.4456     1.77302     4.67261
   10          H           0.425200        0.5748     0.57480
   11          H           0.396828        0.6032     0.60317
   12          O          -0.701496        6.7015     1.81232     4.88918
   13          H           0.394474        0.6055     0.60553
 DIPOLE           X         Y         Z       TOTAL
 POINT-CHG.    17.559     8.707     4.242    20.053
 HYBRID        -0.238    -0.035    -0.305     0.389
 SUM           17.321     8.672     3.937    19.767


          ATOMIC ORBITAL ELECTRON POPULATIONS

     Atom    s        px        py        pz   
    1  C   1.08734   1.42139   0.97177   1.20821
    2  H   0.81274
    3  H   0.81334
    4  H   0.59442
    5  N   1.41179   0.92129   0.99208   0.91548
    6  O   1.94219   1.62861   1.68654   1.42653
    7  O   1.94233   1.77091   1.77734   1.19291
    8  H   0.55217
    9  O   1.77302   1.50854   1.49627   1.66780
   10  H   0.57480
   11  H   0.60317
   12  O   1.81232   1.67551   1.72751   1.48616
   13  H   0.60553

          BONDING CONTRIBUTION OF EACH M.O.

  1.4115  1.1505  1.0830  0.9518  1.1941  1.0730  1.4361  1.4856  1.6110  1.0791
  1.6091  1.1724  0.6846  0.6538  1.8662  0.2227  0.5208  0.4524  0.2501  0.8807
 -2.3482 -1.8847 -2.1489 -1.6965 -1.9240 -1.6555 -1.6580 -1.9042 -1.6794 -1.9614
 -1.9278





            (VALENCIES)   BOND ORDERS

     1  C     (3.612)     5  N 1.311     3  H 0.949     2  H 0.947     7  O 0.143     6  O 0.143     4  H 0.085
                          9  O 0.027

     2  H     (0.965)     1  C 0.947

     3  H     (0.965)     1  C 0.949

     4  H     (0.836)     9  O 0.730     1  C 0.085

     5  N     (3.811)     1  C 1.311     6  O 1.239     7  O 1.240

     6  O     (1.569)     5  N 1.239     7  O 0.169     1  C 0.143

     7  O     (1.569)     5  N 1.240     6  O 0.169     1  C 0.143

     8  H     (0.799)     9  O 0.663    12  O 0.130

     9  O     (2.296)    10  H 0.810     4  H 0.730     8  H 0.663    12  O 0.045     1  C 0.027

    10  H     (0.819)     9  O 0.810

    11  H     (0.843)    12  O 0.839

    12  O     (1.860)    13  H 0.841    11  H 0.839     8  H 0.130     9  O 0.045

    13  H     (0.844)    12  O 0.841


 **********************
 *                    *
 * JOB ENDED NORMALLY *
 *                    *
 **********************



 TOTAL JOB TIME:             0.23 SECONDS

 == MOPAC DONE ==
