 *******************************************************************************
 **                                                                           **
 **                              MOPAC v22.0.6                                **
 **                                                                           **
 *******************************************************************************
 **          Digital Object Identifier (DOI): 10.5281/zenodo.6511958          **
 **    Visit the DOI location for information on how to cite this program.    **
 *******************************************************************************

                              PM7 CALCULATION RESULTS

 *******************************************************************************
 *  CALCULATION DONE:                                Sun Mar 24 01:32:47 2024  *
 *  PM7        - The PM7 Hamiltonian to be used
 *  SINGLET    - SPIN STATE DEFINED AS A SINGLET
 *
 *
 *
 *                 CHARGE ON SYSTEM = 0
 *
 *
 *
 *  EPS=78.4   - USE ANDREAS KLAMT'S COSMO IMPLICIT SOLVATION MODEL
 *  LET        - OVERRIDE SOME SAFETY CHECKS
 *  THREADS    - USE A MAXIMUM OF 30 THREADS
 *  T=         - A TIME OF 14.0 DAYS REQUESTED
 *  DUMP=N     - RESTART FILE WRITTEN EVERY 30.0 MINUTES REQUESTED
 *  RELSCF     - DEFAULT SCF CRITERION MULTIPLIED BY 1.0000
 *              (DEFAULT SCF CRITERION = 0.00010)
 *  ITRY=      - DO A MAXIMUM OF 15000 ITERATIONS FOR SCF
 *  AUX        - OUTPUT AUXILIARY INFORMATION
 *  ISOTOPE    - SAVE THE FORCE MATRIX FOR USE LATER
 *  BONDS      - FINAL BOND-ORDER MATRIX TO BE PRINTED
 *  LARGE      - EXPANDED OUTPUT TO BE PRINTED
 *  THERMO     - THERMODYNAMIC QUANTITIES TO BE CALCULATED
 *******************************************************************************
PM7 AUX LARGE THERMO(298,298) LET ISOTOPE BONDS DUMP=30M ITRY=15000 T=14D THREADS=30 CHARGE=0 SINGLET eps=78.4 RELSCF=1
 Title: ASE calculation

   ATOM   CHEMICAL          X               Y               Z
  NUMBER   SYMBOL      (ANGSTROMS)     (ANGSTROMS)     (ANGSTROMS)

     1       C          0.30554957  *  -0.77508293  *   0.61285559  *
     2       H          0.57876423  *  -0.14739853  *  -0.22320772  *
     3       H          0.05622502  *  -0.25075667  *   1.52188491  *
     4       D          2.06291692  *  -1.11725526  *   1.01579869  *
     5       N         -0.18181249  *  -2.01515774  *   0.38454050  *
     6       O         -0.69691310  *  -2.68469606  *   1.30316502  *
     7       O         -0.07706214  *  -2.54879888  *  -0.73903771  *
     8       H          3.62871751  *  -1.64107341  *   1.15406049  *
     9       O          2.81601528  *  -1.17410237  *   1.64880762  *
    10       H          3.11449386  *  -0.22049214  *   1.69080395  *
    11       H          5.56839278  *  -1.55033567  *   0.50810888  *
    12       O          5.04480759  *  -2.21315256  *   0.99933843  *
    13       H          5.46089887  *  -2.21351264  *   1.88485764  *


                                Isotopes Used

              Atom:    4  H  Default mass  1.0079,  mass used:  2.0140 amu


          CARTESIAN COORDINATES 

    NO.       ATOM           X           Y           Z

     1         C          0.3055     -0.7751      0.6129
     2         H          0.5788     -0.1474     -0.2232
     3         H          0.0562     -0.2508      1.5219
     4         H          2.0629     -1.1173      1.0158
     5         N         -0.1818     -2.0152      0.3845
     6         O         -0.6969     -2.6847      1.3032
     7         O         -0.0771     -2.5488     -0.7390
     8         H          3.6287     -1.6411      1.1541
     9         O          2.8160     -1.1741      1.6488
    10         H          3.1145     -0.2205      1.6908
    11         H          5.5684     -1.5503      0.5081
    12         O          5.0448     -2.2132      0.9993
    13         H          5.4609     -2.2135      1.8849

 General Reference for PM7:
 "Optimization of Parameters for Semiempirical Methods VI: More Modifications to the 
 NDDO Approximations and Re-optimization of Parameters", J. J. P. Stewart, J. Mol. Mod., 1:32, 19 (2013)
 https://link.springer.com/article/10.1007/s00894-012-1667-x

           Empirical Formula: C H7 N O4  =    13 atoms



      MOLECULAR POINT GROUP   :   C1  


 SINGLET STATE CALCULATION


      RHF CALCULATION, NO. OF DOUBLY OCCUPIED LEVELS = 20

  SCF CRITERION =    0.1000E-03


          HEAT OF FORMATION =    -139.426097 KCALS/MOLE


          CARTESIAN COORDINATE DERIVATIVES

   NUMBER  ATOM         X            Y            Z

     1       C      5.975928    13.056402    23.526091
     2       H      3.352799     0.662343    -4.993529
     3       H      0.118591     3.876763    -5.055634
     4       H    -10.491751    14.706991    35.905388
     5       N    -16.696511   -26.214915   -16.763188
     6       O      9.621138     0.419340     1.954667
     7       O     -3.813770     8.642558     2.247170
     8       H     -0.785888     7.192159   -13.513659
     9       O     17.223294   -14.024566   -24.901321
    10       H     -3.435546    -7.779540    -4.838939
    11       H     -0.681420     0.058229     0.629486
    12       O     -0.394385    -0.640093     4.996158
    13       H      0.007716     0.044518     0.807502

 DIPOLE           X         Y         Z       TOTAL
 POINT-CHG.     6.216     7.093    17.698    20.054
 HYBRID         0.155    -0.169    -0.314     0.388
 SUM            6.371     6.925    17.384    19.768


          GRADIENT NORM =  73.22193



 ** GRADIENT IS VERY LARGE, BUT SINCE "LET" IS USED, CALCULATION WILL CONTINUE


                              **** WARNING ****

           GRADIENT IS VERY LARGE FOR A THERMO CALCULATION
           RESULTS ARE LIKELY TO BE INACCURATE IF THERE ARE
           ANY LOW-LYING VIBRATIONS (LESS THAN ABOUT 400CM-1)
           GRADIENT NORM SHOULD BE LESS THAN ABOUT 1.0 FOR THERMO
           TO GIVE ACCURATE RESULTS


          TIME FOR SCF CALCULATION =    0.04

          TIME FOR DERIVATIVES     =    0.02

          MOLECULAR WEIGHT =   98.08



          ROTATIONAL CONSTANTS IN CM(-1)

          A =    0.17093311   B =    0.03402080   C =    0.03237640



           PRINCIPAL MOMENTS OF INERTIA IN UNITS OF 10**(-40)*GRAM-CM**2

          A =      163.7644   B =      822.8128   C =      864.6036


          ORIENTATION OF MOLECULE IN FORCE CALCULATION

    NO.       ATOM         X         Y         Z

     1          C       0.4617    0.9690   -1.1259
     2          H       1.5423    0.9690   -1.1259
     3          H      -0.0001    1.9438   -1.1259
     4          H       0.3955    0.6799    0.6851
     5          N      -0.2052   -0.1022   -1.6107
     6          O      -1.4351   -0.0566   -1.8173
     7          O       0.3807   -1.1863   -1.8099
     8          H       0.3802    0.1193    2.2442
     9          O       0.0632    0.8895    1.5888
    10          H       0.6601    1.6481    1.8506
    11          H       1.4231   -0.4363    3.9150
    12          O       0.5256   -0.6260    3.5783
    13          H      -0.0545   -0.1817    4.2289


    FIRST DERIVATIVES WILL BE USED IN THE CALCULATION OF SECOND DERIVATIVES

          ESTIMATED TIME TO COMPLETE CALCULATION =        5.07 SECONDS

    FOR POINT-GROUP C1   THERE ARE   1 UNIQUE SYMMETRY FUNCTIONS.

 STEP:   1 TIME =     0.02 SECS, INTEGRAL =      0.02 TIME LEFT:1209599.91
 STEP:   2 TIME =     0.03 SECS, INTEGRAL =      0.05 TIME LEFT:1209599.88
 STEP:   3 TIME =     0.02 SECS, INTEGRAL =      0.08 TIME LEFT:1209599.86
 STEP:   4 TIME =     0.03 SECS, INTEGRAL =      0.10 TIME LEFT:1209599.83
 STEP:   5 TIME =     0.02 SECS, INTEGRAL =      0.13 TIME LEFT:1209599.81
 STEP:   6 TIME =     0.03 SECS, INTEGRAL =      0.15 TIME LEFT:1209599.78
 STEP:   7 TIME =     0.03 SECS, INTEGRAL =      0.18 TIME LEFT:1209599.76
 STEP:   8 TIME =     0.02 SECS, INTEGRAL =      0.20 TIME LEFT:1209599.73
 STEP:   9 TIME =     0.02 SECS, INTEGRAL =      0.23 TIME LEFT:1209599.71
 STEP:  10 TIME =     0.03 SECS, INTEGRAL =      0.25 TIME LEFT:1209599.68
 STEP:  11 TIME =     0.03 SECS, INTEGRAL =      0.28 TIME LEFT:1209599.66
 STEP:  12 TIME =     0.02 SECS, INTEGRAL =      0.30 TIME LEFT:1209599.63
 STEP:  13 TIME =     0.02 SECS, INTEGRAL =      0.33 TIME LEFT:1209599.61
 STEP:  14 TIME =     0.02 SECS, INTEGRAL =      0.35 TIME LEFT:1209599.58
 STEP:  15 TIME =     0.02 SECS, INTEGRAL =      0.38 TIME LEFT:1209599.56
 STEP:  16 TIME =     0.03 SECS, INTEGRAL =      0.40 TIME LEFT:1209599.53
 STEP:  17 TIME =     0.03 SECS, INTEGRAL =      0.43 TIME LEFT:1209599.50
 STEP:  18 TIME =     0.02 SECS, INTEGRAL =      0.46 TIME LEFT:1209599.48
 STEP:  19 TIME =     0.02 SECS, INTEGRAL =      0.48 TIME LEFT:1209599.46
 STEP:  20 TIME =     0.02 SECS, INTEGRAL =      0.50 TIME LEFT:1209599.43
 STEP:  21 TIME =     0.03 SECS, INTEGRAL =      0.53 TIME LEFT:1209599.40
 STEP:  22 TIME =     0.02 SECS, INTEGRAL =      0.56 TIME LEFT:1209599.38
 STEP:  23 TIME =     0.02 SECS, INTEGRAL =      0.58 TIME LEFT:1209599.35
 STEP:  24 TIME =     0.02 SECS, INTEGRAL =      0.61 TIME LEFT:1209599.33
 STEP:  25 TIME =     0.02 SECS, INTEGRAL =      0.63 TIME LEFT:1209599.30
 STEP:  26 TIME =     0.03 SECS, INTEGRAL =      0.66 TIME LEFT:1209599.28
 STEP:  27 TIME =     0.02 SECS, INTEGRAL =      0.68 TIME LEFT:1209599.25
 STEP:  28 TIME =     0.03 SECS, INTEGRAL =      0.71 TIME LEFT:1209599.23
 STEP:  29 TIME =     0.02 SECS, INTEGRAL =      0.73 TIME LEFT:1209599.20
 STEP:  30 TIME =     0.03 SECS, INTEGRAL =      0.76 TIME LEFT:1209599.18
 STEP:  31 TIME =     0.03 SECS, INTEGRAL =      0.78 TIME LEFT:1209599.15
 STEP:  32 TIME =     0.03 SECS, INTEGRAL =      0.81 TIME LEFT:1209599.12
 STEP:  33 TIME =     0.03 SECS, INTEGRAL =      0.84 TIME LEFT:1209599.10
 STEP:  34 TIME =     0.03 SECS, INTEGRAL =      0.86 TIME LEFT:1209599.07
 STEP:  35 TIME =     0.03 SECS, INTEGRAL =      0.89 TIME LEFT:1209599.05
 STEP:  36 TIME =     0.02 SECS, INTEGRAL =      0.91 TIME LEFT:1209599.02
 STEP:  37 TIME =     0.02 SECS, INTEGRAL =      0.94 TIME LEFT:1209599.00
 STEP:  38 TIME =     0.03 SECS, INTEGRAL =      0.96 TIME LEFT:1209598.97
 STEP:  39 TIME =     0.03 SECS, INTEGRAL =      0.99 TIME LEFT:1209598.95

(To convert to Hartree/Bohr^2, multiply by (10^(-21) x N x a0^2)/(4.184 x 627.51) =  0.0642)


           FORCE MATRIX IN MILLIDYNES/ANGSTROM


                  C  1       H  2       H  3       H  4       N  5       O  6
 ------------------------------------------------------------------------------
     C    1  12.832617
     H    2   3.377803   4.230910
     H    3   3.392626   0.420756   4.242167
     H    4   0.906717   0.170818   0.152454   3.207286
     N    5   5.927007   1.032936   1.022273   0.917868  19.170619
     O    6   1.984801   0.151640   0.101605   0.294486   7.960098  10.779572
     O    7   1.974784   0.101306   0.152545   0.290824   7.946220   2.289736
     H    8   0.456958   0.058101   0.039330   0.893046   0.347429   0.123483
     O    9   0.626888   0.059550   0.043865   3.344493   0.410369   0.124808
     H   10   0.118294   0.017134   0.017993   0.736787   0.088198   0.031404
     H   11   0.013590   0.002798   0.001647   0.022971   0.006188   0.001540
     O   12   0.078431   0.011178   0.009575   0.158215   0.049745   0.016846
     H   13   0.015036   0.001959   0.002491   0.025743   0.007428   0.003564


                  O  7       H  8       O  9       H 10       H 11       O 12
 ------------------------------------------------------------------------------
     O    7  10.747643
     H    8   0.101557   2.333870
     O    9   0.132171   3.336203   8.316434
     H   10   0.034890   0.484235   3.622014   4.088456
     H   11   0.015717   0.484293   0.352562   0.028319   4.184232
     O   12   0.048135   1.784052   1.892660   0.101475   3.752569   6.065568
     H   13   0.013192   0.416737   0.262173   0.032314   0.741129   3.755757


                  H 13
 ------------------
     H   13   4.190117


          HEAT OF FORMATION =    -139.426097 KCALS/MOLE


          TRIVIAL VIBRATIONS, SHOULD BE ZERO

  33.3309=TX  22.9686=TY -43.4991=TZ -33.3493=RX -42.6784=RY -36.7982=RZ


      MOLECULAR POINT GROUP   :   C1  


           EIGENVECTORS  


   Root No.       1         2         3         4         5         6         7         8

                 1 A       2 A       3 A       4 A       5 A       6 A       7 A       8 A   

                  -1.2      -0.3      -0.1      -0.0      -0.0       0.0       0.0       0.0
  
           1    0.0232   -0.0113    0.0495    0.0802    0.0359   -0.1059   -0.1249    0.0081
           2   -0.0432    0.0039   -0.0486   -0.0485   -0.0258    0.0048    0.0429    0.1548
           3    0.1599   -0.0673    0.0442    0.0206    0.0823   -0.0902   -0.0834    0.1192
           4    0.0309   -0.0124    0.0530    0.0840    0.0412   -0.1071   -0.1260    0.0139
           5   -0.0407   -0.0223   -0.1272   -0.0563    0.0679    0.0676    0.1142    0.2240
           6    0.0070   -0.0660    0.0138   -0.2601   -0.1407   -0.0478   -0.0490   -0.0378
           7    0.0566    0.0002    0.1311    0.0941   -0.0380   -0.1692   -0.1981   -0.0035
           8   -0.0126    0.0063   -0.0019   -0.0433   -0.0586   -0.0263    0.0040    0.1581
           9   -0.0107   -0.0243   -0.1289    0.2248    0.1202   -0.1766   -0.0090   -0.0996
          10   -0.2794    0.7420   -0.2149    0.0412    0.0147    0.1636    0.0959    0.0509
          11    0.2177    0.0859    0.5287   -0.0314    0.2798    0.3266   -0.0830   -0.1936
          12   -0.2279    0.1337   -0.2191   -0.0633   -0.1049    0.0568    0.0577   -0.2864
          13   -0.0010   -0.0578   -0.0179   -0.0229    0.0643   -0.0374   -0.0370    0.0034
          14   -0.0322    0.0077   -0.0247    0.0088   -0.0826   -0.0883    0.0169    0.0568
          15    0.0378    0.0294    0.0206    0.0173    0.1290    0.0455   -0.1221    0.2752
          16    0.0281   -0.0605    0.0064   -0.1024    0.0106   -0.0350   -0.0375    0.0109
          17    0.0198    0.0387    0.0885   -0.0318   -0.2393   -0.1800   -0.0763    0.0288
          18   -0.0003    0.0196   -0.0509    0.4989    0.4524   -0.0083   -0.1521    0.2772
          19   -0.0083   -0.1034   -0.1035   -0.0175    0.1815    0.0184    0.0573   -0.0032
          20   -0.0191   -0.0348   -0.0697    0.1040    0.0336   -0.0960    0.0677    0.0163
          21    0.0444    0.0862    0.0823   -0.4656   -0.1275    0.2311   -0.1566    0.5404
          22    0.1304   -0.0480    0.2619    0.1112   -0.1494    0.0736    0.4387    0.0925
          23   -0.1827   -0.0893   -0.2446   -0.0029    0.0021    0.0977   -0.0486   -0.0851
          24    0.7144    0.1536   -0.3787   -0.0292   -0.1231   -0.0513    0.0896   -0.1672
          25    0.0469   -0.0896   -0.0734    0.0352   -0.0132    0.2184    0.1957    0.0447
          26   -0.0438   -0.1722   -0.0882   -0.0482    0.1394    0.2856   -0.1517   -0.1994
          27   -0.0029   -0.1331    0.0395   -0.0432   -0.0424    0.0744    0.0815   -0.2300
          28   -0.0265   -0.3222   -0.2767   -0.0189    0.0299    0.4164    0.0349   -0.0239
          29    0.0573   -0.0714   -0.0264    0.0009    0.0425    0.1066    0.0096   -0.1229
          30   -0.0637    0.3115    0.3122   -0.0641    0.1042    0.1474   -0.0092   -0.3316
          31    0.0071   -0.0050    0.0515   -0.0899   -0.0707   -0.1413   -0.1156   -0.0694
          32    0.0020    0.0926    0.0361    0.3324   -0.4360    0.0157   -0.3401   -0.0098
          33   -0.0605   -0.1101    0.1804    0.2770   -0.2808    0.0823    0.4126    0.0742
          34    0.0199   -0.0074    0.1124    0.0738   -0.2309   -0.0366   -0.0801   -0.0252
          35    0.0781    0.0797   -0.0569    0.0221   -0.0310   -0.1218    0.0235   -0.0478
          36   -0.3989   -0.1840    0.1245    0.0167   -0.0753   -0.1226    0.1079   -0.0061
          37   -0.0279   -0.0245    0.0206   -0.2682    0.1240   -0.2581   -0.1034   -0.0992
          38   -0.0007    0.0751    0.0349   -0.2059    0.3077   -0.3922    0.4210    0.0199
          39   -0.1986   -0.1492   -0.0399   -0.1297    0.0066   -0.1407   -0.1678   -0.1273


   Root No.       9        10        11        12        13        14        15        16

                 9 A      10 A      11 A      12 A      13 A      14 A      15 A      16 A   

                   0.1       0.1       0.2       0.3       0.3       0.6       0.8       1.0
  
           1   -0.1043    0.0504   -0.0315    0.0946    0.0082    0.1903    0.0242   -0.0637
           2   -0.1309   -0.0565   -0.0111   -0.0487    0.0002   -0.1183    0.0266   -0.1053
           3    0.4037    0.0137    0.0723   -0.0316    0.0067    0.0001   -0.1480    0.5229
           4   -0.0960    0.0511   -0.0189    0.0971    0.0090    0.1594    0.0165   -0.0504
           5   -0.1340   -0.0987    0.1061    0.1143    0.0119    0.4588    0.0001    0.0559
           6    0.4605   -0.0330   -0.3377   -0.5354   -0.0100    0.1852    0.1199   -0.2843
           7   -0.1243    0.0955   -0.1056   -0.0638   -0.0027   -0.3490   -0.0167    0.0671
           8   -0.1319   -0.0324   -0.0383   -0.1351   -0.0038   -0.3417   -0.0011   -0.0251
           9    0.4530   -0.0398    0.1233    0.5767    0.0069   -0.1858    0.1339   -0.3085
          10    0.2022    0.0836    0.1748   -0.1306    0.0064    0.0051   -0.0897    0.0496
          11    0.0690   -0.0365    0.2173   -0.0535    0.0687    0.0015   -0.0424   -0.0498
          12   -0.2297   -0.0103   -0.3620    0.1455   -0.0402   -0.0039    0.0681    0.0187
          13   -0.0494   -0.0096   -0.0159    0.0538    0.0102    0.1591    0.0242   -0.0347
          14   -0.0497   -0.0342   -0.0116   -0.0270   -0.0009   -0.0982    0.0123   -0.0562
          15    0.0535    0.0330   -0.0539    0.0105   -0.0020   -0.0044   -0.0406    0.1990
          16    0.0164   -0.0058    0.0301    0.0887    0.0174    0.1244   -0.0079    0.0549
          17    0.0346    0.0370    0.0357    0.1186    0.0044    0.3748   -0.0280    0.0609
          18   -0.2168    0.0304   -0.2207   -0.2179   -0.0332    0.1557    0.0707   -0.1424
          19   -0.0062   -0.0778   -0.0010   -0.0813    0.0087   -0.2890    0.0046    0.0497
          20    0.0165   -0.0692    0.0083   -0.1533   -0.0014   -0.2796   -0.0279    0.0787
          21   -0.0980    0.0460   -0.0310    0.2905    0.0107   -0.1698    0.0555   -0.1365
          22    0.0653    0.1451   -0.1367    0.0553   -0.5082   -0.0038    0.3466    0.2229
          23    0.0678    0.4031   -0.0601    0.0242    0.0216   -0.0019    0.0961    0.3394
          24   -0.2110    0.0353    0.1584   -0.0800    0.0042    0.0094   -0.1537    0.0473
          25    0.0755   -0.0480    0.1499   -0.0704   -0.2536    0.0098   -0.2402   -0.3614
          26    0.0758    0.1421   -0.1002    0.0665    0.1294    0.0002   -0.0254    0.0530
          27   -0.1731   -0.0928   -0.1963    0.1066   -0.1171    0.0017   -0.0472    0.0514
          28    0.0649   -0.4360    0.0485   -0.0212    0.1480    0.0121    0.0903    0.1048
          29    0.0541    0.4645   -0.0891    0.0538   -0.1970   -0.0033   -0.2869   -0.2809
          30   -0.1469   -0.1815   -0.0621    0.0531    0.0090    0.0017    0.0915    0.0784
          31   -0.0173    0.0421   -0.0401   -0.0047    0.1837   -0.0067   -0.0324   -0.0037
          32    0.0737   -0.4034   -0.0421    0.0317   -0.2279   -0.0026   -0.1597    0.0174
          33   -0.0590    0.1798    0.1459   -0.0669    0.5322   -0.0009   -0.0272   -0.0748
          34    0.0114    0.0661   -0.1022    0.0139    0.3116   -0.0098   -0.0543   -0.0169
          35    0.0125   -0.0417    0.1445   -0.0629    0.1458   -0.0020    0.6170   -0.1034
          36   -0.0796   -0.0539    0.1975   -0.0524   -0.0935    0.0059   -0.3349    0.0594
          37   -0.0382    0.0434    0.0487   -0.0312    0.0611   -0.0020   -0.0653   -0.0182
          38    0.0426   -0.2740   -0.1594    0.0714    0.0489    0.0123   -0.1805    0.0153
          39   -0.1567    0.0730    0.5664   -0.1985   -0.2737    0.0052    0.2121   -0.0306


   Root No.      17        18        19        20        21        22        23        24

                17 A      18 A      19 A      20 A      21 A      22 A      23 A      24 A   

                   1.3       1.3       1.4       1.9       2.9       3.2       4.0       4.9
  
           1   -0.1041    0.0185    0.0287   -0.0046   -0.1759   -0.1263    0.0286   -0.0039
           2   -0.1543    0.0063    0.0544   -0.0041    0.1146   -0.1994    0.0390   -0.0142
           3    0.0932   -0.2946   -0.2005    0.0230    0.0017   -0.1539   -0.3149    0.2399
           4   -0.1416   -0.0001    0.0356   -0.0054   -0.4259   -0.4452    0.0489   -0.0581
           5    0.5713    0.1607   -0.0451    0.0017   -0.1736    0.0591    0.0223   -0.0188
           6    0.0583    0.1823    0.0939   -0.0113   -0.0648   -0.0056    0.0372   -0.0433
           7    0.5645    0.1742   -0.0650   -0.0041   -0.0341    0.2461    0.0132    0.0280
           8    0.1237    0.0601    0.0176   -0.0045    0.4648   -0.3722    0.0139   -0.0784
           9    0.0568    0.2011    0.0933   -0.0154    0.0630   -0.0009    0.0384   -0.0416
          10   -0.0319    0.0961   -0.1496   -0.0125    0.0047   -0.0129   -0.1068   -0.0997
          11   -0.1366    0.3728   -0.2091   -0.1188    0.0030    0.0319    0.1205    0.2132
          12   -0.0443    0.0477   -0.3942    0.0079    0.0044    0.0067    0.1243    0.2493
          13   -0.0913   -0.0021    0.0148   -0.0014    0.3129   -0.0545   -0.1394    0.0977
          14   -0.1396   -0.0208    0.0248    0.0021   -0.1996   -0.1002   -0.2143    0.1578
          15   -0.0168   -0.1481   -0.1167    0.0057    0.0239   -0.1139    0.7316   -0.2525
          16   -0.0859   -0.0535   -0.0181    0.0006    0.3547   -0.0688    0.0009    0.0377
          17   -0.2339   -0.1338   -0.0300    0.0076    0.2111    0.4733    0.0836   -0.0890
          18   -0.1002    0.0371    0.0609   -0.0001    0.1278    0.1497   -0.2179    0.0647
          19   -0.1732   -0.0921   -0.0134    0.0109   -0.0433    0.4475    0.0747   -0.1024
          20   -0.1758   -0.1157   -0.0234    0.0101   -0.4126    0.1272    0.0555   -0.0039
          21   -0.0977    0.0190    0.0665   -0.0005   -0.1458    0.1476   -0.2051    0.0746
          22   -0.0540    0.1453    0.0289    0.0334   -0.0056   -0.0057   -0.0650   -0.1447
          23   -0.0567    0.2096    0.4658   -0.0346    0.0096    0.0225    0.1560    0.2969
          24   -0.0527    0.1650    0.1497   -0.0850    0.0030    0.0083   -0.0009   -0.0418
          25    0.1411   -0.3647    0.1369   -0.0251    0.0129    0.0233    0.2214    0.4566
          26    0.0409   -0.0809    0.0151    0.0843   -0.0092   -0.0190   -0.1542   -0.1913
          27   -0.0105   -0.0130   -0.2612   -0.0480   -0.0040   -0.0349   -0.0610    0.0791
          28   -0.0274    0.0766   -0.0221    0.0163   -0.0007   -0.0092   -0.0778   -0.2196
          29    0.0832   -0.2310   -0.1812    0.0291   -0.0091   -0.0148   -0.1310   -0.3304
          30    0.1605   -0.3577    0.5185    0.0938   -0.0027   -0.0062   -0.0466   -0.1389
          31    0.0155   -0.0484    0.0220   -0.4719   -0.0045    0.0042   -0.0632   -0.1884
          32   -0.0158    0.0599    0.0389    0.2105   -0.0013    0.0009   -0.0040   -0.0190
          33    0.0001    0.0087   -0.0332    0.3158    0.0015    0.0013   -0.0086   -0.0450
          34    0.0121   -0.0356    0.0127   -0.1312   -0.0006    0.0016    0.0068    0.0321
          35    0.1027   -0.3314   -0.1720   -0.2030    0.0030   -0.0077    0.0443    0.1742
          36   -0.0376    0.1262    0.1111   -0.4022   -0.0035    0.0061   -0.0119    0.0449
          37   -0.0238    0.0859   -0.0114    0.5951    0.0054   -0.0001    0.0577    0.1646
          38   -0.0092    0.0443    0.0440    0.0195   -0.0007   -0.0015   -0.0316   -0.0971
          39   -0.0089    0.0263   -0.0880    0.1162   -0.0044   -0.0042   -0.0646   -0.1896


   Root No.      25        26        27        28        29        30        31        32

                25 A      26 A      27 A      28 A      29 A      30 A      31 A      32 A   

                   6.0       6.7       7.7       8.7      10.2      10.5      14.0      20.1
  
           1   -0.1637   -0.0481    0.0459   -0.0002    0.7032   -0.0936    0.3648   -0.1647
           2   -0.2596   -0.0714    0.0629   -0.0015   -0.4275    0.0686    0.6033   -0.2811
           3    0.0552    0.1010   -0.1144   -0.0022   -0.0020   -0.0151    0.1918   -0.0653
           4    0.4480    0.0813   -0.0526   -0.0006   -0.3681    0.0431   -0.1202   -0.0073
           5    0.0537    0.0107   -0.0072    0.0005    0.0281   -0.0007   -0.0166   -0.0052
           6    0.0166   -0.0146    0.0136   -0.0003    0.0058    0.0007    0.0014   -0.0129
           7   -0.1432   -0.0282    0.0162   -0.0011   -0.1821    0.0196    0.0406   -0.0034
           8    0.4277    0.0748   -0.0420    0.0022    0.3167   -0.0426   -0.1237   -0.0064
           9    0.0167   -0.0121    0.0110   -0.0003   -0.0036    0.0025    0.0005   -0.0128
          10    0.0275   -0.1175    0.1567   -0.0012   -0.0093   -0.0388   -0.0040    0.0081
          11    0.0043    0.0707   -0.0988   -0.0041   -0.0020   -0.0396    0.0012   -0.0034
          12   -0.0248    0.3272   -0.3151    0.0223    0.0346    0.1943    0.0198   -0.0649
          13   -0.1815   -0.0055   -0.0143   -0.0002   -0.0617    0.0011   -0.0567    0.3648
          14   -0.2910   -0.0074   -0.0229   -0.0010    0.0273   -0.0002   -0.0943    0.6453
          15   -0.1854   -0.0593    0.0500    0.0001    0.0038    0.0212   -0.0408    0.2537
          16   -0.2971   -0.0493    0.0323    0.0005   -0.1022    0.0277   -0.4508   -0.3436
          17    0.2329    0.0240   -0.0073    0.0010   -0.0585    0.0064    0.0259   -0.0130
          18    0.0308    0.0099   -0.0101    0.0001   -0.0409    0.0028   -0.0799   -0.0647
          19    0.3359    0.0441   -0.0243    0.0006    0.0128   -0.0071    0.2219    0.1565
          20   -0.1701   -0.0343    0.0281    0.0011    0.1152   -0.0060   -0.3931   -0.3427
          21    0.0329    0.0092   -0.0061    0.0018    0.0357   -0.0158   -0.0774   -0.0679
          22   -0.0224    0.0112   -0.0020   -0.0086    0.0227    0.1803   -0.0010    0.0079
          23    0.0292    0.0356   -0.0172   -0.0123   -0.0377   -0.3039    0.0020   -0.0136
          24   -0.0015   -0.0716   -0.0176    0.0024    0.0161    0.1402   -0.0033    0.0137
          25    0.0425    0.2068    0.1412    0.0299    0.0081    0.0275    0.0046   -0.0129
          26    0.0165    0.0880    0.4506    0.0717    0.0732    0.5841   -0.0039    0.0279
          27    0.1281   -0.3367    0.5573   -0.0260   -0.0645   -0.4418   -0.0143    0.0221
          28   -0.0478   -0.1022   -0.2977   -0.0333   -0.0218   -0.1581    0.0008   -0.0059
          29   -0.0587   -0.1654   -0.3673   -0.0498   -0.0287   -0.2135   -0.0004   -0.0047
          30   -0.0315   -0.0285   -0.1418   -0.0090   -0.0055   -0.0405    0.0016   -0.0045
          31   -0.0820    0.3977    0.1238   -0.4530   -0.0168   -0.1169   -0.0002   -0.0013
          32   -0.0130    0.0775    0.0272   -0.0959   -0.0036   -0.0302    0.0002   -0.0009
          33   -0.0269    0.1502    0.0506   -0.1642   -0.0082   -0.0593    0.0005   -0.0007
          34    0.0202   -0.1306   -0.0638    0.7283   -0.0022   -0.0072    0.0013    0.0011
          35    0.0726   -0.2941   -0.0541   -0.1171    0.0122    0.0793   -0.0008   -0.0013
          36    0.0637   -0.3742   -0.1477   -0.1095    0.0484    0.3441   -0.0008    0.0051
          37    0.0636   -0.2597   -0.0614   -0.2611    0.0173    0.1223   -0.0010    0.0008
          38   -0.0443    0.1913    0.0480    0.2052   -0.0146   -0.1016    0.0002   -0.0009
          39   -0.0740    0.2996    0.0704    0.2847   -0.0197   -0.1333    0.0007   -0.0009


   Root No.      33

                33 A   

                  20.6
  
           1   -0.0504
           2    0.0122
           3    0.0014
           4   -0.0060
           5   -0.0188
           6   -0.0064
           7    0.0138
           8    0.0133
           9    0.0049
          10    0.0017
          11   -0.0011
          12   -0.0021
          13    0.6818
          14   -0.3905
          15    0.0087
          16   -0.4428
          17    0.0190
          18   -0.0726
          19   -0.1994
          20    0.3650
          21    0.0655
          22    0.0024
          23   -0.0047
          24    0.0038
          25   -0.0012
          26    0.0058
          27   -0.0040
          28    0.0005
          29   -0.0008
          30   -0.0002
          31   -0.0005
          32   -0.0004
          33   -0.0003
          34   -0.0009
          35    0.0007
          36    0.0020
          37    0.0007
          38    0.0001
          39   -0.0006


          FORCE CONSTANTS IN MILLIDYNES/ANGSTROM (= 10**5 DYNES/CM)

  -1.22159  -0.31596  -0.10697  -0.03452  -0.03134   0.00141   0.02856   0.04973
   0.07646   0.09302   0.22680   0.26677   0.34330   0.61613   0.78092   1.02953
   1.27332   1.29389   1.44457   1.88704   2.93303   3.24357   3.98907   4.85539
   6.04134   6.72568   7.68303   8.69999  10.21577  10.49492  13.95620  20.06738
  20.62099


           ASSOCIATED EIGENVECTORS




    ROOT NO.    1           2           3           4           5           6

            -1.22159    -0.31596    -0.10697    -0.03452    -0.03134     0.00141
  
         1   0.02318    -0.01131     0.04952     0.08021     0.03594    -0.10589
         2  -0.04317     0.00389    -0.04863    -0.04853    -0.02576     0.00477
         3   0.15992    -0.06728     0.04420     0.02060     0.08226    -0.09021
         4   0.03090    -0.01241     0.05302     0.08400     0.04115    -0.10711
         5  -0.04070    -0.02226    -0.12724    -0.05625     0.06795     0.06757
         6   0.00702    -0.06600     0.01384    -0.26006    -0.14068    -0.04785
         7   0.05662     0.00022     0.13112     0.09405    -0.03799    -0.16916
         8  -0.01262     0.00633    -0.00186    -0.04332    -0.05858    -0.02632
         9  -0.01071    -0.02425    -0.12888     0.22479     0.12017    -0.17663
        10  -0.27938     0.74199    -0.21489     0.04119     0.01465     0.16363
        11   0.21766     0.08588     0.52871    -0.03143     0.27983     0.32659
        12  -0.22785     0.13370    -0.21909    -0.06331    -0.10494     0.05678
        13  -0.00102    -0.05776    -0.01791    -0.02286     0.06434    -0.03740
        14  -0.03220     0.00771    -0.02468     0.00880    -0.08257    -0.08832
        15   0.03784     0.02938     0.02064     0.01732     0.12898     0.04552
        16   0.02813    -0.06054     0.00635    -0.10236     0.01063    -0.03495
        17   0.01976     0.03870     0.08847    -0.03175    -0.23930    -0.17999
        18  -0.00031     0.01961    -0.05091     0.49888     0.45237    -0.00831
        19  -0.00828    -0.10343    -0.10346    -0.01750     0.18152     0.01837
        20  -0.01907    -0.03480    -0.06970     0.10398     0.03363    -0.09597
        21   0.04437     0.08622     0.08226    -0.46563    -0.12747     0.23112
        22   0.13037    -0.04804     0.26187     0.11124    -0.14941     0.07364
        23  -0.18271    -0.08931    -0.24462    -0.00287     0.00207     0.09768
        24   0.71439     0.15360    -0.37867    -0.02919    -0.12308    -0.05132
        25   0.04693    -0.08958    -0.07338     0.03522    -0.01316     0.21842
        26  -0.04376    -0.17217    -0.08823    -0.04815     0.13944     0.28561
        27  -0.00287    -0.13309     0.03947    -0.04320    -0.04239     0.07443
        28  -0.02651    -0.32223    -0.27673    -0.01885     0.02990     0.41635
        29   0.05729    -0.07141    -0.02637     0.00093     0.04252     0.10665
        30  -0.06372     0.31152     0.31219    -0.06410     0.10417     0.14740
        31   0.00714    -0.00495     0.05152    -0.08985    -0.07071    -0.14130
        32   0.00204     0.09264     0.03614     0.33239    -0.43597     0.01568
        33  -0.06053    -0.11014     0.18037     0.27696    -0.28078     0.08228
        34   0.01987    -0.00741     0.11241     0.07377    -0.23087    -0.03655
        35   0.07815     0.07969    -0.05688     0.02215    -0.03099    -0.12178
        36  -0.39890    -0.18401     0.12451     0.01666    -0.07525    -0.12256
        37  -0.02792    -0.02454     0.02056    -0.26825     0.12400    -0.25805
        38  -0.00067     0.07510     0.03489    -0.20594     0.30773    -0.39217
        39  -0.19864    -0.14924    -0.03992    -0.12972     0.00663    -0.14066




    ROOT NO.    7           8           9          10          11          12

             0.02856     0.04973     0.07646     0.09302     0.22680     0.26677
  
         1  -0.12488     0.00812    -0.10428     0.05038    -0.03151     0.09457
         2   0.04291     0.15481    -0.13086    -0.05650    -0.01113    -0.04871
         3  -0.08343     0.11916     0.40367     0.01366     0.07228    -0.03164
         4  -0.12595     0.01394    -0.09598     0.05106    -0.01894     0.09713
         5   0.11421     0.22398    -0.13399    -0.09871     0.10610     0.11435
         6  -0.04896    -0.03784     0.46051    -0.03300    -0.33770    -0.53543
         7  -0.19805    -0.00351    -0.12429     0.09546    -0.10562    -0.06379
         8   0.00400     0.15809    -0.13195    -0.03235    -0.03826    -0.13510
         9  -0.00899    -0.09964     0.45304    -0.03976     0.12333     0.57672
        10   0.09593     0.05093     0.20218     0.08362     0.17482    -0.13060
        11  -0.08298    -0.19364     0.06899    -0.03654     0.21731    -0.05347
        12   0.05765    -0.28639    -0.22971    -0.01031    -0.36202     0.14547
        13  -0.03704     0.00335    -0.04942    -0.00964    -0.01592     0.05381
        14   0.01685     0.05676    -0.04971    -0.03422    -0.01162    -0.02701
        15  -0.12211     0.27522     0.05354     0.03299    -0.05394     0.01052
        16  -0.03752     0.01093     0.01641    -0.00583     0.03009     0.08870
        17  -0.07627     0.02881     0.03455     0.03696     0.03575     0.11858
        18  -0.15212     0.27720    -0.21676     0.03035    -0.22072    -0.21794
        19   0.05731    -0.00315    -0.00622    -0.07776    -0.00103    -0.08129
        20   0.06766     0.01631     0.01646    -0.06919     0.00826    -0.15334
        21  -0.15662     0.54037    -0.09797     0.04601    -0.03101     0.29048
        22   0.43875     0.09249     0.06526     0.14511    -0.13669     0.05527
        23  -0.04857    -0.08508     0.06775     0.40307    -0.06014     0.02419
        24   0.08958    -0.16724    -0.21101     0.03534     0.15839    -0.08003
        25   0.19569     0.04466     0.07550    -0.04802     0.14988    -0.07045
        26  -0.15171    -0.19943     0.07577     0.14213    -0.10016     0.06646
        27   0.08148    -0.23003    -0.17306    -0.09277    -0.19625     0.10660
        28   0.03494    -0.02395     0.06492    -0.43602     0.04852    -0.02125
        29   0.00957    -0.12291     0.05414     0.46448    -0.08908     0.05377
        30  -0.00924    -0.33158    -0.14692    -0.18148    -0.06212     0.05306
        31  -0.11563    -0.06944    -0.01729     0.04209    -0.04015    -0.00473
        32  -0.34013    -0.00976     0.07373    -0.40342    -0.04209     0.03174
        33   0.41262     0.07421    -0.05900     0.17983     0.14589    -0.06693
        34  -0.08013    -0.02521     0.01140     0.06612    -0.10217     0.01386
        35   0.02350    -0.04781     0.01253    -0.04167     0.14449    -0.06288
        36   0.10795    -0.00611    -0.07957    -0.05386     0.19750    -0.05240
        37  -0.10341    -0.09917    -0.03818     0.04342     0.04872    -0.03122
        38   0.42097     0.01987     0.04258    -0.27405    -0.15943     0.07143
        39  -0.16780    -0.12733    -0.15674     0.07301     0.56636    -0.19847




    ROOT NO.   13          14          15          16          17          18

             0.34330     0.61613     0.78092     1.02953     1.27332     1.29389
  
         1   0.00819     0.19032     0.02424    -0.06372    -0.10407     0.01847
         2   0.00024    -0.11826     0.02656    -0.10526    -0.15431     0.00634
         3   0.00665     0.00014    -0.14800     0.52287     0.09315    -0.29459
         4   0.00904     0.15944     0.01651    -0.05043    -0.14164    -0.00009
         5   0.01190     0.45878     0.00005     0.05593     0.57130     0.16072
         6  -0.00998     0.18516     0.11989    -0.28427     0.05831     0.18226
         7  -0.00266    -0.34904    -0.01668     0.06714     0.56447     0.17416
         8  -0.00384    -0.34171    -0.00114    -0.02506     0.12373     0.06008
         9   0.00695    -0.18581     0.13391    -0.30846     0.05678     0.20106
        10   0.00645     0.00512    -0.08974     0.04963    -0.03194     0.09612
        11   0.06874     0.00153    -0.04237    -0.04980    -0.13664     0.37276
        12  -0.04021    -0.00392     0.06808     0.01873    -0.04433     0.04771
        13   0.01022     0.15912     0.02423    -0.03474    -0.09128    -0.00208
        14  -0.00086    -0.09819     0.01231    -0.05618    -0.13957    -0.02083
        15  -0.00195    -0.00439    -0.04060     0.19895    -0.01681    -0.14807
        16   0.01741     0.12440    -0.00786     0.05490    -0.08590    -0.05352
        17   0.00445     0.37477    -0.02803     0.06093    -0.23385    -0.13378
        18  -0.03323     0.15570     0.07069    -0.14243    -0.10022     0.03715
        19   0.00874    -0.28903     0.00464     0.04968    -0.17321    -0.09215
        20  -0.00143    -0.27959    -0.02786     0.07870    -0.17581    -0.11573
        21   0.01069    -0.16985     0.05545    -0.13645    -0.09772     0.01897
        22  -0.50821    -0.00376     0.34656     0.22290    -0.05399     0.14527
        23   0.02158    -0.00193     0.09610     0.33944    -0.05668     0.20957
        24   0.00417     0.00936    -0.15375     0.04726    -0.05269     0.16498
        25  -0.25363     0.00984    -0.24025    -0.36142     0.14113    -0.36469
        26   0.12936     0.00020    -0.02544     0.05303     0.04086    -0.08086
        27  -0.11708     0.00171    -0.04722     0.05137    -0.01049    -0.01301
        28   0.14803     0.01210     0.09035     0.10483    -0.02736     0.07659
        29  -0.19702    -0.00331    -0.28692    -0.28090     0.08323    -0.23103
        30   0.00904     0.00171     0.09151     0.07840     0.16046    -0.35767
        31   0.18371    -0.00670    -0.03240    -0.00372     0.01547    -0.04842
        32  -0.22789    -0.00256    -0.15975     0.01735    -0.01578     0.05994
        33   0.53217    -0.00089    -0.02717    -0.07482     0.00013     0.00867
        34   0.31162    -0.00979    -0.05429    -0.01685     0.01208    -0.03560
        35   0.14583    -0.00203     0.61696    -0.10342     0.10270    -0.33145
        36  -0.09353     0.00591    -0.33494     0.05940    -0.03765     0.12618
        37   0.06109    -0.00202    -0.06531    -0.01819    -0.02377     0.08593
        38   0.04894     0.01230    -0.18049     0.01525    -0.00916     0.04428
        39  -0.27369     0.00517     0.21214    -0.03056    -0.00892     0.02635




    ROOT NO.   19          20          21          22          23          24

             1.44457     1.88704     2.93303     3.24357     3.98907     4.85539
  
         1   0.02869    -0.00465    -0.17588    -0.12629     0.02863    -0.00391
         2   0.05444    -0.00407     0.11464    -0.19938     0.03896    -0.01420
         3  -0.20048     0.02301     0.00174    -0.15392    -0.31489     0.23991
         4   0.03557    -0.00538    -0.42592    -0.44525     0.04886    -0.05813
         5  -0.04510     0.00172    -0.17362     0.05907     0.02226    -0.01885
         6   0.09388    -0.01128    -0.06481    -0.00556     0.03716    -0.04326
         7  -0.06501    -0.00409    -0.03407     0.24606     0.01317     0.02802
         8   0.01762    -0.00453     0.46476    -0.37222     0.01394    -0.07839
         9   0.09331    -0.01543     0.06300    -0.00090     0.03841    -0.04157
        10  -0.14962    -0.01253     0.00468    -0.01289    -0.10684    -0.09967
        11  -0.20908    -0.11878     0.00299     0.03186     0.12046     0.21322
        12  -0.39422     0.00790     0.00442     0.00666     0.12428     0.24932
        13   0.01481    -0.00138     0.31287    -0.05447    -0.13940     0.09773
        14   0.02478     0.00206    -0.19958    -0.10016    -0.21428     0.15785
        15  -0.11669     0.00571     0.02386    -0.11386     0.73164    -0.25250
        16  -0.01809     0.00064     0.35474    -0.06875     0.00089     0.03766
        17  -0.02997     0.00764     0.21114     0.47331     0.08365    -0.08903
        18   0.06090    -0.00006     0.12776     0.14972    -0.21791     0.06475
        19  -0.01341     0.01088    -0.04331     0.44746     0.07467    -0.10238
        20  -0.02341     0.01012    -0.41259     0.12715     0.05551    -0.00389
        21   0.06653    -0.00048    -0.14583     0.14763    -0.20506     0.07456
        22   0.02891     0.03338    -0.00558    -0.00568    -0.06497    -0.14469
        23   0.46584    -0.03461     0.00960     0.02246     0.15601     0.29687
        24   0.14966    -0.08496     0.00296     0.00829    -0.00088    -0.04176
        25   0.13693    -0.02511     0.01294     0.02325     0.22139     0.45662
        26   0.01513     0.08426    -0.00923    -0.01897    -0.15423    -0.19132
        27  -0.26123    -0.04799    -0.00398    -0.03490    -0.06101     0.07915
        28  -0.02214     0.01630    -0.00074    -0.00923    -0.07778    -0.21959
        29  -0.18119     0.02915    -0.00908    -0.01479    -0.13103    -0.33041
        30   0.51851     0.09379    -0.00269    -0.00623    -0.04660    -0.13888
        31   0.02199    -0.47189    -0.00450     0.00422    -0.06318    -0.18839
        32   0.03888     0.21051    -0.00127     0.00088    -0.00395    -0.01898
        33  -0.03321     0.31578     0.00149     0.00125    -0.00858    -0.04497
        34   0.01273    -0.13124    -0.00060     0.00164     0.00685     0.03206
        35  -0.17197    -0.20299     0.00301    -0.00771     0.04426     0.17419
        36   0.11106    -0.40219    -0.00352     0.00606    -0.01194     0.04487
        37  -0.01137     0.59507     0.00535    -0.00006     0.05770     0.16465
        38   0.04404     0.01954    -0.00075    -0.00150    -0.03156    -0.09705
        39  -0.08801     0.11619    -0.00439    -0.00424    -0.06461    -0.18961




    ROOT NO.   25          26          27          28          29          30

             6.04134     6.72568     7.68303     8.69999    10.21577    10.49492
  
         1  -0.16373    -0.04812     0.04588    -0.00024     0.70316    -0.09357
         2  -0.25960    -0.07143     0.06287    -0.00145    -0.42751     0.06858
         3   0.05521     0.10097    -0.11437    -0.00219    -0.00204    -0.01507
         4   0.44804     0.08126    -0.05256    -0.00063    -0.36812     0.04306
         5   0.05373     0.01068    -0.00715     0.00049     0.02807    -0.00073
         6   0.01657    -0.01458     0.01355    -0.00026     0.00584     0.00068
         7  -0.14321    -0.02818     0.01624    -0.00107    -0.18212     0.01957
         8   0.42767     0.07483    -0.04199     0.00224     0.31671    -0.04261
         9   0.01668    -0.01206     0.01098    -0.00031    -0.00356     0.00253
        10   0.02754    -0.11751     0.15673    -0.00120    -0.00925    -0.03881
        11   0.00426     0.07075    -0.09877    -0.00413    -0.00196    -0.03961
        12  -0.02484     0.32722    -0.31510     0.02232     0.03458     0.19428
        13  -0.18154    -0.00549    -0.01433    -0.00019    -0.06165     0.00111
        14  -0.29097    -0.00736    -0.02293    -0.00103     0.02728    -0.00025
        15  -0.18537    -0.05927     0.05001     0.00009     0.00380     0.02121
        16  -0.29714    -0.04931     0.03226     0.00055    -0.10225     0.02769
        17   0.23294     0.02396    -0.00728     0.00100    -0.05854     0.00639
        18   0.03081     0.00987    -0.01015     0.00010    -0.04095     0.00277
        19   0.33591     0.04414    -0.02432     0.00060     0.01285    -0.00710
        20  -0.17013    -0.03432     0.02807     0.00112     0.11518    -0.00600
        21   0.03293     0.00923    -0.00610     0.00185     0.03569    -0.01576
        22  -0.02242     0.01124    -0.00201    -0.00855     0.02268     0.18034
        23   0.02919     0.03564    -0.01719    -0.01234    -0.03774    -0.30394
        24  -0.00155    -0.07164    -0.01756     0.00242     0.01615     0.14025
        25   0.04255     0.20677     0.14118     0.02988     0.00810     0.02754
        26   0.01648     0.08799     0.45060     0.07170     0.07320     0.58410
        27   0.12815    -0.33675     0.55727    -0.02601    -0.06452    -0.44179
        28  -0.04784    -0.10220    -0.29772    -0.03330    -0.02178    -0.15811
        29  -0.05875    -0.16536    -0.36731    -0.04977    -0.02874    -0.21353
        30  -0.03147    -0.02851    -0.14180    -0.00899    -0.00549    -0.04052
        31  -0.08199     0.39771     0.12379    -0.45303    -0.01675    -0.11690
        32  -0.01305     0.07746     0.02720    -0.09593    -0.00357    -0.03020
        33  -0.02686     0.15018     0.05058    -0.16420    -0.00819    -0.05933
        34   0.02018    -0.13063    -0.06377     0.72830    -0.00218    -0.00715
        35   0.07257    -0.29411    -0.05413    -0.11707     0.01218     0.07935
        36   0.06369    -0.37422    -0.14774    -0.10955     0.04839     0.34410
        37   0.06365    -0.25969    -0.06137    -0.26111     0.01730     0.12234
        38  -0.04435     0.19127     0.04801     0.20517    -0.01457    -0.10156
        39  -0.07397     0.29957     0.07045     0.28471    -0.01970    -0.13334




    ROOT NO.   31          32          33

            13.95620    20.06738    20.62099
  
         1   0.36481    -0.16472    -0.05039
         2   0.60332    -0.28108     0.01217
         3   0.19176    -0.06530     0.00141
         4  -0.12022    -0.00730    -0.00595
         5  -0.01661    -0.00520    -0.01876
         6   0.00142    -0.01293    -0.00643
         7   0.04059    -0.00341     0.01380
         8  -0.12373    -0.00643     0.01331
         9   0.00055    -0.01275     0.00486
        10  -0.00400     0.00809     0.00174
        11   0.00120    -0.00342    -0.00111
        12   0.01985    -0.06492    -0.00208
        13  -0.05674     0.36483     0.68182
        14  -0.09432     0.64533    -0.39047
        15  -0.04076     0.25370     0.00875
        16  -0.45081    -0.34355    -0.44276
        17   0.02592    -0.01297     0.01901
        18  -0.07986    -0.06474    -0.07259
        19   0.22192     0.15650    -0.19937
        20  -0.39305    -0.34272     0.36505
        21  -0.07739    -0.06789     0.06546
        22  -0.00104     0.00788     0.00241
        23   0.00197    -0.01357    -0.00467
        24  -0.00327     0.01370     0.00375
        25   0.00463    -0.01291    -0.00116
        26  -0.00387     0.02789     0.00576
        27  -0.01426     0.02211    -0.00396
        28   0.00078    -0.00594     0.00050
        29  -0.00039    -0.00474    -0.00079
        30   0.00160    -0.00448    -0.00021
        31  -0.00016    -0.00134    -0.00045
        32   0.00016    -0.00092    -0.00036
        33   0.00051    -0.00073    -0.00029
        34   0.00127     0.00106    -0.00085
        35  -0.00081    -0.00131     0.00074
        36  -0.00082     0.00511     0.00197
        37  -0.00101     0.00080     0.00068
        38   0.00022    -0.00087     0.00012
        39   0.00066    -0.00089    -0.00061

          ZERO POINT ENERGY      47.805 KCAL/MOL

         NOTE: SYSTEM IS NOT A GROUND STATE, THEREFORE ZERO POINT
         ENERGY IS NOT MEANINGFULL. ZERO POINT ENERGY PRINTED
         DOES NOT INCLUDE THE  6 IMAGINARY FREQUENCIES


           FREQUENCIES, REDUCED MASSES AND VIBRATIONAL DIPOLES



   I         1         2         3         4         5         6
 FREQ(I)-1052.8411 -520.8398 -344.4166 -256.2464 -100.2444  -58.5527

 MASS(I)   0.62122   0.87625   0.84158   0.47435   3.67792   5.40744

 DIPX(I)  -0.65177   0.38425  -0.42784   0.78026   0.10457   0.42348
 DIPY(I)  -0.29497   0.56134   0.31736  -0.06770  -0.01811  -0.01530
 DIPZ(I)   0.76620   1.74671  -2.04606  -0.24462  -0.14991   0.75102

 DIPT(I)   1.04827   1.87450   2.11427   0.82051   0.18367   0.86232


   I         7         8         9        10        11        12
 FREQ(I)   89.4817  129.2654  169.8138  328.1808  420.5994  508.0657

 MASS(I)   3.36439   3.91098   4.18114   0.42041   1.20438   1.52062

 DIPX(I)   0.45493  -0.01414  -0.39327   0.31848  -0.09848  -0.26068
 DIPY(I)   0.54342   0.08984  -0.45408  -0.05253  -0.00500   0.11446
 DIPZ(I)   2.28618  -0.44533  -2.46858  -0.24883  -0.19667   0.03195

 DIPT(I)   2.39351   0.45452   2.54062   0.40756   0.22000   0.28649


   I        13        14        15        16        17        18
 FREQ(I)  553.4433  575.5803  604.2748  654.7339  671.9290  862.2142

 MASS(I)   0.76580   0.31660   0.44116   4.02848   5.72032   0.53329

 DIPX(I)  -0.22969   0.16113  -0.19777  -0.91293  -0.05686  -0.46214
 DIPY(I)   1.59947   0.08829   0.14413  -1.32991  -0.37824   0.05397
 DIPZ(I)  -0.80310   0.22824  -0.08484   0.62094   0.79960   2.99371

 DIPT(I)   1.80445   0.29301   0.25900   1.72849   0.88638   3.02965


   I        19        20        21        22        23        24
 FREQ(I)  963.8959 1087.6616 1220.0958 1275.2597 1362.2282 1375.8490

 MASS(I)   0.30823   1.12914   3.36253   0.47047   0.69291   0.50461

 DIPX(I)   0.99071  -0.10454  -0.37514   0.44375   0.34748   0.30385
 DIPY(I)   0.69990  -0.00477  -0.51309   0.44018   0.59796   0.29410
 DIPZ(I)   0.24261  -0.03547  -0.13423   0.83706   0.31329   0.96275

 DIPT(I)   1.23702   0.11049   0.64962   1.04467   0.75924   1.05152


   I        25        26        27        28        29        30
 FREQ(I) 1526.4633 1556.8452 1774.0023 2103.8459 2642.6644 2692.8876

 MASS(I)   4.45618   6.60650   1.34804   0.71478   0.50408   0.48967

 DIPX(I)   3.51256   8.17831  -0.83478  -0.40082   1.81643   1.09794
 DIPY(I)   6.56865  -5.13431   0.07800   0.12881  -0.48249  -0.34879
 DIPZ(I)   5.18327   0.02083   2.96681  -1.40748  -0.42645   0.00331

 DIPT(I)   9.07478   9.65641   3.08300   1.46909   1.92719   1.15202


   I        31        32        33        34        35        36
 FREQ(I) 2694.9188 2761.9209 2833.7309    0.1242   -0.0712   -0.1401

 MASS(I)   0.74792   0.47780   0.38875   2.17040   2.17041   2.17040

 DIPX(I)   0.88737   0.62415   0.45781   0.03537  -0.06264   0.06050
 DIPY(I)   1.41183   1.04820   0.95436  -0.02916  -0.04356   0.03032
 DIPZ(I)  -0.19354   0.12990   0.80764  -0.02336  -0.03707   0.00597

 DIPT(I)   1.67873   1.22685   1.33142   0.05145   0.08483   0.06793


   I        37        38        39
 FREQ(I)  -86.5106  -52.7538   54.7074

 MASS(I)   2.66842   3.67986   3.56741

 DIPX(I)  -0.85655   0.93559  -0.19722
 DIPY(I)   0.44740   0.16091   0.89170
 DIPZ(I)   0.04710  -0.44489  -0.38021

 DIPT(I)   0.96750   1.04840   0.98923


           NORMAL COORDINATE ANALYSIS (Total motion = 1 Angstrom)


   Root No.       1         2         3         4         5         6         7         8

                 1 A       2 A       3 A       4 A       5 A       6 A       7 A       8 A   

               -1052.8    -520.8    -344.4    -256.2    -100.2     -58.6      89.5     129.3
  
           1    0.0065    0.0037    0.0125   -0.0076   -0.0135   -0.0506   -0.0264   -0.0367
           2   -0.0042   -0.0027   -0.0037    0.0056    0.0090    0.0324   -0.0303    0.0382
           3    0.0216   -0.0072    0.0043    0.0060   -0.0124   -0.0232    0.0022   -0.0259
           4    0.0091    0.0042    0.0142   -0.0075   -0.0130   -0.0520   -0.0277   -0.0357
           5   -0.0023   -0.0046   -0.0149    0.0138    0.0321    0.0307   -0.0308    0.0702
           6   -0.0177   -0.0123   -0.0185    0.0080   -0.0413    0.0830    0.0442   -0.0522
           7    0.0143    0.0021    0.0284   -0.0149   -0.0339   -0.0521   -0.0349   -0.0621
           8    0.0038   -0.0045    0.0077    0.0021   -0.0004    0.0312   -0.0357    0.0261
           9   -0.0219    0.0109   -0.0648    0.0055   -0.0169   -0.1011    0.0430   -0.0353
          10   -0.1409    0.3145   -0.1127    0.0019    0.0499    0.0033    0.0181    0.0371
          11    0.0877    0.1306    0.2594   -0.0020    0.1231    0.0115    0.0673    0.0062
          12   -0.0863    0.0841   -0.1262    0.0032   -0.0059    0.0374    0.0963   -0.0512
          13   -0.0019   -0.0031    0.0016    0.0015   -0.0013   -0.0158   -0.0109   -0.0137
          14   -0.0065    0.0002   -0.0075    0.0006   -0.0126    0.0084   -0.0155    0.0129
          15   -0.0013    0.0068   -0.0007    0.0045    0.0187   -0.0054   -0.0377   -0.0068
          16    0.0048   -0.0032    0.0059    0.0018   -0.0084    0.0074   -0.0087   -0.0153
          17    0.0032    0.0039    0.0075   -0.0085   -0.0461    0.0109   -0.0165   -0.0244
          18   -0.0004   -0.0005   -0.0003    0.0013    0.0540   -0.1531   -0.0618    0.0011
          19   -0.0022   -0.0083   -0.0078    0.0111    0.0204   -0.0132    0.0003    0.0156
          20   -0.0023   -0.0051   -0.0081    0.0048    0.0001   -0.0229   -0.0038    0.0247
          21    0.0042    0.0067    0.0038    0.0076    0.0132    0.1606   -0.0843    0.0158
          22    0.0301   -0.0067    0.0975   -0.0035   -0.0319    0.0059    0.0500    0.0980
          23   -0.0382   -0.0365   -0.1026   -0.0057    0.0177    0.0010    0.0161   -0.0550
          24    0.4764    0.1069   -0.2026    0.0012   -0.0355    0.0048    0.0740   -0.0048
          25    0.0121   -0.0150   -0.0100   -0.0037    0.0461    0.0161    0.0379    0.0857
          26   -0.0158   -0.0338   -0.0049   -0.0047    0.0973    0.0241    0.0428   -0.0617
          27    0.0128   -0.0036   -0.0007    0.0022    0.0030    0.0286    0.0960   -0.0170
          28   -0.0348   -0.1821   -0.0973   -0.0070    0.1340    0.0653    0.0391    0.0473
          29    0.0596    0.0222    0.0085   -0.0024    0.0141   -0.0084    0.0367   -0.0327
          30   -0.0489    0.2554    0.1263    0.0013    0.0484    0.0238    0.1172   -0.0222
          31    0.0156    0.0022   -0.0005    0.1194   -0.0559    0.0414   -0.0019   -0.0725
          32    0.0280    0.0435   -0.0203   -0.3450   -0.0634   -0.0305   -0.0550   -0.0032
          33    0.0153   -0.0187    0.0385   -0.2106   -0.0472   -0.0333    0.0778    0.1240
          34   -0.0005   -0.0007    0.0124   -0.0285   -0.0490    0.0382   -0.0042   -0.0440
          35    0.0071    0.0180   -0.0132    0.0033   -0.0554   -0.0408    0.0073    0.0142
          36   -0.0442   -0.0333    0.0205   -0.0104   -0.0679   -0.0182    0.0449    0.0349
          37   -0.0289   -0.0166    0.0049    0.2857   -0.0647    0.0375    0.0035   -0.0880
          38    0.0376    0.0179    0.0470    0.3457   -0.1128   -0.0940    0.0393    0.0965
          39   -0.0338   -0.0322   -0.0369    0.0413   -0.0445    0.0147    0.0323   -0.0563


   Root No.       9        10        11        12        13        14        15        16

                 9 A      10 A      11 A      12 A      13 A      14 A      15 A      16 A   

                 169.8     328.2     420.6     508.1     553.4     575.6     604.3     654.7
  
           1   -0.0413   -0.0043    0.0009    0.0626    0.0049   -0.0235    0.0101   -0.0540
           2   -0.0392   -0.0028    0.0068   -0.0399   -0.0025    0.0101   -0.0107   -0.0893
           3    0.1611    0.0098   -0.0107    0.0008   -0.0027   -0.0009    0.0012   -0.0695
           4   -0.0364   -0.0048    0.0027    0.0725    0.0052   -0.0281    0.0113   -0.0555
           5   -0.0266   -0.0055    0.0118   -0.3009   -0.0016   -0.0375    0.0029   -0.1004
           6    0.1393    0.0344   -0.0566    0.1114   -0.0285    0.2852   -0.1028   -0.1161
           7   -0.0482   -0.0052    0.0044    0.3056    0.0045    0.0112   -0.0088   -0.0631
           8   -0.0384   -0.0035    0.0098    0.0652   -0.0037    0.0297   -0.0229   -0.0962
           9    0.1524    0.0183   -0.0419   -0.1020    0.0286   -0.2200    0.1502   -0.0966
          10    0.0827   -0.0329    0.0253    0.0024    0.0093   -0.0176   -0.0527   -0.0048
          11    0.0225    0.0190    0.0551   -0.0040   -0.0437   -0.0257   -0.0253    0.0050
          12   -0.0998    0.0042   -0.0471    0.0038    0.0211    0.0153    0.0099    0.0032
          13   -0.0197    0.0006   -0.0038   -0.0541   -0.0010    0.0099   -0.0045   -0.0669
          14   -0.0175    0.0002    0.0007    0.0344    0.0019   -0.0057    0.0025   -0.1064
          15    0.0411    0.0021   -0.0085   -0.0019   -0.0022    0.0005    0.0009    0.0482
          16    0.0043    0.0008   -0.0023   -0.0525   -0.0019    0.0064   -0.0054   -0.0583
          17    0.0045    0.0013   -0.0055   -0.0567   -0.0016    0.0090   -0.0016    0.1580
          18   -0.0514   -0.0023   -0.0035   -0.0178   -0.0009    0.0159   -0.0051    0.0090
          19    0.0053    0.0036    0.0003    0.0285   -0.0023   -0.0003    0.0032    0.1674
          20    0.0140    0.0018    0.0045    0.0722   -0.0003   -0.0111    0.0041    0.0174
          21   -0.0208   -0.0033   -0.0054    0.0192    0.0036   -0.0109    0.0095    0.0103
          22    0.0130   -0.0869   -0.1344   -0.0018    0.0639    0.0571    0.1129   -0.0149
          23    0.0253   -0.1366    0.0204   -0.0030    0.0654    0.0248    0.0200    0.0043
          24   -0.0620   -0.0637    0.1186   -0.0038    0.0030   -0.0347   -0.0882    0.0220
          25    0.0329    0.0062    0.0127   -0.0019    0.0062    0.0180    0.0216   -0.0036
          26    0.0164   -0.0195    0.0083   -0.0008    0.0178   -0.0076   -0.0124    0.0013
          27   -0.0735    0.0270   -0.0323    0.0006   -0.0007    0.0049    0.0186   -0.0030
          28    0.0101    0.1726   -0.0386    0.0052   -0.1469   -0.1072   -0.1441    0.0063
          29    0.0179   -0.1559    0.0252   -0.0063    0.1429    0.0782    0.1005   -0.0018
          30   -0.0560    0.0570    0.0160    0.0024   -0.0497   -0.0025    0.0031   -0.0042
          31   -0.0081    0.0162    0.0564   -0.0006   -0.0116    0.0021    0.0047   -0.0007
          32    0.0160    0.2595    0.0780   -0.0082    0.2152    0.0243    0.0130    0.0033
          33    0.0007   -0.2210   -0.1643    0.0099   -0.0824   -0.0659   -0.1032    0.0136
          34    0.0004   -0.0111   -0.0104    0.0021   -0.0001   -0.0097   -0.0165    0.0024
          35    0.0074    0.0145   -0.0215    0.0016   -0.0503    0.0062    0.0194   -0.0060
          36   -0.0085   -0.0190    0.0568   -0.0022    0.0174   -0.0120   -0.0232    0.0054
          37   -0.0110    0.0251    0.0959   -0.0028   -0.0099    0.0136    0.0248   -0.0034
          38    0.0013    0.0637   -0.1205    0.0002    0.2185   -0.0542   -0.1216    0.0156
          39   -0.0181   -0.0194    0.2208   -0.0060   -0.1600    0.0440    0.0957   -0.0117


   Root No.      17        18        19        20        21        22        23        24

                17 A      18 A      19 A      20 A      21 A      22 A      23 A      24 A   

                 671.9     862.2     963.9    1087.7    1220.1    1275.3    1362.2    1375.8
  
           1    0.0258    0.0063    0.0048    0.0895   -0.0678   -0.0034   -0.0366    0.0019
           2    0.0437    0.0071    0.0048   -0.0553   -0.1067   -0.0017   -0.0608    0.0032
           3   -0.0316   -0.0520   -0.0254   -0.0004   -0.0430   -0.0013   -0.0210    0.0027
           4    0.0276   -0.0007    0.0015    0.0509   -0.0635   -0.0038   -0.0411    0.0026
           5    0.0525   -0.0481   -0.0252    0.3576   -0.2728    0.0199    0.3732   -0.0267
           6   -0.1949    0.2142    0.1150    0.1409   -0.0854   -0.0034    0.0620   -0.0099
           7    0.0526   -0.0437   -0.0230   -0.3129   -0.2082    0.0142    0.3470   -0.0247
           8    0.0583   -0.0253   -0.0118   -0.2054   -0.1712    0.0067    0.1178   -0.0087
           9   -0.2321    0.2505    0.1116   -0.1457   -0.0829   -0.0045    0.0649   -0.0104
          10   -0.0125   -0.0653    0.0583   -0.0028   -0.0009   -0.0830    0.0007    0.0016
          11   -0.0269    0.0127    0.0828   -0.0031    0.0059   -0.1089    0.0152   -0.0040
          12    0.0170    0.0082   -0.0160   -0.0017    0.0047   -0.0141    0.0104    0.0109
          13   -0.0177    0.0006   -0.0010    0.0014    0.0033   -0.0008   -0.0032    0.0017
          14   -0.0291    0.0017   -0.0016   -0.0016    0.0062    0.0003   -0.0058    0.0025
          15    0.1837    0.0328    0.0098    0.0006   -0.0017    0.0023    0.0018    0.0005
          16    0.0262    0.0004   -0.0000   -0.0406    0.1263    0.0020    0.0202   -0.0024
          17   -0.0216   -0.0030   -0.0004   -0.0089   -0.0064   -0.0015    0.0002   -0.0001
          18   -0.0572   -0.0056   -0.0005   -0.0104    0.0227    0.0002    0.0034   -0.0007
          19   -0.0302   -0.0025   -0.0009   -0.0106   -0.0611    0.0001   -0.0094    0.0012
          20    0.0143    0.0004    0.0002    0.0420    0.1093    0.0024    0.0188   -0.0024
          21   -0.0570   -0.0041   -0.0021    0.0101    0.0216   -0.0004    0.0035   -0.0002
          22    0.0307   -0.1488    0.2469   -0.0021   -0.0016    0.2136   -0.0079   -0.0203
          23    0.0170   -0.0443    0.0980   -0.0031    0.0028    0.1545   -0.0126   -0.0463
          24   -0.0145    0.0194    0.0372   -0.0030    0.0039    0.0738   -0.0049   -0.0372
          25   -0.0011    0.0157   -0.0259    0.0004    0.0001   -0.0028    0.0004    0.0007
          26   -0.0074    0.0017   -0.0080    0.0004   -0.0012    0.0139   -0.0009    0.0019
          27    0.0136   -0.0188   -0.0003    0.0006   -0.0001   -0.0321   -0.0007    0.0007
          28   -0.0045   -0.0595    0.1365   -0.0030    0.0014    0.0433   -0.0000   -0.0083
          29    0.0141    0.0140   -0.0312    0.0007    0.0026   -0.1492    0.0096    0.0089
          30   -0.0384    0.0711   -0.1430    0.0031   -0.0097    0.3942   -0.0255   -0.0170
          31   -0.0022   -0.0025    0.0084   -0.0003   -0.0001    0.0033   -0.0079   -0.1137
          32    0.0113   -0.0216    0.0387   -0.0004    0.0012    0.0356    0.0127    0.1846
          33   -0.0243    0.0379   -0.0384   -0.0003    0.0002    0.0041    0.0241    0.3181
          34   -0.0039    0.0060   -0.0082   -0.0004   -0.0002   -0.0041   -0.0007   -0.0112
          35    0.0015   -0.0011   -0.0075    0.0004   -0.0002   -0.0055   -0.0013   -0.0174
          36   -0.0070    0.0020    0.0068    0.0000   -0.0002    0.0023   -0.0022   -0.0349
          37    0.0013   -0.0098    0.0249   -0.0004    0.0020    0.0230    0.0223    0.3001
          38   -0.0080    0.0229   -0.0188    0.0000    0.0014    0.0181    0.0074    0.1096
          39    0.0012   -0.0260    0.0541    0.0001    0.0019    0.0243    0.0202    0.2526


   Root No.      25        26        27        28        29        30        31        32

                25 A      26 A      27 A      28 A      29 A      30 A      31 A      32 A   

                1526.5    1556.8    1774.0    2103.8    2642.7    2692.9    2694.9    2761.9
  
           1   -0.0534   -0.0401    0.0252    0.0027    0.0004   -0.0435    0.0067   -0.0165
           2   -0.0900    0.0251    0.0356   -0.0011   -0.0002    0.0271   -0.0032   -0.0285
           3   -0.0062    0.0026    0.0323    0.0038    0.0001    0.0002    0.0009   -0.0015
           4   -0.0130    0.0059   -0.0114   -0.0007   -0.0033    0.4107   -0.0719    0.4296
           5   -0.0469   -0.1607    0.0191    0.0039   -0.0002    0.0294   -0.0037    0.0051
           6   -0.0973   -0.0568   -0.0306   -0.0036   -0.0003    0.0135   -0.0024    0.0128
           7   -0.0369    0.1455    0.0174    0.0062   -0.0011    0.1446   -0.0144   -0.1880
           8   -0.0378    0.0618   -0.0026   -0.0015    0.0025   -0.3698    0.0411    0.4072
           9   -0.0882    0.0542   -0.0197   -0.0013    0.0003   -0.0135    0.0012    0.0135
          10   -0.0820    0.0005   -0.1601   -0.0123   -0.0008   -0.0017   -0.0014   -0.0028
          11    0.1041    0.0049    0.1639    0.0731    0.0047   -0.0014   -0.0145    0.0003
          12    0.1705    0.0032    0.4621   -0.0625    0.0036   -0.0049   -0.0394    0.0129
          13    0.0883    0.2519   -0.0369   -0.0029    0.0000   -0.0041    0.0005   -0.0052
          14    0.1408   -0.1592   -0.0561   -0.0022   -0.0001    0.0020   -0.0004   -0.0086
          15    0.0524   -0.0015   -0.0272   -0.0030    0.0000   -0.0002   -0.0003   -0.0029
          16   -0.0547   -0.1341    0.0210    0.0019    0.0000    0.0012   -0.0001    0.0028
          17   -0.0026    0.0084    0.0013    0.0007   -0.0000    0.0003   -0.0001    0.0003
          18   -0.0100   -0.0212    0.0043    0.0003    0.0001    0.0003    0.0000    0.0006
          19    0.0211   -0.0670   -0.0077   -0.0005    0.0000    0.0002   -0.0001   -0.0010
          20   -0.0497    0.1182    0.0180   -0.0013    0.0000   -0.0010    0.0001    0.0027
          21   -0.0095    0.0210    0.0041    0.0015   -0.0000   -0.0002    0.0002    0.0006
          22    0.0124   -0.0056    0.0046   -0.2006   -0.0037   -0.0074   -0.0483   -0.0013
          23    0.0578    0.0194    0.0791    0.4711    0.0163    0.0042    0.0231    0.0011
          24    0.0219    0.0083   -0.0112   -0.0517   -0.0039   -0.0031   -0.0188   -0.0013
          25    0.0058    0.0012    0.0142    0.0135    0.0028   -0.0022   -0.0148   -0.0001
          26   -0.0135   -0.0017   -0.0237   -0.0325    0.0022   -0.0042   -0.0271   -0.0010
          27   -0.0316   -0.0007   -0.0608    0.0268    0.0016   -0.0004   -0.0022   -0.0009
          28    0.0462    0.0043    0.0795   -0.0264   -0.0410    0.0437    0.2881    0.0085
          29    0.0092   -0.0053    0.0247   -0.0984   -0.0581    0.0649    0.4298    0.0111
          30   -0.0345    0.0029   -0.0363   -0.0122   -0.0246    0.0232    0.1539    0.0042
          31    0.0039   -0.0016   -0.0030   -0.1104    0.4112   -0.0049   -0.0503   -0.0171
          32   -0.0027    0.0012    0.0016    0.0082    0.0822    0.0006    0.0006   -0.0014
          33   -0.0105    0.0004   -0.0038   -0.0043    0.1520    0.0006   -0.0030   -0.0036
          34    0.0006   -0.0000    0.0005    0.0042   -0.0407   -0.0007   -0.0032    0.0001
          35   -0.0018   -0.0000   -0.0019    0.0025    0.0061    0.0007    0.0043    0.0007
          36    0.0021   -0.0006    0.0005   -0.0119    0.0073    0.0007    0.0041    0.0009
          37   -0.0090    0.0009   -0.0001    0.0615    0.2354    0.0172    0.1009    0.0155
          38    0.0004    0.0031    0.0034    0.0013   -0.1802   -0.0102   -0.0586   -0.0085
          39   -0.0084   -0.0018   -0.0063   -0.0691   -0.2734   -0.0161   -0.0930   -0.0133


   Root No.      33

                33 A   

                2833.7
  
           1   -0.0002
           2   -0.0009
           3    0.0010
           4    0.0135
           5    0.0009
           6   -0.0010
           7   -0.0050
           8    0.0126
           9   -0.0006
          10   -0.0023
          11    0.0057
          12   -0.0166
          13   -0.0007
          14   -0.0008
          15   -0.0006
          16    0.0004
          17    0.0000
          18    0.0001
          19   -0.0001
          20   -0.0000
          21    0.0002
          22   -0.0555
          23    0.0979
          24   -0.0628
          25   -0.0003
          26   -0.0120
          27    0.0050
          28    0.0599
          29    0.0842
          30    0.0304
          31    0.3192
          32    0.0345
          33    0.0782
          34   -0.0043
          35   -0.0106
          36   -0.0192
          37   -0.2470
          38    0.1384
          39    0.2050


           MASS-WEIGHTED COORDINATE ANALYSIS (NORMAL COORDINATES)


   Root No.       1         2         3         4         5         6         7         8

                 1 A       2 A       3 A       4 A       5 A       6 A       7 A       8 A   

               -1052.8    -520.8    -344.4    -256.2    -100.2     -58.6      89.5     129.3
  
           1    0.0371    0.0202    0.0772   -0.0412   -0.0634   -0.1767   -0.1256   -0.2020
           2   -0.0241   -0.0145   -0.0227    0.0306    0.0424    0.1131   -0.1442    0.2102
           3    0.1242   -0.0389    0.0267    0.0329   -0.0586   -0.0810    0.0104   -0.1424
           4    0.0152    0.0066    0.0255   -0.0118   -0.0177   -0.0526   -0.0381   -0.0570
           5   -0.0038   -0.0072   -0.0267    0.0218    0.0437    0.0310   -0.0425    0.1120
           6   -0.0295   -0.0192   -0.0333    0.0126   -0.0563    0.0839    0.0608   -0.0834
           7    0.0239    0.0032    0.0510   -0.0235   -0.0462   -0.0527   -0.0481   -0.0990
           8    0.0063   -0.0071    0.0138    0.0034   -0.0006    0.0315   -0.0491    0.0417
           9   -0.0364    0.0170   -0.1164    0.0087   -0.0230   -0.1023    0.0593   -0.0564
          10   -0.3316    0.6937   -0.2861    0.0043    0.0962    0.0048    0.0353    0.0836
          11    0.2065    0.2880    0.6584   -0.0044    0.2372    0.0164    0.1310    0.0140
          12   -0.2030    0.1855   -0.3205    0.0072   -0.0115    0.0535    0.1875   -0.1155
          13   -0.0118   -0.0182    0.0105    0.0090   -0.0065   -0.0595   -0.0559   -0.0815
          14   -0.0401    0.0012   -0.0499    0.0034   -0.0642    0.0318   -0.0795    0.0770
          15   -0.0084    0.0398   -0.0050    0.0262    0.0950   -0.0202   -0.1934   -0.0405
          16    0.0317   -0.0198    0.0420    0.0110   -0.0454    0.0300   -0.0479   -0.0972
          17    0.0211    0.0244    0.0536   -0.0531   -0.2506    0.0441   -0.0907   -0.1554
          18   -0.0024   -0.0030   -0.0020    0.0084    0.2936   -0.6169   -0.3391    0.0067
          19   -0.0143   -0.0518   -0.0556    0.0699    0.1106   -0.0532    0.0017    0.0990
          20   -0.0154   -0.0318   -0.0576    0.0301    0.0004   -0.0923   -0.0207    0.1573
          21    0.0281    0.0419    0.0270    0.0479    0.0715    0.6472   -0.4627    0.1006
          22    0.0501   -0.0104    0.1751   -0.0055   -0.0434    0.0059    0.0689    0.1564
          23   -0.0636   -0.0569   -0.1843   -0.0091    0.0241    0.0010    0.0221   -0.0878
          24    0.7932    0.1669   -0.3638    0.0018   -0.0484    0.0048    0.1019   -0.0077
          25    0.0805   -0.0935   -0.0719   -0.0234    0.2504    0.0647    0.2081    0.5450
          26   -0.1045   -0.2103   -0.0351   -0.0295    0.5288    0.0969    0.2346   -0.3921
          27    0.0852   -0.0226   -0.0049    0.0140    0.0165    0.1154    0.5267   -0.1081
          28   -0.0580   -0.2841   -0.1747   -0.0110    0.1828    0.0660    0.0538    0.0754
          29    0.0992    0.0346    0.0153   -0.0037    0.0192   -0.0085    0.0505   -0.0522
          30   -0.0814    0.3985    0.2268    0.0021    0.0660    0.0241    0.1614   -0.0355
          31    0.0260    0.0034   -0.0009    0.1882   -0.0762    0.0418   -0.0026   -0.1157
          32    0.0466    0.0678   -0.0365   -0.5435   -0.0864   -0.0308   -0.0757   -0.0051
          33    0.0255   -0.0291    0.0691   -0.3317   -0.0644   -0.0337    0.1071    0.1978
          34   -0.0036   -0.0043    0.0890   -0.1790   -0.2664    0.1540   -0.0230   -0.2800
          35    0.0469    0.1121   -0.0944    0.0210   -0.3008   -0.1644    0.0398    0.0902
          36   -0.2931   -0.2069    0.1463   -0.0652   -0.3688   -0.0734    0.2463    0.2219
          37   -0.0482   -0.0258    0.0088    0.4501   -0.0882    0.0379    0.0048   -0.1405
          38    0.0625    0.0279    0.0843    0.5447   -0.1538   -0.0950    0.0541    0.1540
          39   -0.0563   -0.0503   -0.0663    0.0650   -0.0606    0.0149    0.0444   -0.0898


   Root No.       9        10        11        12        13        14        15        16

                 9 A      10 A      11 A      12 A      13 A      14 A      15 A      16 A   

                 169.8     328.2     420.6     508.1     553.4     575.6     604.3     654.7
  
           1   -0.1787   -0.0298    0.0066    0.2938    0.0350   -0.1820    0.0854   -0.1580
           2   -0.1698   -0.0196    0.0472   -0.1875   -0.0175    0.0781   -0.0900   -0.2611
           3    0.6978    0.0686   -0.0748    0.0040   -0.0190   -0.0069    0.0105   -0.2033
           4   -0.0456   -0.0096    0.0054    0.0986    0.0108   -0.0631    0.0276   -0.0470
           5   -0.0334   -0.0111    0.0237   -0.4092   -0.0033   -0.0843    0.0070   -0.0850
           6    0.1747    0.0696   -0.1141    0.1515   -0.0584    0.6405   -0.2509   -0.0983
           7   -0.0605   -0.0106    0.0088    0.4155    0.0093    0.0253   -0.0215   -0.0534
           8   -0.0482   -0.0071    0.0197    0.0886   -0.0076    0.0668   -0.0559   -0.0814
           9    0.1912    0.0369   -0.0844   -0.1387    0.0587   -0.4941    0.3664   -0.0818
          10    0.1467   -0.0941    0.0721    0.0046    0.0269   -0.0560   -0.1818   -0.0058
          11    0.0399    0.0543    0.1569   -0.0077   -0.1267   -0.0815   -0.0871    0.0060
          12   -0.1771    0.0119   -0.1342    0.0072    0.0613    0.0484    0.0341    0.0039
          13   -0.0921    0.0046   -0.0284   -0.2740   -0.0075    0.0831   -0.0406   -0.2111
          14   -0.0820    0.0016    0.0055    0.1741    0.0146   -0.0476    0.0228   -0.3360
          15    0.1922    0.0158   -0.0636   -0.0096   -0.0166    0.0043    0.0083    0.1521
          16    0.0213    0.0062   -0.0186   -0.2844   -0.0152    0.0572   -0.0523   -0.1966
          17    0.0223    0.0107   -0.0440   -0.3070   -0.0133    0.0809   -0.0155    0.5330
          18   -0.2571   -0.0184   -0.0282   -0.0966   -0.0072    0.1424   -0.0494    0.0305
          19    0.0265    0.0286    0.0023    0.1546   -0.0187   -0.0029    0.0311    0.5649
          20    0.0699    0.0143    0.0365    0.3909   -0.0025   -0.0994    0.0400    0.0588
          21   -0.1040   -0.0262   -0.0437    0.1040    0.0294   -0.0979    0.0927    0.0348
          22    0.0163   -0.1755   -0.2711   -0.0024    0.1311    0.1282    0.2755   -0.0126
          23    0.0317   -0.2760    0.0412   -0.0041    0.1342    0.0557    0.0489    0.0037
          24   -0.0778   -0.1286    0.2392   -0.0051    0.0061   -0.0779   -0.2152    0.0186
          25    0.1646    0.0502    0.1021   -0.0104    0.0508    0.1611    0.2096   -0.0120
          26    0.0818   -0.1570    0.0665   -0.0041    0.1455   -0.0680   -0.1203    0.0042
          27   -0.3674    0.2172   -0.2595    0.0035   -0.0054    0.0439    0.1808   -0.0101
          28    0.0127    0.3488   -0.0778    0.0070   -0.3013   -0.2407   -0.3516    0.0053
          29    0.0224   -0.3149    0.0508   -0.0085    0.2932    0.1755    0.2452   -0.0015
          30   -0.0702    0.1152    0.0322    0.0032   -0.1020   -0.0057    0.0075   -0.0036
          31   -0.0102    0.0327    0.1136   -0.0008   -0.0238    0.0048    0.0114   -0.0006
          32    0.0201    0.5243    0.1573   -0.0112    0.4414    0.0547    0.0318    0.0028
          33    0.0009   -0.4466   -0.3314    0.0135   -0.1690   -0.1479   -0.2518    0.0115
          34    0.0019   -0.0894   -0.0837    0.0113   -0.0010   -0.0868   -0.1604    0.0081
          35    0.0372    0.1171   -0.1731    0.0089   -0.4110    0.0555    0.1883   -0.0203
          36   -0.0423   -0.1526    0.4564   -0.0120    0.1423   -0.1070   -0.2254    0.0182
          37   -0.0138    0.0507    0.1935   -0.0038   -0.0203    0.0305    0.0605   -0.0029
          38    0.0016    0.1287   -0.2430    0.0002    0.4482   -0.1218   -0.2967    0.0132
          39   -0.0227   -0.0392    0.4453   -0.0081   -0.3282    0.0987    0.2334   -0.0099


   Root No.      17        18        19        20        21        22        23        24

                17 A      18 A      19 A      20 A      21 A      22 A      23 A      24 A   

                 671.9     862.2     963.9    1087.7    1220.1    1275.3    1362.2    1375.8
  
           1    0.1009    0.0467    0.0376    0.4349   -0.2470   -0.0211   -0.2087    0.0110
           2    0.1710    0.0521    0.0380   -0.2688   -0.3890   -0.0107   -0.3466    0.0188
           3   -0.1235   -0.3841   -0.2008   -0.0019   -0.1566   -0.0080   -0.1195    0.0159
           4    0.0313   -0.0014    0.0034    0.0717   -0.0670   -0.0067   -0.0678    0.0044
           5    0.0594   -0.1030   -0.0577    0.5036   -0.2879    0.0354    0.6164   -0.0453
           6   -0.2207    0.4582    0.2631    0.1984   -0.0902   -0.0060    0.1024   -0.0169
           7    0.0596   -0.0934   -0.0526   -0.4407   -0.2198    0.0253    0.5730   -0.0420
           8    0.0660   -0.0542   -0.0269   -0.2893   -0.1807    0.0119    0.1945   -0.0148
           9   -0.2628    0.5358    0.2554   -0.2052   -0.0875   -0.0081    0.1072   -0.0176
          10   -0.0200   -0.1976    0.1887   -0.0055   -0.0013   -0.2086    0.0017    0.0038
          11   -0.0431    0.0384    0.2677   -0.0061    0.0089   -0.2735    0.0354   -0.0097
          12    0.0272    0.0247   -0.0518   -0.0035    0.0071   -0.0354    0.0244    0.0262
          13   -0.0748    0.0051   -0.0084    0.0075    0.0130   -0.0050   -0.0197    0.0106
          14   -0.1228    0.0133   -0.0139   -0.0083    0.0242    0.0021   -0.0357    0.0158
          15    0.7755    0.2619    0.0833    0.0032   -0.0066    0.0153    0.0112    0.0031
          16    0.1182    0.0030   -0.0001   -0.2279    0.5314    0.0140    0.1329   -0.0164
          17   -0.0974   -0.0253   -0.0040   -0.0502   -0.0269   -0.0106    0.0011   -0.0006
          18   -0.2581   -0.0474   -0.0043   -0.0581    0.0955    0.0011    0.0225   -0.0050
          19   -0.1361   -0.0212   -0.0079   -0.0595   -0.2569    0.0008   -0.0617    0.0083
          20    0.0646    0.0037    0.0016    0.2357    0.4598    0.0172    0.1238   -0.0160
          21   -0.2570   -0.0349   -0.0192    0.0565    0.0910   -0.0027    0.0231   -0.0015
          22    0.0348   -0.3182    0.5649   -0.0029   -0.0017    0.3796   -0.0130   -0.0345
          23    0.0193   -0.0947    0.2243   -0.0044    0.0029    0.2746   -0.0209   -0.0785
          24   -0.0164    0.0416    0.0850   -0.0043    0.0041    0.1312   -0.0080   -0.0631
          25   -0.0051    0.1339   -0.2359    0.0023    0.0004   -0.0198    0.0026    0.0050
          26   -0.0332    0.0148   -0.0729    0.0025   -0.0052    0.0988   -0.0059    0.0126
          27    0.0614   -0.1605   -0.0029    0.0031   -0.0006   -0.2272   -0.0048    0.0050
          28   -0.0051   -0.1273    0.3123   -0.0043    0.0014    0.0769   -0.0000   -0.0141
          29    0.0160    0.0299   -0.0715    0.0010    0.0028   -0.2651    0.0158    0.0151
          30   -0.0435    0.1522   -0.3272    0.0043   -0.0103    0.7006   -0.0422   -0.0289
          31   -0.0025   -0.0055    0.0191   -0.0004   -0.0001    0.0058   -0.0130   -0.1930
          32    0.0128   -0.0461    0.0886   -0.0006    0.0013    0.0634    0.0210    0.3133
          33   -0.0276    0.0811   -0.0880   -0.0004    0.0002    0.0072    0.0398    0.5400
          34   -0.0174    0.0515   -0.0747   -0.0022   -0.0010   -0.0290   -0.0047   -0.0755
          35    0.0068   -0.0094   -0.0681    0.0021   -0.0009   -0.0393   -0.0086   -0.1180
          36   -0.0316    0.0173    0.0624    0.0001   -0.0010    0.0161   -0.0148   -0.2359
          37    0.0015   -0.0210    0.0570   -0.0005    0.0021    0.0409    0.0369    0.5093
          38   -0.0091    0.0491   -0.0431    0.0000    0.0014    0.0322    0.0123    0.1860
          39    0.0013   -0.0557    0.1238    0.0002    0.0020    0.0432    0.0334    0.4287


   Root No.      25        26        27        28        29        30        31        32

                25 A      26 A      27 A      28 A      29 A      30 A      31 A      32 A   

[...]
          37   -0.0101    0.0006   -0.0001    0.1040    0.3743    0.0283    0.1713    0.0245
          38    0.0005    0.0022    0.0040    0.0022   -0.2865   -0.0169   -0.0995   -0.0134
          39   -0.0094   -0.0013   -0.0073   -0.1169   -0.4346   -0.0266   -0.1580   -0.0209


   Root No.      33

                33 A   

                2833.7
  
           1   -0.0013
           2   -0.0062
           3    0.0068
           4    0.0259
           5    0.0016
           6   -0.0019
           7   -0.0097
           8    0.0243
           9   -0.0011
          10   -0.0063
          11    0.0155
          12   -0.0450
          13   -0.0047
          14   -0.0057
          15   -0.0046
          16    0.0028
          17    0.0004
          18    0.0006
          19   -0.0005
          20   -0.0003
          21    0.0018
          22   -0.1065
          23    0.1879
          24   -0.1206
          25   -0.0025
          26   -0.0914
          27    0.0384
          28    0.1151
          29    0.1617
          30    0.0584
          31    0.6130
          32    0.0662
          33    0.1501
          34   -0.0330
          35   -0.0809
          36   -0.1466
          37   -0.4743
          38    0.2658
          39    0.3936


          DESCRIPTION OF VIBRATIONS


 VIBRATION          1    1A           ATOM PAIR      ENERGY CONTRIBUTION    RADIAL
 FREQUENCY         -1052.84         H  8 -- O 12         -72.0% (-65.0%)     84.1%
 TRANSITION DIPOLE   1.0483         H  8 -- O  9         -53.5% (-56.0%)     31.6%
 TRAVEL (Ang.)       0.3211         H 11 -- O 12          -7.1% (-20.4%)     18.3%
 REDUCED MASS        0.6212         O  9 -- H 10          -6.3% (-19.2%)      0.9%
 EFFECTIVE MASS      1.4327
 FORCE CONSTANT     -0.4057

 VIBRATION          2    2A           ATOM PAIR      ENERGY CONTRIBUTION    RADIAL
 FREQUENCY          -520.84         O  9 -- H 10         +93.7% (-66.8%)     12.1%
 TRANSITION DIPOLE   1.8745         H  8 -- O 12         +26.3% (-35.4%)     98.1%
 TRAVEL (Ang.)       0.3844         H  4 -- O  9         +21.7% (-32.1%)      0.1%
 REDUCED MASS        0.8762         H 11 -- O 12          +6.7% (-17.8%)     10.6%
 EFFECTIVE MASS      0.7213
 FORCE CONSTANT     -0.1401

 VIBRATION          3    3A           ATOM PAIR      ENERGY CONTRIBUTION    RADIAL
 FREQUENCY          -344.42         H  8 -- O  9         +23.7% (-75.3%)      0.7%
 TRANSITION DIPOLE   2.1143         H  4 -- O  9         +21.3% (-71.5%)      0.8%
 TRAVEL (Ang.)       0.4823         H  8 -- O 12         +18.2% (-66.0%)     55.6%
 REDUCED MASS        0.8416         O  9 -- H 10         +14.3% (-58.5%)      2.1%
 EFFECTIVE MASS      0.4186
 FORCE CONSTANT     -0.0588

 VIBRATION          4    4A           ATOM PAIR      ENERGY CONTRIBUTION    RADIAL
 FREQUENCY          -256.25         O 12 -- H 13         +49.4% (-99.9%)      0.3%
 TRANSITION DIPOLE   0.8205         H 11 -- O 12         +45.7% (-99.9%)      3.5%
 TRAVEL (Ang.)       0.7448         H  8 -- O 12          +2.8% (-50.6%)     22.5%
 REDUCED MASS        0.4743         C  1 -- N  5          +0.6% (-22.8%)      0.0%
 EFFECTIVE MASS      1.5576
 FORCE CONSTANT     -0.0184

 VIBRATION          5    5A           ATOM PAIR      ENERGY CONTRIBUTION    RADIAL
 FREQUENCY          -100.24         H  4 -- O  9         +24.0% (-99.9%)      1.2%
 TRANSITION DIPOLE   0.1837         H  8 -- O 12         +22.9% (-99.9%)      7.8%
 TRAVEL (Ang.)       0.4277         H  8 -- O  9         +19.8% (-99.9%)     16.5%
 REDUCED MASS        3.6779         O 12 -- H 13         +11.3% (-99.9%)     18.6%
 EFFECTIVE MASS    221.2582
 FORCE CONSTANT     -0.0218

 VIBRATION          6    6A           ATOM PAIR      ENERGY CONTRIBUTION    RADIAL
 FREQUENCY           -58.55         C  1 -- N  5         +18.8% (-99.9%)      1.0%
 TRANSITION DIPOLE   0.8623         C  1 -- H  2         +14.4% (-99.9%)     31.2%
 TRAVEL (Ang.)       0.4615         C  1 -- H  3         +13.0% (-99.9%)     71.5%
 REDUCED MASS        5.4074         N  5 -- O  7          +9.5% (-99.9%)      0.0%
 EFFECTIVE MASS    157.0737
 FORCE CONSTANT     -0.0109

 VIBRATION          7    7A           ATOM PAIR      ENERGY CONTRIBUTION    RADIAL
 FREQUENCY            89.48         H  8 -- O  9         +20.1% (442.0%)      9.2%
 TRANSITION DIPOLE   2.3935         O  9 -- H 10         +18.3% (421.9%)     56.0%
 TRAVEL (Ang.)       0.4733         H  4 -- O  9         +16.9% (405.5%)     48.5%
 REDUCED MASS        3.3644         C  1 -- N  5          +7.7% (273.9%)      0.3%
 EFFECTIVE MASS    200.3936
 FORCE CONSTANT      0.0159

 VIBRATION          8    8A           ATOM PAIR      ENERGY CONTRIBUTION    RADIAL
 FREQUENCY           129.27         H  8 -- O 12         +20.7% (341.6%)      1.9%
 TRANSITION DIPOLE   0.4545         O  9 -- H 10         +15.1% (291.7%)      0.0%
 TRAVEL (Ang.)       0.3652         H  4 -- O  9         +12.5% (265.0%)     14.6%
 REDUCED MASS        3.9110         C  1 -- N  5         +10.0% (237.4%)      0.2%
 EFFECTIVE MASS    118.0889
 FORCE CONSTANT      0.0385

 VIBRATION          9    9A           ATOM PAIR      ENERGY CONTRIBUTION    RADIAL
 FREQUENCY           169.81         C  1 -- N  5         +17.5% (183.6%)      1.8%
 TRANSITION DIPOLE   2.5406         C  1 -- H  3         +17.0% (180.9%)      1.2%
 TRAVEL (Ang.)       0.3082         C  1 -- H  2         +15.8% (174.5%)      5.7%
 REDUCED MASS        4.1811         O  9 -- H 10         +15.7% (173.6%)      2.9%
 EFFECTIVE MASS     53.9183         H  8 -- O  9         +12.8% (157.0%)     27.0%
 FORCE CONSTANT      0.0710

 VIBRATION         10   10A           ATOM PAIR      ENERGY CONTRIBUTION    RADIAL
 FREQUENCY           328.18         H  8 -- O 12         +28.8% (129.9%)     25.5%
 TRANSITION DIPOLE   0.4076         H  8 -- O  9         +26.6% (124.6%)     20.6%
 TRAVEL (Ang.)       0.6991         O  9 -- H 10         +22.1% (113.7%)      0.8%
 REDUCED MASS        0.4204         H 11 -- O 12         +12.4% ( 85.2%)      3.0%
 EFFECTIVE MASS      8.3268
 FORCE CONSTANT      0.0267

 VIBRATION         11   11A           ATOM PAIR      ENERGY CONTRIBUTION    RADIAL
 FREQUENCY           420.60         H 11 -- O 12         +30.8% ( 99.6%)      0.1%
 TRANSITION DIPOLE   0.2200         H  8 -- O 12         +23.0% ( 86.0%)     75.2%
 TRAVEL (Ang.)       0.3648         O 12 -- H 13         +20.3% ( 80.8%)     50.6%
 REDUCED MASS        1.2044         H  8 -- O  9         +10.7% ( 58.7%)     11.9%
 EFFECTIVE MASS      9.7623
 FORCE CONSTANT      0.1255

 VIBRATION         12   12A           ATOM PAIR      ENERGY CONTRIBUTION    RADIAL
 FREQUENCY           508.07         C  1 -- N  5         +26.7% (114.8%)      0.0%
 TRANSITION DIPOLE   0.2865         C  1 -- H  2         +17.5% ( 93.1%)     35.0%
 TRAVEL (Ang.)       0.2954         C  1 -- H  3         +17.5% ( 93.0%)     35.0%
 REDUCED MASS        1.5206         O  6 -- O  7         +15.0% ( 86.1%)      0.0%
 EFFECTIVE MASS     13.8961         N  5 -- O  6         +11.6% ( 75.7%)      0.0%
 FORCE CONSTANT      0.2313         N  5 -- O  7         +11.6% ( 75.7%)      0.0%

 VIBRATION         13   13A           ATOM PAIR      ENERGY CONTRIBUTION    RADIAL
 FREQUENCY           553.44         O 12 -- H 13         +27.4% ( 65.0%)      0.8%
 TRANSITION DIPOLE   1.8044         O  9 -- H 10         +22.5% ( 58.9%)      9.8%
 TRAVEL (Ang.)       0.3989         H 11 -- O 12         +18.7% ( 53.7%)      0.2%
 REDUCED MASS        0.7658         H  8 -- O 12         +14.5% ( 47.3%)     41.2%
 EFFECTIVE MASS      3.6194
 FORCE CONSTANT      0.1382

 VIBRATION         14   14A           ATOM PAIR      ENERGY CONTRIBUTION    RADIAL
 FREQUENCY           575.58         C  1 -- H  2         +34.9% ( 80.2%)      3.1%
 TRANSITION DIPOLE   0.2930         C  1 -- H  3         +24.6% ( 67.4%)      3.5%
 TRAVEL (Ang.)       0.6083         C  1 -- N  5         +10.4% ( 43.7%)      1.4%
 REDUCED MASS        0.3166         O  9 -- H 10          +8.0% ( 38.3%)      2.1%
 EFFECTIVE MASS      3.8673
 FORCE CONSTANT      0.0618

 VIBRATION         15   15A           ATOM PAIR      ENERGY CONTRIBUTION    RADIAL
 FREQUENCY           604.27         O  9 -- H 10         +21.7% ( 58.4%)      2.2%
 TRANSITION DIPOLE   0.2590         O 12 -- H 13         +17.6% ( 52.6%)      0.4%
 TRAVEL (Ang.)       0.5029         H  8 -- O 12         +15.9% ( 50.0%)      6.6%
 REDUCED MASS        0.4412         C  1 -- H  3         +12.6% ( 44.5%)      4.2%
 EFFECTIVE MASS      5.1078
 FORCE CONSTANT      0.0949

 VIBRATION         16   16A           ATOM PAIR      ENERGY CONTRIBUTION    RADIAL
 FREQUENCY           654.73         O  6 -- O  7         +20.6% ( 83.0%)    100.0%
 TRANSITION DIPOLE   1.7285         N  5 -- O  6         +19.5% ( 80.8%)      0.2%
 TRAVEL (Ang.)       0.1599         N  5 -- O  7         +19.4% ( 80.6%)      0.2%
 REDUCED MASS        4.0285         C  1 -- N  5         +15.8% ( 72.7%)      1.3%
 EFFECTIVE MASS     15.5676         C  1 -- H  2         +12.5% ( 64.6%)     22.7%
 FORCE CONSTANT      1.0175         C  1 -- H  3         +12.2% ( 64.0%)     23.9%

 VIBRATION         17   17A           ATOM PAIR      ENERGY CONTRIBUTION    RADIAL
 FREQUENCY           671.93         C  1 -- N  5         +29.2% ( 82.3%)      0.0%
 TRANSITION DIPOLE   0.8864         N  5 -- O  6         +27.9% ( 80.5%)      0.0%
 TRAVEL (Ang.)       0.1325         N  5 -- O  7         +27.8% ( 80.3%)      0.1%
 REDUCED MASS        5.7203         C  1 -- H  3          +5.2% ( 34.6%)     18.5%
 EFFECTIVE MASS     12.9590
 FORCE CONSTANT      1.5217

 VIBRATION         18   18A           ATOM PAIR      ENERGY CONTRIBUTION    RADIAL
 FREQUENCY           862.21         C  1 -- H  3         +26.4% ( 59.4%)      0.1%
 TRANSITION DIPOLE   3.0296         C  1 -- H  2         +20.6% ( 52.4%)      0.3%
 TRAVEL (Ang.)       0.3829         C  1 -- N  5         +10.8% ( 37.9%)      7.7%
 REDUCED MASS        0.5333         H  8 -- O  9         +10.2% ( 36.8%)      1.9%
 EFFECTIVE MASS      3.7788
 FORCE CONSTANT      0.2336

 VIBRATION         19   19A           ATOM PAIR      ENERGY CONTRIBUTION    RADIAL
 FREQUENCY           963.90         H  8 -- O  9         +32.3% ( 63.1%)      0.8%
 TRANSITION DIPOLE   1.2370         H  8 -- O 12         +31.3% ( 62.1%)      0.8%
 TRAVEL (Ang.)       0.4764         O  9 -- H 10         +15.4% ( 43.5%)     14.6%
 REDUCED MASS        0.3082         C  1 -- H  2          +5.7% ( 26.4%)      0.5%
 EFFECTIVE MASS      2.1857
 FORCE CONSTANT      0.1687

 VIBRATION         20   20A           ATOM PAIR      ENERGY CONTRIBUTION    RADIAL
 FREQUENCY          1087.66         C  1 -- H  3         +37.9% ( 80.0%)     15.7%
 TRANSITION DIPOLE   0.1105         C  1 -- H  2         +36.5% ( 78.5%)     17.2%
 TRAVEL (Ang.)       0.2343         C  1 -- N  5         +13.3% ( 47.5%)      0.0%
 REDUCED MASS        1.1291         O  6 -- O  7          +5.5% ( 30.5%)      0.0%
 EFFECTIVE MASS      5.5795
 FORCE CONSTANT      0.7870

 VIBRATION         21   21A           ATOM PAIR      ENERGY CONTRIBUTION    RADIAL
 FREQUENCY          1220.10         O  6 -- O  7         +29.8% ( 71.6%)    100.0%
 TRANSITION DIPOLE   0.6496         C  1 -- H  2         +15.8% ( 52.2%)     68.9%
 TRAVEL (Ang.)       0.1282         C  1 -- H  3         +15.4% ( 51.6%)     63.8%
 REDUCED MASS        3.3625         C  1 -- N  5         +14.3% ( 49.6%)     99.5%
 EFFECTIVE MASS     12.6532         N  5 -- O  6         +12.5% ( 46.4%)     99.6%
 FORCE CONSTANT      2.9492         N  5 -- O  7         +12.1% ( 45.6%)     99.6%

 VIBRATION         22   22A           ATOM PAIR      ENERGY CONTRIBUTION    RADIAL
 FREQUENCY          1275.26         O  9 -- H 10         +52.6% ( 65.2%)      0.1%
 TRANSITION DIPOLE   1.0447         H  8 -- O  9         +21.3% ( 41.5%)     14.3%
 TRAVEL (Ang.)       0.3352         H  8 -- O 12         +17.1% ( 37.2%)      0.1%
 REDUCED MASS        0.4705         H  4 -- O  9          +7.5% ( 24.7%)     12.2%
 EFFECTIVE MASS      1.7746
 FORCE CONSTANT      0.4508

 VIBRATION         23   23A           ATOM PAIR      ENERGY CONTRIBUTION    RADIAL
 FREQUENCY          1362.23         C  1 -- H  2         +41.9% ( 67.4%)      2.0%
 TRANSITION DIPOLE   0.7592         C  1 -- H  3         +40.0% ( 65.8%)      2.5%
 TRAVEL (Ang.)       0.2673         C  1 -- N  5         +12.1% ( 36.2%)     99.9%
 REDUCED MASS        0.6929         O  6 -- O  7          +2.5% ( 16.4%)    100.0%
 EFFECTIVE MASS      3.3836
 FORCE CONSTANT      0.7576

 VIBRATION         24   24A           ATOM PAIR      ENERGY CONTRIBUTION    RADIAL
 FREQUENCY          1375.85         O 12 -- H 13         +51.3% ( 57.0%)      6.2%
 TRANSITION DIPOLE   1.0515         H 11 -- O 12         +42.9% ( 52.1%)      7.4%
 TRAVEL (Ang.)       0.3116         H  8 -- O 12          +3.4% ( 14.7%)     55.0%
 REDUCED MASS        0.5046         H  8 -- O  9          +1.1% (  8.3%)      1.0%
 EFFECTIVE MASS      1.6136
 FORCE CONSTANT      0.5628

 VIBRATION         25   25A           ATOM PAIR      ENERGY CONTRIBUTION    RADIAL
 FREQUENCY          1526.46         C  1 -- N  5         +31.6% ( 81.3%)     97.8%
 TRANSITION DIPOLE   9.0748         N  5 -- O  6         +23.0% ( 69.4%)     48.7%
 TRAVEL (Ang.)       0.0996         N  5 -- O  7         +22.9% ( 69.2%)     47.5%
 REDUCED MASS        4.4562         H  4 -- O  9          +8.3% ( 41.6%)     93.5%
 EFFECTIVE MASS     12.0162
 FORCE CONSTANT      6.1177

 VIBRATION         26   26A           ATOM PAIR      ENERGY CONTRIBUTION    RADIAL
 FREQUENCY          1556.85         N  5 -- O  7         +35.0% ( 83.4%)     87.2%
 TRANSITION DIPOLE   9.6564         N  5 -- O  6         +34.7% ( 83.1%)     86.2%
 TRAVEL (Ang.)       0.0810         C  1 -- N  5         +22.5% ( 66.9%)      0.0%
 REDUCED MASS        6.6065         O  6 -- O  7          +6.0% ( 34.6%)      0.0%
 EFFECTIVE MASS     14.0599
 FORCE CONSTANT      9.4344

 VIBRATION         27   27A           ATOM PAIR      ENERGY CONTRIBUTION    RADIAL
 FREQUENCY          1774.00         H  4 -- O  9         +69.5% ( 87.7%)     98.4%
 TRANSITION DIPOLE   3.0830         C  1 -- N  5          +9.0% ( 31.6%)     98.4%
 TRAVEL (Ang.)       0.1679         N  5 -- O  6          +5.8% ( 25.4%)     48.4%
 REDUCED MASS        1.3480         N  5 -- O  7          +5.7% ( 25.1%)     43.4%
 EFFECTIVE MASS      4.4959
 FORCE CONSTANT      2.4996

 VIBRATION         28   28A           ATOM PAIR      ENERGY CONTRIBUTION    RADIAL
 FREQUENCY          2103.85         H  8 -- O  9         +50.0% ( 90.7%)     82.7%
 TRANSITION DIPOLE   1.4691         H  8 -- O 12         +40.9% ( 82.0%)     23.7%
 TRAVEL (Ang.)       0.2118         H 11 -- O 12          +3.1% ( 22.6%)     57.9%
 REDUCED MASS        0.7148         O  9 -- H 10          +2.5% ( 20.3%)     14.2%
 EFFECTIVE MASS      1.8098
 FORCE CONSTANT      1.8640

 VIBRATION         29   29A           ATOM PAIR      ENERGY CONTRIBUTION    RADIAL
 FREQUENCY          2642.66         H 11 -- O 12         +53.5% ( 75.5%)     97.0%
 TRANSITION DIPOLE   1.9272         O 12 -- H 13         +44.6% ( 69.0%)     96.3%
 TRAVEL (Ang.)       0.2250         O  9 -- H 10          +1.4% ( 12.3%)     99.3%
 REDUCED MASS        0.5041         H  8 -- O 12          +0.5% (  7.3%)      0.4%
 EFFECTIVE MASS      1.4820
 FORCE CONSTANT      2.0741

 VIBRATION         30   30A           ATOM PAIR      ENERGY CONTRIBUTION    RADIAL
 FREQUENCY          2692.89         C  1 -- H  2         +50.0% ( 73.0%)     98.7%
 TRANSITION DIPOLE   1.1520         C  1 -- H  3         +46.9% ( 70.7%)     98.4%
 TRAVEL (Ang.)       0.2261         O  9 -- H 10          +1.8% ( 13.7%)     99.2%
 REDUCED MASS        0.4897         C  1 -- N  5          +1.1% ( 10.9%)      0.0%
 EFFECTIVE MASS      1.5147
 FORCE CONSTANT      2.0921

 VIBRATION         31   31A           ATOM PAIR      ENERGY CONTRIBUTION    RADIAL
 FREQUENCY          2694.92         O  9 -- H 10         +88.3% ( 93.3%)     99.2%
 TRANSITION DIPOLE   1.6787         O 12 -- H 13          +6.8% ( 25.9%)     99.5%
 TRAVEL (Ang.)       0.1829         C  1 -- H  2          +1.7% ( 13.0%)     99.1%
 REDUCED MASS        0.7479         H  8 -- O  9          +1.0% ( 10.0%)     55.6%
 EFFECTIVE MASS      1.3320
 FORCE CONSTANT      3.2004

 VIBRATION         32   32A           ATOM PAIR      ENERGY CONTRIBUTION    RADIAL
 FREQUENCY          2761.92         C  1 -- H  3         +51.8% ( 70.4%)     96.3%
 TRANSITION DIPOLE   1.2268         C  1 -- H  2         +47.2% ( 67.2%)     95.5%
 TRAVEL (Ang.)       0.2260         C  1 -- N  5          +0.5% (  6.9%)     81.9%
 REDUCED MASS        0.4778         O 12 -- H 13          +0.1% (  3.5%)    100.0%
 EFFECTIVE MASS      1.2287
 FORCE CONSTANT      2.1474

 VIBRATION         33   33A           ATOM PAIR      ENERGY CONTRIBUTION    RADIAL
 FREQUENCY          2833.73         O 12 -- H 13         +46.9% ( 64.9%)     99.8%
 TRANSITION DIPOLE   1.3314         H 11 -- O 12         +40.9% ( 60.6%)     99.5%
 TRAVEL (Ang.)       0.2474         O  9 -- H 10          +4.8% ( 20.7%)     91.3%
 REDUCED MASS        0.3887         H  8 -- O  9          +3.6% ( 18.1%)     96.8%
 EFFECTIVE MASS      1.2715
 FORCE CONSTANT      1.8392

      SYMMETRY NUMBER FOR POINT-GROUP C1  =  1


          SYSTEM IS A GROUND STATE



 Title: ASE calculation


          MOLECULE IS NOT LINEAR

          THERE ARE 33 GENUINE VIBRATIONS IN THIS SYSTEM
          THIS THERMODYNAMICS CALCULATION IS LIMITED TO
          MOLECULES WHICH HAVE NO INTERNAL ROTATIONS




                    CALCULATED THERMODYNAMIC PROPERTIES
                                          *
   TEMP. (K)   PARTITION FUNCTION   H.O.F.    ENTHALPY  HEAT CAPACITY ENTROPY
                                   KCAL/MOL   CAL/MOLE    CAL/K/MOL  CAL/K/MOL


 298.00  VIB.     0.4794D+03                  4097.4766    25.8763    26.0158
         ROT.     0.3850D+06                   888.2803     2.9808    28.5385
         INT.     0.1846D+09                  4985.7569    28.8571    54.5543
         TRA.     0.9390D+27                  1480.4672     4.9680    39.6579
         TOT.                     -139.426    6466.2240    33.8251    94.2122

   *: NOTE: HEATS OF FORMATION ARE RELATIVE TO THE
            ELEMENTS IN THEIR STANDARD STATE AT 298K
              (=  Standard Enthalpy of Formation).

            Hvib:  Zero-point energy is not included.
                   frequencies of less than zero cm-1 are not included.
            Hrot = (3/2)RT
            Htra = (3/2)RT + pV = (5/2)RT

            Heat capacity is Cp, not Cv

          For more information, see: HTTP://OpenMOPAC.net/Manual/thermochemistry.html


           FORCE CONSTANT IN CARTESIAN COORDINATES (Millidynes/A)

    ATOM   CHEMICAL       X               Y               Z
   NUMBER   SYMBOL  FORCE CONSTANT  FORCE CONSTANT  FORCE CONSTANT

      1       C        7.987181        9.289911        2.085494
      2       H        4.141118        0.746034        0.318226
      3       H        1.243598        3.638389        0.333541
      4       H        0.166861        0.624969        2.511427
      5       N       12.993616       12.612082        4.124237
      6       O       10.331583        1.485997        0.722242
      7       O        3.517991        8.280785        0.673250
      8       H        0.775293        1.984585       -0.287873
      9       O        2.135718        5.513556        5.614409
     10       H        1.271621        2.690936        0.845073
     11       H        3.728595        0.253355        0.729742
     12       O        4.841875        1.688633        2.723847
     13       H        2.109824        0.811629        1.942581

 **********************
 *                    *
 * JOB ENDED NORMALLY *
 *                    *
 **********************



 TOTAL JOB TIME:             1.11 SECONDS

 == MOPAC DONE ==
