 *******************************************************************************
 **                                                                           **
 **                              MOPAC v22.0.6                                **
 **                                                                           **
 *******************************************************************************
 **          Digital Object Identifier (DOI): 10.5281/zenodo.6511958          **
 **    Visit the DOI location for information on how to cite this program.    **
 *******************************************************************************

                              PM7 CALCULATION RESULTS

 *******************************************************************************
 *  CALCULATION DONE:                                Mon Mar 25 23:16:16 2024  *
 *  PM7        - The PM7 Hamiltonian to be used
 *  SINGLET    - SPIN STATE DEFINED AS A SINGLET
 *
 *
 *
 *                 CHARGE ON SYSTEM = -1
 *
 *
 *
 *  EPS=78.4   - USE ANDREAS KLAMT'S COSMO IMPLICIT SOLVATION MODEL
 *  LET        - OVERRIDE SOME SAFETY CHECKS
 *  THREADS    - USE A MAXIMUM OF 30 THREADS
 *  T=         - A TIME OF 14.0 DAYS REQUESTED
 *  DUMP=N     - RESTART FILE WRITTEN EVERY 30.0 MINUTES REQUESTED
 *  RELSCF     - DEFAULT SCF CRITERION MULTIPLIED BY 1.0000
 *              (DEFAULT SCF CRITERION = 0.00010)
 *  ITRY=      - DO A MAXIMUM OF 15000 ITERATIONS FOR SCF
 *  AUX        - OUTPUT AUXILIARY INFORMATION
 *  ISOTOPE    - SAVE THE FORCE MATRIX FOR USE LATER
 *  BONDS      - FINAL BOND-ORDER MATRIX TO BE PRINTED
 *  LARGE      - EXPANDED OUTPUT TO BE PRINTED
 *  THERMO     - THERMODYNAMIC QUANTITIES TO BE CALCULATED
 *******************************************************************************
PM7 AUX LARGE THERMO(298,298) LET ISOTOPE BONDS DUMP=30M ITRY=15000 T=14D THREADS=30 CHARGE=-1 SINGLET eps=78.4 RELSCF=1
 Title: ASE calculation

   ATOM   CHEMICAL          X               Y               Z
  NUMBER   SYMBOL      (ANGSTROMS)     (ANGSTROMS)     (ANGSTROMS)

     1       C         -0.80163000  *   1.17051000  *   0.01907000  *
     2       C          0.54035000  *   1.16033000  *   0.37713000  *
     3       C          1.29307000  *  -0.01788000  *   0.28723000  *
     4       C          0.68731000  *  -1.19598000  *  -0.15115000  *
     5       C         -0.65869000  *  -1.20598000  *  -0.50678000  *
     6       C         -1.39351000  *  -0.01991000  *  -0.42119000  *
     7       H         -1.38705000  *   2.09519000  *   0.08186000  *
     8       H          1.00541000  *   2.08900000  *   0.72489000  *
     9       H          1.25280000  *  -2.12993000  *  -0.22492000  *
    10       C          2.74452000  *   0.03205000  *   0.69523000  *
    11       D          2.82647000  *   0.51968000  *   1.73239000  *
    12       C          3.44606000  *  -1.31770000  *   0.75773000  *
    13       H          4.49308000  *  -1.22253000  *   1.08750000  *
    14       H          3.46042000  *  -1.84483000  *  -0.20655000  *
    15       H          2.94865000  *  -1.98081000  *   1.48567000  *
    16       N          3.51499000  *   0.91132000  *  -0.24424000  *
    17       O          4.68449000  *   1.14756000  *   0.01828000  *
    18       O          2.96521000  *   1.37036000  *  -1.23099000  *
    19       O          2.54270000  *   1.26596000  *   5.95487000  *
    20       H          2.20381000  *   0.59550000  *   6.48792000  *
    21       H         -1.13127000  *  -2.13339000  *  -0.84833000  *
    22       N         -2.78709000  *  -0.02162000  *  -0.79634000  *
    23       O         -3.32580000  *  -1.08020000  *  -1.09529000  *
    24       O         -3.40525000  *   1.03586000  *  -0.80857000  *
    25       H          1.60852000  *   0.09085000  *   3.54568000  *
    26       H          2.52788000  *   0.74038000  *   4.75983000  *
    27       O          2.51578000  *   0.26073000  *   3.71071000  *


                                Isotopes Used

              Atom:   11  H  Default mass  1.0079,  mass used:  2.0140 amu


          CARTESIAN COORDINATES 

    NO.       ATOM           X           Y           Z

     1         C         -0.8016      1.1705      0.0191
     2         C          0.5403      1.1603      0.3771
     3         C          1.2931     -0.0179      0.2872
     4         C          0.6873     -1.1960     -0.1512
     5         C         -0.6587     -1.2060     -0.5068
     6         C         -1.3935     -0.0199     -0.4212
     7         H         -1.3871      2.0952      0.0819
     8         H          1.0054      2.0890      0.7249
     9         H          1.2528     -2.1299     -0.2249
    10         C          2.7445      0.0321      0.6952
    11         H          2.8265      0.5197      1.7324
    12         C          3.4461     -1.3177      0.7577
    13         H          4.4931     -1.2225      1.0875
    14         H          3.4604     -1.8448     -0.2066
    15         H          2.9487     -1.9808      1.4857
    16         N          3.5150      0.9113     -0.2442
    17         O          4.6845      1.1476      0.0183
    18         O          2.9652      1.3704     -1.2310
    19         O          2.5427      1.2660      5.9549
    20         H          2.2038      0.5955      6.4879
    21         H         -1.1313     -2.1334     -0.8483
    22         N         -2.7871     -0.0216     -0.7963
    23         O         -3.3258     -1.0802     -1.0953
    24         O         -3.4053      1.0359     -0.8086
    25         H          1.6085      0.0908      3.5457
    26         H          2.5279      0.7404      4.7598
    27         O          2.5158      0.2607      3.7107

 General Reference for PM7:
 "Optimization of Parameters for Semiempirical Methods VI: More Modifications to the 
 NDDO Approximations and Re-optimization of Parameters", J. J. P. Stewart, J. Mol. Mod., 1:32, 19 (2013)
 https://link.springer.com/article/10.1007/s00894-012-1667-x

           Empirical Formula: C8 H11 N2 O6  =    27 atoms



      MOLECULAR POINT GROUP   :   C1  


 SINGLET STATE CALCULATION


      RHF CALCULATION, NO. OF DOUBLY OCCUPIED LEVELS = 45

  SCF CRITERION =    0.1000E-03


          HEAT OF FORMATION =    -222.278619 KCALS/MOLE


          CARTESIAN COORDINATE DERIVATIVES

   NUMBER  ATOM         X            Y            Z

     1       C     -0.122876    -0.268986     0.192056
     2       C     -0.333432     0.229187     0.204808
     3       C      0.315970     0.223740    -0.297813
     4       C     -0.272127    -0.151418    -0.013732
     5       C     -0.130429     0.195888     0.364640
     6       C      0.052113     0.254901    -0.289697
     7       H     -0.015279     0.143509     0.100975
     8       H     -0.185248    -0.111029     0.013697
     9       H     -0.413704     0.194597    -0.186423
    10       C      0.217518     0.039942    -0.315637
    11       H      0.619190     0.268308     0.418504
    12       C      0.120183    -0.595085    -0.075839
    13       H      0.201430    -0.240473     0.066780
    14       H     -0.105629     0.167616     0.072323
    15       H     -0.296511    -0.077030    -0.204710
    16       N      0.046417    -0.193960    -0.010946
    17       O      0.048421    -0.048244    -0.166181
    18       O      0.164454    -0.368911    -0.143903
    19       O      0.221394    -0.249039    -0.103065
    20       H      0.230599     0.022376    -0.458063
    21       H     -0.049160    -0.141425    -0.167761
    22       N     -0.142808     0.178055     0.166003
    23       O     -0.201182     0.095207    -0.059208
    24       O     -0.357493    -0.235635     0.100548
    25       H     -1.266481    -0.094688     0.260816
    26       H     -0.118631    -0.223492     0.242627
    27       O      1.773762     0.987424     0.291139

 DIPOLE           X         Y         Z       TOTAL
 POINT-CHG.   -17.794     6.335    12.207    22.489
 HYBRID        -0.932     0.130     0.338     1.000
 SUM          -18.726     6.465    12.545    23.449


          GRADIENT NORM =   3.12915


                              **** WARNING ****

           GRADIENT IS VERY LARGE FOR A THERMO CALCULATION
           RESULTS ARE LIKELY TO BE INACCURATE IF THERE ARE
           ANY LOW-LYING VIBRATIONS (LESS THAN ABOUT 400CM-1)
           GRADIENT NORM SHOULD BE LESS THAN ABOUT 1.0 FOR THERMO
           TO GIVE ACCURATE RESULTS


          TIME FOR SCF CALCULATION =    0.30

          TIME FOR DERIVATIVES     =    0.03

          MOLECULAR WEIGHT =  232.19



          ROTATIONAL CONSTANTS IN CM(-1)

          A =    0.01968634   B =    0.00833780   C =    0.00685272



           PRINCIPAL MOMENTS OF INERTIA IN UNITS OF 10**(-40)*GRAM-CM**2

          A =     1421.9378   B =     3357.3295   C =     4084.9121


          ORIENTATION OF MOLECULE IN FORCE CALCULATION

    NO.       ATOM         X         Y         Z

     1          C      -1.7414   -0.8713    0.2781
     2          C      -0.3525   -0.8713    0.2781
     3          C       0.3603    0.3348    0.2781
     4          C      -0.3294    1.5478    0.2626
     5          C      -1.7215    1.5666    0.2546
     6          C      -2.4180    0.3547    0.2650
     7          H      -2.2976   -1.8159    0.2868
     8          H       0.1797   -1.8286    0.2852
     9          H       0.2048    2.5028    0.2571
    10          C       1.8674    0.2709    0.2729
    11          H       2.2104   -0.4343   -0.5670
    12          C       2.5712    1.6066    0.0769
    13          H       3.6672    1.4949    0.0535
    14          H       2.3404    2.3387    0.8634
    15          H       2.2832    2.0599   -0.8868
    16          N       2.3632   -0.3301    1.5544
    17          O       3.5591   -0.5572    1.6580
    18          O       1.5743   -0.5819    2.4493
    19          O       3.0193   -2.1330   -4.4305
    20          H       2.8342   -1.6199   -5.1728
    21          H      -2.2593    2.5209    0.2402
    22          N      -3.8612    0.3674    0.2653
    23          O      -4.4510    1.4361    0.1636
    24          O      -4.4693   -0.6910    0.3671
    25          H       1.5042   -0.4933   -2.6772
    26          H       2.7007   -1.3515   -3.4343
    27          O       2.4221   -0.6477   -2.5637


    FIRST DERIVATIVES WILL BE USED IN THE CALCULATION OF SECOND DERIVATIVES

          ESTIMATED TIME TO COMPLETE CALCULATION =       54.42 SECONDS

    FOR POINT-GROUP C1   THERE ARE   1 UNIQUE SYMMETRY FUNCTIONS.

 STEP:   1 TIME =     0.83 SECS, INTEGRAL =      0.83 TIME LEFT:1209598.84
 STEP:   2 TIME =     1.27 SECS, INTEGRAL =      2.10 TIME LEFT:1209597.56
 STEP:   3 TIME =     0.29 SECS, INTEGRAL =      2.39 TIME LEFT:1209597.27
 STEP:   4 TIME =     0.77 SECS, INTEGRAL =      3.16 TIME LEFT:1209596.51
 STEP:   5 TIME =     0.94 SECS, INTEGRAL =      4.09 TIME LEFT:1209595.57
 STEP:   6 TIME =     1.95 SECS, INTEGRAL =      6.05 TIME LEFT:1209593.62
 STEP:   7 TIME =     1.04 SECS, INTEGRAL =      7.09 TIME LEFT:1209592.58
 STEP:   8 TIME =     0.73 SECS, INTEGRAL =      7.81 TIME LEFT:1209591.85
 STEP:   9 TIME =     0.11 SECS, INTEGRAL =      7.92 TIME LEFT:1209591.74
 STEP:  10 TIME =     0.13 SECS, INTEGRAL =      8.05 TIME LEFT:1209591.61
 STEP:  11 TIME =     0.28 SECS, INTEGRAL =      8.34 TIME LEFT:1209591.33
 STEP:  12 TIME =     0.23 SECS, INTEGRAL =      8.56 TIME LEFT:1209591.10
 STEP:  13 TIME =     0.15 SECS, INTEGRAL =      8.71 TIME LEFT:1209590.95
 STEP:  14 TIME =     0.09 SECS, INTEGRAL =      8.80 TIME LEFT:1209590.86
 STEP:  15 TIME =     0.12 SECS, INTEGRAL =      8.93 TIME LEFT:1209590.73
 STEP:  16 TIME =     0.22 SECS, INTEGRAL =      9.15 TIME LEFT:1209590.52
 STEP:  17 TIME =     0.17 SECS, INTEGRAL =      9.32 TIME LEFT:1209590.34
 STEP:  18 TIME =     0.14 SECS, INTEGRAL =      9.46 TIME LEFT:1209590.20
 STEP:  19 TIME =     0.12 SECS, INTEGRAL =      9.59 TIME LEFT:1209590.08
 STEP:  20 TIME =     0.08 SECS, INTEGRAL =      9.66 TIME LEFT:1209590.00
 STEP:  21 TIME =     0.08 SECS, INTEGRAL =      9.74 TIME LEFT:1209589.92
 STEP:  22 TIME =     0.08 SECS, INTEGRAL =      9.82 TIME LEFT:1209589.84
 STEP:  23 TIME =     0.08 SECS, INTEGRAL =      9.90 TIME LEFT:1209589.77
 STEP:  24 TIME =     0.09 SECS, INTEGRAL =      9.98 TIME LEFT:1209589.68
 STEP:  25 TIME =     0.08 SECS, INTEGRAL =     10.06 TIME LEFT:1209589.60
 STEP:  26 TIME =     0.08 SECS, INTEGRAL =     10.14 TIME LEFT:1209589.52
 STEP:  27 TIME =     0.09 SECS, INTEGRAL =     10.23 TIME LEFT:1209589.44
 STEP:  28 TIME =     0.08 SECS, INTEGRAL =     10.30 TIME LEFT:1209589.36
 STEP:  29 TIME =     0.09 SECS, INTEGRAL =     10.40 TIME LEFT:1209589.27
 STEP:  30 TIME =     0.09 SECS, INTEGRAL =     10.48 TIME LEFT:1209589.18
 STEP:  31 TIME =     0.10 SECS, INTEGRAL =     10.59 TIME LEFT:1209589.08
 STEP:  32 TIME =     0.08 SECS, INTEGRAL =     10.66 TIME LEFT:1209589.00
 STEP:  33 TIME =     0.08 SECS, INTEGRAL =     10.74 TIME LEFT:1209588.92
 STEP:  34 TIME =     0.09 SECS, INTEGRAL =     10.83 TIME LEFT:1209588.84
 STEP:  35 TIME =     0.08 SECS, INTEGRAL =     10.91 TIME LEFT:1209588.76
 STEP:  36 TIME =     0.08 SECS, INTEGRAL =     10.98 TIME LEFT:1209588.68
 STEP:  37 TIME =     0.08 SECS, INTEGRAL =     11.06 TIME LEFT:1209588.60
 STEP:  38 TIME =     0.09 SECS, INTEGRAL =     11.15 TIME LEFT:1209588.52
 STEP:  39 TIME =     0.08 SECS, INTEGRAL =     11.23 TIME LEFT:1209588.44
 STEP:  40 TIME =     0.16 SECS, INTEGRAL =     11.39 TIME LEFT:1209588.27
 STEP:  41 TIME =     0.08 SECS, INTEGRAL =     11.47 TIME LEFT:1209588.20
 STEP:  42 TIME =     0.12 SECS, INTEGRAL =     11.59 TIME LEFT:1209588.08
 STEP:  43 TIME =     0.08 SECS, INTEGRAL =     11.66 TIME LEFT:1209588.00
 STEP:  44 TIME =     0.08 SECS, INTEGRAL =     11.74 TIME LEFT:1209587.92
 STEP:  45 TIME =     0.08 SECS, INTEGRAL =     11.82 TIME LEFT:1209587.84
 STEP:  46 TIME =     0.09 SECS, INTEGRAL =     11.91 TIME LEFT:1209587.76
 STEP:  47 TIME =     0.08 SECS, INTEGRAL =     11.98 TIME LEFT:1209587.68
 STEP:  48 TIME =     0.08 SECS, INTEGRAL =     12.06 TIME LEFT:1209587.60
 STEP:  49 TIME =     0.08 SECS, INTEGRAL =     12.14 TIME LEFT:1209587.52
 STEP:  50 TIME =     0.09 SECS, INTEGRAL =     12.23 TIME LEFT:1209587.44
 STEP:  51 TIME =     0.08 SECS, INTEGRAL =     12.30 TIME LEFT:1209587.36
 STEP:  52 TIME =     0.08 SECS, INTEGRAL =     12.38 TIME LEFT:1209587.28
 STEP:  53 TIME =     0.09 SECS, INTEGRAL =     12.47 TIME LEFT:1209587.20
 STEP:  54 TIME =     0.08 SECS, INTEGRAL =     12.55 TIME LEFT:1209587.12
 STEP:  55 TIME =     0.08 SECS, INTEGRAL =     12.62 TIME LEFT:1209587.04
 STEP:  56 TIME =     0.09 SECS, INTEGRAL =     12.71 TIME LEFT:1209586.95
 STEP:  57 TIME =     0.17 SECS, INTEGRAL =     12.88 TIME LEFT:1209586.78
 STEP:  58 TIME =     0.09 SECS, INTEGRAL =     12.98 TIME LEFT:1209586.69
 STEP:  59 TIME =     0.12 SECS, INTEGRAL =     13.09 TIME LEFT:1209586.57
 STEP:  60 TIME =     0.09 SECS, INTEGRAL =     13.18 TIME LEFT:1209586.48
 STEP:  61 TIME =     0.12 SECS, INTEGRAL =     13.30 TIME LEFT:1209586.36
 STEP:  62 TIME =     0.12 SECS, INTEGRAL =     13.43 TIME LEFT:1209586.23
 STEP:  63 TIME =     0.12 SECS, INTEGRAL =     13.55 TIME LEFT:1209586.12
 STEP:  64 TIME =     0.10 SECS, INTEGRAL =     13.65 TIME LEFT:1209586.02
 STEP:  65 TIME =     0.08 SECS, INTEGRAL =     13.73 TIME LEFT:1209585.94
 STEP:  66 TIME =     0.09 SECS, INTEGRAL =     13.81 TIME LEFT:1209585.85
 STEP:  67 TIME =     0.09 SECS, INTEGRAL =     13.91 TIME LEFT:1209585.76
 STEP:  68 TIME =     0.07 SECS, INTEGRAL =     13.98 TIME LEFT:1209585.69
 STEP:  69 TIME =     0.10 SECS, INTEGRAL =     14.08 TIME LEFT:1209585.59
 STEP:  70 TIME =     0.13 SECS, INTEGRAL =     14.21 TIME LEFT:1209585.45
 STEP:  71 TIME =     0.09 SECS, INTEGRAL =     14.30 TIME LEFT:1209585.37
 STEP:  72 TIME =     0.09 SECS, INTEGRAL =     14.39 TIME LEFT:1209585.27
 STEP:  73 TIME =     0.09 SECS, INTEGRAL =     14.48 TIME LEFT:1209585.18
 STEP:  74 TIME =     0.08 SECS, INTEGRAL =     14.56 TIME LEFT:1209585.10
 STEP:  75 TIME =     0.09 SECS, INTEGRAL =     14.65 TIME LEFT:1209585.02
 STEP:  76 TIME =     0.09 SECS, INTEGRAL =     14.73 TIME LEFT:1209584.93
 STEP:  77 TIME =     0.15 SECS, INTEGRAL =     14.88 TIME LEFT:1209584.78
 STEP:  78 TIME =     0.11 SECS, INTEGRAL =     14.99 TIME LEFT:1209584.67
 STEP:  79 TIME =     0.11 SECS, INTEGRAL =     15.10 TIME LEFT:1209584.56
 STEP:  80 TIME =     0.07 SECS, INTEGRAL =     15.17 TIME LEFT:1209584.49
 STEP:  81 TIME =     0.06 SECS, INTEGRAL =     15.23 TIME LEFT:1209584.43

(To convert to Hartree/Bohr^2, multiply by (10^(-21) x N x a0^2)/(4.184 x 627.51) =  0.0642)


           FORCE MATRIX IN MILLIDYNES/ANGSTROM


                  C  1       C  2       C  3       C  4       C  5       C  6
 ------------------------------------------------------------------------------
     C    1  15.081639
     C    2   6.264730  15.097826
     C    3   2.030151   5.784313  15.735687
     C    4   1.326753   1.975856   5.980424  15.018503
     C    5   1.903017   1.239034   2.015103   6.092543  15.125868
     C    6   5.695604   1.868157   1.168787   1.886238   5.848239  16.151722
     H    7   3.364649   0.713252   0.089562   0.024850   0.075502   0.734926
     H    8   0.756260   3.382939   0.737740   0.084422   0.009168   0.086847
     H    9   0.009066   0.085249   0.735201   3.355115   0.771047   0.086626
     C   10   0.094501   0.755556   3.203203   0.707983   0.094298   0.052411
     H   11   0.015722   0.035514   0.693522   0.029867   0.013773   0.020757
     C   12   0.013648   0.057193   0.604785   0.087279   0.007103   0.015927
     H   13   0.001812   0.006295   0.047963   0.007761   0.001014   0.002650
     H   14   0.002889   0.007342   0.014165   0.020831   0.001570   0.004925
     H   15   0.004425   0.010097   0.021874   0.011958   0.004489   0.007889
     N   16   0.019727   0.051790   0.900338   0.067800   0.036671   0.049000
     O   17   0.013622   0.027757   0.106710   0.039736   0.017561   0.029931
     O   18   0.015593   0.051011   0.080621   0.021778   0.010590   0.027501
     O   19   0.004698   0.004485   0.009073   0.005225   0.002494   0.003625
     H   20   0.000826   0.000871   0.002089   0.001379   0.000937   0.001050
     H   21   0.080660   0.022617   0.089033   0.716413   3.381885   0.739727
     N   22   1.168124   0.177881   0.020756   0.176578   1.179242   3.240725
     O   23   0.115787   0.053962   0.016789   0.027164   0.094321   1.424226
     O   24   0.092100   0.027914   0.016839   0.054458   0.118301   1.431279
     H   25   0.004917   0.007930   0.008717   0.006743   0.003677   0.007639
     H   26   0.006122   0.008630   0.016933   0.008534   0.003727   0.006169
     O   27   0.009052   0.019702   0.035723   0.020196   0.008893   0.014683


                  H  7       H  8       H  9       C 10       H 11       C 12
 ------------------------------------------------------------------------------
     H    7   4.242301
     H    8   0.037763   4.276297
     H    9   0.010239   0.008745   4.279463
     C   10   0.009872   0.037742   0.032803  11.839239
     H   11   0.004659   0.016011   0.006790   2.696904   3.758878
     C   12   0.006020   0.008625   0.043503   2.891126   0.648923  11.028142
     H   13   0.000671   0.001530   0.004065   0.690313   0.027806   3.332159
     H   14   0.001263   0.001362   0.029294   0.676073   0.042400   3.353630
     H   15   0.002421   0.002526   0.037228   0.690815   0.030406   3.285535
     N   16   0.012942   0.042705   0.020620   2.516828   0.899849   0.795458
     O   17   0.006444   0.012911   0.010884   1.077625   0.101759   0.076760
     O   18   0.006441   0.014470   0.007790   1.023712   0.072050   0.095480
     O   19   0.002030   0.002913   0.001085   0.028586   0.097928   0.008413
     H   20   0.000350   0.000494   0.000495   0.008025   0.020575   0.001882
     H   21   0.009110   0.009996   0.034889   0.010329   0.002804   0.006767
     N   22   0.102927   0.031299   0.032664   0.045816   0.024112   0.029025
     O   23   0.026892   0.010319   0.011613   0.010375   0.005838   0.008825
     O   24   0.042446   0.011289   0.010681   0.010254   0.008008   0.010780
     H   25   0.001811   0.002318   0.002081   0.011645   0.065125   0.024595
     H   26   0.002393   0.004931   0.001700   0.055106   0.169094   0.018975
     O   27   0.004180   0.006349   0.004982   0.179282   0.138001   0.037551


                  H 13       H 14       H 15       N 16       O 17       O 18
 ------------------------------------------------------------------------------
     H   13   4.127188
     H   14   0.454124   4.142261
     H   15   0.456551   0.454163   4.085231
     N   16   0.093145   0.052606   0.078412  18.770570
     O   17   0.020684   0.013938   0.019173   9.471143  12.174476
     O   18   0.022398   0.015986   0.022525   9.672626   2.663957  12.283550
     O   19   0.005273   0.002779   0.009523   0.017762   0.083276   0.008072
     H   20   0.000693   0.000518   0.002057   0.003479   0.004950   0.001420
     H   21   0.000556   0.002236   0.003733   0.009668   0.004677   0.004729
     N   22   0.003910   0.008373   0.013635   0.065312   0.039588   0.035869
     O   23   0.001051   0.003186   0.004748   0.019211   0.010608   0.010285
     O   24   0.001550   0.002426   0.004164   0.020174   0.012121   0.010176
     H   25   0.006764   0.003657   0.015272   0.022100   0.035023   0.012086
     H   26   0.010249   0.003965   0.020457   0.042085   0.125674   0.016029
     O   27   0.015803   0.007392   0.027577   0.118532   0.055048   0.050627


                  O 19       H 20       H 21       N 22       O 23       O 24
 ------------------------------------------------------------------------------
     O   19   5.533534
     H   20   4.161683   4.334852
     H   21   0.002103   0.001311   4.255496
     N   22   0.006481   0.001887   0.103811  18.819316
     O   23   0.003059   0.000886   0.041125   9.181482  12.006176
     O   24   0.003035   0.000592   0.026346   9.147345   2.636343  11.981052
     H   25   0.189018   0.067417   0.001819   0.013165   0.003281   0.011682
     H   26   0.709446   0.421833   0.001803   0.010680   0.004058   0.004361
     O   27   3.739798   0.209903   0.003062   0.019316   0.006106   0.006630


                  H 25       H 26       O 27
 ------------------------------------------
     H   25   4.297830
     H   26   0.553708   1.399970
     O   27   4.006201   1.112054   6.619849


          HEAT OF FORMATION =    -222.278619 KCALS/MOLE


          TRIVIAL VIBRATIONS, SHOULD BE ZERO

  14.0706=TX -11.4423=TY  42.0779=TZ -21.4521=RX  13.3899=RY -36.6542=RZ


      MOLECULAR POINT GROUP   :   C1  


           EIGENVECTORS  


   Root No.       1         2         3         4         5         6         7         8

                 1 A       2 A       3 A       4 A       5 A       6 A       7 A       8 A   

                  -0.2      -0.0      -0.0      -0.0      -0.0      -0.0       0.0       0.0
  
           1   -0.0042   -0.0120    0.0376   -0.0073    0.0120    0.0866    0.0223    0.0304
           2    0.0001   -0.0194   -0.0230    0.0111    0.0121   -0.0061   -0.0409   -0.0117
           3    0.0046   -0.0292   -0.0721   -0.0753   -0.1993   -0.1048   -0.0641   -0.0385
           4   -0.0052   -0.0114    0.0379   -0.0075    0.0117    0.0864    0.0230    0.0306
           5    0.0079   -0.0237   -0.0192    0.0103    0.0261    0.0293   -0.0472   -0.0065
           6   -0.0010   -0.0293   -0.0334   -0.1040   -0.1868   -0.0956   -0.0429    0.0084
           7   -0.0162   -0.0098    0.0336   -0.0095   -0.0030    0.0566    0.0274    0.0262
           8    0.0149   -0.0254   -0.0170    0.0105    0.0346    0.0474   -0.0507   -0.0041
           9    0.0077   -0.0117    0.0467   -0.0615    0.0196   -0.0702   -0.0250    0.0023
          10   -0.0173   -0.0060    0.0320   -0.0088   -0.0119    0.0249    0.0338    0.0226
          11    0.0119   -0.0230   -0.0173    0.0119    0.0317    0.0292   -0.0467   -0.0067
          12    0.0178    0.0014    0.1069   -0.0312    0.2376   -0.0878   -0.0358   -0.0480
          13   -0.0171   -0.0055    0.0325   -0.0085   -0.0114    0.0238    0.0345    0.0226
          14    0.0031   -0.0189   -0.0210    0.0132    0.0183   -0.0057   -0.0406   -0.0122
          15    0.0218    0.0010    0.0596    0.0163    0.1847   -0.0727   -0.0404   -0.0747
          16   -0.0086   -0.0087    0.0361   -0.0076    0.0030    0.0554    0.0287    0.0263
          17   -0.0017   -0.0176   -0.0238    0.0124    0.0089   -0.0229   -0.0381   -0.0145
          18    0.0160   -0.0103   -0.0286    0.0214   -0.0197   -0.0704   -0.0492   -0.0666
          19    0.0007   -0.0150    0.0389   -0.0065    0.0192    0.1101    0.0188    0.0343
          20   -0.0029   -0.0181   -0.0242    0.0101    0.0070   -0.0201   -0.0390   -0.0142
          21   -0.0020   -0.0386   -0.1200   -0.0948   -0.3067   -0.1141   -0.0764   -0.0418
          22    0.0014   -0.0167    0.0412   -0.0073    0.0244    0.1096    0.0183    0.0340
          23    0.0111   -0.0269   -0.0179    0.0099    0.0319    0.0423   -0.0497   -0.0042
          24   -0.0166   -0.0480   -0.0686   -0.1451   -0.3259   -0.1005   -0.0377    0.0488
          25   -0.0170   -0.0017    0.0306   -0.0070   -0.0198   -0.0014    0.0405    0.0199
          26    0.0115   -0.0252   -0.0161    0.0109    0.0369    0.0438   -0.0501   -0.0054
          27    0.0186    0.0118    0.1747   -0.0325    0.4114   -0.0959   -0.0373   -0.0586
          28   -0.0195   -0.0098    0.0352   -0.0088   -0.0025    0.0583    0.0268    0.0254
          29    0.0219   -0.0267   -0.0136    0.0082    0.0518    0.0828   -0.0595   -0.0008
          30   -0.0295   -0.0024    0.0720   -0.0124   -0.0103    0.0025    0.0125    0.0380
          31   -0.0732    0.0031    0.0488    0.0252   -0.0074    0.1191    0.0397    0.0419
          32    0.0841   -0.0519   -0.0801   -0.0225    0.0541    0.1789   -0.1195   -0.0542
          33   -0.0887    0.0328    0.1367    0.0300   -0.0161   -0.0558    0.0672    0.0866
          34   -0.0076   -0.0005    0.0311   -0.0035   -0.0309    0.0385    0.0423    0.0252
          35    0.0205   -0.0340   -0.0225    0.0033    0.0609    0.1219   -0.0805   -0.0153
          36    0.0091   -0.0307   -0.0078   -0.0229   -0.0440    0.1970   -0.0762   -0.0519
          37   -0.0086   -0.0025    0.0305   -0.0031   -0.0358    0.0511    0.0424    0.0212
          38    0.0102   -0.0471   -0.0235    0.0026    0.0563    0.1884   -0.0929   -0.0344
          39    0.0039   -0.0482   -0.0292    0.0062   -0.2248    0.4557   -0.0297   -0.1463
          40   -0.0045    0.0167    0.0531   -0.0210    0.0937   -0.1810    0.0221    0.1034
          41    0.0062   -0.0203    0.0127    0.0184    0.0221    0.0874   -0.0119    0.0079
          42    0.0208   -0.0382   -0.0326   -0.0414    0.0274    0.1666   -0.1465   -0.0516
          43    0.0021   -0.0125    0.0032    0.0161   -0.1833    0.2348    0.0798   -0.0495
          44    0.0369   -0.0445   -0.0636   -0.0134    0.1148    0.1326   -0.1662   -0.0339
          45    0.0127   -0.0324   -0.0187   -0.0363    0.0248    0.1468   -0.1263   -0.0391
          46    0.0196   -0.0232    0.0057   -0.0661    0.0306   -0.0024   -0.0054    0.0124
          47   -0.0591    0.0548    0.1177    0.0580    0.0498   -0.0319    0.0232    0.0535
          48   -0.0837    0.0430    0.1468    0.0359   -0.0277   -0.0263    0.0622    0.0641
          49   -0.0025   -0.1009   -0.0161   -0.0714    0.0457   -0.0259    0.0062    0.0305
          50   -0.2344   -0.4357    0.0011    0.0600    0.1401   -0.1650    0.1081    0.1821
          51   -0.2118   -0.1416    0.1457    0.0975   -0.0171   -0.0442    0.1343    0.1332
          52    0.0701    0.0437    0.0074   -0.1064    0.0356   -0.0224   -0.0362   -0.0164
          53    0.0387    0.6523    0.3765    0.1067   -0.0506    0.0255   -0.0064   -0.0577
          54   -0.0122    0.2694    0.2206    0.0142   -0.0497   -0.0285    0.0251    0.0079
          55   -0.3670    0.0340   -0.0795    0.0987   -0.0518   -0.2438   -0.2129   -0.4754
          56   -0.2878    0.1075   -0.0310   -0.0865   -0.1763   -0.1187   -0.0098    0.0575
          57    0.2828   -0.0686   -0.0676    0.0010    0.0844    0.0089    0.2678   -0.1129
          58    0.5716   -0.2541    0.2851    0.1567   -0.1611   -0.3107   -0.3056    0.0572
          59   -0.0688    0.0376    0.1053   -0.0779   -0.2243   -0.1280   -0.1401    0.4211
          60    0.1553   -0.0437   -0.0597   -0.0041    0.0782    0.0156    0.2020   -0.0040
          61   -0.0210   -0.0032    0.0294   -0.0086   -0.0226    0.0007    0.0378    0.0196
          62    0.0001   -0.0174   -0.0223    0.0136    0.0135   -0.0186   -0.0387   -0.0142
          63    0.0267    0.0097    0.0857    0.0426    0.2801   -0.0558   -0.0356   -0.0974
          64   -0.0082   -0.0086    0.0350   -0.0066    0.0019    0.0545    0.0288    0.0268
          65   -0.0093   -0.0125   -0.0244    0.0047   -0.0049   -0.0606   -0.0318   -0.0204
          66    0.0215   -0.0058   -0.0654    0.1329   -0.0478   -0.0226   -0.0375   -0.0754
          67   -0.0141   -0.0049    0.0389   -0.0294   -0.0053    0.0216    0.0314    0.0212
          68   -0.0112   -0.0079   -0.0348    0.0548   -0.0154   -0.0744   -0.0247   -0.0111
          69    0.0363    0.0199   -0.1956    0.7901   -0.1163    0.0227    0.0221    0.0513
          70   -0.0019   -0.0122    0.0323    0.0114    0.0099    0.0867    0.0251    0.0303
          71   -0.0137   -0.0127   -0.0132   -0.0569   -0.0051   -0.0790   -0.0346   -0.0350
          72    0.0144   -0.0303    0.0297   -0.3884   -0.0065   -0.0261   -0.0889   -0.2075
          73   -0.0552    0.1088   -0.2398    0.0407    0.0937   -0.1192    0.0207    0.0149
          74   -0.0647   -0.1296    0.1519    0.0016   -0.1091   -0.0535    0.5079   -0.1391
          75    0.0950    0.2499   -0.3658   -0.1374    0.1347    0.0393   -0.0256    0.4902
          76   -0.0544    0.1350   -0.2794    0.0369    0.0519   -0.1796   -0.1007   -0.1838
          77    0.1743    0.0908   -0.0668   -0.0756   -0.1239   -0.1215    0.1591   -0.0872
          78   -0.1998   -0.0235   -0.0369    0.0127    0.0696   -0.0114    0.1825   -0.0102
          79    0.0579    0.1777   -0.3414    0.0091    0.1133   -0.1321    0.0102    0.0482
          80    0.3002    0.0953   -0.1901   -0.0993   -0.0615   -0.1036    0.4212   -0.1393
          81   -0.1198   -0.0066   -0.0229   -0.0135    0.0463    0.0274   -0.0006    0.1940


   Root No.       9        10        11        12        13        14        15        16

                 9 A      10 A      11 A      12 A      13 A      14 A      15 A      16 A   

                   0.0       0.0       0.0       0.1       0.1       0.1       0.1       0.2
  
           1   -0.0122   -0.0216    0.0208    0.0473    0.0107    0.0394    0.0067   -0.0920
           2   -0.0022    0.0038   -0.0055    0.0568   -0.0155   -0.0437   -0.0183   -0.0407
           3    0.0870   -0.0672   -0.0483    0.0712    0.2042    0.1484   -0.1073    0.0414
           4   -0.0123   -0.0207    0.0204    0.0347    0.0102    0.0430    0.0066   -0.0822
           5    0.0019   -0.0049    0.0084    0.1428   -0.0162   -0.0661   -0.0162   -0.0417
           6    0.1183   -0.1626   -0.1151    0.0522   -0.0482   -0.0617    0.1097   -0.0732
           7   -0.0163   -0.0164    0.0070   -0.0259    0.0073    0.0430    0.0073   -0.0533
           8    0.0042   -0.0087    0.0159    0.1862   -0.0132   -0.0685   -0.0160   -0.0529
           9    0.0846   -0.0998   -0.1330    0.0305   -0.1417   -0.0878   -0.0440   -0.0320
          10   -0.0197   -0.0084   -0.0023   -0.0759    0.0066    0.0676    0.0111   -0.0747
          11    0.0010   -0.0027    0.0099    0.1498   -0.0130   -0.0559   -0.0153   -0.0620
          12    0.0565   -0.0318   -0.1875    0.0749   -0.0072    0.0035   -0.1274   -0.0514
          13   -0.0202   -0.0081   -0.0036   -0.0900    0.0068    0.0744    0.0107   -0.0754
          14   -0.0035    0.0066   -0.0047    0.0622   -0.0136   -0.0378   -0.0109   -0.0581
          15    0.0168    0.0532   -0.1145    0.0768    0.1414    0.0672    0.2150    0.0470
          16   -0.0168   -0.0124    0.0095   -0.0199    0.0111    0.0643    0.0151   -0.0997
          17   -0.0049    0.0089   -0.0117    0.0242   -0.0153   -0.0324   -0.0134   -0.0467
          18    0.0168    0.0618   -0.0103    0.0367    0.1391    0.0790    0.0405    0.0644
          19   -0.0098   -0.0270    0.0315    0.1047    0.0090    0.0250    0.0044   -0.1006
          20   -0.0037    0.0071   -0.0116    0.0239   -0.0120   -0.0333   -0.0194   -0.0389
          21    0.0988   -0.0759   -0.0112    0.0946    0.4053    0.3396   -0.3531    0.0927
          22   -0.0098   -0.0252    0.0306    0.1001    0.0140    0.0347    0.0052   -0.1131
          23    0.0035   -0.0083    0.0137    0.1798   -0.0149   -0.0727   -0.0156   -0.0606
          24    0.1636   -0.2630   -0.1311    0.0587   -0.1717   -0.1934    0.4091   -0.2585
          25   -0.0261    0.0008   -0.0084   -0.1130    0.0059    0.0844    0.0125   -0.0722
          26    0.0048   -0.0069    0.0114    0.1706   -0.0131   -0.0656   -0.0186   -0.0670
          27    0.0591   -0.0416   -0.2413    0.0950   -0.0263    0.0216   -0.4478   -0.1906
          28   -0.0136   -0.0152    0.0066   -0.0330    0.0077    0.0443    0.0072   -0.0462
          29    0.0116   -0.0201    0.0133    0.0809   -0.0010   -0.0165    0.0008    0.0038
          30    0.0731   -0.0258   -0.0171    0.0035   -0.1704   -0.0166   -0.0372   -0.0348
          31   -0.0090    0.0396    0.0771   -0.1422    0.0665    0.1498    0.0351   -0.0666
          32    0.0154   -0.0699    0.0162    0.0240    0.0206   -0.0063    0.0035   -0.0007
          33    0.0876    0.0460    0.0120    0.0018   -0.1782    0.0457   -0.0233   -0.0348
          34   -0.0349    0.0011    0.0498    0.1916   -0.0120   -0.0294   -0.0071    0.1021
          35    0.0242   -0.0334    0.0023   -0.0547    0.0238    0.0268    0.0116   -0.0411
          36    0.0778   -0.0535    0.0742   -0.0430   -0.0655    0.0108   -0.0150    0.0745
          37   -0.0334    0.0112    0.0336    0.1777   -0.0094   -0.0255   -0.0066    0.0996
          38    0.0415    0.0013   -0.0997   -0.2846    0.0571    0.1067    0.0250   -0.2468
          39    0.0546    0.2573   -0.2840   -0.0008   -0.0274   -0.0210   -0.0299    0.1773
          40   -0.0249   -0.2224    0.3482    0.3180   -0.0644   -0.0634   -0.0108    0.1873
          41    0.0070    0.0840   -0.1580    0.0416   -0.0380   -0.0089   -0.0141   -0.1055
          42    0.0985   -0.2273    0.3105   -0.1020   -0.0209    0.0355    0.0088    0.1610
          43   -0.0645    0.2289   -0.1820    0.3250    0.0101   -0.0851   -0.0137    0.3008
          44    0.0444   -0.1951    0.2540   -0.0630    0.0937    0.0372    0.0376    0.1163
          45    0.0961   -0.1956    0.2628   -0.0808   -0.0380    0.0268   -0.0016    0.1148
          46   -0.0070   -0.1093   -0.1315   -0.1314   -0.0727   -0.1060   -0.0359    0.1243
          47    0.0301    0.0397    0.0062   -0.0127   -0.0256    0.0466    0.0198    0.1454
          48    0.0860    0.0430    0.0386    0.0062   -0.1482    0.0778   -0.0091   -0.0290
          49   -0.0029   -0.1060   -0.1505   -0.1503   -0.1052   -0.1089   -0.0407    0.1879
          50    0.0661    0.1131   -0.0418   -0.0717   -0.1616    0.1258    0.0247    0.4134
          51    0.0989    0.1665    0.1484    0.0736   -0.1024    0.2734    0.0447   -0.1217
          52   -0.0108   -0.1877   -0.2239   -0.2120   -0.1295   -0.2419   -0.0751    0.2803
          53    0.0265    0.0041    0.0623   -0.0605    0.1027    0.0161    0.0350    0.1608
          54    0.0806   -0.0372   -0.0272   -0.0771   -0.1581   -0.0507   -0.0386    0.1049
          55   -0.3172   -0.0657   -0.0328    0.0217   -0.0522    0.0278    0.0118   -0.0109
          56   -0.2518   -0.0227   -0.0345    0.0135   -0.0242    0.0301   -0.0097   -0.0049
          57   -0.2969   -0.0963    0.0176   -0.0329    0.0742   -0.0388    0.0031    0.0009
          58   -0.0527    0.1671    0.0287   -0.0551    0.0481   -0.0233    0.0087    0.0100
          59   -0.1093    0.1059   -0.0118   -0.0454    0.1883   -0.1876   -0.0347   -0.0200
          60   -0.2541   -0.0649    0.0197   -0.0548    0.1875   -0.1678   -0.0128   -0.0150
          61   -0.0218   -0.0043   -0.0144   -0.1553    0.0061    0.0909    0.0100   -0.0792
          62   -0.0046    0.0095   -0.0109    0.0269   -0.0129   -0.0294   -0.0058   -0.0585
          63   -0.0165    0.1185   -0.1141    0.0995    0.2450    0.1036    0.6096    0.1057
          64   -0.0164   -0.0147    0.0082   -0.0214    0.0125    0.0662    0.0147   -0.1030
          65   -0.0073    0.0159   -0.0344   -0.1356   -0.0034    0.0415    0.0117    0.0149
          66   -0.0580    0.1861    0.1418   -0.0536   -0.0485   -0.0633   -0.0266   -0.0120
          67   -0.0115   -0.0171   -0.0217   -0.1524    0.0443    0.1529    0.0483   -0.0352
          68   -0.0049   -0.0071   -0.0607   -0.2122    0.0056    0.0867    0.0258    0.0504
          69   -0.0634   -0.0296    0.0507   -0.0763   -0.1503   -0.1126   -0.0820   -0.0575
          70   -0.0209   -0.0080    0.0406    0.1070   -0.0208   -0.0176   -0.0170   -0.1776
          71   -0.0110    0.0424   -0.0318   -0.2186    0.0015    0.0786    0.0274    0.0519
          72   -0.1280    0.5074    0.3705   -0.1285   -0.2044   -0.2062   -0.0670   -0.0865
          73    0.3873    0.1722    0.0450   -0.0481    0.1652   -0.2120   -0.0153   -0.0137
          74    0.2374   -0.0194    0.1080   -0.1042    0.2902   -0.2978   -0.0409   -0.0366
          75   -0.2082    0.0897   -0.0421   -0.0024   -0.0656    0.1353    0.0158    0.0425
          76    0.0387    0.0789   -0.0121    0.0153   -0.0132   -0.0262    0.0066   -0.0014
          77   -0.1010   -0.0272   -0.0169    0.0447   -0.1799    0.1767    0.0062   -0.0042
          78   -0.1800   -0.0395    0.0293   -0.0613    0.1412   -0.1176   -0.0101   -0.0086
          79    0.3586    0.1903    0.0255   -0.0172    0.0377   -0.0683    0.0001    0.0047
          80   -0.0157   -0.0162    0.0122    0.0352   -0.2100    0.2497    0.0197    0.0301
          81   -0.2495   -0.0180    0.0009   -0.0618    0.2352   -0.2308   -0.0236   -0.0215


   Root No.      17        18        19        20        21        22        23        24

                17 A      18 A      19 A      20 A      21 A      22 A      23 A      24 A   

                   0.2       0.3       0.3       0.4       0.4       0.5       0.6       0.7
  
           1    0.0155   -0.0639    0.0065   -0.1001   -0.0061   -0.0233   -0.0312    0.0054
           2   -0.1600    0.0744   -0.0071    0.0023    0.0034    0.0544    0.0652   -0.0244
           3   -0.0494   -0.0441   -0.0004    0.0142   -0.0199   -0.1703    0.1609    0.0218
           4    0.0278   -0.0690    0.0075   -0.0820   -0.0044   -0.0132   -0.0173    0.0020
           5   -0.0738   -0.0619    0.0259   -0.0929    0.0066    0.0893    0.0902   -0.0353
           6    0.0523    0.0153   -0.0015    0.0131   -0.0248   -0.1756    0.1147   -0.0050
           7   -0.0098    0.0032   -0.0023    0.0128    0.0073    0.0603    0.0996   -0.0382
           8   -0.0423   -0.1058    0.0323   -0.1360    0.0012    0.0481    0.0295   -0.0106
           9   -0.0382   -0.1251   -0.0032    0.0547   -0.0550   -0.2387    0.0558   -0.0323
          10   -0.0485    0.0709   -0.0261   -0.0053   -0.0090   -0.0499   -0.0225    0.0002
          11   -0.0730   -0.0647    0.0203   -0.1437   -0.0051    0.0074   -0.0228    0.0073
          12    0.0602    0.0234    0.0038    0.0104   -0.0259   -0.1768    0.1241    0.0060
          13   -0.0372    0.0686   -0.0283   -0.0035   -0.0111   -0.0672   -0.0446    0.0077
          14   -0.1613    0.0731   -0.0118   -0.0417   -0.0066   -0.0193   -0.0387    0.0172
          15   -0.0574   -0.0420    0.0047    0.0156   -0.0223   -0.1685    0.1598    0.0280
          16   -0.0142    0.0031   -0.0149   -0.0883   -0.0169   -0.1068   -0.1265    0.0468
          17   -0.1797    0.1156   -0.0198    0.0083   -0.0031    0.0046    0.0103   -0.0032
          18   -0.0792   -0.0901    0.0039    0.0293   -0.0341   -0.3013    0.2979    0.0529
          19    0.0828   -0.1811    0.0356   -0.2015   -0.0021    0.0382    0.0271   -0.0452
          20   -0.2008    0.1401   -0.0234    0.0522    0.0015    0.0274    0.0307    0.0001
          21   -0.0851   -0.0026   -0.0040   -0.0026    0.0265    0.3017   -0.2692   -0.0384
          22    0.0866   -0.2006    0.0335   -0.2637   -0.0122   -0.0378   -0.0995    0.0063
          23   -0.0438   -0.1320    0.0409   -0.1957    0.0030    0.0855    0.0524   -0.0381
          24    0.3070    0.3092    0.0030   -0.0528    0.0435    0.1657   -0.0418    0.0179
          25   -0.0968    0.1896   -0.0635    0.0817   -0.0239   -0.1904   -0.1605    0.0510
          26   -0.0495   -0.1283    0.0416   -0.2004    0.0031    0.0878    0.0516   -0.0199
          27    0.3211    0.3132    0.0092   -0.0570    0.0421    0.1896   -0.0498    0.0136
          28   -0.0041    0.0078    0.0001    0.0524    0.0137    0.0972    0.1717   -0.0595
          29    0.0741   -0.0546    0.0043    0.1521   -0.0005   -0.0452   -0.0674    0.0576
          30   -0.0991   -0.1945   -0.0093    0.1372   -0.0414    0.0073   -0.1036   -0.0239
          31    0.0146    0.0638    0.0159    0.2553    0.0624    0.3649    0.2474    0.0337
          32    0.1360   -0.0190   -0.0167    0.3311   -0.0479   -0.1373   -0.1660   -0.2379
          33   -0.1480   -0.1948    0.0095    0.0630    0.0210    0.1888    0.0195    0.3132
          34    0.0717    0.0088    0.0025    0.0811    0.0132    0.0596    0.1185   -0.0546
          35    0.0527   -0.0195    0.0007    0.1640    0.0036   -0.0249   -0.0297    0.0604
          36   -0.0379   -0.0288   -0.0079    0.0206   -0.0216    0.0061   -0.0702   -0.0643
          37    0.0712    0.0142    0.0040    0.0850    0.0171    0.0765    0.1610   -0.0780
          38   -0.0557   -0.0203    0.0067    0.0930    0.0197    0.1266    0.3380   -0.1665
          39    0.0136    0.0744    0.0029   -0.0746   -0.0053   -0.0262   -0.1165   -0.0348
          40    0.1236   -0.0670   -0.0047    0.3190   -0.0041    0.0177   -0.0664   -0.1020
          41    0.0605   -0.1638    0.0017    0.4319   -0.0228   -0.0601   -0.2492    0.1285
          42   -0.0341    0.0889   -0.0098   -0.1718   -0.0018    0.0229    0.0780   -0.1298
          43    0.1879    0.1201    0.0008    0.0755    0.0381   -0.0126    0.1489    0.1540
          44    0.1271    0.1513    0.0086    0.0209    0.0452   -0.0908    0.0328    0.4357
          45   -0.0311    0.0307   -0.0026   -0.0557   -0.0105   -0.0028   -0.0475    0.0475
          46   -0.0806   -0.0339    0.0113    0.0162    0.0140    0.0755    0.1064   -0.0461
          47    0.0592    0.0800   -0.0309   -0.0118   -0.0053   -0.0343   -0.0267    0.0291
          48   -0.0814   -0.1180   -0.0257    0.0641   -0.0397    0.0432   -0.0307    0.0058
          49   -0.0982   -0.0250    0.0052   -0.0128    0.0099    0.0850    0.0771   -0.0490
          50    0.0421    0.2068   -0.0865   -0.1851   -0.0331   -0.0663   -0.0900   -0.0704
          51    0.0282    0.0221   -0.0718    0.0307   -0.0592   -0.0229    0.1580   -0.1770
          52   -0.1739   -0.0973    0.0292   -0.0128    0.0168    0.1244   -0.0364    0.0129
          53    0.0982    0.2066   -0.0227   -0.1228   -0.0049   -0.0836    0.0481   -0.1093
          54   -0.1477   -0.1378   -0.0099    0.0114   -0.0382    0.0620   -0.1345    0.0073
          55   -0.0087    0.0207    0.2385    0.0137   -0.2548    0.0320    0.0075    0.1663
          56    0.0013    0.0145    0.1010    0.0091    0.0873   -0.0520   -0.0412   -0.2364
          57    0.0181    0.0068   -0.0898   -0.0052   -0.0918   -0.0060   -0.0188   -0.1867
          58   -0.0163    0.0363    0.2313    0.0022    0.1254   -0.0121    0.0027   -0.0106
          59    0.0420   -0.0239   -0.3485   -0.0229   -0.2562    0.0705    0.0450    0.1678
          60    0.0395   -0.0246   -0.3621   -0.0244   -0.3326    0.0828    0.0461    0.1824
          61   -0.1021    0.1873   -0.0590    0.0974   -0.0156   -0.1024   -0.0330   -0.0133
          62   -0.2003    0.1368   -0.0271    0.0091   -0.0078   -0.0264   -0.0368    0.0057
          63   -0.1163   -0.0169    0.0053    0.0089    0.0206    0.2947   -0.2505   -0.0400
          64   -0.0119    0.0015   -0.0163   -0.0966   -0.0187   -0.1218   -0.1485    0.0549
          65    0.0801   -0.0602    0.0054   -0.0203   -0.0009    0.0167   -0.0031   -0.0048
          66    0.0176   -0.0144    0.0076    0.0040   -0.0075   -0.0751    0.0782    0.0179
          67    0.2619   -0.2180    0.0159   -0.1492   -0.0205   -0.1464   -0.1556    0.0747
          68    0.2487   -0.1863    0.0253   -0.0533   -0.0004    0.0198   -0.0178    0.0011
          69    0.0883    0.0365    0.0121   -0.0131    0.0058    0.0674   -0.0663   -0.0122
          70   -0.2850    0.2189   -0.0491   -0.0634   -0.0200   -0.1266   -0.1872    0.0619
          71    0.2535   -0.1884    0.0260   -0.0464    0.0013    0.0328    0.0016   -0.0099
          72    0.0866    0.0513    0.0074   -0.0155    0.0091    0.0661   -0.0723   -0.0140
          73    0.0110   -0.0219   -0.0136    0.0081    0.0590   -0.0221   -0.0233   -0.0165
          74   -0.0048    0.0255    0.4329    0.0370   -0.1474   -0.0311   -0.0422   -0.0429
          75   -0.0169    0.1059    0.5205   -0.0079   -0.1674   -0.0113    0.0032    0.0460
          76    0.0278   -0.0293   -0.3032   -0.0114   -0.0281   -0.0009   -0.0244   -0.2449
          77   -0.0263   -0.0415   -0.1519   -0.0086    0.4975   -0.0533   -0.0160    0.0768
          78   -0.0240   -0.0160    0.0202   -0.0157    0.5196   -0.0185    0.0556    0.3037
          79    0.0050   -0.0077   -0.0567   -0.0097    0.0706    0.0025    0.0090    0.0800
          80   -0.0045    0.0456   -0.0272   -0.0293   -0.1317    0.0539    0.0522    0.0222
          81    0.0132   -0.0280   -0.0122    0.0192    0.3108   -0.1042   -0.0801   -0.3059


   Root No.      25        26        27        28        29        30        31        32

                25 A      26 A      27 A      28 A      29 A      30 A      31 A      32 A   

                   0.8       0.8       0.9       1.0       1.0       1.0       1.0       1.3
  
           1    0.0118    0.0014    0.0004    0.0036   -0.0337   -0.0077   -0.0139    0.0097
           2    0.0288    0.0082    0.0504   -0.0088   -0.0332    0.0812   -0.0707    0.0209
           3    0.0984    0.0138   -0.0190   -0.0719    0.0011    0.0123    0.0217    0.0095
           4    0.0097    0.0024    0.0058    0.0077   -0.0164   -0.0113   -0.0206    0.0127
           5    0.0260    0.0036    0.0586   -0.0164   -0.0203    0.0715   -0.0599    0.0086
           6   -0.0078    0.0045    0.0242    0.0665   -0.0058   -0.0052   -0.0435   -0.0477
           7    0.0077    0.0116    0.0514    0.0171   -0.0254   -0.0359   -0.0909    0.0308
           8    0.0150   -0.0034   -0.0013   -0.0101   -0.0259    0.0304   -0.0109   -0.0029
           9   -0.1311   -0.0122    0.0657    0.1940   -0.0143   -0.0163   -0.0833   -0.0692
          10   -0.0073   -0.0017    0.0099    0.0025   -0.0224   -0.0169   -0.0336    0.0116
          11    0.0246   -0.0084   -0.0593   -0.0144   -0.0735    0.0596   -0.0053   -0.0089
          12   -0.0081    0.0029    0.0167    0.0812   -0.0092   -0.0037   -0.0413   -0.0635
          13   -0.0100   -0.0010    0.0037    0.0023   -0.0303   -0.0249   -0.0166    0.0079
          14    0.0281   -0.0020   -0.0540   -0.0150   -0.0482    0.0934   -0.0021   -0.0100
          15    0.0963    0.0122   -0.0321   -0.0583   -0.0014    0.0106    0.0195   -0.0046
          16    0.0016   -0.0104   -0.1404    0.0101   -0.1101   -0.0412    0.0318   -0.0117
          17    0.0258    0.0038    0.0009   -0.0059   -0.0230    0.0550   -0.0290    0.0038
          18    0.2180    0.0270   -0.0710   -0.1943    0.0129    0.0239    0.0837    0.0636
          19    0.0069    0.0175    0.5290   -0.1780   -0.2540    0.4369    0.0156   -0.0161
          20    0.0361    0.0009   -0.2477    0.0973    0.0848   -0.1593   -0.1081    0.0442
          21   -0.1380   -0.0153    0.0337    0.0930   -0.0062   -0.0087   -0.0274   -0.0142
          22    0.0998    0.0042   -0.0766    0.0992    0.6631   -0.1363    0.0079   -0.0156
          23    0.0806    0.0058    0.0184    0.0299    0.3591    0.0186   -0.0539   -0.0068
          24    0.0647    0.0064   -0.0367   -0.0799    0.0093    0.0082    0.0428    0.0307
          25   -0.1078   -0.0299   -0.0846   -0.0831    0.2907    0.5802   -0.1849   -0.0008
          26    0.0847    0.0067   -0.0124    0.0307   -0.2685   -0.2674    0.0799   -0.0013
          27    0.0510    0.0130   -0.0308   -0.0818    0.0093    0.0108    0.0477    0.0315
          28   -0.0317   -0.0038    0.0243    0.0343   -0.0197   -0.0566   -0.1459    0.0391
          29   -0.0532    0.0178   -0.0116   -0.0089    0.0064    0.0294    0.0849   -0.0159
          30   -0.0400    0.0197    0.0056    0.0868   -0.0025    0.0339    0.0657    0.0040
          31    0.5809    0.1563   -0.1221    0.0382   -0.0117    0.0974    0.0519    0.0018
          32    0.2489   -0.1724    0.0435    0.4101   -0.0387    0.1234    0.1318    0.0118
          33   -0.0825    0.2233   -0.0981   -0.2304    0.0400    0.0320    0.1442    0.0052
          34   -0.0850   -0.0401   -0.0160   -0.0049   -0.0107   -0.0333   -0.0454    0.0353
          35   -0.0410    0.0306   -0.0033   -0.0108    0.0057    0.0114    0.0416   -0.0240
          36    0.0423   -0.0543    0.0016    0.0230   -0.0048    0.0169    0.0371   -0.0088
          37   -0.1303   -0.0723   -0.0350   -0.0250   -0.0071   -0.0423   -0.0402    0.0425
          38   -0.4890   -0.2096   -0.1825   -0.1776    0.0570    0.0104    0.2123   -0.0544
          39    0.1206   -0.1962    0.0269   -0.3733    0.0136   -0.1371   -0.2284    0.0070
          40   -0.0555   -0.2756   -0.0793   -0.3736    0.0407   -0.0920    0.0167   -0.0561
          41    0.0304    0.0189    0.0713   -0.1668    0.0021   -0.1068   -0.1770   -0.0229
          42   -0.0339   -0.1080   -0.0855    0.0488    0.0177    0.1143    0.2645   -0.0430
          43   -0.2400    0.2260   -0.0679    0.2712    0.0121    0.1150    0.2948   -0.0516
          44   -0.1641    0.4073    0.0905    0.0255   -0.0008   -0.0870   -0.2208    0.0012
          45    0.0264    0.0478    0.0591   -0.0425   -0.0166   -0.0783   -0.1842    0.0296
          46   -0.0497   -0.0056    0.0433    0.0881   -0.0218   -0.0787   -0.2180    0.0365
          47   -0.0128    0.0258   -0.0190   -0.0638    0.0116    0.0122    0.0574    0.0119
          48   -0.0295    0.0704   -0.0001    0.0751   -0.0010    0.0283    0.0493    0.0241
          49   -0.0159   -0.0110    0.0311    0.0687   -0.0201   -0.0607   -0.1750    0.0357
          50    0.0901   -0.0616   -0.0226   -0.0759    0.0080    0.0423    0.1205    0.0375
          51   -0.1124   -0.0043    0.0973    0.2537   -0.0455   -0.1039   -0.3136    0.0892
          52    0.0360    0.0317   -0.0138    0.0323   -0.0062    0.0126    0.0024   -0.0086
          53    0.0182   -0.1014    0.0346    0.0121   -0.0114   -0.0458   -0.1133    0.0056
          54    0.0443    0.0671   -0.0312    0.0601    0.0059    0.0901    0.1906   -0.0172
          55   -0.0115   -0.1588    0.0284    0.0514    0.0032    0.0112    0.0303    0.1769
          56   -0.0066    0.2196   -0.0385   -0.0625   -0.0027   -0.0101   -0.0227   -0.1934
          57   -0.0108    0.2009   -0.0357   -0.0685   -0.0003   -0.0093   -0.0069    0.0034
          58    0.0131   -0.0064    0.0011    0.0063   -0.0021   -0.0022   -0.0156   -0.1133
          59    0.0145   -0.1442    0.0215    0.0420   -0.0009    0.0040   -0.0040   -0.0654
          60   -0.0001   -0.1411    0.0225    0.0319    0.0025    0.0061    0.0224    0.2227
          61   -0.0062    0.0402    0.5356   -0.0507    0.1827   -0.3741    0.3557   -0.0326
          62    0.0339    0.0199    0.2348   -0.0456    0.0611   -0.0796    0.2061   -0.0372
          63   -0.1312   -0.0163    0.0437    0.0816    0.0003   -0.0103   -0.0300   -0.0131
          64    0.0007   -0.0116   -0.1710    0.0104   -0.1622   -0.0617    0.0535   -0.0188
          65    0.0072    0.0013    0.0043    0.0046   -0.0263    0.0564   -0.0388   -0.0013
          66    0.0716    0.0075   -0.0299   -0.0760    0.0067    0.0015    0.0410    0.0332
          67    0.0014   -0.0152   -0.2242   -0.0038   -0.1910   -0.1390    0.1220   -0.0162
          68   -0.0048   -0.0018   -0.0145    0.0086   -0.0381    0.0191   -0.0107   -0.0052
          69   -0.0559   -0.0086    0.0189    0.0554   -0.0005   -0.0079   -0.0251   -0.0251
          70    0.0014   -0.0154   -0.2048    0.0287   -0.2466   -0.0295    0.0279   -0.0338
          71   -0.0056    0.0011    0.0223    0.0072    0.0123    0.0378   -0.0298    0.0014
          72   -0.0582   -0.0082    0.0196    0.0568   -0.0057   -0.0087   -0.0237   -0.0224
          73   -0.0133   -0.0069    0.0030    0.0106    0.0005    0.0051    0.0171    0.1036
          74   -0.0286    0.0444   -0.0071   -0.0146    0.0020    0.0022    0.0218    0.1101
          75   -0.0174   -0.0573    0.0131    0.0150    0.0020   -0.0012    0.0064    0.1031
          76   -0.0101    0.2795   -0.0519   -0.1054   -0.0010   -0.0191   -0.0304   -0.2023
          77   -0.0236   -0.1023    0.0244    0.0264    0.0046    0.0069    0.0551    0.5932
          78    0.0543   -0.3628    0.0646    0.1307   -0.0064    0.0075   -0.0425   -0.4499
          79    0.0032   -0.1053    0.0204    0.0416   -0.0003    0.0049    0.0038    0.0333
          80    0.0362   -0.0086   -0.0020    0.0028   -0.0030   -0.0093   -0.0543   -0.4005
          81   -0.0310    0.2681   -0.0430   -0.0767   -0.0009   -0.0060    0.0133    0.1218


   Root No.      33        34        35        36        37        38        39        40

                33 A      34 A      35 A      36 A      37 A      38 A      39 A      40 A   

                   1.3       1.4       1.4       1.6       1.6       1.6       1.7       1.8
  
           1   -0.0083   -0.2144   -0.0315   -0.0389    0.0142    0.0742   -0.0956   -0.1982
           2   -0.0178   -0.1874   -0.0278   -0.0284    0.0082    0.0427   -0.0700   -0.1415
           3   -0.0714   -0.0622    0.4260    0.0256   -0.0053    0.0107    0.0453   -0.0173
           4   -0.0096   -0.2130   -0.0322   -0.0360    0.0126    0.0691   -0.0754   -0.2097
           5   -0.0316    0.2217    0.0252   -0.0473    0.0124    0.0115   -0.0812    0.0611
           6    0.2272   -0.0463    0.4731    0.0698   -0.0133    0.1058   -0.0231    0.0005
           7   -0.0253    0.0063   -0.0023   -0.0228    0.0026    0.0374   -0.0157   -0.1413
           8   -0.0187    0.1136    0.0139   -0.0481    0.0157    0.0364   -0.1015    0.0150
           9    0.3301    0.0142    0.0583    0.0151   -0.0013    0.0753   -0.0650    0.0184
          10   -0.0158    0.2217    0.0282   -0.0044   -0.0046    0.0036    0.0436   -0.2140
          11   -0.0171    0.2147    0.0203   -0.0430    0.0127    0.0087   -0.0817   -0.0169
          12    0.3736    0.0707   -0.3713    0.0923   -0.0214    0.1047   -0.0141   -0.0037
          13   -0.0101    0.2162    0.0269    0.0013   -0.0079   -0.0045    0.0649   -0.2168
          14    0.0051   -0.1965   -0.0301    0.0068    0.0042   -0.0165   -0.0455    0.1818
          15    0.0565    0.0467   -0.4033    0.0461   -0.0138    0.0065    0.0469   -0.0109
          16    0.0071   -0.0027    0.0012    0.0064    0.0002   -0.0078    0.0035    0.0244
          17    0.0035   -0.1045   -0.0127    0.0270   -0.0090   -0.0233    0.0475   -0.0001
          18   -0.3383   -0.0168   -0.0736   -0.0638    0.0110   -0.1099    0.0551   -0.0086
          19    0.0239   -0.2132   -0.0344    0.0401   -0.0085   -0.0241    0.0415   -0.0570
          20   -0.0409   -0.2912   -0.0510   -0.0964    0.0274    0.1375   -0.2051   -0.3649
          21    0.0885    0.0457   -0.2534   -0.0047   -0.0003    0.0005   -0.0193    0.0143
          22    0.0390   -0.2345   -0.0195    0.0980   -0.0260   -0.0515    0.1682   -0.0440
          23   -0.0158    0.3235    0.0412    0.0123   -0.0059   -0.0695    0.0340    0.2516
          24   -0.1275    0.0228   -0.2727   -0.0269    0.0034   -0.0465    0.0139   -0.0047
          25   -0.0443    0.2587    0.0244   -0.0945    0.0311    0.0532   -0.1712    0.0077
          26   -0.0128    0.3031    0.0387   -0.0168   -0.0017   -0.0171    0.0094   -0.2173
          27   -0.2222   -0.0444    0.2212   -0.0451    0.0095   -0.0516    0.0095    0.0006
          28   -0.0334   -0.0041   -0.0071   -0.0380    0.0061    0.0280    0.0032   -0.0160
          29    0.0338   -0.0157    0.0069   -0.1296    0.0214    0.0265   -0.0437   -0.0430
          30   -0.0576    0.0005   -0.0085   -0.0354    0.0107    0.0068   -0.0177   -0.0159
          31    0.2971    0.0485    0.0567    0.0850   -0.0176    0.0215   -0.0320    0.1282
          32   -0.0748    0.0219   -0.0010    0.0884    0.0424   -0.0890   -0.1310   -0.0112
          33    0.1777   -0.0046    0.0255   -0.2354    0.0249    0.0860    0.0151    0.0138
          34   -0.0815    0.0092   -0.0062    0.1536   -0.0024    0.2591   -0.0506    0.0629
          35    0.0380   -0.0052    0.0050   -0.1877    0.0142   -0.0563    0.0252   -0.0692
          36   -0.1149    0.0033   -0.0276   -0.1284   -0.0056    0.2456    0.2273    0.0481
          37   -0.0950    0.0083   -0.0069    0.2450   -0.0041    0.3437   -0.0803    0.1049
          38   -0.0321    0.0005   -0.0007    0.2199   -0.0296   -0.0320    0.0051    0.0542
          39    0.1786   -0.0042    0.0242    0.0880    0.0013   -0.2207   -0.1944   -0.0421
          40    0.1439   -0.0210    0.0114    0.0294   -0.0159   -0.2963   -0.0183   -0.0258
          41   -0.1463    0.0098   -0.0292   -0.1350   -0.0202    0.1760    0.2841    0.0312
          42    0.1130   -0.0202    0.0045   -0.3445    0.0286   -0.0878    0.0856   -0.0910
          43   -0.0449   -0.0157   -0.0099   -0.0936   -0.0068   -0.0804    0.1576    0.0023
          44    0.0032    0.0134    0.0094    0.2337   -0.0227   -0.2341   -0.1807   -0.0215
          45   -0.1745    0.0199   -0.0310    0.1525   -0.0265    0.3850    0.1465    0.1345
          46   -0.0190   -0.0249   -0.0127   -0.2432    0.0304   -0.1181    0.0507    0.1268
          47    0.0889   -0.0060    0.0151   -0.1001    0.0081    0.0429   -0.0214   -0.0354
          48   -0.0932   -0.0005   -0.0115    0.1102   -0.0019   -0.0972   -0.0788   -0.0557
          49   -0.0331   -0.0161   -0.0130   -0.1820    0.0236   -0.0872    0.0526    0.1155
          50    0.0297    0.0237    0.0134    0.1251   -0.0153    0.1638    0.0255   -0.0491
          51   -0.1550   -0.0308   -0.0277   -0.0919    0.0182   -0.3182   -0.0114    0.1366
          52   -0.1294    0.0004   -0.0223    0.0775   -0.0053   -0.1389   -0.0413    0.0235
          53    0.0547   -0.0018    0.0079   -0.1282    0.0099    0.0762    0.0845    0.0673
          54   -0.2093    0.0222   -0.0239    0.4029   -0.0369   -0.1192   -0.1383   -0.1242
          55    0.0111    0.0017    0.0023   -0.0117   -0.1201   -0.0009   -0.0082    0.0021
          56   -0.0229   -0.0024   -0.0082   -0.0400   -0.2829    0.0038   -0.0357   -0.0010
          57    0.0124   -0.0011    0.0031   -0.0260   -0.2016    0.0012   -0.0223    0.0061
          58   -0.0176   -0.0008   -0.0022    0.0003    0.0077    0.0007   -0.0020   -0.0025
          59   -0.0144    0.0001   -0.0071    0.0059    0.0439    0.0003    0.0030   -0.0045
          60    0.0318    0.0025    0.0060    0.0064   -0.0027   -0.0032    0.0058    0.0079
          61   -0.0014    0.2043    0.0172   -0.0409    0.0098    0.0276   -0.0498   -0.0645
          62    0.0121   -0.3107   -0.0396   -0.0122    0.0184   -0.0070   -0.1444    0.4319
          63    0.0023   -0.0222    0.2572   -0.0173    0.0052    0.0048   -0.0206   -0.0034
          64    0.0122   -0.0038    0.0097    0.0132   -0.0026   -0.0243    0.0121    0.1179
          65    0.0511   -0.0418    0.0103    0.1395   -0.0515   -0.1098    0.3408   -0.0705
          66   -0.1955   -0.0002   -0.0422   -0.0682    0.0139   -0.0608   -0.0210    0.0101
          67   -0.0644    0.0066   -0.0107   -0.1460    0.0570    0.0802   -0.3809    0.3206
          68    0.0394   -0.0451    0.0051    0.0627   -0.0218   -0.0431    0.1315    0.0289
          69    0.1078    0.0034    0.0260    0.0216   -0.0030    0.0420   -0.0225   -0.0030
          70    0.0960   -0.0173    0.0362    0.1919   -0.0627   -0.1655    0.4177    0.1565
          71    0.0349   -0.0434    0.0003    0.0505   -0.0200   -0.0223    0.1168   -0.0857
          72    0.1138    0.0037    0.0224    0.0250   -0.0059    0.0408   -0.0181    0.0061
          73    0.0033    0.0008    0.0008   -0.0329   -0.3046    0.0022   -0.0294    0.0042
          74    0.0254    0.0019   -0.0030    0.0323    0.2864   -0.0031    0.0308   -0.0020
          75    0.0154    0.0008    0.0022    0.0322    0.2332   -0.0050    0.0284   -0.0002
          76    0.0110   -0.0013   -0.0048    0.0691    0.6558   -0.0028    0.0604   -0.0089
          77    0.0856    0.0094    0.0037    0.0394    0.1470   -0.0094    0.0314    0.0174
          78   -0.0959   -0.0041   -0.0041    0.0182    0.1469    0.0048    0.0030   -0.0230
          79   -0.0115    0.0001    0.0008   -0.0258   -0.2621    0.0019   -0.0252    0.0013
          80   -0.0601   -0.0052   -0.0058   -0.0308   -0.1918    0.0063   -0.0278   -0.0067
          81    0.0265    0.0011    0.0008   -0.0184   -0.1673   -0.0005   -0.0160    0.0066


   Root No.      41        42        43        44        45        46        47        48

                41 A      42 A      43 A      44 A      45 A      46 A      47 A      48 A   

                   1.9       2.4       2.7       3.1       3.3       3.8       3.8       3.9
  
           1   -0.0378    0.0010   -0.0194    0.0107    0.0067    0.2727    0.1521   -0.0674
           2   -0.0686   -0.1456    0.0845    0.0654   -0.0046   -0.1736   -0.1435    0.0510
           3   -0.0373   -0.0218   -0.3228    0.2997   -0.4198   -0.0433    0.0528   -0.0421
           4   -0.0137    0.0489   -0.0366   -0.0203   -0.0010    0.2847    0.1652   -0.0616
           5   -0.0392   -0.2390    0.0059    0.0000    0.0071    0.1484    0.1383   -0.0482
           6   -0.1066   -0.0177   -0.0402   -0.1301    0.4701    0.0103   -0.0891    0.0858
           7   -0.0111   -0.1720   -0.0236   -0.0824    0.0018   -0.0350    0.2865   -0.0836
           8   -0.0140   -0.0079   -0.0473   -0.0004    0.0045    0.3507    0.0532   -0.0312
           9    0.0019    0.0372    0.4075   -0.2478   -0.0536    0.0349    0.0621   -0.0700
          10   -0.0183    0.0714    0.0262   -0.0193    0.0033   -0.3182    0.0762   -0.0197
          11   -0.0478    0.2402   -0.0401    0.0124   -0.0045    0.1825   -0.0898    0.0259
          12   -0.1023   -0.0294   -0.1161    0.0139   -0.4664    0.0052   -0.0561    0.0724
          13    0.0022    0.0197    0.0499   -0.0005   -0.0040   -0.3048    0.0589   -0.0158
          14   -0.0432    0.1619   -0.0318   -0.0583    0.0013   -0.2012    0.0826   -0.0225
          15   -0.0172   -0.0292   -0.2779    0.1775    0.5294   -0.0396    0.0242   -0.0325
          16   -0.0006    0.0939   -0.0344   -0.0397    0.0113   -0.0380    0.2333   -0.0885
          17   -0.0114    0.0085    0.0391   -0.0055   -0.0032   -0.2854   -0.0452    0.0224
          18    0.1148    0.0244    0.2061   -0.0987   -0.0094    0.0381    0.0278   -0.0362
          19   -0.0536   -0.0905    0.1056    0.0872    0.0054   -0.1577   -0.1922    0.0571
          20   -0.1137   -0.2413    0.1140    0.1436    0.0127    0.0527   -0.1850    0.0431
          21    0.0150    0.0106    0.1038   -0.0893    0.1334    0.0109   -0.0083    0.0051
          22    0.0271    0.2011    0.0102   -0.0093   -0.0070   -0.1238   -0.1626    0.0561
          23   -0.0332   -0.4133    0.0689    0.0381    0.0058   -0.1424    0.1323   -0.0489
          24    0.0401    0.0096    0.0135    0.0337   -0.1436   -0.0002    0.0183   -0.0212
          25   -0.0387    0.2010   -0.0553    0.0083   -0.0004    0.1679   -0.1151    0.0467
          26   -0.0716    0.4398   -0.0290   -0.0134   -0.0018   -0.1006   -0.1644    0.0684
          27    0.0393    0.0062    0.0420   -0.0135    0.1400    0.0006    0.0139   -0.0151
          28    0.0250   -0.0816   -0.0700   -0.1278   -0.0075   -0.0480    0.2034   -0.0469
          29    0.2456   -0.0328   -0.1140   -0.0342    0.0002    0.0590   -0.0364    0.0868
          30    0.1403    0.0200    0.1342    0.1512    0.0122   -0.0728    0.1462   -0.0836
          31   -0.1467    0.0714    0.0873   -0.0752   -0.0138    0.0756   -0.0491    0.0538
          32    0.2419    0.0587    0.0969    0.2886    0.0322   -0.0431   -0.0062   -0.1002
          33    0.3026    0.0630    0.0685    0.2627    0.0296   -0.0259   -0.1201   -0.2358
          34    0.2421   -0.0037   -0.0905   -0.1033   -0.0116   -0.0249   -0.0526   -0.0333
          35    0.0864   -0.0935   -0.1972   -0.2502   -0.0237   -0.0565   -0.0639   -0.0759
          36   -0.1662    0.0056   -0.0012    0.0089    0.0007    0.0153   -0.0006    0.0158
          37    0.3541    0.0144   -0.1360   -0.1850   -0.0269   -0.0881   -0.2105   -0.0737
          38   -0.1414    0.0699    0.1192    0.1265    0.0102    0.0186    0.0001    0.0225
          39    0.1127   -0.0057    0.0058    0.0050    0.0003   -0.0024    0.0139   -0.0030
          40   -0.2018    0.0259    0.0928    0.1028    0.0111    0.0173    0.0411    0.0211
          41   -0.3041   -0.0446   -0.1124   -0.2015   -0.0217   -0.0395   -0.0781   -0.0604
          42    0.0156   -0.1023   -0.2019   -0.2796   -0.0278   -0.0594   -0.0816   -0.0724
          43   -0.2653    0.0262    0.1002    0.1010    0.0127    0.0187    0.0514    0.0451
          44    0.0227    0.0075    0.0397   -0.0095   -0.0043   -0.0406   -0.0137   -0.1232
          45   -0.1207    0.0922    0.1537    0.2272    0.0225    0.0810    0.0835    0.2126
          46    0.0847    0.0724    0.0098    0.1227    0.0115   -0.0085    0.0280    0.0932
          47    0.1987   -0.0227   -0.0563   -0.0156   -0.0002   -0.0496    0.2170    0.7335
          48    0.0320   -0.0452   -0.0392   -0.0085    0.0012   -0.0646    0.2107    0.2122
          49    0.0345    0.0696    0.0327    0.1286    0.0123   -0.0069    0.0089   -0.0746
          50   -0.0909   -0.0251    0.0836   -0.0116   -0.0028   -0.0069    0.0031   -0.2384
          51   -0.0731    0.0627   -0.1516   -0.0184   -0.0009    0.0872   -0.2211    0.0262
          52   -0.0587    0.0065   -0.1556   -0.0622   -0.0064    0.0742   -0.1744    0.0853
          53   -0.0206    0.0469    0.1057    0.0846    0.0055    0.0071   -0.0460   -0.2226
          54   -0.1648   -0.0911   -0.1481   -0.1723   -0.0179    0.0181   -0.0327   -0.0571
          55   -0.0064   -0.0012    0.0015   -0.0040    0.0013    0.0006    0.0029    0.0054
          56    0.0307    0.0059    0.0048    0.0156    0.0007   -0.0021   -0.0051   -0.0145
          57    0.0095    0.0054    0.0031    0.0098   -0.0010   -0.0010   -0.0050   -0.0125
          58    0.0034   -0.0002    0.0025   -0.0025    0.0006    0.0005   -0.0003    0.0001
          59    0.0040   -0.0016    0.0004    0.0001    0.0010   -0.0011    0.0033    0.0034
          60   -0.0224    0.0001   -0.0020   -0.0070   -0.0014    0.0025   -0.0035   -0.0017
          61    0.0352   -0.1075    0.0203    0.0844    0.0107    0.2073   -0.1357    0.0366
          62   -0.0488    0.2451   -0.1161   -0.1263   -0.0126   -0.0061    0.1993   -0.0589
          63    0.0046    0.0062    0.0875   -0.0431   -0.1641    0.0099   -0.0050    0.0058
          64    0.0069   -0.0235   -0.0035   -0.0132    0.0017   -0.0227    0.1622   -0.0681
          65    0.1535   -0.0063    0.0260   -0.0403   -0.0084    0.1587    0.0129   -0.0001
          66    0.0705    0.0311    0.3644   -0.2992   -0.0881    0.0583   -0.0861    0.1036
          67   -0.1500   -0.2117    0.0531    0.0609   -0.0069   -0.1328   -0.2130    0.0811
          68    0.0596   -0.0987    0.0038    0.0352   -0.0024    0.1131   -0.1711    0.0641
          69   -0.0476   -0.0042   -0.1421    0.1041    0.0248   -0.0328    0.0414   -0.0368
          70    0.1842   -0.2317    0.0324    0.0368   -0.0071    0.1904   -0.1635    0.0565
          71    0.0462    0.0912   -0.0429   -0.0259    0.0091    0.0538    0.2061   -0.0842
          72   -0.0467   -0.0213   -0.1421    0.1124    0.0305   -0.0274    0.0078   -0.0254
          73    0.0031    0.0020    0.0008    0.0036    0.0015   -0.0008   -0.0022   -0.0062
          74   -0.0079   -0.0018   -0.0020   -0.0005    0.0001   -0.0005    0.0005    0.0003
          75   -0.0210   -0.0040   -0.0054   -0.0085   -0.0005    0.0010   -0.0005    0.0025
          76    0.0022   -0.0009    0.0012    0.0001    0.0004   -0.0002   -0.0018   -0.0034
          77   -0.0628   -0.0019   -0.0060   -0.0207   -0.0006    0.0050   -0.0020    0.0055
          78    0.0267   -0.0065    0.0008    0.0045    0.0015   -0.0043    0.0095    0.0077
          79   -0.0018   -0.0009   -0.0017   -0.0027    0.0005    0.0002    0.0029    0.0046
          80    0.0299    0.0004    0.0027    0.0039    0.0006   -0.0002    0.0018    0.0022
          81    0.0001    0.0039   -0.0003    0.0054   -0.0018    0.0002   -0.0024   -0.0042


   Root No.      49        50        51        52        53        54        55        56

                49 A      50 A      51 A      52 A      53 A      54 A      55 A      56 A   

                   4.2       4.7       5.0       5.5       6.3       6.9       7.1       7.7
  
           1    0.0391    0.0328   -0.0044   -0.0058    0.1076   -0.0152   -0.1793   -0.0142
           2   -0.0288   -0.0300    0.0147   -0.0789   -0.2445   -0.0085   -0.0327   -0.0011
           3   -0.0554   -0.0809   -0.3263   -0.0616    0.0029   -0.0015    0.0025   -0.0027
           4    0.0209   -0.0388    0.0322   -0.0981    0.0016   -0.0197   -0.1935   -0.0185
           5    0.0229   -0.0323    0.0308   -0.0834   -0.1895   -0.0152   -0.0801    0.0007
           6    0.3258   -0.0250    0.2736    0.1034   -0.0081    0.0076   -0.0058    0.0408
           7    0.0448   -0.1848    0.1212   -0.2675    0.0447   -0.0028   -0.0520    0.0031
           8   -0.0048   -0.0209   -0.0039   -0.0089   -0.2671   -0.0136   -0.0634    0.0013
           9   -0.4477    0.1166   -0.3040   -0.1933    0.0296   -0.0201    0.0108   -0.1209
          10    0.0431    0.0045    0.0369   -0.1668    0.0814   -0.0088   -0.1455   -0.0063
          11   -0.0347    0.0078   -0.0266    0.0918   -0.2306   -0.0109   -0.0487   -0.0039
          12    0.3092   -0.0168    0.2763    0.0989   -0.0064    0.0080   -0.0016    0.0415
          13    0.0571    0.0973    0.0106   -0.1155   -0.0512   -0.0092   -0.1370   -0.0105
          14    0.0330    0.0664   -0.0105   -0.0228   -0.2507   -0.0081   -0.0262   -0.0085
          15   -0.0510   -0.1017   -0.3553   -0.0696    0.0028   -0.0012    0.0001   -0.0027
          16    0.1080    0.2539   -0.0728    0.1083   -0.0128   -0.0041   -0.0289   -0.0107
          17    0.0133    0.0302    0.0152   -0.0822   -0.3073   -0.0075   -0.0250   -0.0003
          18   -0.2812    0.1984    0.4937    0.0754    0.0091    0.0017   -0.0000    0.0060
          19   -0.0185    0.0767   -0.0501    0.1300    0.1298    0.0136    0.1076    0.0065
          20   -0.0235    0.1021   -0.0724    0.2098    0.3014    0.0191    0.1357    0.0077
          21   -0.0035    0.0198    0.0647    0.0063   -0.0027   -0.0001   -0.0017   -0.0006
          22   -0.0487   -0.0896    0.0237   -0.0437   -0.1707    0.0006    0.0452    0.0088
          23    0.0669    0.1516   -0.0424    0.0800    0.3317    0.0065   -0.0192   -0.0086
          24   -0.0736    0.0084   -0.0437   -0.0196   -0.0006   -0.0010    0.0010   -0.0071
          25   -0.0662   -0.1196    0.0161    0.0363    0.1542    0.0112    0.0912    0.0053
          26   -0.0808   -0.1582    0.0318    0.0220    0.3176    0.0197    0.1323    0.0065
          27   -0.0691    0.0084   -0.0441   -0.0174   -0.0004   -0.0015   -0.0015   -0.0076
          28   -0.0162   -0.2524    0.0993   -0.1310    0.0046    0.0132    0.2200    0.0424
          29    0.0463    0.1366    0.0146   -0.2281   -0.0517    0.0602    0.3464    0.0060
          30   -0.0650   -0.2314   -0.0223    0.2177   -0.0476    0.0894   -0.0339    0.7336
          31   -0.0998    0.0489   -0.0751    0.0621   -0.0410    0.0141    0.0177    0.0718
          32    0.1361    0.0116    0.0678   -0.0630    0.0594   -0.0449   -0.1379   -0.1843
          33    0.1799    0.1008    0.0725   -0.1721    0.0774   -0.0309   -0.1070   -0.1884
          34   -0.0108   -0.0088    0.0080   -0.0514   -0.0218    0.0285    0.2225    0.0610
          35   -0.0257   -0.0114    0.0059   -0.0851   -0.0071    0.0559    0.3920    0.0679
          36    0.0109    0.0039    0.0045    0.0169   -0.0067    0.0080   -0.0371    0.1237
          37   -0.0648    0.0597   -0.0857    0.2386    0.0323   -0.0337   -0.2802   -0.0460
          38    0.0103    0.0222   -0.0062    0.0103   -0.0004   -0.0018   -0.0283   -0.0002
          39   -0.0006   -0.0097    0.0036   -0.0077   -0.0011    0.0028    0.0119    0.0017
          40    0.0179    0.0000    0.0118   -0.0286    0.0016    0.0048    0.0244    0.0092
          41   -0.0514   -0.0189   -0.0351    0.1433    0.0167   -0.0454   -0.2234   -0.1076
          42   -0.0619   -0.0271   -0.0364    0.1334    0.0103   -0.0350   -0.1770   -0.0810
          43    0.0120    0.0050    0.0083   -0.0363    0.0026    0.0013    0.0257   -0.0099
          44   -0.0328   -0.0780   -0.0178    0.1331   -0.0033   -0.0052   -0.1328    0.0765
          45    0.0585    0.1005    0.0315   -0.2005    0.0068    0.0131    0.1863   -0.0988
          46   -0.0021   -0.0652   -0.0012    0.1565   -0.0365   -0.0124    0.0189   -0.1324
          47   -0.0827    0.0931   -0.0402    0.0087    0.0584   -0.0284   -0.2052    0.0843
          48   -0.0583   -0.2490    0.0286    0.2825   -0.0742   -0.0376    0.1122   -0.3747
          49    0.0093   -0.1440    0.0154    0.2240   -0.0739   -0.0069    0.0991   -0.2094
          50    0.0008   -0.0775    0.0149   -0.0121   -0.0092    0.0112    0.0440    0.0161
          51    0.0617    0.2477   -0.0278   -0.1400    0.0300    0.0084   -0.0538    0.0893
          52    0.0597    0.2824   -0.0243   -0.2393    0.0675    0.0089   -0.1188    0.2228
          53    0.0169   -0.0381    0.0034    0.0166   -0.0128    0.0126    0.0165    0.0487
          54    0.0052    0.0006    0.0150   -0.0430   -0.0123   -0.0029    0.0961   -0.1353
          55   -0.0008   -0.0004   -0.0024    0.0014   -0.0038    0.2082   -0.0242   -0.0266
          56    0.0091   -0.0009    0.0062   -0.0040    0.0096   -0.4877    0.0548    0.0588
          57    0.0065   -0.0020    0.0038   -0.0020    0.0042   -0.1042    0.0037   -0.0316
          58    0.0013   -0.0003   -0.0007   -0.0000    0.0008   -0.0723    0.0101    0.0170
          59   -0.0005   -0.0010    0.0006    0.0018   -0.0026    0.1883   -0.0247   -0.0397
          60   -0.0020    0.0018   -0.0016   -0.0014    0.0029   -0.2652    0.0367    0.0628
          61   -0.0267    0.0633   -0.0479    0.1081   -0.1781   -0.0009    0.0483    0.0003
          62    0.0096   -0.1307    0.0636   -0.0966    0.3685    0.0049   -0.0468    0.0012
          63   -0.0055    0.0279    0.0695    0.0121   -0.0050   -0.0003    0.0004   -0.0008
          64    0.0900    0.2727   -0.0986    0.2243   -0.0503    0.0178    0.2034    0.0203
          65    0.0438   -0.0302   -0.0323    0.0156    0.0548    0.0010    0.0010   -0.0007
          66    0.5200   -0.1999   -0.3684   -0.0330    0.0064    0.0005   -0.0006   -0.0024
          67   -0.0717   -0.1385    0.0387   -0.0772   -0.0615   -0.0010   -0.0002    0.0015
          68   -0.1113   -0.2457    0.0938   -0.1572    0.0702   -0.0109   -0.1424   -0.0136
          69   -0.1402    0.0778    0.0873    0.0221   -0.0093    0.0005    0.0134    0.0020
          70   -0.0815   -0.1535    0.0402   -0.0271    0.0702    0.0020    0.0101    0.0023
          71    0.0759    0.2484   -0.0722    0.1866   -0.0046    0.0119    0.1444    0.0134
          72   -0.1624    0.0342    0.1057   -0.0094   -0.0024   -0.0020   -0.0131   -0.0004
          73    0.0054   -0.0008    0.0035   -0.0032    0.0073   -0.3602    0.0414    0.0361
          74   -0.0003    0.0005    0.0003   -0.0001   -0.0008    0.0474   -0.0056   -0.0061
          75   -0.0016    0.0009   -0.0007   -0.0007    0.0008   -0.0660    0.0094    0.0097
          76    0.0031   -0.0001   -0.0000   -0.0010    0.0009   -0.0299    0.0028    0.0025
          77   -0.0061    0.0030   -0.0027    0.0010   -0.0007   -0.0460    0.0091    0.0113
          78    0.0015   -0.0045    0.0020    0.0013    0.0020   -0.0887    0.0107    0.0091
          79   -0.0041   -0.0004   -0.0024    0.0030   -0.0053    0.2528   -0.0290   -0.0265
          80   -0.0016    0.0003   -0.0013    0.0017   -0.0056    0.2953   -0.0335   -0.0252
          81   -0.0003    0.0003   -0.0014    0.0015   -0.0083    0.5180   -0.0619   -0.0652


   Root No.      57        58        59        60        61        62        63        64

                57 A      58 A      59 A      60 A      61 A      62 A      63 A      64 A   

                   8.0       8.3       8.3       8.8       9.0       9.5       9.5      10.1
  
           1   -0.2033    0.2281    0.0050   -0.0740    0.0224   -0.0039    0.0023   -0.1459
           2    0.0571    0.2743   -0.0067    0.0890   -0.0790   -0.1327    0.0549   -0.2879
           3    0.0028   -0.0033    0.0009   -0.0005    0.0008    0.0019   -0.0012    0.0051
           4   -0.1815    0.2418    0.0031   -0.0409    0.0076   -0.0201    0.0093   -0.1148
           5    0.1704   -0.2340   -0.0084    0.1534   -0.1214   -0.0501    0.0197   -0.0297
           6   -0.0151    0.0025    0.0006   -0.0073   -0.0064   -0.0025    0.0026   -0.0010
           7    0.1731    0.0289   -0.0125    0.1812   -0.1236   -0.1025    0.0367    0.0406
           8    0.0415   -0.2006    0.0001    0.0021   -0.0077    0.0182   -0.0072   -0.0003
           9    0.0384    0.0067   -0.0039    0.0169    0.0335    0.0192   -0.0107   -0.0002
          10   -0.1578   -0.2763    0.0063   -0.0009   -0.0000   -0.0409    0.0185   -0.0873
          11   -0.0773   -0.2780    0.0092   -0.1245    0.0712    0.1394   -0.0548    0.0054
          12   -0.0102    0.0022    0.0010   -0.0052   -0.0077   -0.0050    0.0027    0.0023
          13   -0.1995   -0.2586    0.0083   -0.0056    0.0052   -0.0519    0.0232   -0.0839
          14   -0.0785    0.2502    0.0035   -0.1316    0.0905    0.1513   -0.0632    0.2581
          15    0.0032   -0.0042   -0.0001    0.0048   -0.0029   -0.0054    0.0017   -0.0080
          16   -0.1562   -0.0211    0.0092   -0.1589    0.1147    0.1723   -0.0709    0.2983
          17   -0.0111    0.1814   -0.0008   -0.0135    0.0074   -0.0064    0.0022    0.0026
          18   -0.0022   -0.0043   -0.0000   -0.0012   -0.0009    0.0000   -0.0002    0.0008
          19    0.0386   -0.1484    0.0009   -0.0179    0.0251    0.0402   -0.0165    0.1005
          20    0.0433   -0.2718    0.0025   -0.0256    0.0350    0.0641   -0.0261    0.1535
          21   -0.0006    0.0026   -0.0000    0.0005    0.0001   -0.0007    0.0003   -0.0014
          22    0.1346   -0.1323   -0.0049    0.0666   -0.0442   -0.0176    0.0065    0.0077
          23   -0.1962    0.2594    0.0061   -0.1033    0.0717    0.0207   -0.0071   -0.0140
[...]
 TRAVEL (Ang.)       0.3400         C  4 -- H  9         +12.9% ( 40.0%)      0.0%
 REDUCED MASS        0.5792         C  2 -- H  8          +9.6% ( 34.4%)      0.1%
 EFFECTIVE MASS      5.2616
 FORCE CONSTANT      0.3461

 VIBRATION         42   42A           ATOM PAIR      ENERGY CONTRIBUTION    RADIAL
 FREQUENCY          1040.13         C  4 -- C  5         +12.9% ( 60.0%)      1.0%
 TRANSITION DIPOLE   0.1298         C  1 -- C  2         +12.7% ( 59.7%)      0.3%
 TRAVEL (Ang.)       0.2417         C  1 -- C  6          +9.9% ( 52.7%)     19.7%
 REDUCED MASS        1.1099         C  5 -- C  6          +9.0% ( 50.0%)     14.5%
 EFFECTIVE MASS     11.0970
 FORCE CONSTANT      0.7075

 VIBRATION         43   43A           ATOM PAIR      ENERGY CONTRIBUTION    RADIAL
 FREQUENCY          1071.05         H 26 -- O 27         +41.3% ( 80.2%)     82.9%
 TRANSITION DIPOLE   4.9899         O 19 -- H 26         +29.1% ( 67.3%)     21.0%
 TRAVEL (Ang.)       0.2041         H 25 -- O 27         +15.0% ( 48.4%)      4.4%
 REDUCED MASS        1.5116         O 19 -- H 20          +3.3% ( 22.8%)      0.2%
 EFFECTIVE MASS      6.0388
 FORCE CONSTANT      1.0216

 VIBRATION         44   44A           ATOM PAIR      ENERGY CONTRIBUTION    RADIAL
 FREQUENCY          1089.30         C 12 -- H 14         +23.4% ( 65.3%)     19.4%
 TRANSITION DIPOLE   1.0633         C 12 -- H 15         +16.8% ( 55.4%)      9.5%
 TRAVEL (Ang.)       0.2617         C 10 -- C 12         +15.7% ( 53.4%)      0.0%
 REDUCED MASS        0.9040         C 12 -- H 13         +11.2% ( 45.2%)      1.4%
 EFFECTIVE MASS      5.5421
 FORCE CONSTANT      0.6320

 VIBRATION         45   45A           ATOM PAIR      ENERGY CONTRIBUTION    RADIAL
 FREQUENCY          1127.90         C 10 -- C 12         +25.5% ( 80.8%)     67.6%
 TRANSITION DIPOLE   0.7186         C 10 -- N 16         +14.8% ( 61.5%)     56.8%
 TRAVEL (Ang.)       0.1351         C 10 -- H 11         +13.7% ( 59.3%)      2.5%
 REDUCED MASS        3.2752         C 12 -- H 13         +13.5% ( 58.9%)      0.8%
 EFFECTIVE MASS      9.1151         C  3 -- C 10         +13.3% ( 58.4%)      1.2%
 FORCE CONSTANT      2.4549

 VIBRATION         46   46A           ATOM PAIR      ENERGY CONTRIBUTION    RADIAL
 FREQUENCY          1164.43         C 10 -- C 12         +18.6% ( 66.6%)     74.0%
 TRANSITION DIPOLE   0.1493         C 10 -- H 11         +11.4% ( 52.2%)      1.5%
 TRAVEL (Ang.)       0.1983         C 10 -- N 16         +10.8% ( 50.8%)      4.0%
 REDUCED MASS        1.4728         C  3 -- C 10         +10.2% ( 49.3%)     35.2%
 EFFECTIVE MASS      8.2099
 FORCE CONSTANT      1.1766

 VIBRATION         47   47A           ATOM PAIR      ENERGY CONTRIBUTION    RADIAL
 FREQUENCY          1211.64         C  1 -- H  7         +17.7% ( 54.2%)      1.7%
 TRANSITION DIPOLE   0.5921         C  5 -- H 21         +14.0% ( 48.1%)      2.7%
 TRAVEL (Ang.)       0.4807         C  2 -- H  8         +13.3% ( 47.0%)      3.6%
 REDUCED MASS        0.2408         C  4 -- H  9         +13.3% ( 46.9%)      3.0%
 EFFECTIVE MASS      3.7373
 FORCE CONSTANT      0.2083

 VIBRATION         48   48A           ATOM PAIR      ENERGY CONTRIBUTION    RADIAL
 FREQUENCY          1230.45         H 26 -- O 27         +47.3% ( 86.5%)     29.6%
 TRANSITION DIPOLE   2.7567         O 19 -- H 26         +45.8% ( 85.1%)      9.4%
 TRAVEL (Ang.)       0.2841         H 25 -- O 27          +2.2% ( 18.6%)     13.3%
 REDUCED MASS        0.6790         O 19 -- H 20          +1.7% ( 16.3%)     11.4%
 EFFECTIVE MASS      1.8490
 FORCE CONSTANT      0.6057

 VIBRATION         49   49A           ATOM PAIR      ENERGY CONTRIBUTION    RADIAL
 FREQUENCY          1241.54         C  6 -- N 22         +11.8% ( 48.6%)     99.9%
 TRANSITION DIPOLE   1.7509         C  1 -- C  6         +10.7% ( 46.1%)     39.4%
 TRAVEL (Ang.)       0.2377         C  5 -- C  6         +10.3% ( 45.4%)     26.1%
 REDUCED MASS        0.9614         C  3 -- C 10         +10.0% ( 44.6%)     97.7%
 EFFECTIVE MASS      7.2520
 FORCE CONSTANT      0.8731

 VIBRATION         50   50A           ATOM PAIR      ENERGY CONTRIBUTION    RADIAL
 FREQUENCY          1256.04         C 12 -- H 14         +29.8% ( 49.8%)      1.2%
 TRANSITION DIPOLE   0.4575         C 12 -- H 13         +28.7% ( 48.8%)      0.6%
 TRAVEL (Ang.)       0.4440         C 12 -- H 15         +11.3% ( 30.6%)     21.7%
 REDUCED MASS        0.2723         C  1 -- H  7          +8.5% ( 26.6%)      1.3%
 EFFECTIVE MASS      1.7748
 FORCE CONSTANT      0.2531

 VIBRATION         51   51A           ATOM PAIR      ENERGY CONTRIBUTION    RADIAL
 FREQUENCY          1264.40         C 12 -- H 15         +28.1% ( 49.2%)      0.0%
 TRANSITION DIPOLE   0.3154         C 12 -- H 13         +13.6% ( 34.3%)      4.8%
 TRAVEL (Ang.)       0.5347         C  1 -- H  7         +11.6% ( 31.7%)      1.7%
 REDUCED MASS        0.1865         C 12 -- H 14         +11.1% ( 31.0%)     11.4%
 EFFECTIVE MASS      1.5325
 FORCE CONSTANT      0.1757

 VIBRATION         52   52A           ATOM PAIR      ENERGY CONTRIBUTION    RADIAL
 FREQUENCY          1277.98         C  2 -- H  8         +19.5% ( 43.5%)      0.7%
 TRANSITION DIPOLE   0.3342         C  4 -- H  9         +15.5% ( 38.7%)      0.2%
 TRAVEL (Ang.)       0.5589         C 12 -- H 15         +14.9% ( 38.0%)      1.8%
 REDUCED MASS        0.1689         C 12 -- H 14         +14.4% ( 37.3%)      2.3%
 EFFECTIVE MASS      1.8201         C  5 -- H 21         +12.8% ( 35.2%)      0.8%
 FORCE CONSTANT      0.1625

 VIBRATION         53   53A           ATOM PAIR      ENERGY CONTRIBUTION    RADIAL
 FREQUENCY          1344.16         C  4 -- H  9         +21.3% ( 50.4%)      0.0%
 TRANSITION DIPOLE   0.2982         C  2 -- H  8         +18.0% ( 46.3%)      0.6%
 TRAVEL (Ang.)       0.4817         C  5 -- H 21         +16.2% ( 44.0%)      0.4%
 REDUCED MASS        0.2162         C  1 -- H  7         +15.1% ( 42.5%)      0.1%
 EFFECTIVE MASS      2.3022
 FORCE CONSTANT      0.2301

 VIBRATION         54   54A           ATOM PAIR      ENERGY CONTRIBUTION    RADIAL
 FREQUENCY          1349.59         C  3 -- C 10         +12.5% ( 49.7%)     98.8%
 TRANSITION DIPOLE   0.4640         C  1 -- C  6         +10.6% ( 45.7%)     67.5%
 TRAVEL (Ang.)       0.2085         C  5 -- C  6         +10.4% ( 45.2%)     81.6%
 REDUCED MASS        1.1498         C  2 -- C  3          +9.6% ( 43.4%)     81.7%
 EFFECTIVE MASS      9.3466
 FORCE CONSTANT      1.2339

 VIBRATION         55   55A           ATOM PAIR      ENERGY CONTRIBUTION    RADIAL
 FREQUENCY          1374.20         C 12 -- H 13         +18.9% ( 49.5%)      0.3%
 TRANSITION DIPOLE   1.1850         C 12 -- H 14         +12.7% ( 40.5%)      0.8%
 TRAVEL (Ang.)       0.3750         C 12 -- H 15         +12.1% ( 39.6%)      1.1%
 REDUCED MASS        0.3489         C  3 -- C 10          +8.9% ( 34.0%)     84.7%
 EFFECTIVE MASS      4.1811
 FORCE CONSTANT      0.3882

 VIBRATION         56   56A           ATOM PAIR      ENERGY CONTRIBUTION    RADIAL
 FREQUENCY          1402.61         C  1 -- C  2         +19.8% ( 72.4%)     99.7%
 TRANSITION DIPOLE   0.8913         C  4 -- C  5         +15.0% ( 63.0%)     99.9%
 TRAVEL (Ang.)       0.1577         C  3 -- C  4         +10.0% ( 51.4%)     79.2%
 REDUCED MASS        1.9325         C  2 -- C  3          +9.3% ( 49.6%)     91.4%
 EFFECTIVE MASS     11.1151
 FORCE CONSTANT      2.2399

 VIBRATION         57   57A           ATOM PAIR      ENERGY CONTRIBUTION    RADIAL
 FREQUENCY          1421.62         H 26 -- O 27         +49.3% ( 88.5%)      3.2%
 TRANSITION DIPOLE   1.3295         O 19 -- H 26         +46.1% ( 85.6%)      0.3%
 TRAVEL (Ang.)       0.2554         H 25 -- O 27          +4.2% ( 25.7%)     10.8%
 REDUCED MASS        0.7274         O 19 -- H 20          +0.2% (  5.4%)      7.3%
 EFFECTIVE MASS      1.4416
 FORCE CONSTANT      0.8662

 VIBRATION         58   58A           ATOM PAIR      ENERGY CONTRIBUTION    RADIAL
 FREQUENCY          1482.47         N 22 -- O 24         +25.7% ( 70.3%)     65.5%
 TRANSITION DIPOLE   8.1278         N 22 -- O 23         +25.4% ( 70.0%)     64.7%
 TRAVEL (Ang.)       0.1126         C  6 -- N 22         +15.5% ( 54.6%)    100.0%
 REDUCED MASS        3.5864         O 23 -- O 24         +14.1% ( 52.2%)    100.0%
 EFFECTIVE MASS     14.8467
 FORCE CONSTANT      4.6438

 VIBRATION         59   59A           ATOM PAIR      ENERGY CONTRIBUTION    RADIAL
 FREQUENCY          1490.07         N 16 -- O 17         +27.1% ( 70.7%)     71.1%
 TRANSITION DIPOLE   2.8430         N 16 -- O 18         +24.8% ( 67.7%)     64.3%
 TRAVEL (Ang.)       0.1135         O 17 -- O 18         +16.9% ( 55.8%)    100.0%
 REDUCED MASS        3.5125         C 10 -- N 16         +11.2% ( 45.6%)     99.3%
 EFFECTIVE MASS     14.7601
 FORCE CONSTANT      4.5949

 VIBRATION         60   60A           ATOM PAIR      ENERGY CONTRIBUTION    RADIAL
 FREQUENCY          1520.02         C  2 -- C  3         +16.3% ( 57.4%)     69.6%
 TRANSITION DIPOLE   0.3409         C  3 -- C  4         +14.0% ( 53.2%)     31.7%
 TRAVEL (Ang.)       0.1540         C  5 -- C  6         +13.0% ( 51.3%)     60.2%
 REDUCED MASS        1.8702         C  1 -- C  6         +11.0% ( 47.2%)     25.5%
 EFFECTIVE MASS     10.1513         C  3 -- C 10         +10.3% ( 45.6%)      1.3%
 FORCE CONSTANT      2.5459

 VIBRATION         61   61A           ATOM PAIR      ENERGY CONTRIBUTION    RADIAL
 FREQUENCY          1539.64         C  1 -- C  6         +12.6% ( 48.9%)     87.5%
 TRANSITION DIPOLE   0.7828         C  3 -- C  4         +12.0% ( 47.6%)     84.7%
 TRAVEL (Ang.)       0.1914         C  2 -- C  3         +10.9% ( 45.4%)     49.2%
 REDUCED MASS        1.1957         C  5 -- C  6          +9.8% ( 43.0%)     34.2%
 EFFECTIVE MASS      9.5999
 FORCE CONSTANT      1.6700

 VIBRATION         62   62A           ATOM PAIR      ENERGY CONTRIBUTION    RADIAL
 FREQUENCY          1648.84         N 22 -- O 23         +35.5% ( 84.8%)     88.9%
 TRANSITION DIPOLE  11.3980         N 22 -- O 24         +35.4% ( 84.7%)     88.9%
 TRAVEL (Ang.)       0.0781         C  6 -- N 22         +21.2% ( 65.5%)      0.0%
 REDUCED MASS        6.7116         O 23 -- O 24          +6.3% ( 35.9%)      0.0%
 EFFECTIVE MASS     14.6254
 FORCE CONSTANT     10.7506

 VIBRATION         63   63A           ATOM PAIR      ENERGY CONTRIBUTION    RADIAL
 FREQUENCY          1670.36         N 16 -- O 18         +33.3% ( 82.1%)     90.9%
 TRANSITION DIPOLE  11.7443         N 16 -- O 17         +30.9% ( 79.0%)     87.2%
 TRAVEL (Ang.)       0.0857         C 10 -- N 16         +19.2% ( 62.3%)      0.2%
 REDUCED MASS        5.5010         O 17 -- O 18          +5.8% ( 34.2%)      0.8%
 EFFECTIVE MASS     14.3434
 FORCE CONSTANT      9.0431

 VIBRATION         64   64A           ATOM PAIR      ENERGY CONTRIBUTION    RADIAL
 FREQUENCY          1678.95         C  5 -- C  6         +15.0% ( 55.1%)     94.7%
 TRANSITION DIPOLE   1.4578         C  1 -- C  2         +14.9% ( 55.0%)     86.8%
 TRAVEL (Ang.)       0.1338         C  2 -- C  3         +13.7% ( 52.6%)     83.9%
 REDUCED MASS        2.2439         C  4 -- C  5         +13.1% ( 51.4%)     85.7%
 EFFECTIVE MASS     12.0639
 FORCE CONSTANT      3.7268

 VIBRATION         65   65A           ATOM PAIR      ENERGY CONTRIBUTION    RADIAL
 FREQUENCY          1690.22         C  3 -- C  4         +16.5% ( 57.8%)     99.6%
 TRANSITION DIPOLE   2.5849         C  1 -- C  6         +16.3% ( 57.4%)     99.7%
 TRAVEL (Ang.)       0.1364         C  5 -- C  6         +10.2% ( 45.5%)     57.6%
 REDUCED MASS        2.1456         C  4 -- C  5          +8.0% ( 40.2%)     39.6%
 EFFECTIVE MASS     12.1559
 FORCE CONSTANT      3.6116

 VIBRATION         66   66A           ATOM PAIR      ENERGY CONTRIBUTION    RADIAL
 FREQUENCY          1836.99         C 10 -- H 11         +88.5% ( 97.8%)     99.9%
 TRANSITION DIPOLE   1.3999         C 10 -- N 16          +3.0% ( 17.9%)      1.2%
 TRAVEL (Ang.)       0.1501         C  3 -- C 10          +2.7% ( 17.1%)      2.1%
 REDUCED MASS        1.6289         C 10 -- C 12          +2.6% ( 16.8%)      6.6%
 EFFECTIVE MASS      3.0192
 FORCE CONSTANT      3.2386

 VIBRATION         67   67A           ATOM PAIR      ENERGY CONTRIBUTION    RADIAL
 FREQUENCY          2640.09         C 12 -- H 15         +67.8% ( 85.1%)     99.7%
 TRANSITION DIPOLE   1.1616         C 12 -- H 13         +17.4% ( 43.1%)     87.2%
 TRAVEL (Ang.)       0.2207         C 12 -- H 14         +13.8% ( 38.4%)     83.9%
 REDUCED MASS        0.5243         C 10 -- C 12          +0.9% (  9.6%)      0.1%
 EFFECTIVE MASS      1.4403
 FORCE CONSTANT      2.1529

 VIBRATION         68   68A           ATOM PAIR      ENERGY CONTRIBUTION    RADIAL
 FREQUENCY          2649.17         C 12 -- H 14         +50.6% ( 73.5%)     98.1%
 TRANSITION DIPOLE   1.0095         C 12 -- H 13         +47.6% ( 71.3%)     97.7%
 TRAVEL (Ang.)       0.2261         C 12 -- H 15          +0.9% ( 10.0%)      3.0%
 REDUCED MASS        0.4978         C 10 -- C 12          +0.9% (  9.7%)      0.0%
 EFFECTIVE MASS      1.4472
 FORCE CONSTANT      2.0582

 VIBRATION         69   69A           ATOM PAIR      ENERGY CONTRIBUTION    RADIAL
 FREQUENCY          2709.99         C  1 -- H  7         +81.0% ( 91.0%)    100.0%
 TRANSITION DIPOLE   1.2498         C  2 -- H  8         +14.4% ( 38.4%)     99.8%
 TRAVEL (Ang.)       0.1943         C  5 -- H 21          +1.6% ( 12.7%)    100.0%
 REDUCED MASS        0.6590         C  1 -- C  2          +0.9% (  9.8%)      6.1%
 EFFECTIVE MASS      1.3745
 FORCE CONSTANT      2.8514

 VIBRATION         70   70A           ATOM PAIR      ENERGY CONTRIBUTION    RADIAL
 FREQUENCY          2711.27         C  5 -- H 21         +62.3% ( 79.8%)    100.0%
 TRANSITION DIPOLE   0.9824         C  4 -- H  9         +34.8% ( 59.7%)     99.9%
 TRAVEL (Ang.)       0.2243         C  4 -- C  5          +0.9% (  9.7%)      1.2%
 REDUCED MASS        0.4944         C  5 -- C  6          +0.7% (  8.3%)     14.6%
 EFFECTIVE MASS      1.3734
 FORCE CONSTANT      2.1413

 VIBRATION         71   71A           ATOM PAIR      ENERGY CONTRIBUTION    RADIAL
 FREQUENCY          2718.47         H 25 -- O 27         +98.0% ( 98.2%)     99.8%
 TRANSITION DIPOLE   1.1508         C  4 -- H  9          +0.7% (  8.5%)    100.0%
 TRAVEL (Ang.)       0.1658         H 26 -- O 27          +0.5% (  7.3%)      3.2%
 REDUCED MASS        0.9022         O 19 -- H 20          +0.3% (  5.7%)     87.2%
 EFFECTIVE MASS      1.3729
 FORCE CONSTANT      3.9283

 VIBRATION         72   72A           ATOM PAIR      ENERGY CONTRIBUTION    RADIAL
 FREQUENCY          2721.86         C  4 -- H  9         +42.7% ( 66.0%)    100.0%
 TRANSITION DIPOLE   2.0775         C  2 -- H  8         +33.6% ( 58.5%)    100.0%
 TRAVEL (Ang.)       0.2762         C  5 -- H 21         +19.7% ( 44.9%)     99.9%
 REDUCED MASS        0.3248         C  1 -- H  7          +1.3% ( 11.5%)     99.3%
 EFFECTIVE MASS      1.3795
 FORCE CONSTANT      1.4178

 VIBRATION         73   73A           ATOM PAIR      ENERGY CONTRIBUTION    RADIAL
 FREQUENCY          2731.75         C  2 -- H  8         +49.4% ( 70.8%)    100.0%
 TRANSITION DIPOLE   0.3903         C  4 -- H  9         +18.7% ( 43.6%)    100.0%
 TRAVEL (Ang.)       0.2802         C  1 -- H  7         +15.2% ( 39.3%)     99.8%
 REDUCED MASS        0.3145         C  5 -- H 21         +14.1% ( 37.8%)     99.9%
 EFFECTIVE MASS      1.4357
 FORCE CONSTANT      1.3826

 VIBRATION         74   74A           ATOM PAIR      ENERGY CONTRIBUTION    RADIAL
 FREQUENCY          2773.58         C 12 -- H 14         +35.1% ( 56.7%)     95.9%
 TRANSITION DIPOLE   0.7900         C 12 -- H 13         +34.4% ( 56.0%)     95.6%
 TRAVEL (Ang.)       0.2728         C 12 -- H 15         +30.0% ( 52.4%)     94.7%
 REDUCED MASS        0.3266         C 10 -- C 12          +0.3% (  4.8%)     99.6%
 EFFECTIVE MASS      1.1385
 FORCE CONSTANT      1.4801

 VIBRATION         75   75A           ATOM PAIR      ENERGY CONTRIBUTION    RADIAL
 FREQUENCY          2786.96         O 19 -- H 20         +99.0% ( 98.9%)     99.8%
 TRANSITION DIPOLE   0.8545         O 19 -- H 26          +0.6% (  7.6%)      4.1%
 TRAVEL (Ang.)       0.1619         H 25 -- O 27          +0.2% (  4.6%)     87.4%
 REDUCED MASS        0.9236         H 26 -- O 27          +0.2% (  4.1%)     96.9%
 EFFECTIVE MASS      1.3682
 FORCE CONSTANT      4.2267

      SYMMETRY NUMBER FOR POINT-GROUP C1  =  1


          SYSTEM IS A GROUND STATE



 Title: ASE calculation


          MOLECULE IS NOT LINEAR

          THERE ARE 75 GENUINE VIBRATIONS IN THIS SYSTEM
          THIS THERMODYNAMICS CALCULATION IS LIMITED TO
          MOLECULES WHICH HAVE NO INTERNAL ROTATIONS




                    CALCULATED THERMODYNAMIC PROPERTIES
                                          *
   TEMP. (K)   PARTITION FUNCTION   H.O.F.    ENTHALPY  HEAT CAPACITY ENTROPY
                                   KCAL/MOL   CAL/MOLE    CAL/K/MOL  CAL/K/MOL


 298.00  VIB.     0.6592D+08                  9513.4614    56.6204    67.7018
         ROT.     0.4982D+07                   888.2803     2.9808    33.6260
         INT.     0.3284D+15                 10401.7417    59.6012   101.3278
         TRA.     0.3421D+28                  1480.4672     4.9680    42.2268
         TOT.                     -222.279   11882.2089    64.5692   143.5546

   *: NOTE: HEATS OF FORMATION ARE RELATIVE TO THE
            ELEMENTS IN THEIR STANDARD STATE AT 298K
              (=  Standard Enthalpy of Formation).

            Hvib:  Zero-point energy is not included.
                   frequencies of less than zero cm-1 are not included.
            Hrot = (3/2)RT
            Htra = (3/2)RT + pV = (5/2)RT

            Heat capacity is Cp, not Cv

          For more information, see: HTTP://OpenMOPAC.net/Manual/thermochemistry.html


           FORCE CONSTANT IN CARTESIAN COORDINATES (Millidynes/A)

    ATOM   CHEMICAL       X               Y               Z
   NUMBER   SYMBOL  FORCE CONSTANT  FORCE CONSTANT  FORCE CONSTANT

      1       C       11.209722        9.810353        2.201736
      2       C       11.186519        9.800261        2.223568
      3       C       10.224087       11.723748        2.691204
      4       C       11.058085        9.939031        2.188244
      5       C       11.009957        9.930712        2.344121
      6       C       10.104188       12.602760        2.295003
      7       H        1.727165        3.318199        0.388938
      8       H        1.705591        3.381093        0.352832
      9       H        1.730020        3.366927        0.355492
     10       C        7.852975        6.827198        5.696172
     11       H        1.050289        1.845859        2.255843
     12       C        6.307777        6.601400        6.021119
     13       H        4.032955        0.763698        0.528968
     14       H        0.747895        2.279372        2.325757
     15       H        0.829253        1.281066        3.198329
     16       N       14.460820        4.387266       10.029098
     17       O       11.579961        0.920873        1.402028
     18       O        6.206974        0.954688        6.953759
     19       O        0.520903        2.949056        4.374411
     20       H        0.165063        1.331330        3.087595
     21       H        1.688702        3.371100        0.382028
     22       N       10.882841       14.905376        2.850812
     23       O        3.805334        9.571877        0.445370
     24       O        3.922817        9.405084        0.420163
     25       H        3.894973        0.306644        0.329601
     26       H        1.008470        0.532454        0.812538
     27       O        4.436417        2.276708        3.072118

 **********************
 *                    *
 * JOB ENDED NORMALLY *
 *                    *
 **********************



 TOTAL JOB TIME:            15.71 SECONDS

 == MOPAC DONE ==
