 *******************************************************************************
 **                                                                           **
 **                              MOPAC v22.0.6                                **
 **                                                                           **
 *******************************************************************************
 **          Digital Object Identifier (DOI): 10.5281/zenodo.6511958          **
 **    Visit the DOI location for information on how to cite this program.    **
 *******************************************************************************

                              PM7 CALCULATION RESULTS

 *******************************************************************************
 *  CALCULATION DONE:                                Mon Mar 25 23:15:52 2024  *
 *  PM7        - The PM7 Hamiltonian to be used
 *  SINGLET    - SPIN STATE DEFINED AS A SINGLET
 *
 *
 *
 *                 CHARGE ON SYSTEM = -1
 *
 *
 *
 *  EPS=78.4   - USE ANDREAS KLAMT'S COSMO IMPLICIT SOLVATION MODEL
 *  LET        - OVERRIDE SOME SAFETY CHECKS
 *  THREADS    - USE A MAXIMUM OF 30 THREADS
 *  T=         - A TIME OF 14.0 DAYS REQUESTED
 *  DUMP=N     - RESTART FILE WRITTEN EVERY 30.0 MINUTES REQUESTED
 *  RELSCF     - DEFAULT SCF CRITERION MULTIPLIED BY 1.0000
 *              (DEFAULT SCF CRITERION = 0.00010)
 *  ITRY=      - DO A MAXIMUM OF 15000 ITERATIONS FOR SCF
 *  AUX        - OUTPUT AUXILIARY INFORMATION
 *  ISOTOPE    - SAVE THE FORCE MATRIX FOR USE LATER
 *  BONDS      - FINAL BOND-ORDER MATRIX TO BE PRINTED
 *  LARGE      - EXPANDED OUTPUT TO BE PRINTED
 *  THERMO     - THERMODYNAMIC QUANTITIES TO BE CALCULATED
 *******************************************************************************
PM7 AUX LARGE THERMO(298,298) LET ISOTOPE BONDS DUMP=30M ITRY=15000 T=14D THREADS=30 CHARGE=-1 SINGLET eps=78.4 RELSCF=1
 Title: ASE calculation

   ATOM   CHEMICAL          X               Y               Z
  NUMBER   SYMBOL      (ANGSTROMS)     (ANGSTROMS)     (ANGSTROMS)

     1       C          0.22351496  *   1.15042433  *   0.91676147  *
     2       C          0.41684851  *   1.38702213  *  -0.43684594  *
     3       C          0.37654067  *   0.33156531  *  -1.36081467  *
     4       C          0.15588697  *  -0.97243173  *  -0.90940458  *
     5       C         -0.04243463  *  -1.22775681  *   0.44324008  *
     6       C         -0.00527398  *  -0.16242575  *   1.34982460  *
     7       H          0.25140585  *   1.97624845  *   1.63698027  *
     8       H          0.59749034  *   2.40962832  *  -0.78202946  *
     9       H          0.12478044  *  -1.80909149  *  -1.61231459  *
    10       C          0.60418848  *   0.63213733  *  -2.80770336  *
    11       D          1.73033677  *   1.21411735  *  -2.87088559  *
    12       C          0.73444023  *  -0.56864496  *  -3.72822077  *
    13       H          0.94721477  *  -0.26963071  *  -4.76536979  *
    14       H         -0.17172367  *  -1.18982546  *  -3.75021640  *
    15       H          1.56874009  *  -1.21362561  *  -3.41166781  *
    16       N         -0.42024238  *   1.53696572  *  -3.33690355  *
    17       O         -0.31452975  *   1.94849590  *  -4.48696410  *
    18       O         -1.36186434  *   1.88131545  *  -2.63414610  *
    19       O          5.42761332  *   2.51190638  *  -3.00607021  *
    20       H          6.01931456  *   1.85626682  *  -2.65855443  *
    21       H         -0.21582432  *  -2.25118460  *   0.79179839  *
    22       N         -0.21437852  *  -0.42296129  *   2.74989370  *
    23       O         -0.32557223  *  -1.58060160  *   3.13608550  *
    24       O         -0.27780556  *   0.51798813  *   3.53343519  *
    25       H          3.35306036  *   0.87188370  *  -2.02804353  *
    26       H          4.46237986  *   2.08467159  *  -2.89502576  *
    27       O          3.16391837  *   1.47240672  *  -2.70599272  *


                                Isotopes Used

              Atom:   11  H  Default mass  1.0079,  mass used:  2.0140 amu


          CARTESIAN COORDINATES 

    NO.       ATOM           X           Y           Z

     1         C          0.2235      1.1504      0.9168
     2         C          0.4168      1.3870     -0.4368
     3         C          0.3765      0.3316     -1.3608
     4         C          0.1559     -0.9724     -0.9094
     5         C         -0.0424     -1.2278      0.4432
     6         C         -0.0053     -0.1624      1.3498
     7         H          0.2514      1.9762      1.6370
     8         H          0.5975      2.4096     -0.7820
     9         H          0.1248     -1.8091     -1.6123
    10         C          0.6042      0.6321     -2.8077
    11         H          1.7303      1.2141     -2.8709
    12         C          0.7344     -0.5686     -3.7282
    13         H          0.9472     -0.2696     -4.7654
    14         H         -0.1717     -1.1898     -3.7502
    15         H          1.5687     -1.2136     -3.4117
    16         N         -0.4202      1.5370     -3.3369
    17         O         -0.3145      1.9485     -4.4870
    18         O         -1.3619      1.8813     -2.6341
    19         O          5.4276      2.5119     -3.0061
    20         H          6.0193      1.8563     -2.6586
    21         H         -0.2158     -2.2512      0.7918
    22         N         -0.2144     -0.4230      2.7499
    23         O         -0.3256     -1.5806      3.1361
    24         O         -0.2778      0.5180      3.5334
    25         H          3.3531      0.8719     -2.0280
    26         H          4.4624      2.0847     -2.8950
    27         O          3.1639      1.4724     -2.7060

 General Reference for PM7:
 "Optimization of Parameters for Semiempirical Methods VI: More Modifications to the 
 NDDO Approximations and Re-optimization of Parameters", J. J. P. Stewart, J. Mol. Mod., 1:32, 19 (2013)
 https://link.springer.com/article/10.1007/s00894-012-1667-x

           Empirical Formula: C8 H11 N2 O6  =    27 atoms



      MOLECULAR POINT GROUP   :   C1  


 SINGLET STATE CALCULATION


      RHF CALCULATION, NO. OF DOUBLY OCCUPIED LEVELS = 45

  SCF CRITERION =    0.1000E-03


          HEAT OF FORMATION =    -221.134882 KCALS/MOLE


          CARTESIAN COORDINATE DERIVATIVES

   NUMBER  ATOM         X            Y            Z

     1       C     -0.316566     0.063435     0.218856
     2       C     -0.090542     0.007563    -0.010255
     3       C     -0.159957    -0.320754     0.047113
     4       C      1.118822    -0.272332    -0.900470
     5       C     -0.773031     0.649006     2.123187
     6       C      0.168802    -0.910774    -0.901756
     7       H     -0.254446    -0.014970     0.016731
     8       H     -0.018608    -0.308670     0.054001
     9       H      0.018661    -0.103816     0.048273
    10       C      0.562646    -0.279530    -0.652661
    11       H      0.131918     0.432110     1.553939
    12       C      0.066660     0.202786    -0.024783
    13       H     -0.160495    -0.049475     0.192184
    14       H     -0.184052    -0.123716     0.104681
    15       H     -0.102478    -0.175125     0.224321
    16       N     -0.920988    -0.383479     2.873406
    17       O     -0.797982     0.304466     0.360712
    18       O      0.858611     1.524793     0.289804
    19       O      0.354024    -1.198188    -1.515956
    20       H      0.025990     0.024350    -1.905969
    21       H     -0.006788    -0.223379    -0.542249
    22       N      0.286134     1.097277     0.219521
    23       O      0.052874     0.035550    -0.113417
    24       O     -0.479284    -0.612067     0.147206
    25       H      0.366598    -0.307061    -0.692200
    26       H     -0.084335     0.290984    -0.523359
    27       O      0.338166     0.651400    -0.690412

 DIPOLE           X         Y         Z       TOTAL
 POINT-CHG.   -15.548     4.690     5.184    17.048
 HYBRID        -1.062     0.455     0.648     1.325
 SUM          -16.611     5.146     5.832    18.341


          GRADIENT NORM =   6.21820


                              **** WARNING ****

           GRADIENT IS VERY LARGE FOR A THERMO CALCULATION
           RESULTS ARE LIKELY TO BE INACCURATE IF THERE ARE
           ANY LOW-LYING VIBRATIONS (LESS THAN ABOUT 400CM-1)
           GRADIENT NORM SHOULD BE LESS THAN ABOUT 1.0 FOR THERMO
           TO GIVE ACCURATE RESULTS


          TIME FOR SCF CALCULATION =    0.16

          TIME FOR DERIVATIVES     =    0.02

          MOLECULAR WEIGHT =  232.19



          ROTATIONAL CONSTANTS IN CM(-1)

          A =    0.02151678   B =    0.00837650   C =    0.00709915



           PRINCIPAL MOMENTS OF INERTIA IN UNITS OF 10**(-40)*GRAM-CM**2

          A =     1300.9732   B =     3341.8215   C =     3943.1141


          ORIENTATION OF MOLECULE IN FORCE CALCULATION

    NO.       ATOM         X         Y         Z

     1          C      -1.7370   -0.8495    0.2498
     2          C      -0.3493   -0.8495    0.2498
     3          C       0.3664    0.3576    0.2498
     4          C      -0.3270    1.5707    0.2328
     5          C      -1.7176    1.5898    0.2352
     6          C      -2.4151    0.3767    0.2417
     7          H      -2.2948   -1.7930    0.2537
     8          H       0.1869   -1.8034    0.2546
     9          H       0.2117    2.5220    0.2286
    10          C       1.8607    0.3086    0.2358
    11          H       2.1785   -0.3779   -0.7834
    12          C       2.5721    1.6371    0.0474
    13          H       3.6644    1.5147    0.0002
    14          H       2.3614    2.3522    0.8546
    15          H       2.2696    2.1102   -0.8996
    16          N       2.3885   -0.3562    1.4306
    17          O       3.5952   -0.5547    1.5175
    18          O       1.6305   -0.7143    2.3230
    19          O       3.0467   -2.0474   -4.2230
    20          H       2.6784   -1.5415   -4.9365
    21          H      -2.2563    2.5430    0.2228
    22          N      -3.8544    0.3932    0.2485
    23          O      -4.4440    1.4631    0.1518
    24          O      -4.4671   -0.6639    0.3509
    25          H       1.5241   -0.3899   -2.5247
    26          H       2.7311   -1.5395   -3.3461
    27          O       2.2614   -0.8270   -2.1764


    FIRST DERIVATIVES WILL BE USED IN THE CALCULATION OF SECOND DERIVATIVES

          ESTIMATED TIME TO COMPLETE CALCULATION =       30.38 SECONDS

    FOR POINT-GROUP C1   THERE ARE   1 UNIQUE SYMMETRY FUNCTIONS.

 STEP:   1 TIME =     0.08 SECS, INTEGRAL =      0.08 TIME LEFT:1209599.73
 STEP:   2 TIME =     0.08 SECS, INTEGRAL =      0.16 TIME LEFT:1209599.66
 STEP:   3 TIME =     0.07 SECS, INTEGRAL =      0.23 TIME LEFT:1209599.59
 STEP:   4 TIME =     0.08 SECS, INTEGRAL =      0.30 TIME LEFT:1209599.51
 STEP:   5 TIME =     0.08 SECS, INTEGRAL =      0.38 TIME LEFT:1209599.43
 STEP:   6 TIME =     0.07 SECS, INTEGRAL =      0.45 TIME LEFT:1209599.36
 STEP:   7 TIME =     0.08 SECS, INTEGRAL =      0.53 TIME LEFT:1209599.28
 STEP:   8 TIME =     0.07 SECS, INTEGRAL =      0.60 TIME LEFT:1209599.21
 STEP:   9 TIME =     0.08 SECS, INTEGRAL =      0.68 TIME LEFT:1209599.13
 STEP:  10 TIME =     0.08 SECS, INTEGRAL =      0.76 TIME LEFT:1209599.05
 STEP:  11 TIME =     0.08 SECS, INTEGRAL =      0.84 TIME LEFT:1209598.98
 STEP:  12 TIME =     0.07 SECS, INTEGRAL =      0.91 TIME LEFT:1209598.91
 STEP:  13 TIME =     0.07 SECS, INTEGRAL =      0.98 TIME LEFT:1209598.84
 STEP:  14 TIME =     0.08 SECS, INTEGRAL =      1.05 TIME LEFT:1209598.76
 STEP:  15 TIME =     0.08 SECS, INTEGRAL =      1.13 TIME LEFT:1209598.68
 STEP:  16 TIME =     0.07 SECS, INTEGRAL =      1.20 TIME LEFT:1209598.61
 STEP:  17 TIME =     0.08 SECS, INTEGRAL =      1.28 TIME LEFT:1209598.53
 STEP:  18 TIME =     0.08 SECS, INTEGRAL =      1.36 TIME LEFT:1209598.45
 STEP:  19 TIME =     0.07 SECS, INTEGRAL =      1.43 TIME LEFT:1209598.38
 STEP:  20 TIME =     0.08 SECS, INTEGRAL =      1.51 TIME LEFT:1209598.30
 STEP:  21 TIME =     0.08 SECS, INTEGRAL =      1.59 TIME LEFT:1209598.23
 STEP:  22 TIME =     0.08 SECS, INTEGRAL =      1.66 TIME LEFT:1209598.15
 STEP:  23 TIME =     0.07 SECS, INTEGRAL =      1.73 TIME LEFT:1209598.08
 STEP:  24 TIME =     0.08 SECS, INTEGRAL =      1.81 TIME LEFT:1209598.00
 STEP:  25 TIME =     0.09 SECS, INTEGRAL =      1.90 TIME LEFT:1209597.91
 STEP:  26 TIME =     0.07 SECS, INTEGRAL =      1.97 TIME LEFT:1209597.84
 STEP:  27 TIME =     0.08 SECS, INTEGRAL =      2.05 TIME LEFT:1209597.77
 STEP:  28 TIME =     0.08 SECS, INTEGRAL =      2.12 TIME LEFT:1209597.69
 STEP:  29 TIME =     0.07 SECS, INTEGRAL =      2.20 TIME LEFT:1209597.62
 STEP:  30 TIME =     0.08 SECS, INTEGRAL =      2.27 TIME LEFT:1209597.54
 STEP:  31 TIME =     0.08 SECS, INTEGRAL =      2.35 TIME LEFT:1209597.46
 STEP:  32 TIME =     0.07 SECS, INTEGRAL =      2.42 TIME LEFT:1209597.39
 STEP:  33 TIME =     0.07 SECS, INTEGRAL =      2.49 TIME LEFT:1209597.32
 STEP:  34 TIME =     0.08 SECS, INTEGRAL =      2.57 TIME LEFT:1209597.24
 STEP:  35 TIME =     0.07 SECS, INTEGRAL =      2.64 TIME LEFT:1209597.17
 STEP:  36 TIME =     0.11 SECS, INTEGRAL =      2.75 TIME LEFT:1209597.06
 STEP:  37 TIME =     0.08 SECS, INTEGRAL =      2.83 TIME LEFT:1209596.98
 STEP:  38 TIME =     0.10 SECS, INTEGRAL =      2.93 TIME LEFT:1209596.88
 STEP:  39 TIME =     0.13 SECS, INTEGRAL =      3.06 TIME LEFT:1209596.75
 STEP:  40 TIME =     0.10 SECS, INTEGRAL =      3.16 TIME LEFT:1209596.65
 STEP:  41 TIME =     0.09 SECS, INTEGRAL =      3.25 TIME LEFT:1209596.56
 STEP:  42 TIME =     0.10 SECS, INTEGRAL =      3.35 TIME LEFT:1209596.46
 STEP:  43 TIME =     0.10 SECS, INTEGRAL =      3.45 TIME LEFT:1209596.36
 STEP:  44 TIME =     0.09 SECS, INTEGRAL =      3.55 TIME LEFT:1209596.27
 STEP:  45 TIME =     0.16 SECS, INTEGRAL =      3.70 TIME LEFT:1209596.11
 STEP:  46 TIME =     0.16 SECS, INTEGRAL =      3.86 TIME LEFT:1209595.95
 STEP:  47 TIME =     0.12 SECS, INTEGRAL =      3.98 TIME LEFT:1209595.83
 STEP:  48 TIME =     0.18 SECS, INTEGRAL =      4.16 TIME LEFT:1209595.65
 STEP:  49 TIME =     0.17 SECS, INTEGRAL =      4.34 TIME LEFT:1209595.48
 STEP:  50 TIME =     0.22 SECS, INTEGRAL =      4.55 TIME LEFT:1209595.26
 STEP:  51 TIME =     0.14 SECS, INTEGRAL =      4.70 TIME LEFT:1209595.12
 STEP:  52 TIME =     0.10 SECS, INTEGRAL =      4.80 TIME LEFT:1209595.02
 STEP:  53 TIME =     0.11 SECS, INTEGRAL =      4.91 TIME LEFT:1209594.91
 STEP:  54 TIME =     0.12 SECS, INTEGRAL =      5.02 TIME LEFT:1209594.79
 STEP:  55 TIME =     0.15 SECS, INTEGRAL =      5.17 TIME LEFT:1209594.64
 STEP:  56 TIME =     0.11 SECS, INTEGRAL =      5.28 TIME LEFT:1209594.53
 STEP:  57 TIME =     0.15 SECS, INTEGRAL =      5.43 TIME LEFT:1209594.38
 STEP:  58 TIME =     0.14 SECS, INTEGRAL =      5.57 TIME LEFT:1209594.24
 STEP:  59 TIME =     0.45 SECS, INTEGRAL =      6.02 TIME LEFT:1209593.80
 STEP:  60 TIME =     0.45 SECS, INTEGRAL =      6.46 TIME LEFT:1209593.35
 STEP:  61 TIME =     0.54 SECS, INTEGRAL =      7.00 TIME LEFT:1209592.81
 STEP:  62 TIME =     0.38 SECS, INTEGRAL =      7.38 TIME LEFT:1209592.44
 STEP:  63 TIME =     0.43 SECS, INTEGRAL =      7.80 TIME LEFT:1209592.01
 STEP:  64 TIME =     0.62 SECS, INTEGRAL =      8.42 TIME LEFT:1209591.39
 STEP:  65 TIME =     1.45 SECS, INTEGRAL =      9.88 TIME LEFT:1209589.94
 STEP:  66 TIME =     0.92 SECS, INTEGRAL =     10.80 TIME LEFT:1209589.02
 STEP:  67 TIME =     1.66 SECS, INTEGRAL =     12.46 TIME LEFT:1209587.35
 STEP:  68 TIME =     0.50 SECS, INTEGRAL =     12.96 TIME LEFT:1209586.85
 STEP:  69 TIME =     0.11 SECS, INTEGRAL =     13.07 TIME LEFT:1209586.74
 STEP:  70 TIME =     0.10 SECS, INTEGRAL =     13.17 TIME LEFT:1209586.64
 STEP:  71 TIME =     0.09 SECS, INTEGRAL =     13.26 TIME LEFT:1209586.55
 STEP:  72 TIME =     0.12 SECS, INTEGRAL =     13.38 TIME LEFT:1209586.44
 STEP:  73 TIME =     0.09 SECS, INTEGRAL =     13.47 TIME LEFT:1209586.34
 STEP:  74 TIME =     0.10 SECS, INTEGRAL =     13.57 TIME LEFT:1209586.24
 STEP:  75 TIME =     0.11 SECS, INTEGRAL =     13.68 TIME LEFT:1209586.13
 STEP:  76 TIME =     0.08 SECS, INTEGRAL =     13.76 TIME LEFT:1209586.05
 STEP:  77 TIME =     0.08 SECS, INTEGRAL =     13.84 TIME LEFT:1209585.98
 STEP:  78 TIME =     0.08 SECS, INTEGRAL =     13.91 TIME LEFT:1209585.90
 STEP:  79 TIME =     0.09 SECS, INTEGRAL =     14.01 TIME LEFT:1209585.80
 STEP:  80 TIME =     0.11 SECS, INTEGRAL =     14.12 TIME LEFT:1209585.70
 STEP:  81 TIME =     0.10 SECS, INTEGRAL =     14.22 TIME LEFT:1209585.59

(To convert to Hartree/Bohr^2, multiply by (10^(-21) x N x a0^2)/(4.184 x 627.51) =  0.0642)


           FORCE MATRIX IN MILLIDYNES/ANGSTROM


                  C  1       C  2       C  3       C  4       C  5       C  6
 ------------------------------------------------------------------------------
     C    1  15.037126
     C    2   6.277560  14.993848
     C    3   2.010753   5.643160  15.678650
     C    4   1.261751   1.920572   5.818886  14.902267
     C    5   1.831561   1.167918   2.009593   6.092858  15.066068
     C    6   5.644981   1.886991   1.139589   1.890818   5.756004  16.003150
     H    7   3.355549   0.709547   0.100012   0.026634   0.079156   0.736067
     H    8   0.770915   3.373138   0.744928   0.084918   0.008863   0.082680
     H    9   0.007994   0.078684   0.743935   3.361691   0.777195   0.082181
     C   10   0.099402   0.784421   3.444681   0.788327   0.101607   0.063215
     H   11   0.039639   0.056618   0.703377   0.079171   0.032964   0.051576
     C   12   0.013595   0.055882   0.602795   0.085813   0.006637   0.015978
     H   13   0.002524   0.006691   0.049501   0.008836   0.001513   0.003102
     H   14   0.003174   0.007766   0.014924   0.018580   0.001919   0.005690
     H   15   0.004980   0.010758   0.026629   0.015307   0.003165   0.007524
     N   16   0.035999   0.073542   0.993740   0.091300   0.046683   0.064793
     O   17   0.018688   0.038286   0.120429   0.051261   0.020258   0.035770
     O   18   0.023687   0.066579   0.088084   0.029517   0.014597   0.031599
     O   19   0.011147   0.012912   0.032282   0.011604   0.004790   0.007545
     H   20   0.003911   0.004216   0.004849   0.001975   0.001305   0.001663
     H   21   0.075421   0.021759   0.091748   0.719600   3.385069   0.737413
     N   22   1.227707   0.219933   0.074479   0.215687   1.252172   3.217544
     O   23   0.123379   0.064973   0.030106   0.035514   0.099058   1.461435
     O   24   0.097493   0.039181   0.030339   0.064517   0.126922   1.461865
     H   25   0.029842   0.032585   0.025375   0.013691   0.003542   0.007741
     H   26   0.014809   0.016045   0.020943   0.006882   0.004211   0.005398
     O   27   0.041331   0.056304   0.153880   0.056924   0.023104   0.036761


                  H  7       H  8       H  9       C 10       H 11       C 12
 ------------------------------------------------------------------------------
     H    7   4.237548
     H    8   0.039387   4.293386
     H    9   0.010294   0.008948   4.300211
     C   10   0.011752   0.035736   0.031552  11.759476
     H   11   0.009950   0.030074   0.013840   1.011455   2.112954
     C   12   0.004853   0.008375   0.050504   3.012746   0.546075  11.084210
     H   13   0.000688   0.001571   0.004091   0.681801   0.038050   3.347657
     H   14   0.001176   0.001321   0.028288   0.677730   0.041975   3.356060
     H   15   0.001606   0.002128   0.025882   0.677286   0.046194   3.340041
     N   16   0.013382   0.052569   0.019181   2.865553   1.071708   0.854962
     O   17   0.006345   0.015345   0.010851   1.226926   0.133174   0.077914
     O   18   0.007138   0.017694   0.007958   1.202919   0.172281   0.098793
     O   19   0.002276   0.005020   0.001531   0.171836   0.384856   0.008884
     H   20   0.000631   0.000489   0.000347   0.023193   0.065595   0.003309
     H   21   0.008711   0.009291   0.033826   0.012325   0.006878   0.005223
     N   22   0.102689   0.034918   0.033492   0.064894   0.058789   0.025576
     O   23   0.026308   0.011412   0.011471   0.019038   0.016343   0.007631
     O   24   0.040434   0.012152   0.010964   0.018984   0.019644   0.009623
     H   25   0.010804   0.012174   0.006713   0.152466   0.422835   0.009435
     H   26   0.002026   0.019276   0.003061   0.128468   0.506737   0.011252
     O   27   0.007419   0.025152   0.009743   1.199395   0.804096   0.038021


                  H 13       H 14       H 15       N 16       O 17       O 18
 ------------------------------------------------------------------------------
     H   13   4.154080
     H   14   0.458625   4.152846
     H   15   0.454477   0.452821   4.147431
     N   16   0.100931   0.056277   0.079192  18.711828
     O   17   0.022688   0.020754   0.014151   9.234491  11.969861
     O   18   0.024345   0.014945   0.017074   9.341296   2.708316  12.011925
     O   19   0.005088   0.002852   0.007592   0.070988   0.020262   0.021448
     H   20   0.000658   0.000589   0.002571   0.008667   0.002778   0.002650
     H   21   0.000561   0.002173   0.002395   0.009829   0.004364   0.005127
     N   22   0.003955   0.008681   0.011099   0.077797   0.041736   0.041682
     O   23   0.000974   0.003239   0.003782   0.022302   0.010996   0.012146
     O   24   0.001546   0.002462   0.003327   0.023564   0.012887   0.011942
     H   25   0.003063   0.002562   0.006194   0.062188   0.016577   0.018310
     H   26   0.011342   0.004779   0.010568   0.079953   0.033294   0.031396
     O   27   0.022563   0.015629   0.028849   0.391714   0.090937   0.126498


                  O 19       H 20       H 21       N 22       O 23       O 24
 ------------------------------------------------------------------------------
     O   19   5.954028
     H   20   4.003809   4.309480
     H   21   0.003261   0.001339   4.265280
     N   22   0.011105   0.002257   0.103335  18.749334
     O   23   0.004363   0.000946   0.041822   9.143964  11.979900
     O   24   0.004436   0.000627   0.025834   9.083648   2.635622  11.927131
     H   25   0.135935   0.073436   0.003290   0.012787   0.003922   0.004881
     H   26   1.994544   0.724900   0.002239   0.008033   0.002333   0.002421
     O   27   1.773082   0.169513   0.006111   0.044140   0.013189   0.014177


                  H 25       H 26       O 27
 ------------------------------------------
     H   25   4.349098
     H   26   0.317191   1.576831
     O   27   4.167162   1.431045   4.500970


          HEAT OF FORMATION =    -221.134882 KCALS/MOLE


          TRIVIAL VIBRATIONS, SHOULD BE ZERO

  37.3839=TX   8.9833=TY  -4.4686=TZ -20.6453=RX  27.6272=RY -48.8893=RZ


      MOLECULAR POINT GROUP   :   C1  


           EIGENVECTORS  


   Root No.       1         2         3         4         5         6         7         8

                 1 A       2 A       3 A       4 A       5 A       6 A       7 A       8 A   

                  -0.9      -0.1      -0.0      -0.0      -0.0      -0.0       0.0       0.0
  
           1    0.0043    0.0146   -0.0354    0.0187    0.0442    0.0217    0.0464    0.0102
           2    0.0067   -0.0191   -0.0115    0.0043   -0.0349    0.0068    0.0055    0.0058
           3    0.0017   -0.0391    0.0225   -0.1265   -0.0481   -0.1592   -0.0532    0.0256
           4    0.0023    0.0142   -0.0355    0.0178    0.0439    0.0205    0.0453    0.0091
           5    0.0094   -0.0160   -0.0266    0.0161   -0.0212    0.0209    0.0326    0.0218
           6    0.0112   -0.0130    0.0083   -0.0715   -0.0011   -0.1435   -0.0714    0.0434
           7    0.0117    0.0218   -0.0257    0.0071    0.0349    0.0071    0.0220   -0.0030
           8    0.0110   -0.0151   -0.0345    0.0238   -0.0143    0.0293    0.0472    0.0304
           9    0.0200   -0.0096    0.0166    0.1212    0.0112   -0.0489   -0.0424    0.0109
          10   -0.0076    0.0017   -0.0079    0.0022    0.0213   -0.0042   -0.0019   -0.0174
          11    0.0081   -0.0196   -0.0247    0.0215   -0.0215    0.0237    0.0336    0.0214
          12   -0.0001   -0.1062    0.0819    0.3895   -0.0419    0.0120    0.0002   -0.0346
          13   -0.0038    0.0060   -0.0084    0.0010    0.0218   -0.0042   -0.0031   -0.0183
          14    0.0048   -0.0225   -0.0101    0.0080   -0.0352    0.0098    0.0067    0.0046
          15   -0.0016   -0.0917    0.0661    0.1940   -0.0661    0.0309    0.0244   -0.0477
          16   -0.0048    0.0043   -0.0204    0.0121    0.0319    0.0094    0.0228   -0.0056
          17    0.0039   -0.0237   -0.0034    0.0018   -0.0415    0.0017   -0.0069   -0.0024
          18    0.0026   -0.0531    0.0378   -0.0328   -0.0681   -0.0297   -0.0045   -0.0233
          19    0.0048    0.0169   -0.0426    0.0222    0.0512    0.0302    0.0624    0.0200
          20    0.0065   -0.0202   -0.0069    0.0019   -0.0392    0.0012   -0.0038    0.0000
          21    0.0027   -0.0383    0.0150   -0.2598   -0.0699   -0.2500   -0.0773    0.0483
          22   -0.0010    0.0133   -0.0423    0.0311    0.0516    0.0318    0.0644    0.0185
          23    0.0133   -0.0164   -0.0311    0.0229   -0.0162    0.0270    0.0435    0.0275
          24    0.0109    0.0003   -0.0141   -0.1747    0.0108   -0.1913   -0.1010    0.0703
          25   -0.0051    0.0059    0.0016   -0.0043    0.0167   -0.0108   -0.0236   -0.0282
          26    0.0058   -0.0238   -0.0299    0.0257   -0.0197    0.0274    0.0461    0.0273
          27    0.0046   -0.1201    0.0882    0.5129   -0.0419    0.0436    0.0125   -0.0430
          28   -0.0222   -0.0107   -0.0186    0.0058    0.0268    0.0043    0.0242   -0.0062
          29    0.0448    0.0390   -0.0716    0.0340   -0.0020    0.0381    0.0659    0.0414
          30    0.1056    0.1072   -0.0371    0.0256    0.0624    0.0011   -0.0359   -0.0118
          31    0.0105    0.0782   -0.0587   -0.0380    0.0571    0.0416    0.0357   -0.0289
          32   -0.0364    0.0323   -0.1440    0.0070   -0.0224    0.0111    0.1711    0.1241
          33   -0.2800   -0.2072    0.0708    0.0066    0.0058   -0.0051   -0.0967   -0.0827
          34   -0.0017    0.0275   -0.0223   -0.0179    0.0519    0.0117   -0.0031    0.0023
          35    0.0044   -0.0156   -0.0685    0.0284   -0.0245    0.0274    0.1116    0.0531
          36    0.0072   -0.0195   -0.0671   -0.0919    0.0164   -0.0249    0.1836    0.1034
          37   -0.0053    0.0190   -0.0227   -0.0229    0.0488    0.0112    0.0187   -0.0241
          38   -0.0066   -0.0664   -0.0600    0.0264   -0.0516    0.0185    0.1961   -0.0120
          39   -0.0005   -0.0596   -0.0755   -0.2022    0.0207   -0.0116    0.4850   -0.3449
          40    0.0095    0.0806   -0.0167    0.0655    0.0615    0.0075   -0.2700    0.3422
          41    0.0219    0.0356   -0.0534    0.0575    0.0111    0.0495    0.0767   -0.1642
          42   -0.0001   -0.0543   -0.0764   -0.0968   -0.0140   -0.0460    0.1481    0.3834
          43   -0.0121    0.0019   -0.0395   -0.1179    0.0601    0.0214    0.2192   -0.3103
          44   -0.0064   -0.0683   -0.0835   -0.0062   -0.0560    0.0044    0.1210    0.3495
          45    0.0114   -0.0369   -0.0693   -0.0776   -0.0020   -0.0393    0.1183    0.3516
          46   -0.0076    0.0103   -0.0222    0.0761    0.0046   -0.0347    0.0064    0.0273
          47    0.0270   -0.0525    0.0245    0.0627    0.0517    0.0628   -0.0505   -0.0488
          48   -0.0158   -0.0550    0.0437   -0.0016    0.0858    0.0227   -0.0816   -0.0754
          49   -0.0025    0.0371   -0.0475    0.0906   -0.0512   -0.0478   -0.0102    0.0128
          50    0.0174    0.0474   -0.1433    0.1409   -0.3774   -0.0219   -0.1709   -0.1823
          51    0.0071   -0.0250   -0.0271   -0.0209   -0.1002    0.0233   -0.1358   -0.1864
          52    0.0105    0.0366   -0.0092    0.1122    0.0475   -0.0536    0.0086    0.0721
          53   -0.0364   -0.3206    0.3124   -0.0219    0.5633    0.1593    0.0127    0.0497
          54    0.0007   -0.1230    0.1664   -0.0020    0.3300    0.0469   -0.0559    0.0022
          55    0.0784   -0.1730    0.3194   -0.0901   -0.2527   -0.0442   -0.1626    0.0032
          56    0.0273    0.1147    0.1021   -0.1178    0.1055   -0.1050   -0.2756   -0.1344
          57   -0.0122    0.2432    0.0388    0.0670   -0.0535    0.0813    0.0089    0.0907
          58   -0.0624   -0.2732   -0.0934   -0.0559   -0.2057   -0.0279   -0.1517    0.0845
          59    0.0042   -0.1919   -0.3989   -0.1129    0.2400   -0.1100   -0.3222   -0.1617
          60   -0.0293    0.0911   -0.0802    0.0515    0.0096    0.0675   -0.0356    0.0285
          61   -0.0054    0.0052    0.0005   -0.0081    0.0126   -0.0145   -0.0215   -0.0285
          62    0.0034   -0.0243   -0.0048    0.0030   -0.0406    0.0043   -0.0033   -0.0014
          63    0.0043   -0.0908    0.0671    0.1955   -0.0738    0.0764    0.0608   -0.0725
          64    0.0002    0.0099   -0.0206    0.0091    0.0322    0.0107    0.0214   -0.0049
          65    0.0010   -0.0225    0.0094   -0.0082   -0.0530   -0.0229   -0.0379   -0.0222
          66    0.0054   -0.0327    0.0223   -0.1552   -0.0908    0.0677    0.0095   -0.0448
          67   -0.0051    0.0066   -0.0108    0.0122    0.0256   -0.0212   -0.0026   -0.0190
          68   -0.0001   -0.0223    0.0140   -0.0243   -0.0656    0.0172   -0.0619   -0.0256
          69    0.0068   -0.0356    0.0183   -0.3531   -0.1984    0.7067   -0.1067   -0.0004
          70   -0.0022    0.0037   -0.0292    0.0077    0.0369    0.0376    0.0466    0.0078
          71    0.0007   -0.0185    0.0133    0.0046   -0.0467   -0.0900   -0.0403   -0.0353
          72    0.0053   -0.0143    0.0131   -0.0458   -0.0029   -0.4496    0.1322   -0.1048
          73    0.0204    0.1259    0.3043   -0.0463   -0.1215   -0.0064    0.0586   -0.0427
          74    0.1929    0.2772    0.5196   -0.0752   -0.0485   -0.0738    0.0840    0.0309
          75    0.0231    0.3379   -0.1705    0.0440    0.2039    0.0791   -0.1438   -0.0766
          76    0.3897   -0.2527    0.0141   -0.0666   -0.1165   -0.0191   -0.0676   -0.0286
          77   -0.2546    0.2074    0.1684   -0.0898    0.0364   -0.0815   -0.1506   -0.0571
          78   -0.4293    0.1559   -0.0245    0.0507   -0.0155    0.0619   -0.0619    0.0261
          79   -0.3934    0.1685   -0.0103   -0.0232   -0.0354    0.0220    0.0151   -0.0442
          80   -0.0739    0.2253    0.0429   -0.0342    0.0240   -0.0349    0.0695    0.0600
          81    0.5382    0.2893   -0.1350    0.0539    0.1314    0.0781   -0.0800   -0.0355


   Root No.       9        10        11        12        13        14        15        16

                 9 A      10 A      11 A      12 A      13 A      14 A      15 A      16 A   

                   0.0       0.0       0.0       0.1       0.1       0.1       0.1       0.1
  
           1    0.0164   -0.0017   -0.0310   -0.0840    0.0176    0.0189    0.0269   -0.0163
           2    0.0153    0.0039    0.0036    0.0132    0.0623   -0.0427   -0.0220   -0.0009
           3   -0.0583   -0.1557   -0.0118    0.0216    0.1291    0.1698    0.0391   -0.0562
           4    0.0159   -0.0018   -0.0308   -0.0790    0.0067    0.0228    0.0266   -0.0169
           5    0.0205    0.0157    0.0023   -0.0223    0.1372   -0.0578   -0.0206    0.0078
           6   -0.0740   -0.2303   -0.0201    0.0139    0.0600   -0.1201   -0.0303    0.1581
           7    0.0113   -0.0123   -0.0241   -0.0434   -0.0418    0.0271    0.0160   -0.0130
           8    0.0239    0.0213    0.0007   -0.0441    0.1744   -0.0609   -0.0150    0.0087
           9   -0.0449   -0.1504    0.0093    0.0179    0.0158   -0.1512   -0.1138    0.0257
          10    0.0081   -0.0193   -0.0271   -0.0337   -0.0930    0.0375    0.0228   -0.0236
          11    0.0219    0.0185    0.0008   -0.0314    0.1397   -0.0524   -0.0134    0.0024
          12   -0.0312   -0.1079    0.0128    0.0329    0.0911    0.0049   -0.1054   -0.1054
          13    0.0079   -0.0194   -0.0260   -0.0285   -0.1058    0.0455    0.0247   -0.0244
          14    0.0167    0.0079    0.0027    0.0061    0.0629   -0.0392   -0.0145    0.0001
          15    0.0025    0.0293    0.0262    0.0316    0.0680    0.1127    0.1556    0.2073
          16    0.0134   -0.0075   -0.0306   -0.0628   -0.0468    0.0362    0.0340   -0.0195
          17    0.0138    0.0007    0.0045    0.0242    0.0307   -0.0348   -0.0191   -0.0024
          18   -0.0045    0.0313    0.0320    0.0354    0.0544    0.1025    0.0723    0.0555
          19    0.0176    0.0071   -0.0332   -0.1040    0.0683    0.0101    0.0253   -0.0149
          20    0.0146   -0.0016    0.0045    0.0238    0.0333   -0.0359   -0.0204   -0.0032
          21   -0.0840   -0.2282   -0.0421    0.0158    0.2418    0.4924    0.0753   -0.3421
          22    0.0218    0.0070   -0.0345   -0.1150    0.0560    0.0122    0.0344   -0.0170
          23    0.0235    0.0199    0.0004   -0.0414    0.1653   -0.0653   -0.0168    0.0091
          24   -0.1053   -0.3149   -0.0595    0.0053    0.0499   -0.2774   -0.0315    0.3976
          25    0.0051   -0.0198   -0.0207   -0.0211   -0.1290    0.0498    0.0232   -0.0292
          26    0.0237    0.0185   -0.0037   -0.0384    0.1603   -0.0606   -0.0145    0.0040
          27   -0.0255   -0.1077   -0.0009    0.0394    0.1293    0.0487   -0.2412   -0.3492
          28    0.0101   -0.0126   -0.0359   -0.0532   -0.0512    0.0233    0.0207   -0.0170
          29    0.0207    0.0141    0.0124    0.0048    0.0842    0.0057   -0.0099    0.0166
          30   -0.0279   -0.0250   -0.0110   -0.0066   -0.0249   -0.0677   -0.1123    0.0273
          31   -0.0037    0.0837   -0.0604    0.0555   -0.0963    0.1947    0.0024    0.0057
          32    0.0330   -0.0319    0.0641    0.0662    0.0735    0.0255   -0.0403    0.0259
          33   -0.0467    0.0174   -0.1308   -0.1194   -0.0768   -0.1130   -0.0114   -0.0243
          34    0.0255    0.0321   -0.0029   -0.1245    0.1535   -0.0426   -0.0061    0.0122
          35    0.0173   -0.0119   -0.0183    0.0416   -0.0408    0.0432    0.0138   -0.0034
          36    0.0237   -0.0175   -0.0698   -0.0177   -0.0531   -0.0283   -0.0459   -0.0036
          37    0.0273    0.0191   -0.0006   -0.1204    0.1390   -0.0392   -0.0016    0.0088
          38    0.0134   -0.0793   -0.0449    0.1094   -0.2555    0.1160    0.0578   -0.0472
          39    0.0636   -0.1579    0.0258   -0.0290   -0.0070   -0.0413   -0.0299   -0.0104
          40    0.0019    0.1692   -0.0582   -0.1718    0.2613   -0.0883   -0.0480    0.0448
          41    0.0005   -0.0542    0.0628    0.0368    0.0430    0.0054   -0.0366    0.0188
          42    0.0334    0.0544   -0.1608   -0.0273   -0.1076   -0.0050   -0.0093   -0.0165
          43    0.0608   -0.0494    0.0806   -0.1608    0.2873   -0.0853   -0.0023    0.0262
          44    0.0460    0.0695   -0.1106    0.0059   -0.0415    0.0600    0.0650   -0.0173
          45    0.0278    0.0497   -0.1444   -0.0266   -0.0948   -0.0090   -0.0225   -0.0132
          46   -0.0034   -0.1456    0.0386    0.0545   -0.1332   -0.1088   -0.0089   -0.0030
          47   -0.0285    0.0487   -0.0773   -0.0540   -0.0541    0.0285   -0.0143    0.0303
          48   -0.0502    0.0499   -0.1238   -0.1197   -0.0693   -0.0181   -0.0818    0.0188
          49   -0.0100   -0.1577    0.0248    0.0475   -0.1586   -0.1306   -0.0152    0.0015
          50   -0.0844    0.0300   -0.2619   -0.2114   -0.2024   -0.0503   -0.0295    0.0463
          51   -0.0751    0.1810   -0.3062   -0.3218   -0.0603    0.1078   -0.0623    0.0136
          52   -0.0042   -0.2464    0.1261    0.1705   -0.1926   -0.2166   -0.0384    0.0138
          53   -0.0061    0.0821    0.0133    0.0399   -0.0511    0.1052   -0.0010    0.0269
          54   -0.0428   -0.0212   -0.0092    0.0204   -0.1148   -0.0720   -0.1056    0.0342
          55    0.5040   -0.0353    0.0370    0.1024    0.0389   -0.0478    0.0612   -0.0272
          56    0.3365   -0.0716   -0.1029    0.0487    0.0207   -0.0500    0.0689   -0.0527
          57    0.1021    0.0102    0.2779   -0.0534   -0.0340    0.0074    0.1177   -0.0492
          58   -0.1596    0.0644    0.6156   -0.1054   -0.0462    0.2183   -0.2870    0.1730
          59   -0.3052    0.0597    0.1215    0.0472    0.0053   -0.1115    0.2368   -0.1458
          60    0.0073    0.0477    0.1413    0.0449   -0.0044   -0.1693    0.4149   -0.2168
          61    0.0035   -0.0291   -0.0233   -0.0023   -0.1630    0.0585    0.0222   -0.0285
          62    0.0146    0.0032    0.0037    0.0209    0.0314   -0.0325   -0.0134    0.0018
          63    0.0330    0.1384    0.0333    0.0313    0.0607    0.2138    0.4075    0.5458
          64    0.0125   -0.0088   -0.0295   -0.0602   -0.0479    0.0387    0.0333   -0.0203
          65    0.0065   -0.0172    0.0090    0.0855   -0.1139    0.0390    0.0018    0.0020
          66    0.0403    0.2069    0.0806    0.0466   -0.0395   -0.0515   -0.0694   -0.0421
          67    0.0041   -0.0365   -0.0305   -0.0095   -0.1666    0.1256    0.0712   -0.0053
          68   -0.0045   -0.0544    0.0055    0.1148   -0.1820    0.0838    0.0167    0.0054
          69   -0.0266   -0.0197    0.0481    0.0479   -0.0523   -0.1192   -0.1471   -0.1034
          70    0.0224    0.0227   -0.0293   -0.1121    0.0662   -0.0508   -0.0034   -0.0369
          71    0.0109   -0.0010    0.0156    0.1162   -0.1896    0.0782    0.0134    0.0068
          72    0.1438    0.5730    0.1586    0.0531   -0.1165   -0.2041   -0.1885   -0.0989
          73   -0.3956    0.1634   -0.1589    0.3169    0.1103   -0.0860    0.0535   -0.0285
          74   -0.3527    0.0006    0.1695   -0.3050   -0.1209   -0.0208    0.1137   -0.0784
          75    0.1446    0.0491    0.0362    0.0942   -0.0520    0.2632   -0.1942    0.1083
          76   -0.0187    0.0899   -0.0614    0.2833    0.1005   -0.0841    0.0795   -0.0435
          77    0.2222   -0.0654   -0.0018   -0.0058    0.0114    0.0749   -0.1568    0.0762
          78    0.0525    0.0362    0.1656    0.0192   -0.0121   -0.1295    0.3429   -0.1766
          79   -0.1944    0.1446   -0.1738    0.4611    0.1664    0.0610   -0.1671    0.0988
          80   -0.1139   -0.0261    0.1244   -0.0512    0.0160    0.0492   -0.1297    0.0624
          81    0.0225    0.0620    0.0426    0.1502    0.0191    0.0537   -0.0229    0.0157


   Root No.      17        18        19        20        21        22        23        24

                17 A      18 A      19 A      20 A      21 A      22 A      23 A      24 A   

                   0.2       0.2       0.3       0.3       0.4       0.5       0.6       0.6
  
           1   -0.0942    0.0345   -0.0646   -0.0646    0.0041   -0.0791    0.0020   -0.0153
           2   -0.0835   -0.1087    0.1213    0.0151    0.0216    0.0161   -0.0221    0.0819
           3    0.0196   -0.0268    0.0107   -0.0567   -0.0547    0.0270    0.2488    0.0844
           4   -0.0793    0.0398   -0.0711   -0.0628    0.0045   -0.0574   -0.0027   -0.0042
           5   -0.0696   -0.0829   -0.0238   -0.0880    0.0864   -0.0164   -0.0324    0.1114
           6   -0.0809    0.0743   -0.0468    0.0329   -0.0500    0.0201    0.1837    0.0481
           7   -0.0517    0.0153    0.0026    0.0011    0.0095    0.0513   -0.0292    0.1160
           8   -0.0779   -0.0641   -0.0741   -0.1212    0.0786   -0.0667   -0.0164    0.0438
           9   -0.0310    0.0246    0.0029   -0.1486   -0.1353    0.0506    0.1763   -0.0030
          10   -0.0852    0.0211    0.0706    0.0412   -0.0355   -0.0255    0.0233   -0.0193
          11   -0.0940   -0.0687   -0.0274   -0.0967    0.0600   -0.1069    0.0017   -0.0108
          12   -0.0170    0.0511   -0.0264    0.0233   -0.0468    0.0234    0.2129    0.0544
          13   -0.0815    0.0326    0.0662    0.0436   -0.0484   -0.0354    0.0285   -0.0423
          14   -0.1053   -0.0990    0.1198    0.0083    0.0023   -0.0619    0.0126   -0.0331
          15    0.0150   -0.0216    0.0242   -0.0432   -0.0488    0.0228    0.2323    0.0782
          16   -0.1092    0.0412    0.0018   -0.0157   -0.0368   -0.1225    0.0457   -0.1302
          17   -0.0944   -0.1066    0.1616    0.0453   -0.0040   -0.0105    0.0033    0.0177
          18    0.0326   -0.0330    0.0163   -0.0973   -0.0863    0.0536    0.4098    0.1464
          19   -0.0879    0.0524   -0.1879   -0.1553    0.0800   -0.1105   -0.0413    0.0733
          20   -0.0917   -0.1199    0.1915    0.0636   -0.0184    0.0275   -0.0025    0.0379
          21    0.0994   -0.1047    0.0883   -0.0458    0.0226   -0.0449   -0.3154   -0.0987
          22   -0.1054    0.0639   -0.2025   -0.1852    0.0534   -0.2163    0.0147   -0.0481
          23   -0.0852   -0.0706   -0.0937   -0.1559    0.1170   -0.1064   -0.0278    0.0989
          24   -0.2191    0.2469   -0.1466    0.4018    0.1476   -0.0555   -0.1608   -0.0085
          25   -0.0885    0.0230    0.1865    0.1453   -0.1418   -0.0314    0.0868   -0.1947
          26   -0.0971   -0.0725   -0.0911   -0.1571    0.1255   -0.1112   -0.0365    0.0865
          27   -0.0366    0.1428   -0.0947    0.3201    0.1290   -0.0757   -0.2283   -0.0146
          28   -0.0467    0.0099   -0.0008    0.0080    0.0343    0.1308   -0.0359    0.1606
          29    0.0334    0.0362   -0.0650    0.0174   -0.0953    0.1031    0.0019   -0.1173
          30   -0.0142    0.0233    0.0597   -0.2079   -0.1536    0.0618   -0.1128   -0.0409
          31   -0.0258    0.0373    0.0482    0.1409    0.1853    0.2431   -0.1280    0.3386
          32    0.0992    0.2366    0.0794    0.0267   -0.2595    0.0628   -0.0323    0.0560
          33   -0.0771   -0.1424   -0.0339   -0.2182    0.2094    0.2894   -0.0443   -0.2811
          34    0.1193    0.0052   -0.0301    0.0358    0.0094    0.1172   -0.0233    0.1081
          35   -0.0268    0.0308   -0.0492    0.0379   -0.0725    0.1523    0.0027   -0.1025
          36    0.0478   -0.0371    0.0176   -0.0550   -0.0554    0.0102   -0.0578   -0.0185
          37    0.1142    0.0008   -0.0325    0.0432    0.0192    0.1399   -0.0274    0.1507
          38   -0.2731    0.0109   -0.0388    0.0000    0.0063    0.2907   -0.0530    0.2716
          39    0.1420   -0.0901   -0.0162    0.0456   -0.0286   -0.0758   -0.0201   -0.0709
          40    0.2386    0.0454   -0.0311    0.0021   -0.1233    0.2813   -0.0968   -0.0760
          41   -0.0399    0.1074   -0.0324   -0.0815   -0.2446    0.3596   -0.1059   -0.3382
          42    0.0850   -0.1034   -0.0023    0.0458    0.0611   -0.1324    0.0213    0.1310
          43    0.3305   -0.0261   -0.0774    0.1916    0.0483    0.0886    0.1165   -0.0072
          44    0.0844   -0.0494   -0.1271    0.2388    0.0201    0.0883    0.1825   -0.2588
          45    0.0554   -0.0758   -0.0071    0.0044   -0.0182   -0.0259   -0.0117   -0.0562
          46    0.0908   -0.1121    0.0359   -0.0541    0.0431    0.0769   -0.0403    0.1010
          47    0.1544   -0.0199   -0.0074    0.0968   -0.0307   -0.0416    0.0241   -0.0440
          48   -0.0132    0.0243    0.0614   -0.1496   -0.0617    0.0607   -0.0846   -0.0003
          49    0.1369   -0.1460    0.0495   -0.0592    0.0510    0.0403   -0.0530    0.0963
          50    0.3714   -0.1332    0.0608    0.1373    0.0155   -0.2505    0.0310   -0.0086
          51   -0.0804    0.1619    0.0564   -0.0180   -0.0970    0.0522   -0.0113    0.2281
          52    0.2301   -0.2501    0.0790   -0.1397    0.0573   -0.0106   -0.1174    0.0089
          53    0.1609    0.0217    0.0165    0.1928   -0.0245   -0.1484    0.0734    0.0993
          54    0.1023   -0.0640    0.1092   -0.1809   -0.0632   -0.0622   -0.1296   -0.0094
          55   -0.0098   -0.0151   -0.0495    0.0316   -0.0361    0.0838   -0.0030    0.0016
          56   -0.0324   -0.0822   -0.1087    0.0601   -0.2064   -0.0405   -0.0540    0.0750
          57    0.0295    0.0835    0.0662    0.0128   -0.0373   -0.1099   -0.0247    0.0645
          58   -0.0377   -0.1260   -0.0824    0.0359   -0.1000   -0.0672   -0.0239    0.0344
          59   -0.0208   -0.0272   -0.0459    0.0602   -0.0015   -0.0007    0.0213    0.0158
          60    0.0416    0.1466    0.0970    0.0270    0.1151   -0.0119    0.0354    0.0151
          61   -0.0930    0.0171    0.1845    0.1389   -0.1099    0.0239    0.0411   -0.0283
          62   -0.1116   -0.1113    0.1856    0.0578   -0.0250   -0.0326    0.0107   -0.0255
          63    0.0361   -0.0691    0.0857   -0.0082    0.0401   -0.0429   -0.3615   -0.1026
          64   -0.1109    0.0455   -0.0004   -0.0158   -0.0438   -0.1387    0.0493   -0.1513
          65    0.0401    0.0547   -0.0714   -0.0305    0.0135   -0.0134   -0.0148    0.0058
          66    0.0025    0.0233   -0.0207   -0.0081   -0.0188    0.0074    0.0996    0.0393
          67    0.0294    0.2125   -0.2688   -0.1279   -0.0258   -0.1559    0.0703   -0.1765
          68    0.1213    0.1557   -0.2330   -0.0919    0.0287   -0.0251   -0.0229   -0.0103
          69   -0.0146    0.0597   -0.0449    0.0537    0.0243   -0.0200   -0.0935   -0.0306
          70   -0.2583   -0.1166    0.2639    0.0916   -0.0621   -0.1501    0.0390   -0.1797
          71    0.1248    0.1581   -0.2378   -0.0916    0.0313   -0.0126   -0.0298    0.0113
          72   -0.0426    0.0636   -0.0395    0.0697    0.0271   -0.0246   -0.1144   -0.0394
          73   -0.0454   -0.1915   -0.1868    0.0543   -0.2196   -0.0397   -0.0462    0.0223
          74   -0.0384   -0.0789   -0.0629    0.0547    0.1772    0.1342    0.0683   -0.0759
          75   -0.0592   -0.2483   -0.1012    0.1105    0.4141    0.1389    0.2160   -0.1884
          76    0.0841    0.2579    0.2550   -0.1194    0.3775    0.0351    0.1119   -0.1352
          77    0.0244    0.0797    0.1014   -0.0511    0.0700   -0.1297    0.0173   -0.0040
          78   -0.0059   -0.0144   -0.0497    0.0748   -0.0462   -0.0250   -0.0035    0.0307
          79    0.0365    0.0281    0.0421   -0.0051    0.0064   -0.0720    0.0395   -0.0035
          80    0.1272    0.4030    0.3518   -0.1476    0.1286   -0.0592   -0.0004    0.0161
          81   -0.0169   -0.0952   -0.0656    0.0149   -0.1884   -0.1116   -0.0618    0.0430


   Root No.      25        26        27        28        29        30        31        32

                25 A      26 A      27 A      28 A      29 A      30 A      31 A      32 A   

                   0.7       0.9       0.9       0.9       1.0       1.0       1.1       1.2
  
           1   -0.0044    0.0134   -0.0031   -0.0060   -0.0273   -0.0094    0.0132   -0.0234
           2   -0.0006    0.0278    0.0444    0.0201   -0.0310    0.0872    0.0563   -0.0392
           3   -0.0244    0.0722   -0.0470    0.0538    0.0006    0.0247   -0.0632   -0.1548
           4    0.0002    0.0155    0.0012   -0.0063   -0.0102   -0.0116    0.0195   -0.0265
           5   -0.0051    0.0117    0.0550    0.0312   -0.0215    0.0791    0.0530   -0.0329
           6   -0.0047   -0.0143    0.0323   -0.0248    0.0103   -0.0098    0.0536    0.0671
           7    0.0305    0.0300    0.0438   -0.0005   -0.0218   -0.0277    0.0973   -0.0578
           8   -0.0137   -0.0044    0.0009    0.0039   -0.0249    0.0321    0.0072   -0.0158
           9    0.0172   -0.1170    0.1198   -0.1040    0.0070   -0.0390    0.1448    0.2422
          10    0.0058   -0.0036    0.0098    0.0020   -0.0245   -0.0132    0.0414   -0.0191
          11   -0.0341   -0.0139   -0.0484   -0.0163   -0.0770    0.0637   -0.0024   -0.0021
          12   -0.0048   -0.0292    0.0444   -0.0418   -0.0145   -0.0220    0.1251    0.3955
          13    0.0038   -0.0050    0.0041    0.0006   -0.0331   -0.0224    0.0255   -0.0132
          14   -0.0308    0.0009   -0.0447   -0.0130   -0.0503    0.0957   -0.0164    0.0119
          15   -0.0219    0.0623   -0.0493    0.0368   -0.0238    0.0178   -0.0186    0.0801
          16   -0.0285   -0.0213   -0.1217   -0.0662   -0.1119   -0.0410   -0.0263    0.0167
          17   -0.0141    0.0135    0.0024    0.0031   -0.0239    0.0583    0.0198   -0.0048
          18   -0.0416    0.1597   -0.1280    0.1151   -0.0177    0.0519   -0.1635   -0.2941
          19    0.0129    0.0280    0.4665    0.3270   -0.2669    0.4077   -0.0480    0.0427
          20   -0.0124    0.0249   -0.2216   -0.1725    0.1008   -0.1376    0.1100   -0.0888
          21    0.0243   -0.0852    0.0592   -0.0631    0.0067   -0.0242    0.0633    0.1267
          22   -0.0771    0.0586   -0.0837   -0.0472    0.6691   -0.1230   -0.0121    0.0224
          23   -0.0478    0.0388    0.0124    0.0124    0.3594    0.0353    0.0423   -0.0108
          24   -0.0196    0.0435   -0.0524    0.0379   -0.0032    0.0123   -0.0482   -0.0338
          25    0.0271   -0.1103   -0.0569    0.0273    0.2745    0.6116    0.0958   -0.0139
          26   -0.0506    0.0454   -0.0157   -0.0302   -0.2668   -0.2827   -0.0334   -0.0127
          27   -0.0045    0.0529   -0.0602    0.0499    0.0105    0.0207   -0.1141   -0.2922
          28    0.0558    0.0058    0.0223   -0.0222   -0.0137   -0.0376    0.1439   -0.0691
          29    0.0356   -0.0165   -0.0027   -0.0015    0.0042    0.0155   -0.0828    0.0355
          30   -0.0129   -0.0141    0.0438   -0.0863    0.0035    0.0170   -0.0639   -0.0118
          31   -0.2706    0.5498   -0.1780   -0.0893   -0.0184    0.1216   -0.0963    0.3154
          32   -0.3579   -0.1207    0.0778   -0.1029    0.0147   -0.0021   -0.0122    0.2197
          33    0.1383    0.1435   -0.0470   -0.0519    0.0120    0.0827   -0.2624    0.0294
          34    0.0694   -0.0691   -0.0205   -0.0002   -0.0093   -0.0240    0.0515   -0.0752
          35    0.0371    0.0152    0.0028   -0.0043    0.0038    0.0066   -0.0450    0.0421
          36   -0.0592   -0.0116   -0.0222    0.0311    0.0004    0.0049   -0.0335    0.0195
          37    0.0988   -0.1212   -0.0492    0.0209   -0.0083   -0.0330    0.0519   -0.0943
          38    0.3071   -0.4400   -0.1742    0.0473    0.0315    0.0039   -0.2139   -0.0208
          39   -0.1029    0.0289   -0.1747    0.3913   -0.0146   -0.0574    0.1894   -0.0395
          40   -0.0231   -0.1399   -0.2600    0.3585    0.0072   -0.0489   -0.0491    0.0561
          41   -0.0671    0.1762   -0.0195    0.1398   -0.0088   -0.0397    0.1337   -0.0799
          42    0.0205   -0.1730   -0.0649    0.0015    0.0184    0.0456   -0.2269    0.1694
          43    0.2184   -0.0644    0.1407   -0.3771    0.0232    0.0438   -0.2648    0.0915
          44    0.2104    0.2606    0.2271   -0.2558   -0.0072   -0.0175    0.1687   -0.1453
          45   -0.0181    0.1093    0.0355    0.0283   -0.0178   -0.0330    0.1741   -0.1381
          46    0.0419   -0.0112    0.0485   -0.0447   -0.0079   -0.0552    0.2055   -0.0803
          47    0.0286    0.0094   -0.0245    0.0286    0.0031    0.0132   -0.0627    0.0229
          48   -0.0138    0.0293    0.0479   -0.1044    0.0030    0.0204   -0.0505   -0.0272
          49    0.0180   -0.0036    0.0330   -0.0330   -0.0097   -0.0439    0.1717   -0.0734
          50   -0.0943   -0.0311   -0.0670    0.1095   -0.0011    0.0262   -0.1075    0.0601
          51    0.0221   -0.0668    0.1329   -0.1279   -0.0137   -0.0876    0.3185   -0.1288
          52   -0.0296    0.0459    0.0035   -0.0561   -0.0055    0.0139   -0.0125   -0.0657
          53   -0.0059   -0.0724   -0.0101    0.0861   -0.0066   -0.0455    0.1294   -0.0005
          54   -0.0825    0.0388    0.0225   -0.0999    0.0022    0.0525   -0.1520   -0.0298
          55   -0.3044   -0.1210    0.0830   -0.0921   -0.0015    0.0170   -0.0633   -0.1322
          56   -0.0169    0.0307    0.0081   -0.0517   -0.0068    0.0212   -0.0504   -0.0253
          57    0.1746    0.0813   -0.0343    0.0123   -0.0072    0.0067   -0.0065   -0.0199
          58    0.0695    0.0273   -0.0145    0.0078   -0.0019   -0.0005    0.0079    0.0067
          59   -0.0807   -0.0414    0.0216   -0.0130   -0.0014   -0.0031    0.0039   -0.0363
          60   -0.0485   -0.0369    0.0175    0.0011   -0.0033   -0.0062    0.0141   -0.0773
          61    0.0357    0.0822    0.4396    0.2879    0.1799   -0.4367   -0.2854    0.0436
          62   -0.0174    0.0496    0.1925    0.1447    0.0604   -0.1140   -0.1960    0.0491
          63    0.0262   -0.0927    0.0719   -0.0549    0.0219   -0.0196    0.0488   -0.0127
          64   -0.0331   -0.0268   -0.1440   -0.0792   -0.1631   -0.0626   -0.0446    0.0246
          65   -0.0080   -0.0011    0.0094   -0.0036   -0.0268    0.0587    0.0381    0.0297
          66   -0.0140    0.0515   -0.0474    0.0396   -0.0046    0.0128   -0.0715   -0.1462
          67   -0.0336   -0.0296   -0.1946   -0.0924   -0.1918   -0.1416   -0.1099   -0.0134
          68   -0.0053   -0.0108   -0.0060   -0.0148   -0.0366    0.0186    0.0155    0.0296
          69    0.0076   -0.0471    0.0375   -0.0332    0.0091   -0.0166    0.0524    0.0939
          70   -0.0476   -0.0388   -0.1611   -0.1057   -0.2453   -0.0295   -0.0124    0.0873
          71    0.0013   -0.0052    0.0229    0.0014    0.0134    0.0374    0.0310    0.0189
          72    0.0086   -0.0514    0.0407   -0.0371    0.0043   -0.0193    0.0532    0.1012
          73    0.0729    0.0278   -0.0151    0.0008    0.0014   -0.0012   -0.0018    0.0344
          74   -0.1599   -0.0822    0.0227    0.0103    0.0057   -0.0182    0.0316    0.0440
          75   -0.2246   -0.2600    0.0759    0.0309    0.0140   -0.0519    0.0784   -0.0068
          76    0.1615   -0.0049   -0.0500    0.1201    0.0158   -0.0432    0.1048    0.1503
          77    0.4417    0.1641   -0.1238    0.1591    0.0042   -0.0385    0.1352    0.2015
          78    0.0160    0.0162   -0.0199    0.0431    0.0018   -0.0175    0.0651    0.1191
          79   -0.0701   -0.1138    0.0563   -0.0345    0.0008   -0.0091   -0.0032   -0.1344
          80   -0.0391   -0.0290    0.0587   -0.1178   -0.0103    0.0464   -0.1527   -0.2496
          81    0.2426    0.1100   -0.0343   -0.0432   -0.0055    0.0341   -0.1059   -0.0315


   Root No.      33        34        35        36        37        38        39        40

                33 A      34 A      35 A      36 A      37 A      38 A      39 A      40 A   

                   1.3       1.4       1.4       1.5       1.7       1.7       1.8       1.8
  
           1    0.0011   -0.2230   -0.0344   -0.0341    0.0868   -0.0571   -0.0341   -0.2024
           2   -0.0070   -0.1925   -0.0368   -0.0250    0.0475   -0.0495   -0.0482   -0.1439
           3   -0.1307   -0.0407    0.3401    0.0637    0.0183    0.0806   -0.0191   -0.0375
           4    0.0008   -0.2212   -0.0359   -0.0385    0.0713   -0.0409   -0.0134   -0.2085
           5   -0.0047    0.2172    0.0185   -0.0464    0.0475   -0.0757   -0.0591    0.0551
           6   -0.0173   -0.0489    0.5086    0.1191    0.1169    0.0692   -0.0811   -0.0392
           7    0.0038   -0.0020   -0.0110   -0.0569    0.0136   -0.0025   -0.0073   -0.1296
           8    0.0002    0.1114    0.0115   -0.0343    0.0809   -0.0791   -0.0426    0.0060
           9    0.1118   -0.0176    0.2071    0.0380    0.0777   -0.0252   -0.0362    0.0096
          10    0.0034    0.2177    0.0227   -0.0499   -0.0392    0.0329    0.0177   -0.2091
          11   -0.0050    0.2131    0.0182   -0.0303    0.0467   -0.0766   -0.0519   -0.0312
          12    0.2990    0.0294   -0.2477    0.0468    0.0664    0.0268   -0.0534   -0.0306
          13    0.0035    0.2130    0.0232   -0.0455   -0.0561    0.0502    0.0331   -0.2109
          14   -0.0140   -0.1908   -0.0290    0.0528    0.0220   -0.0445   -0.0473    0.1756
          15    0.1130    0.0310   -0.3543   -0.0185   -0.0540    0.0219    0.0307   -0.0020
          16   -0.0048   -0.0010    0.0032    0.0146   -0.0042    0.0009    0.0004    0.0264
          17   -0.0057   -0.1020   -0.0151    0.0277   -0.0450    0.0350    0.0071    0.0031
          18   -0.1505    0.0115   -0.1605   -0.0693   -0.1124   -0.0135    0.0735    0.0252
          19   -0.0191   -0.2184   -0.0291    0.0541   -0.0419    0.0250   -0.0164   -0.0660
          20    0.0046   -0.3016   -0.0619   -0.0956    0.1648   -0.1345   -0.0929   -0.3683
          21    0.1030    0.0250   -0.1720   -0.0228   -0.0068   -0.0314    0.0056    0.0183
          22    0.0203   -0.2160   -0.0339    0.0930   -0.1281    0.1419    0.0662   -0.0317
          23    0.0069    0.3318    0.0286    0.0163   -0.0609    0.0001   -0.0418    0.2506
          24    0.0234    0.0307   -0.3186   -0.0585   -0.0568   -0.0307    0.0352    0.0132
          25   -0.0119    0.2550    0.0174   -0.0780    0.1268   -0.1441   -0.0692   -0.0127
          26   -0.0019    0.2988    0.0341   -0.0410   -0.0361   -0.0071   -0.0249   -0.2235
          27   -0.2054   -0.0221    0.1609   -0.0171   -0.0330   -0.0060    0.0197    0.0142
          28    0.0031   -0.0112   -0.0113   -0.0780    0.0052    0.0041    0.0187   -0.0018
          29    0.0073   -0.0289    0.0311   -0.1375    0.0385   -0.0285    0.1077   -0.0262
          30   -0.0615    0.0048   -0.0276   -0.0089    0.0013   -0.0339    0.0570   -0.0134
          31    0.0820    0.0340    0.1400    0.0995    0.0431   -0.0111   -0.0944    0.0713
          32   -0.3618    0.0057   -0.0171   -0.0796    0.0131   -0.1673    0.3555    0.0138
          33    0.1785   -0.0302    0.0922   -0.2565    0.0619   -0.0146    0.2951    0.0329
          34   -0.0045    0.0192   -0.0497    0.0598    0.2777    0.1110    0.2121    0.0551
          35   -0.0057   -0.0209    0.0343   -0.1712   -0.0883   -0.0314   -0.0213   -0.0477
          36   -0.1137    0.0066   -0.0758   -0.1530    0.0996    0.2885   -0.1911    0.0308
          37    0.0144    0.0236   -0.0586    0.1324    0.3735    0.1283    0.3194    0.0892
          38    0.0229    0.0338   -0.0374    0.2943   -0.0128    0.0142   -0.0679    0.0255
          39    0.2401   -0.0142    0.0936    0.1292   -0.1138   -0.2558    0.1228   -0.0302
          40    0.1226   -0.0189    0.0598    0.1321   -0.2638   -0.1522   -0.1389   -0.0276
          41   -0.0902    0.0280   -0.0909   -0.0820    0.0152    0.2981   -0.3135    0.0180
          42   -0.0222   -0.0508    0.0596   -0.3195   -0.1463    0.0022   -0.1206   -0.0626
          43   -0.1352   -0.0020   -0.0353   -0.0114   -0.1424    0.0859   -0.2453   -0.0048
          44    0.1018    0.0363    0.0087    0.3112   -0.1197   -0.2440    0.0797   -0.0243
          45   -0.0305    0.0472   -0.1182    0.1096    0.2947    0.3121   -0.0452    0.0942
          46    0.0196   -0.0432    0.0308   -0.2329   -0.1305   -0.0417    0.0105    0.1768
          47    0.0833   -0.0208    0.0531   -0.1050    0.0306   -0.0111    0.0888   -0.0213
          48   -0.0820    0.0156   -0.0523    0.1201   -0.0386   -0.1006    0.0339   -0.0643
          49    0.0036   -0.0298    0.0147   -0.1846   -0.1055   -0.0240   -0.0032    0.1581
          50   -0.0018    0.0323   -0.0083    0.0991    0.1532    0.1259   -0.0256   -0.0924
          51   -0.0887   -0.0292   -0.0236   -0.0639   -0.2412   -0.1407   -0.0865    0.1826
          52   -0.0843    0.0203   -0.0748    0.1034   -0.0890   -0.0879   -0.0370    0.0270
          53    0.0690   -0.0252    0.0616   -0.1784    0.0220    0.0998   -0.0228    0.0901
          54   -0.1779    0.0700   -0.1453    0.4039   -0.0133   -0.1022   -0.0642   -0.1553
          55    0.1533   -0.0040    0.0057    0.0198   -0.0029    0.0272   -0.0727   -0.0090
          56    0.0821    0.0075    0.0059   -0.0304    0.0014   -0.0155    0.0962    0.0186
          57    0.0660    0.0042    0.0128   -0.0055   -0.0067    0.0207   -0.0360    0.0115
          58   -0.0041    0.0010    0.0004    0.0012   -0.0003   -0.0013    0.0024    0.0008
          59    0.0497    0.0000   -0.0104    0.0219   -0.0031    0.0204   -0.0644   -0.0069
          60    0.0908   -0.0024   -0.0002    0.0504   -0.0136    0.0624   -0.2154   -0.0137
          61    0.0164    0.2063    0.0217   -0.0421    0.0505   -0.0342    0.0115   -0.0728
          62   -0.0145   -0.2969   -0.0368    0.0878    0.1045   -0.1228   -0.0912    0.4135
          63   -0.0454   -0.0151    0.2288    0.0220    0.0336   -0.0014   -0.0209   -0.0089
          64   -0.0088    0.0003    0.0163    0.0331   -0.0124    0.0046   -0.0033    0.1170
          65    0.0102   -0.0394    0.0182    0.0816   -0.2512    0.2704    0.1777   -0.0435
          66   -0.0758    0.0119   -0.0899   -0.0543   -0.0342   -0.0556    0.0222    0.0291
          67   -0.0294    0.0112   -0.0137   -0.0429    0.2737   -0.3149   -0.2088    0.2898
          68    0.0112   -0.0448    0.0137    0.0477   -0.0921    0.1069    0.0645    0.0372
          69    0.0563   -0.0042    0.0466    0.0254    0.0425    0.0060   -0.0301   -0.0173
          70    0.0053   -0.0081    0.0579    0.1505   -0.3079    0.3225    0.1968    0.1850
          71    0.0149   -0.0458    0.0063    0.0255   -0.0785    0.0988    0.0623   -0.0782
          72    0.0603   -0.0045    0.0472    0.0274    0.0430    0.0062   -0.0306   -0.0086
          73   -0.0354    0.0029    0.0004   -0.0259    0.0003   -0.0057    0.0173    0.0063
          74   -0.0908   -0.0041   -0.0149    0.0050    0.0021   -0.0165    0.0182   -0.0088
          75   -0.1045   -0.0124   -0.0324    0.0016   -0.0027   -0.0094    0.0108   -0.0148
          76   -0.2414   -0.0050   -0.0181   -0.0057    0.0104   -0.0442    0.1053   -0.0080
          77   -0.2496    0.0028   -0.0219    0.0209   -0.0032    0.0022   -0.0919   -0.0100
          78   -0.1871    0.0064   -0.0146   -0.0052    0.0108   -0.0670    0.1761    0.0025
          79    0.1255   -0.0008   -0.0081    0.0327   -0.0089    0.0274   -0.0677   -0.0081
          80    0.3885   -0.0051    0.0368   -0.0348    0.0009    0.0321    0.0497    0.0194
          81    0.1509   -0.0023    0.0355   -0.1040    0.0069   -0.0088    0.1479    0.0343


   Root No.      41        42        43        44        45        46        47        48

                41 A      42 A      43 A      44 A      45 A      46 A      47 A      48 A   

                   2.0       2.4       2.7       2.8       3.1       3.4       3.7       3.9
  
           1    0.0108    0.0028   -0.0063   -0.0135    0.0163    0.0100    0.2503    0.1905
           2    0.0228   -0.1235    0.1374   -0.0077   -0.0111    0.0106   -0.1530   -0.1676
           3    0.0242   -0.0208   -0.1174   -0.3882   -0.4043    0.1814    0.0004    0.0505
           4    0.0027    0.0428   -0.0500   -0.0001    0.0097    0.0043    0.2586    0.1982
           5    0.0085   -0.2324    0.0458   -0.0237    0.0104    0.0012    0.1279    0.1629
           6    0.0322   -0.0191   -0.0321   -0.0610    0.3886   -0.1268   -0.0615   -0.0817
           7    0.0043   -0.1662   -0.0168   -0.0059    0.0028   -0.0442   -0.0775    0.2967
           8    0.0011   -0.0175   -0.0523   -0.0071    0.0165    0.0177    0.3429    0.0886
           9   -0.0038    0.0302    0.1312    0.5024    0.0628   -0.0569    0.0640    0.0557
          10    0.0068    0.0786    0.0253    0.0064   -0.0082   -0.0334   -0.3220    0.0551
          11    0.0113    0.2291   -0.0750    0.0017    0.0016    0.0296    0.1919   -0.0828
          12    0.0291   -0.0256   -0.0444   -0.1121   -0.4557   -0.0218   -0.0210   -0.0254
          13    0.0027    0.0273    0.0516    0.0145   -0.0106   -0.0216   -0.3054    0.0405
          14    0.0120    0.1561   -0.0700    0.0096   -0.0019   -0.0280   -0.2108    0.0703
          15    0.0008   -0.0235   -0.0858   -0.2737    0.5945    0.0807   -0.0222   -0.0007
          16   -0.0017    0.0872   -0.0551   -0.0003    0.0145   -0.0210   -0.0651    0.2580
          17    0.0082    0.0148    0.0380    0.0151   -0.0127   -0.0197   -0.2760   -0.0727
          18   -0.0248    0.0159    0.0669    0.2389   -0.0506   -0.0288    0.0535    0.0199
          19    0.0202   -0.0661    0.1556   -0.0015   -0.0024    0.0198   -0.1288   -0.2085
          20    0.0364   -0.2079    0.2136   -0.0322    0.0094    0.0463    0.0751   -0.1827
          21   -0.0077    0.0071    0.0331    0.1237    0.1343   -0.0442    0.0011   -0.0090
          22    0.0018    0.1962   -0.0273    0.0293   -0.0107   -0.0102   -0.1063   -0.1884
          23    0.0115   -0.3880    0.1534   -0.0381   -0.0014   -0.0023   -0.1587    0.1385
          24   -0.0106    0.0073    0.0098    0.0256   -0.1275    0.0308    0.0177    0.0195
          25    0.0010    0.1905   -0.0829   -0.0081    0.0050    0.0272    0.1802   -0.1180
          26    0.0226    0.4259   -0.0917    0.0160   -0.0035    0.0104   -0.0831   -0.1940
          27   -0.0045    0.0028    0.0133    0.0465    0.1439    0.0005    0.0052    0.0070
          28   -0.0143   -0.0857   -0.0795   -0.0163   -0.0052   -0.0661   -0.0830    0.2022
          29   -0.0801   -0.0932   -0.2140    0.0699    0.0031    0.0656    0.0671   -0.0647
          30   -0.0321   -0.0233   -0.0146    0.1532    0.0213    0.2383   -0.0362    0.1085
          31    0.0132    0.0557    0.0028    0.1217    0.0145    0.0267    0.0666   -0.0526
          32   -0.2143    0.1093    0.2752   -0.1920   -0.0102   -0.0091   -0.0303    0.0392
          33   -0.1116    0.0918    0.2442   -0.1744   -0.0113   -0.1094    0.0040    0.0147
          34   -0.0783   -0.0367   -0.1413    0.0245   -0.0078   -0.0904   -0.0139   -0.0368
          35   -0.0443   -0.1353   -0.2670    0.0237   -0.0143   -0.1977   -0.0426   -0.0312
          36    0.0715    0.0196    0.0275   -0.0155   -0.0031    0.0165    0.0081   -0.0021
          37   -0.1169   -0.0368   -0.2212    0.0517   -0.0154   -0.1890   -0.0531   -0.1721
          38    0.0659    0.0956    0.1533   -0.0032    0.0086    0.0894    0.0198   -0.0077
          39   -0.0292   -0.0136   -0.0052    0.0070   -0.0023    0.0107   -0.0003    0.0155
          40    0.0636    0.0569    0.1429   -0.0328    0.0047    0.0593    0.0087    0.0306
          41    0.1093   -0.0227   -0.0792   -0.0203   -0.0095   -0.1759   -0.0375   -0.0437
          42   -0.0103   -0.1402   -0.2723    0.0319   -0.0177   -0.2115   -0.0510   -0.0505
          43    0.0935    0.0625    0.1436   -0.0081    0.0078    0.1046    0.0104    0.0298
          44   -0.0085    0.0037    0.0165    0.0137   -0.0007   -0.0773   -0.0236    0.0226
          45    0.0787    0.1231    0.2050   -0.0077    0.0107    0.2682    0.0495    0.0064
          46   -0.0075    0.0806    0.0214   -0.0113    0.0055    0.1492   -0.0026   -0.0182
          47   -0.0525   -0.0993   -0.2644    0.1765    0.0149    0.5674   -0.1266   -0.1214
          48   -0.0424   -0.0893   -0.1384    0.0681    0.0058    0.2790   -0.1175    0.0820
          49    0.0024    0.0896    0.0678   -0.0308    0.0053    0.0751    0.0090    0.0257
          50    0.0319   -0.0033    0.1439    0.0029    0.0056   -0.1649    0.0012    0.1233
          51    0.0189    0.0857   -0.0708   -0.1226   -0.0174   -0.1252    0.1213   -0.2005
          52   -0.0009    0.0038   -0.1228   -0.1043   -0.0200   -0.0930    0.0858   -0.1865
          53    0.0369    0.0880    0.1682   -0.0070    0.0087   -0.0833    0.0373    0.0407
          54    0.0053   -0.0915   -0.1115   -0.0692   -0.0199   -0.2037    0.0174    0.0096
          55   -0.1198   -0.0066   -0.0110    0.0187    0.0047    0.0245    0.0019    0.0021
          56    0.2548    0.0046    0.0044   -0.0284   -0.0105   -0.0406   -0.0026   -0.0040
          57   -0.0853    0.0189    0.0299   -0.0396   -0.0094   -0.0441   -0.0042   -0.0028
          58    0.0285   -0.0016   -0.0053    0.0021   -0.0003   -0.0017   -0.0004   -0.0003
          59   -0.1029   -0.0035   -0.0082    0.0077   -0.0019    0.0102    0.0008    0.0003
          60   -0.4815    0.0114    0.0182   -0.0024   -0.0012    0.0086   -0.0003    0.0009
          61   -0.0117   -0.1053    0.0563   -0.0119    0.0134    0.0446    0.2276   -0.1235
          62    0.0082    0.2243   -0.1882    0.0005   -0.0054   -0.0423   -0.0384    0.2043
          63    0.0075    0.0043    0.0258    0.0855   -0.1915   -0.0169    0.0080    0.0007
          64   -0.0024   -0.0255   -0.0052    0.0040    0.0011   -0.0084   -0.0392    0.1831
          65   -0.0296   -0.0204   -0.0228    0.0585   -0.0073   -0.0099    0.1504    0.0296
          66   -0.0156    0.0228    0.1152    0.3893   -0.1259   -0.1746   -0.0119   -0.0543
          67    0.0274   -0.1929    0.1210   -0.0373   -0.0162    0.0152   -0.1070   -0.2458
          68   -0.0109   -0.1011    0.0227   -0.0090   -0.0017    0.0237    0.1360   -0.1859
          69    0.0147   -0.0003   -0.0503   -0.1539    0.0373    0.0576   -0.0120    0.0338
          70   -0.0409   -0.2409    0.0493    0.0155   -0.0092    0.0271    0.2127   -0.1654
          71   -0.0064    0.0837   -0.0656   -0.0008    0.0160   -0.0071    0.0320    0.2364
          72    0.0132   -0.0166   -0.0435   -0.1595    0.0469    0.0625   -0.0043   -0.0039
          73   -0.1338    0.0258    0.0577   -0.0504   -0.0063   -0.0281   -0.0060    0.0065
          74    0.0384   -0.0083   -0.0141    0.0184    0.0043    0.0178    0.0021    0.0001
          75   -0.0249    0.0003    0.0154   -0.0217   -0.0004   -0.0136   -0.0062    0.0046
          76    0.2351   -0.0143   -0.0219    0.0131    0.0032    0.0010   -0.0013   -0.0001
          77   -0.3334    0.0118    0.0213    0.0009   -0.0005    0.0242    0.0019    0.0034
          78    0.5404   -0.0360   -0.0678    0.0511    0.0058    0.0298    0.0035   -0.0012
          79    0.0143   -0.0218   -0.0486    0.0311    0.0040    0.0188   -0.0000   -0.0027
          80    0.2033    0.0094    0.0192   -0.0457   -0.0065   -0.0558   -0.0030   -0.0018
          81    0.0476    0.0584    0.1187   -0.1215   -0.0137   -0.0870   -0.0051    0.0029


   Root No.      49        50        51        52        53        54        55        56

                49 A      50 A      51 A      52 A      53 A      54 A      55 A      56 A   

                   4.1       4.7       5.0       5.3       5.5       6.0       6.4       7.3
  
           1    0.0603    0.0286    0.0042   -0.0140   -0.0021   -0.0596    0.0772   -0.2285
           2   -0.0449   -0.0272    0.0139   -0.0199   -0.0494    0.1442   -0.2096   -0.0096
           3   -0.2229   -0.0201   -0.2918   -0.1952   -0.0488   -0.0193   -0.0036    0.0044
           4    0.0587   -0.0426    0.0534   -0.0631   -0.0570    0.0199   -0.0086   -0.2327
           5    0.0455   -0.0355    0.0439   -0.0471   -0.0491    0.0851   -0.1910   -0.0271
           6    0.4245   -0.0929    0.1283    0.2288    0.0661    0.0482    0.0175   -0.0194
           7    0.0468   -0.1927    0.1499   -0.1477   -0.1617    0.0720    0.0513   -0.0254
           8    0.0397   -0.0219   -0.0041   -0.0089   -0.0045    0.0946   -0.2595   -0.0236
           9   -0.3986    0.1840   -0.0237   -0.3373   -0.1110   -0.1001   -0.0322    0.0496
          10   -0.0075    0.0041    0.0499   -0.0731   -0.0997    0.0564    0.0979   -0.2084
          11   -0.0039    0.0055   -0.0400    0.0532    0.0550    0.0445   -0.2267   -0.0295
          12    0.2487   -0.0628    0.0798    0.1763    0.0468    0.0401    0.0170   -0.0137
          13   -0.0065    0.0922    0.0010   -0.0174   -0.0709    0.1176   -0.0078   -0.2036
          14   -0.0044    0.0639   -0.0200    0.0148   -0.0159    0.1280   -0.2164   -0.0153
          15   -0.1073   -0.0443   -0.2643   -0.1720   -0.0410   -0.0113    0.0010    0.0006
          16    0.0578    0.2527   -0.0972    0.0818    0.0674   -0.0180   -0.0149   -0.0526
          17   -0.0269    0.0275   -0.0036   -0.0042   -0.0523    0.1920   -0.2535   -0.0109
          18   -0.1311    0.1248    0.5095    0.2655    0.0538    0.0149    0.0094   -0.0027
          19   -0.0434    0.0827   -0.0640    0.0702    0.0796   -0.0971    0.1156    0.1083
          20   -0.0283    0.1079   -0.0854    0.0925    0.1303   -0.2115    0.2551    0.1309
          21    0.0364    0.0081    0.0615    0.0332    0.0058    0.0026   -0.0007   -0.0009
          22   -0.0464   -0.0896    0.0246   -0.0184   -0.0261    0.0897   -0.1506    0.0886
          23    0.0206    0.1521   -0.0501    0.0446    0.0455   -0.1570    0.3015   -0.0904
          24   -0.0952    0.0205   -0.0170   -0.0399   -0.0136   -0.0083   -0.0049    0.0034
          25   -0.0171   -0.1180    0.0274   -0.0098    0.0218   -0.0993    0.1307    0.1058
          26   -0.0551   -0.1547    0.0497   -0.0235    0.0101   -0.1607    0.2818    0.1340
          27   -0.0534    0.0160   -0.0088   -0.0288   -0.0098   -0.0054   -0.0040    0.0016
          28    0.0313   -0.2349    0.1595   -0.1535   -0.0773   -0.0408   -0.0310    0.3077
          29    0.0121    0.1119   -0.0636    0.0623   -0.1476    0.4296    0.2342    0.1300
          30   -0.2019   -0.2622   -0.2502    0.3764    0.0985    0.3122    0.1923   -0.2171
          31   -0.0658    0.0465   -0.0559    0.0339    0.0136    0.0327    0.0049   -0.0224
          32    0.0837    0.0047    0.0725   -0.0816    0.0162   -0.1010   -0.0506   -0.0292
          33    0.0451    0.0495    0.0398   -0.0610   -0.0177    0.0097    0.0201   -0.0421
          34   -0.0271   -0.0072    0.0030   -0.0106   -0.0329    0.0786    0.0353    0.2214
          35   -0.0484   -0.0095    0.0064   -0.0184   -0.0540    0.1447    0.1123    0.3361
          36    0.0203    0.0030    0.0012    0.0088    0.0084    0.0065    0.0020   -0.0330
          37   -0.1149    0.0581   -0.1019    0.1049    0.1492   -0.1823   -0.0673   -0.2586
          38    0.0108    0.0199   -0.0130    0.0138    0.0025    0.0009   -0.0018   -0.0272
          39   -0.0011   -0.0118    0.0020    0.0010   -0.0089    0.0154    0.0066    0.0145
          40    0.0289    0.0003    0.0156   -0.0172   -0.0146    0.0131    0.0088    0.0174
          41   -0.0385   -0.0080    0.0032   -0.0067    0.0896   -0.2271   -0.1280   -0.1476
          42   -0.0735   -0.0237   -0.0210    0.0241    0.0853   -0.1760   -0.0992   -0.1303
          43    0.0339    0.0079    0.0152   -0.0193   -0.0257    0.0246    0.0164    0.0215
          44   -0.0902   -0.0852   -0.0554    0.0811    0.0811   -0.0743   -0.0446   -0.1131
          45    0.1372    0.1027    0.0677   -0.0957   -0.1221    0.1247    0.0740    0.1430
          46    0.0006   -0.0687   -0.0407    0.0781    0.1020   -0.0602   -0.0621    0.0341
          47    0.2346    0.1841    0.1216   -0.1701   -0.0325   -0.1778   -0.0543   -0.1329
          48    0.0627   -0.1992    0.0548    0.0001    0.1706   -0.2245   -0.1767    0.1653
          49   -0.0525   -0.1604   -0.0779    0.1513    0.1502   -0.0471   -0.0810    0.0891
          50   -0.1028   -0.1254   -0.0223    0.0362    0.0067    0.0351    0.0113    0.0390
          51    0.0574    0.2474   -0.0211   -0.0180   -0.0906    0.0965    0.0705   -0.0819
          52    0.1151    0.3028    0.0373   -0.1073   -0.1552    0.0925    0.0944   -0.1331
          53   -0.0967   -0.0576   -0.0701    0.0874    0.0105    0.0735    0.0380   -0.0366
          54    0.0072   -0.0022    0.0386   -0.0467   -0.0243   -0.0017   -0.0157    0.1169
          55   -0.0129   -0.0100   -0.0522    0.1566   -0.2696   -0.1109   -0.0379    0.0205
          56    0.0207    0.0169    0.0812   -0.2430    0.4165    0.1703    0.0575   -0.0297
          57    0.0225    0.0166    0.0816   -0.2334    0.3795    0.1361    0.0382   -0.0054
          58    0.0007    0.0017    0.0096   -0.0335    0.0647    0.0320    0.0130   -0.0098
          59   -0.0043   -0.0045   -0.0197    0.0620   -0.1051   -0.0456   -0.0174    0.0142
          60   -0.0009    0.0003    0.0060   -0.0307    0.0685    0.0417    0.0193   -0.0183
          61   -0.0044    0.0656   -0.0679    0.0674    0.0655    0.0342   -0.1692    0.0801
          62    0.0231   -0.1329    0.0974   -0.0875   -0.0575   -0.1376    0.3283   -0.0907
          63    0.0102    0.0151    0.0559    0.0335    0.0062    0.0035   -0.0033    0.0008
          64    0.0402    0.2664   -0.1409    0.1419    0.1297   -0.0504   -0.0534    0.2672
          65    0.0579   -0.0276   -0.0349   -0.0144    0.0092   -0.0391    0.0440   -0.0021
          66    0.4625   -0.1636   -0.4634   -0.1867   -0.0286   -0.0179    0.0079   -0.0011
          67   -0.0637   -0.1347    0.0516   -0.0465   -0.0470    0.0535   -0.0490    0.0083
          68   -0.0503   -0.2444    0.1301   -0.1039   -0.0914    0.0141    0.0662   -0.1885
          69   -0.1368    0.0696    0.1157    0.0613    0.0151    0.0047   -0.0087    0.0172
          70   -0.0238   -0.1524    0.0573   -0.0368   -0.0151   -0.0394    0.0565    0.0156
          71    0.0423    0.2443   -0.0991    0.1206    0.1110   -0.0616   -0.0155    0.1894
          72   -0.1491    0.0267    0.1389    0.0412   -0.0033    0.0114   -0.0021   -0.0172
          73    0.0220    0.0080    0.0426   -0.0853    0.0809   -0.0233   -0.0252    0.0231
          74   -0.0089   -0.0050   -0.0217    0.0478   -0.0499    0.0086    0.0134   -0.0149
          75    0.0185    0.0022    0.0300   -0.0565    0.0668   -0.0029   -0.0087    0.0104
          76    0.0021    0.0020    0.0176   -0.0622    0.1216    0.0612    0.0228   -0.0105
          77   -0.0072   -0.0076   -0.0380    0.1172   -0.1998   -0.0839   -0.0277    0.0101
          78   -0.0160   -0.0122   -0.0492    0.1424   -0.2312   -0.0919   -0.0302    0.0139
          79   -0.0126   -0.0086   -0.0211    0.0293    0.0086    0.0501    0.0330   -0.0235
          80    0.0197    0.0083    0.0212   -0.0042   -0.0753   -0.0879   -0.0468    0.0354
          81    0.0345    0.0083   -0.0005    0.1092   -0.3205   -0.2090   -0.0859    0.0411


   Root No.      57        58        59        60        61        62        63        64

                57 A      58 A      59 A      60 A      61 A      62 A      63 A      64 A   

                   8.2       8.3       8.4       8.8       8.9       9.0       9.7      10.2
  
           1    0.2765    0.0089   -0.0596    0.0068   -0.0388    0.0263    0.0279    0.1696
           2    0.2158   -0.1439    0.1357   -0.0087    0.0579   -0.0819    0.1658    0.3091
           3   -0.0032   -0.0005   -0.0011    0.0009    0.0001    0.0002   -0.0026   -0.0045
           4    0.2780   -0.0090   -0.0366    0.0038   -0.0177    0.0085    0.0430    0.1303
           5   -0.2922   -0.0250    0.0940   -0.0116    0.1136   -0.1225    0.0385   -0.0354
           6    0.0012    0.0002    0.0071   -0.0042   -0.0068    0.0002   -0.0085    0.0052
           7   -0.0699   -0.1368    0.1873   -0.0137    0.1043   -0.1239    0.0637   -0.1261
           8   -0.1950    0.0566   -0.0321    0.0001    0.0054   -0.0024   -0.0198   -0.0015
           9    0.0123   -0.0012   -0.0159    0.0067    0.0178    0.0126    0.0159   -0.0129
          10   -0.2056    0.1538   -0.1337    0.0024    0.0036   -0.0034    0.0622    0.1041
          11   -0.1925    0.1694   -0.1772    0.0114   -0.0604    0.0770   -0.1161    0.0724
          12   -0.0009   -0.0028    0.0086   -0.0032   -0.0051   -0.0014   -0.0042    0.0001
          13   -0.1717    0.1710   -0.1606    0.0024    0.0062   -0.0060    0.0939    0.1151
          14    0.2730   -0.0233   -0.0356    0.0101   -0.0857    0.1000   -0.1887   -0.2811
          15   -0.0052   -0.0016    0.0035   -0.0009    0.0031   -0.0039    0.0060    0.0089
          16    0.0585    0.1137   -0.1548    0.0129   -0.1031    0.1276   -0.2171   -0.3376
          17    0.1676   -0.0559    0.0335   -0.0001   -0.0137    0.0104    0.0019   -0.0073
          18   -0.0029    0.0012   -0.0001   -0.0006   -0.0014    0.0005   -0.0013   -0.0003
          19   -0.1406    0.0466   -0.0321    0.0016   -0.0150    0.0257   -0.0529   -0.1043
          20   -0.2526    0.0912   -0.0634    0.0014   -0.0188    0.0349   -0.0820   -0.1617
          21    0.0014   -0.0001    0.0004   -0.0004    0.0001   -0.0001    0.0007    0.0007
          22   -0.1729   -0.0202    0.0586   -0.0066    0.0437   -0.0448    0.0094   -0.0255
          23    0.3109    0.0073   -0.0685    0.0073   -0.0709    0.0714   -0.0089    0.0450
[...]
 FREQUENCY           982.41         C  5 -- H 21         +26.8% ( 55.5%)      0.0%
 TRANSITION DIPOLE   0.0285         C  2 -- H  8         +17.1% ( 44.4%)      0.0%
 TRAVEL (Ang.)       0.3526         C  1 -- H  7         +14.7% ( 41.1%)      0.0%
 REDUCED MASS        0.5522         C  4 -- H  9         +14.6% ( 40.9%)      0.0%
 EFFECTIVE MASS      3.9256
 FORCE CONSTANT      0.3140

 VIBRATION         42   42A           ATOM PAIR      ENERGY CONTRIBUTION    RADIAL
 FREQUENCY           995.91         C  5 -- H 21         +16.8% ( 45.7%)      0.0%
 TRANSITION DIPOLE   0.4232         C  1 -- H  7         +16.5% ( 45.4%)      0.0%
 TRAVEL (Ang.)       0.3346         C  2 -- H  8         +15.8% ( 44.3%)      0.0%
 REDUCED MASS        0.6049         C  1 -- C  2          +8.9% ( 33.3%)      0.0%
 EFFECTIVE MASS      5.4397
 FORCE CONSTANT      0.3535

 VIBRATION         43   43A           ATOM PAIR      ENERGY CONTRIBUTION    RADIAL
 FREQUENCY          1039.38         C  1 -- C  2         +12.0% ( 57.1%)      0.4%
 TRANSITION DIPOLE   0.6456         C  4 -- C  5         +11.8% ( 56.4%)      1.2%
 TRAVEL (Ang.)       0.2583         C  1 -- C  6          +9.4% ( 50.5%)     18.7%
 REDUCED MASS        0.9720         C  5 -- C  6          +8.9% ( 49.0%)     14.7%
 EFFECTIVE MASS     10.4316
 FORCE CONSTANT      0.6187

 VIBRATION         44   44A           ATOM PAIR      ENERGY CONTRIBUTION    RADIAL
 FREQUENCY          1077.86         C 12 -- H 14         +21.2% ( 62.5%)     33.1%
 TRANSITION DIPOLE   1.8707         C 12 -- H 13         +14.6% ( 51.9%)      2.9%
 TRAVEL (Ang.)       0.3194         C 12 -- H 15         +12.1% ( 47.2%)      1.3%
 REDUCED MASS        0.6133         C 10 -- C 12         +11.6% ( 46.2%)     14.4%
 EFFECTIVE MASS      5.1411
 FORCE CONSTANT      0.4198

 VIBRATION         45   45A           ATOM PAIR      ENERGY CONTRIBUTION    RADIAL
 FREQUENCY          1110.73         C 10 -- H 11         +20.7% ( 64.4%)     98.6%
 TRANSITION DIPOLE   2.8158         C 10 -- C 12         +12.9% ( 50.9%)      7.1%
 TRAVEL (Ang.)       0.2302         C 10 -- N 16         +11.3% ( 47.5%)     76.6%
 REDUCED MASS        1.1455         H 11 -- O 27         +10.8% ( 46.5%)     16.7%
 EFFECTIVE MASS      5.9218
 FORCE CONSTANT      0.8327

 VIBRATION         46   46A           ATOM PAIR      ENERGY CONTRIBUTION    RADIAL
 FREQUENCY          1170.48         C 10 -- C 12         +22.6% ( 76.9%)     97.0%
 TRANSITION DIPOLE   0.7339         C 10 -- N 16         +11.6% ( 55.0%)      7.9%
 TRAVEL (Ang.)       0.1640         C 10 -- H 11         +11.4% ( 54.7%)      0.1%
 REDUCED MASS        2.1415         C  3 -- C 10         +11.4% ( 54.5%)      6.9%
 EFFECTIVE MASS      9.2615
 FORCE CONSTANT      1.7286

 VIBRATION         47   47A           ATOM PAIR      ENERGY CONTRIBUTION    RADIAL
 FREQUENCY          1196.96         C 10 -- H 11         +23.4% ( 70.1%)     41.9%
 TRANSITION DIPOLE   2.8812         C 10 -- C 12         +13.8% ( 53.8%)     33.3%
 TRAVEL (Ang.)       0.2014         C 10 -- N 16         +11.4% ( 49.0%)     54.8%
 REDUCED MASS        1.3885         C  3 -- C 10         +10.2% ( 46.2%)     16.4%
 EFFECTIVE MASS      6.9312
 FORCE CONSTANT      1.1721

 VIBRATION         48   48A           ATOM PAIR      ENERGY CONTRIBUTION    RADIAL
 FREQUENCY          1210.65         C  1 -- H  7         +15.7% ( 53.6%)      1.0%
 TRANSITION DIPOLE   1.0656         C  5 -- H 21         +11.1% ( 45.1%)      2.3%
 TRAVEL (Ang.)       0.4397         C  4 -- H  9         +10.6% ( 44.2%)      3.4%
 REDUCED MASS        0.2882         C  2 -- H  8          +8.6% ( 39.8%)      3.3%
 EFFECTIVE MASS      4.6889
 FORCE CONSTANT      0.2488

 VIBRATION         49   49A           ATOM PAIR      ENERGY CONTRIBUTION    RADIAL
 FREQUENCY          1246.21         C  6 -- N 22         +13.1% ( 49.9%)     99.9%
 TRANSITION DIPOLE   1.7133         C  1 -- C  6         +12.7% ( 49.1%)     51.2%
 TRAVEL (Ang.)       0.2370         C  5 -- C  6         +11.9% ( 47.5%)     33.6%
 REDUCED MASS        0.9629         C  5 -- H 21         +10.8% ( 45.3%)      1.8%
 EFFECTIVE MASS      7.2314
 FORCE CONSTANT      0.8811

 VIBRATION         50   50A           ATOM PAIR      ENERGY CONTRIBUTION    RADIAL
 FREQUENCY          1255.77         C 12 -- H 13         +42.6% ( 57.0%)      0.0%
 TRANSITION DIPOLE   1.0166         C 12 -- H 15         +24.7% ( 43.4%)      4.1%
 TRAVEL (Ang.)       0.3923         C 12 -- H 14         +20.5% ( 39.5%)      9.2%
 REDUCED MASS        0.3489         C 10 -- C 12          +4.0% ( 17.4%)     46.2%
 EFFECTIVE MASS      1.5715
 FORCE CONSTANT      0.3242

 VIBRATION         51   51A           ATOM PAIR      ENERGY CONTRIBUTION    RADIAL
 FREQUENCY          1258.45         C 12 -- H 14         +29.7% ( 50.7%)      0.3%
 TRANSITION DIPOLE   0.4351         C 12 -- H 15         +19.0% ( 40.4%)      3.1%
 TRAVEL (Ang.)       0.4947         C  1 -- H  7         +12.2% ( 32.5%)      1.5%
 REDUCED MASS        0.2190         C 12 -- H 13          +8.9% ( 27.7%)     19.0%
 EFFECTIVE MASS      1.7461
 FORCE CONSTANT      0.2043

 VIBRATION         52   52A           ATOM PAIR      ENERGY CONTRIBUTION    RADIAL
 FREQUENCY          1282.38         C  2 -- H  8         +23.9% ( 52.3%)      0.0%
 TRANSITION DIPOLE   0.2737         C  4 -- H  9         +22.2% ( 50.4%)      0.1%
 TRAVEL (Ang.)       0.4801         C  5 -- H 21          +6.3% ( 26.8%)      0.3%
 REDUCED MASS        0.2281         C  3 -- C 10          +6.0% ( 26.2%)     97.8%
 EFFECTIVE MASS      2.5764
 FORCE CONSTANT      0.2210

 VIBRATION         53   53A           ATOM PAIR      ENERGY CONTRIBUTION    RADIAL
 FREQUENCY          1346.84         C  2 -- H  8         +23.7% ( 52.8%)      0.2%
 TRANSITION DIPOLE   0.1317         C  4 -- H  9         +22.2% ( 51.2%)      0.1%
 TRAVEL (Ang.)       0.4638         C  5 -- H 21         +15.2% ( 42.3%)      0.0%
 REDUCED MASS        0.2327         C  1 -- H  7         +13.5% ( 39.9%)      0.0%
 EFFECTIVE MASS      2.1439
 FORCE CONSTANT      0.2487

 VIBRATION         54   54A           ATOM PAIR      ENERGY CONTRIBUTION    RADIAL
 FREQUENCY          1357.21         C  3 -- C 10         +11.3% ( 42.8%)     98.2%
 TRANSITION DIPOLE   0.8066         C 12 -- H 14          +9.7% ( 39.7%)      1.0%
 TRAVEL (Ang.)       0.2904         C 12 -- H 15          +9.4% ( 39.2%)      0.5%
 REDUCED MASS        0.5891         C  1 -- C  6          +7.9% ( 35.9%)     71.4%
 EFFECTIVE MASS      6.7210
 FORCE CONSTANT      0.6393

 VIBRATION         55   55A           ATOM PAIR      ENERGY CONTRIBUTION    RADIAL
 FREQUENCY          1379.68         C  3 -- C 10         +13.8% ( 48.6%)     88.6%
 TRANSITION DIPOLE   1.4342         C  4 -- C  5          +9.5% ( 40.4%)     93.7%
 TRAVEL (Ang.)       0.2703         C 12 -- H 13          +9.2% ( 39.8%)      0.0%
 REDUCED MASS        0.6688         C  3 -- C  4          +7.7% ( 36.3%)     34.2%
 EFFECTIVE MASS      6.8248
 FORCE CONSTANT      0.7501

 VIBRATION         56   56A           ATOM PAIR      ENERGY CONTRIBUTION    RADIAL
 FREQUENCY          1406.26         C  1 -- C  2         +19.1% ( 70.1%)     99.0%
 TRANSITION DIPOLE   0.9318         C  4 -- C  5         +13.6% ( 59.3%)     99.6%
 TRAVEL (Ang.)       0.1654         C  2 -- C  3         +10.0% ( 50.9%)     96.3%
 REDUCED MASS        1.7524         C  3 -- C  4          +9.8% ( 50.2%)     82.7%
 EFFECTIVE MASS     10.9139
 FORCE CONSTANT      2.0418

 VIBRATION         57   57A           ATOM PAIR      ENERGY CONTRIBUTION    RADIAL
 FREQUENCY          1477.18         N 22 -- O 24         +29.2% ( 75.6%)     66.0%
 TRANSITION DIPOLE   8.5460         N 22 -- O 23         +28.7% ( 75.0%)     64.3%
 TRAVEL (Ang.)       0.1001         C  6 -- N 22         +17.7% ( 58.8%)    100.0%
 REDUCED MASS        4.5537         O 23 -- O 24         +15.9% ( 55.9%)    100.0%
 EFFECTIVE MASS     14.7381
 FORCE CONSTANT      5.8543

 VIBRATION         58   58A           ATOM PAIR      ENERGY CONTRIBUTION    RADIAL
 FREQUENCY          1505.87         N 16 -- O 17         +21.8% ( 62.6%)     70.4%
 TRANSITION DIPOLE   3.3349         N 16 -- O 18         +19.5% ( 59.1%)     60.6%
 TRAVEL (Ang.)       0.1468         O 17 -- O 18         +11.7% ( 45.7%)    100.0%
 REDUCED MASS        2.0779         C 10 -- N 16         +10.5% ( 43.3%)     97.4%
 EFFECTIVE MASS     11.1864
 FORCE CONSTANT      2.7763

 VIBRATION         59   59A           ATOM PAIR      ENERGY CONTRIBUTION    RADIAL
 FREQUENCY          1514.19         C  2 -- C  3         +14.6% ( 53.9%)     59.3%
 TRANSITION DIPOLE   0.8966         C  3 -- C  4         +13.6% ( 52.2%)     37.2%
 TRAVEL (Ang.)       0.1697         C  5 -- C  6         +10.4% ( 45.7%)     43.0%
 REDUCED MASS        1.5464         C  1 -- C  6          +9.8% ( 44.3%)     30.9%
 EFFECTIVE MASS     10.3812
 FORCE CONSTANT      2.0890

 VIBRATION         60   60A           ATOM PAIR      ENERGY CONTRIBUTION    RADIAL
 FREQUENCY          1525.39         O 19 -- H 26         +29.9% ( 67.9%)     48.8%
 TRANSITION DIPOLE   2.1539         H 26 -- O 27         +25.0% ( 62.2%)     21.0%
 TRAVEL (Ang.)       0.3212         N 16 -- O 17          +4.1% ( 25.3%)     66.3%
 REDUCED MASS        0.4285         N 16 -- O 18          +4.0% ( 25.0%)     61.8%
 EFFECTIVE MASS      4.9481
 FORCE CONSTANT      0.5874

 VIBRATION         61   61A           ATOM PAIR      ENERGY CONTRIBUTION    RADIAL
 FREQUENCY          1547.87         C  3 -- C  4          +9.9% ( 42.1%)     80.9%
 TRANSITION DIPOLE   1.1584         C  1 -- C  6          +9.4% ( 40.9%)     84.8%
 TRAVEL (Ang.)       0.2251         C  2 -- C  3          +8.9% ( 39.8%)     51.5%
 REDUCED MASS        0.8595         C  5 -- C  6          +7.0% ( 35.2%)     34.8%
 EFFECTIVE MASS      9.6205
 FORCE CONSTANT      1.2133

 VIBRATION         62   62A           ATOM PAIR      ENERGY CONTRIBUTION    RADIAL
 FREQUENCY          1638.96         N 16 -- O 18         +35.9% ( 85.2%)     90.4%
 TRANSITION DIPOLE  11.4959         N 16 -- O 17         +33.8% ( 82.6%)     86.6%
 TRAVEL (Ang.)       0.0799         C 10 -- N 16         +20.7% ( 64.6%)      0.3%
 REDUCED MASS        6.4388         O 17 -- O 18          +6.4% ( 35.9%)      0.4%
 EFFECTIVE MASS     14.5449
 FORCE CONSTANT     10.1904

 VIBRATION         63   63A           ATOM PAIR      ENERGY CONTRIBUTION    RADIAL
 FREQUENCY          1645.88         N 22 -- O 23         +35.2% ( 84.6%)     88.7%
 TRANSITION DIPOLE  11.1940         N 22 -- O 24         +35.1% ( 84.4%)     88.9%
 TRAVEL (Ang.)       0.0787         C  6 -- N 22         +21.0% ( 65.4%)      0.0%
 REDUCED MASS        6.6224         O 23 -- O 24          +6.2% ( 35.6%)      0.0%
 EFFECTIVE MASS     14.6089
 FORCE CONSTANT     10.5698

 VIBRATION         64   64A           ATOM PAIR      ENERGY CONTRIBUTION    RADIAL
 FREQUENCY          1671.06         C  5 -- C  6         +15.4% ( 55.9%)     96.8%
 TRANSITION DIPOLE   2.6529         C  1 -- C  2         +14.8% ( 54.8%)     84.9%
 TRAVEL (Ang.)       0.1329         C  2 -- C  3         +13.9% ( 53.1%)     83.8%
 REDUCED MASS        2.2852         C  4 -- C  5         +13.1% ( 51.6%)     84.9%
 EFFECTIVE MASS     12.0148
 FORCE CONSTANT      3.7597

 VIBRATION         65   65A           ATOM PAIR      ENERGY CONTRIBUTION    RADIAL
 FREQUENCY          1681.33         C  1 -- C  6         +17.3% ( 59.2%)     99.9%
 TRANSITION DIPOLE   2.0562         C  3 -- C  4         +17.0% ( 58.7%)     98.3%
 TRAVEL (Ang.)       0.1312         C  5 -- C  6         +10.5% ( 46.1%)     54.0%
 REDUCED MASS        2.3303         C  4 -- C  5          +9.2% ( 43.3%)     46.9%
 EFFECTIVE MASS     12.0176
 FORCE CONSTANT      3.8812

 VIBRATION         66   66A           ATOM PAIR      ENERGY CONTRIBUTION    RADIAL
 FREQUENCY          1809.86         O 19 -- H 26         +48.0% ( 88.2%)     57.1%
 TRANSITION DIPOLE   2.7687         H 26 -- O 27         +45.6% ( 85.8%)     41.8%
 TRAVEL (Ang.)       0.2290         O 19 -- H 20          +4.1% ( 25.9%)     83.6%
 REDUCED MASS        0.7102         C 10 -- H 11          +0.7% ( 10.7%)     98.4%
 EFFECTIVE MASS      1.5310
 FORCE CONSTANT      1.3707

 VIBRATION         67   67A           ATOM PAIR      ENERGY CONTRIBUTION    RADIAL
 FREQUENCY          2645.35         C 12 -- H 15         +62.2% ( 81.5%)     99.2%
 TRANSITION DIPOLE   0.9833         C 12 -- H 13         +32.0% ( 58.5%)     94.6%
 TRAVEL (Ang.)       0.2240         C 12 -- H 14          +4.8% ( 22.7%)     56.8%
 REDUCED MASS        0.5081         C 10 -- C 12          +0.9% (  9.8%)      0.0%
 EFFECTIVE MASS      1.4501
 FORCE CONSTANT      2.0951

 VIBRATION         68   68A           ATOM PAIR      ENERGY CONTRIBUTION    RADIAL
 FREQUENCY          2648.36         C 12 -- H 14         +61.4% ( 81.0%)     99.2%
 TRANSITION DIPOLE   0.9415         C 12 -- H 13         +32.6% ( 59.0%)     94.7%
 TRAVEL (Ang.)       0.2250         C 12 -- H 15          +5.0% ( 23.1%)     58.0%
 REDUCED MASS        0.5029         C 10 -- C 12          +0.9% (  9.8%)      0.0%
 EFFECTIVE MASS      1.4514
 FORCE CONSTANT      2.0782

 VIBRATION         69   69A           ATOM PAIR      ENERGY CONTRIBUTION    RADIAL
 FREQUENCY          2712.17         C  1 -- H  7         +69.6% ( 84.3%)    100.0%
 TRANSITION DIPOLE   1.0498         C  2 -- H  8         +26.7% ( 52.2%)     99.9%
 TRAVEL (Ang.)       0.2148         C  5 -- H 21          +1.7% ( 13.1%)     99.9%
 REDUCED MASS        0.5389         C  1 -- C  2          +0.9% (  9.5%)      2.5%
 EFFECTIVE MASS      1.3662
 FORCE CONSTANT      2.3356

 VIBRATION         70   70A           ATOM PAIR      ENERGY CONTRIBUTION    RADIAL
 FREQUENCY          2712.57         C  5 -- H 21         +75.5% ( 87.9%)    100.0%
 TRANSITION DIPOLE   1.1810         C  4 -- H  9         +19.9% ( 45.1%)     99.9%
 TRAVEL (Ang.)       0.2046         C  2 -- H  8          +2.4% ( 15.7%)    100.0%
 REDUCED MASS        0.5936         C  4 -- C  5          +0.9% (  9.8%)      4.0%
 EFFECTIVE MASS      1.3782
 FORCE CONSTANT      2.5732

 VIBRATION         71   71A           ATOM PAIR      ENERGY CONTRIBUTION    RADIAL
 FREQUENCY          2723.21         C  4 -- H  9         +42.4% ( 65.7%)    100.0%
 TRANSITION DIPOLE   2.0854         C  2 -- H  8         +39.2% ( 63.2%)    100.0%
 TRAVEL (Ang.)       0.2706         C  1 -- H  7         +10.8% ( 33.2%)     99.8%
 REDUCED MASS        0.3381         C  5 -- H 21          +5.3% ( 23.3%)     99.7%
 EFFECTIVE MASS      1.3751
 FORCE CONSTANT      1.4772

 VIBRATION         72   72A           ATOM PAIR      ENERGY CONTRIBUTION    RADIAL
 FREQUENCY          2732.38         C  4 -- H  9         +35.5% ( 60.0%)    100.0%
 TRANSITION DIPOLE   0.2484         C  2 -- H  8         +29.5% ( 54.8%)    100.0%
 TRAVEL (Ang.)       0.3082         C  1 -- H  7         +17.3% ( 41.9%)     99.9%
 REDUCED MASS        0.2598         C  5 -- H 21         +15.1% ( 39.2%)     99.9%
 EFFECTIVE MASS      1.4362
 FORCE CONSTANT      1.1427

 VIBRATION         73   73A           ATOM PAIR      ENERGY CONTRIBUTION    RADIAL
 FREQUENCY          2767.64         O 19 -- H 20         +49.5% ( 69.5%)     99.4%
 TRANSITION DIPOLE   1.1656         H 25 -- O 27         +26.0% ( 50.3%)    100.0%
 TRAVEL (Ang.)       0.2817         C 12 -- H 13          +8.2% ( 28.3%)     95.7%
 REDUCED MASS        0.3071         C 12 -- H 14          +7.8% ( 27.6%)     95.3%
 EFFECTIVE MASS      1.2974
 FORCE CONSTANT      1.3861

 VIBRATION         74   74A           ATOM PAIR      ENERGY CONTRIBUTION    RADIAL
 FREQUENCY          2768.51         C 12 -- H 13         +25.4% ( 48.8%)     95.7%
 TRANSITION DIPOLE   1.0035         C 12 -- H 14         +24.1% ( 47.5%)     95.3%
 TRAVEL (Ang.)       0.3341         C 12 -- H 15         +23.1% ( 46.5%)     95.1%
 REDUCED MASS        0.2182         O 19 -- H 20         +19.7% ( 43.0%)     99.5%
 EFFECTIVE MASS      1.1922
 FORCE CONSTANT      0.9855

 VIBRATION         75   75A           ATOM PAIR      ENERGY CONTRIBUTION    RADIAL
 FREQUENCY          2788.58         H 25 -- O 27         +67.3% ( 81.3%)    100.0%
 TRANSITION DIPOLE   0.2908         O 19 -- H 20         +30.3% ( 54.6%)     99.9%
 TRAVEL (Ang.)       0.2169         H 26 -- O 27          +1.1% ( 10.3%)     13.4%
 REDUCED MASS        0.5138         O 19 -- H 26          +0.7% (  8.4%)     69.4%
 EFFECTIVE MASS      1.3553
 FORCE CONSTANT      2.3539

      SYMMETRY NUMBER FOR POINT-GROUP C1  =  1


          SYSTEM IS A GROUND STATE



 Title: ASE calculation


          MOLECULE IS NOT LINEAR

          THERE ARE 75 GENUINE VIBRATIONS IN THIS SYSTEM
          THIS THERMODYNAMICS CALCULATION IS LIMITED TO
          MOLECULES WHICH HAVE NO INTERNAL ROTATIONS




                    CALCULATED THERMODYNAMIC PROPERTIES
                                          *
   TEMP. (K)   PARTITION FUNCTION   H.O.F.    ENTHALPY  HEAT CAPACITY ENTROPY
                                   KCAL/MOL   CAL/MOLE    CAL/K/MOL  CAL/K/MOL


 298.00  VIB.     0.2191D+07                  9029.1556    56.7296    59.3118
         ROT.     0.4671D+07                   888.2803     2.9808    33.4980
         INT.     0.1023D+14                  9917.4359    59.7104    92.8098
         TRA.     0.3421D+28                  1480.4672     4.9680    42.2268
         TOT.                     -221.135   11397.9031    64.6784   135.0366

   *: NOTE: HEATS OF FORMATION ARE RELATIVE TO THE
            ELEMENTS IN THEIR STANDARD STATE AT 298K
              (=  Standard Enthalpy of Formation).

            Hvib:  Zero-point energy is not included.
                   frequencies of less than zero cm-1 are not included.
            Hrot = (3/2)RT
            Htra = (3/2)RT + pV = (5/2)RT

            Heat capacity is Cp, not Cv

          For more information, see: HTTP://OpenMOPAC.net/Manual/thermochemistry.html


           FORCE CONSTANT IN CARTESIAN COORDINATES (Millidynes/A)

    ATOM   CHEMICAL       X               Y               Z
   NUMBER   SYMBOL  FORCE CONSTANT  FORCE CONSTANT  FORCE CONSTANT

      1       C       11.174188        9.783109        2.316153
      2       C       11.140356        9.633927        2.255019
      3       C       10.552038       11.470515        2.573153
      4       C       11.029373        9.846411        1.932204
      5       C       11.025040        9.902601        2.221561
      6       C        9.877390       12.536652        2.298502
      7       H        1.714112        3.332385        0.341212
      8       H        1.749202        3.355571        0.349110
      9       H        1.756689        3.358831        0.346615
     10       C        8.134649        6.826433        5.298056
     11       H        0.878021        0.856935        0.346202
     12       C        6.418407        6.632321        6.122479
     13       H        4.015653        0.768706        0.530630
     14       H        0.720418        2.207840        2.397784
     15       H        0.838904        1.353720        3.081892
     16       N       14.024095        5.005866        9.734344
     17       O       11.652896        0.793954        1.352741
     18       O        5.773523        1.331686        6.641087
     19       O        1.356557        2.424346        4.566814
     20       H        0.688481        1.246794        2.892803
     21       H        1.687033        3.365772        0.372181
     22       N       10.916619       14.914184        3.082377
     23       O        3.786340        9.532722        0.409757
     24       O        3.907149        9.301332        0.418654
     25       H        2.750118        0.892830        0.969430
     26       H        0.040258        1.066491        1.668455
     27       O        2.932762        2.093607        1.467514

 **********************
 *                    *
 * JOB ENDED NORMALLY *
 *                    *
 **********************



 TOTAL JOB TIME:            14.56 SECONDS

 == MOPAC DONE ==
