 *******************************************************************************
 **                                                                           **
 **                              MOPAC v22.1.1                                **
 **                                                                           **
 *******************************************************************************
 **          Digital Object Identifier (DOI): 10.5281/zenodo.6511958          **
 **    Visit the DOI location for information on how to cite this program.    **
 *******************************************************************************

                              PM7 CALCULATION RESULTS

 *******************************************************************************
 *  CALCULATION DONE:                                Wed Nov  6 15:06:43 2024  *
 *  PM7        - The PM7 Hamiltonian to be used
 *  SINGLET    - SPIN STATE DEFINED AS A SINGLET
 *
 *
 *
 *                 CHARGE ON SYSTEM = -1
 *
 *
 *
 *  EPS=78.4   - USE ANDREAS KLAMT'S COSMO IMPLICIT SOLVATION MODEL
 *  THREADS=1  - MULTI-THREADING NOT USED
 *  T=         - A TIME OF 14.0 DAYS REQUESTED
 *  DUMP=N     - RESTART FILE WRITTEN EVERY 30.0 MINUTES REQUESTED
 *  RELSCF     - DEFAULT SCF CRITERION MULTIPLIED BY 1.0000
 *              (DEFAULT SCF CRITERION = 0.00010)
 *  ITRY=      - DO A MAXIMUM OF 15000 ITERATIONS FOR SCF
 *  AUX        - OUTPUT AUXILIARY INFORMATION
 *  BONDS      - FINAL BOND-ORDER MATRIX TO BE PRINTED
 *******************************************************************************
PM7 BONDS AUX DUMP=30M ITRY=15000 T=14D CHARGE=-1 SINGLET eps=78.4 THREADS=True RELSCF=1
 Title: ASE calculation

   ATOM   CHEMICAL          X               Y               Z
  NUMBER   SYMBOL      (ANGSTROMS)     (ANGSTROMS)     (ANGSTROMS)

     1       C          1.21647986  *   0.63142348  *  -1.63666072  *
     2       C          1.13843672  *  -0.69620646  *  -1.21074935  *
     3       C         -0.11461618  *  -1.22986613  *  -0.91826639  *
     4       C         -1.27557225  *  -0.44094858  *  -0.99685978  *
     5       C         -1.17015257  *   0.88251317  *  -1.39880755  *
     6       C          0.07421229  *   1.41910846  *  -1.73369009  *
     7       H          2.19152089  *   1.05452439  *  -1.88736603  *
     8       C          2.44353088  *  -1.42459801  *  -1.05875678  *
     9       O         -0.40108859  *  -2.49213024  *  -0.49684615  *
    10       H         -2.23998856  *  -0.87432731  *  -0.74078288  *
    11       H         -2.06357031  *   1.50530028  *  -1.45693031  *
    12       H          0.14988558  *   2.45299968  *  -2.06389084  *
    13       O          2.90984861  *  -1.93937120  *  -2.10677352  *
    14       C          3.04186408     -1.41278157      0.16555042   
    15       O          6.83749855     -2.23824470      0.39411247   
    16       H          6.99843383  *  -2.38839819  *   1.34083147  *
    17       H          7.20628044  *  -3.73519496  *  -0.33290696  *
    18       O          7.42358553  *  -4.58852907  *  -0.75152215  *
    19       H          8.02891618  *  -4.35806521  *  -1.46008202  *
    20       H          3.98791855  *  -1.86635425  *   0.34367439  *
    21       H          2.60667721  *  -0.96138419  *   1.02228992  *
    22       H          5.85969557     -2.21780016  *   0.37838719  *
    23       C          0.55918437  *  -3.51773688  *  -0.70868556  *
    24       H         -0.02048555  *  -4.43003138  *  -0.51422316  *
    25       H          1.38290341  *  -3.41672318  *   0.00853609  *
    26       H          0.93671422  *  -3.50798486  *  -1.73677045  *



          CARTESIAN COORDINATES 

    NO.       ATOM           X           Y           Z

     1         C          1.2165      0.6314     -1.6367
     2         C          1.1384     -0.6962     -1.2107
     3         C         -0.1146     -1.2299     -0.9183
     4         C         -1.2756     -0.4409     -0.9969
     5         C         -1.1702      0.8825     -1.3988
     6         C          0.0742      1.4191     -1.7337
     7         H          2.1915      1.0545     -1.8874
     8         C          2.4435     -1.4246     -1.0588
     9         O         -0.4011     -2.4921     -0.4968
    10         H         -2.2400     -0.8743     -0.7408
    11         H         -2.0636      1.5053     -1.4569
    12         H          0.1499      2.4530     -2.0639
    13         O          2.9098     -1.9394     -2.1068
    14         C          3.0419     -1.4128      0.1656
    15         O          6.8375     -2.2382      0.3941
    16         H          6.9984     -2.3884      1.3408
    17         H          7.2063     -3.7352     -0.3329
    18         O          7.4236     -4.5885     -0.7515
    19         H          8.0289     -4.3581     -1.4601
    20         H          3.9879     -1.8664      0.3437
    21         H          2.6067     -0.9614      1.0223
    22         H          5.8597     -2.2178      0.3784
    23         C          0.5592     -3.5177     -0.7087
    24         H         -0.0205     -4.4300     -0.5142
    25         H          1.3829     -3.4167      0.0085
    26         H          0.9367     -3.5080     -1.7368

 General Reference for PM7:
 "Optimization of Parameters for Semiempirical Methods VI: More Modifications to the 
 NDDO Approximations and Re-optimization of Parameters", J. J. P. Stewart, J. Mol. Mod., 1:32, 19 (2013)
 https://link.springer.com/article/10.1007/s00894-012-1667-x

           Empirical Formula: C9 H13 O4  =    26 atoms



      MOLECULAR POINT GROUP   :   C1  


 SINGLET STATE CALCULATION


      RHF CALCULATION, NO. OF DOUBLY OCCUPIED LEVELS = 37


          Geometry optimization using EF
  SCF CRITERION =    0.1000E-03

          DIAGONAL MATRIX USED AS START HESSIAN

 CYCLE:     1 TIME:   0.039 TIME LEFT:  2.00W  GRAD.:     6.104 HEAT: -273.3511
 CYCLE:     2 TIME:   0.047 TIME LEFT:  2.00W  GRAD.:     6.581 HEAT: -273.3759
 CYCLE:     3 TIME:   0.086 TIME LEFT:  2.00W  GRAD.:     4.255 HEAT: -273.3747
 CYCLE:     4 TIME:   0.043 TIME LEFT:  2.00W  GRAD.:     3.858 HEAT: -273.3839

     TRUST RADIUS NOW LESS THAN  0.00010 OPTIMIZATION TERMINATING
      THE GEOMETRY MAY NOT BE COMPLETELY OPTIMIZED
      (TO CONTINUE, ADD 'LET DDMIN=0.0' TO THE KEYWORD LINE)

 -------------------------------------------------------------------------------
 PM7 BONDS AUX DUMP=30M ITRY=15000 T=14D CHARGE=-1 SINGLET eps=78.4 THREADS=True RELSCF=1
 Title: ASE calculation



     GEOMETRY OPTIMISED USING EIGENVECTOR FOLLOWING (EF).     
     SCF FIELD WAS ACHIEVED                                   


                              PM7 CALCULATION
                                                       MOPAC v22.1.1 Linux
                                                       Wed Nov  6 15:06:44 2024




          FINAL HEAT OF FORMATION =       -273.38392 KCAL/MOL =   -1143.83830 KJ/MOL
          VAN DER WAALS AREA      =        244.05 SQUARE ANGSTROMS



          DIELECTRIC ENERGY       =         -3.47196 EV
          COSMO AREA              =        244.05 SQUARE ANGSTROMS
          COSMO VOLUME            =        236.51 CUBIC ANGSTROMS

          GRADIENT NORM           =          3.85838          =       0.75669 PER ATOM
          IONIZATION POTENTIAL    =          8.251567 EV
          HOMO LUMO ENERGIES (EV) =         -8.252  0.072
          NO. OF FILLED LEVELS    =         37
          MOLECULAR WEIGHT        =        185.1993         POINT GROUP:  C1  

          MOLECULAR DIMENSIONS (Angstroms)

            Atom       Atom       Distance
            H    19    H    11    11.67297
            H    24    H    12     6.23302
            H    16    H    26     3.98399


          SCF CALCULATIONS        =         20

          WALL-CLOCK TIME         =      0.406 SECONDS
          COMPUTATION TIME        =     33.315 SECONDS



       FINAL  POINT  AND  DERIVATIVES

   PARAMETER     ATOM    TYPE            VALUE        GRADIENT
      1          1  C    CARTESIAN X     1.216366      0.043172  KCAL/ANGSTROM
      2          1  C    CARTESIAN Y     0.631465     -0.382765  KCAL/ANGSTROM
      3          1  C    CARTESIAN Z    -1.636169      0.090030  KCAL/ANGSTROM
      4          2  C    CARTESIAN X     1.138435      0.044561  KCAL/ANGSTROM
      5          2  C    CARTESIAN Y    -0.695812      0.132763  KCAL/ANGSTROM
      6          2  C    CARTESIAN Z    -1.211017     -0.184418  KCAL/ANGSTROM
      7          3  C    CARTESIAN X    -0.114630      0.025378  KCAL/ANGSTROM
      8          3  C    CARTESIAN Y    -1.229692      0.080444  KCAL/ANGSTROM
      9          3  C    CARTESIAN Z    -0.918594     -0.010490  KCAL/ANGSTROM
     10          4  C    CARTESIAN X    -1.275692      0.044057  KCAL/ANGSTROM
     11          4  C    CARTESIAN Y    -0.441157     -0.308586  KCAL/ANGSTROM
     12          4  C    CARTESIAN Z    -0.996779      0.266179  KCAL/ANGSTROM
     13          5  C    CARTESIAN X    -1.170338      0.148540  KCAL/ANGSTROM
     14          5  C    CARTESIAN Y     0.882744      0.300977  KCAL/ANGSTROM
     15          5  C    CARTESIAN Z    -1.399414     -0.056688  KCAL/ANGSTROM
     16          6  C    CARTESIAN X     0.074070      0.110520  KCAL/ANGSTROM
     17          6  C    CARTESIAN Y     1.419201     -0.099739  KCAL/ANGSTROM
     18          6  C    CARTESIAN Z    -1.733694      0.033472  KCAL/ANGSTROM
     19          7  H    CARTESIAN X     2.191403      0.110890  KCAL/ANGSTROM
     20          7  H    CARTESIAN Y     1.054846     -0.170478  KCAL/ANGSTROM
     21          7  H    CARTESIAN Z    -1.887174     -0.114782  KCAL/ANGSTROM
     22          8  C    CARTESIAN X     2.443495      0.113245  KCAL/ANGSTROM
     23          8  C    CARTESIAN Y    -1.424301      0.010683  KCAL/ANGSTROM
     24          8  C    CARTESIAN Z    -1.058206      0.775254  KCAL/ANGSTROM
     25          9  O    CARTESIAN X    -0.401120     -0.023671  KCAL/ANGSTROM
     26          9  O    CARTESIAN Y    -2.492134     -0.134291  KCAL/ANGSTROM
     27          9  O    CARTESIAN Z    -0.496894      0.112060  KCAL/ANGSTROM
     28         10  H    CARTESIAN X    -2.240084      0.104047  KCAL/ANGSTROM
     29         10  H    CARTESIAN Y    -0.874398      0.061173  KCAL/ANGSTROM
     30         10  H    CARTESIAN Z    -0.741305      0.138876  KCAL/ANGSTROM
     31         11  H    CARTESIAN X    -2.063766      0.192473  KCAL/ANGSTROM
     32         11  H    CARTESIAN Y     1.505191      0.027791  KCAL/ANGSTROM
     33         11  H    CARTESIAN Z    -1.457295      0.164273  KCAL/ANGSTROM
     34         12  H    CARTESIAN X     0.149686      0.142981  KCAL/ANGSTROM
     35         12  H    CARTESIAN Y     2.453170     -0.064272  KCAL/ANGSTROM
     36         12  H    CARTESIAN Z    -2.063917     -0.003278  KCAL/ANGSTROM
     37         13  O    CARTESIAN X     2.909526      0.297049  KCAL/ANGSTROM
     38         13  O    CARTESIAN Y    -1.939406     -0.140041  KCAL/ANGSTROM
     39         13  O    CARTESIAN Z    -2.107008     -0.413318  KCAL/ANGSTROM
     40         16  H    CARTESIAN X     7.003251     -2.591457  KCAL/ANGSTROM
     41         16  H    CARTESIAN Y    -2.388594     -0.222820  KCAL/ANGSTROM
     42         16  H    CARTESIAN Z     1.343978      1.092411  KCAL/ANGSTROM
     43         17  H    CARTESIAN X     7.206921     -0.322321  KCAL/ANGSTROM
     44         17  H    CARTESIAN Y    -3.736192     -0.049058  KCAL/ANGSTROM
     45         17  H    CARTESIAN Z    -0.334220      0.067500  KCAL/ANGSTROM
     46         18  O    CARTESIAN X     7.422946      0.012573  KCAL/ANGSTROM
     47         18  O    CARTESIAN Y    -4.588686      0.501304  KCAL/ANGSTROM
     48         18  O    CARTESIAN Z    -0.751207      0.754701  KCAL/ANGSTROM
     49         19  H    CARTESIAN X     8.029577     -0.201982  KCAL/ANGSTROM
     50         19  H    CARTESIAN Y    -4.358479      0.407261  KCAL/ANGSTROM
     51         19  H    CARTESIAN Z    -1.460764     -0.227428  KCAL/ANGSTROM
     52         20  H    CARTESIAN X     3.987236      0.307724  KCAL/ANGSTROM
     53         20  H    CARTESIAN Y    -1.866500      0.199398  KCAL/ANGSTROM
     54         20  H    CARTESIAN Z     0.343438     -0.008376  KCAL/ANGSTROM
     55         21  H    CARTESIAN X     2.606754     -0.047050  KCAL/ANGSTROM
     56         21  H    CARTESIAN Y    -0.961099     -0.186609  KCAL/ANGSTROM
     57         21  H    CARTESIAN Z     1.022108     -0.024792  KCAL/ANGSTROM
     58         22  H    CARTESIAN Y    -2.214933     -1.276763  KCAL/ANGSTROM
     59         22  H    CARTESIAN Z     0.370792      1.481910  KCAL/ANGSTROM
     60         23  C    CARTESIAN X     0.559313     -0.086087  KCAL/ANGSTROM
     61         23  C    CARTESIAN Y    -3.517600     -0.077238  KCAL/ANGSTROM
     62         23  C    CARTESIAN Z    -0.708706     -0.023926  KCAL/ANGSTROM
     63         24  H    CARTESIAN X    -0.020320     -0.128313  KCAL/ANGSTROM
     64         24  H    CARTESIAN Y    -4.429928     -0.054470  KCAL/ANGSTROM
     65         24  H    CARTESIAN Z    -0.514232     -0.004613  KCAL/ANGSTROM
     66         25  H    CARTESIAN X     1.382861      0.024669  KCAL/ANGSTROM
     67         25  H    CARTESIAN Y    -3.416517     -0.106815  KCAL/ANGSTROM
     68         25  H    CARTESIAN Z     0.008675     -0.053914  KCAL/ANGSTROM
     69         26  H    CARTESIAN X     0.937024     -0.245079  KCAL/ANGSTROM
     70         26  H    CARTESIAN Y    -3.507867     -0.070694  KCAL/ANGSTROM
     71         26  H    CARTESIAN Z    -1.736650     -0.018442  KCAL/ANGSTROM




   ATOM   CHEMICAL          X               Y               Z
  NUMBER   SYMBOL      (ANGSTROMS)     (ANGSTROMS)     (ANGSTROMS)

     1       C          1.21636634  *   0.63146480  *  -1.63616897  *
     2       C          1.13843485  *  -0.69581199  *  -1.21101679  *
     3       C         -0.11462976  *  -1.22969204  *  -0.91859357  *
     4       C         -1.27569203  *  -0.44115704  *  -0.99677874  *
     5       C         -1.17033792  *   0.88274387  *  -1.39941355  *
     6       C          0.07407041  *   1.41920145  *  -1.73369418  *
     7       H          2.19140266  *   1.05484577  *  -1.88717390  *
     8       C          2.44349456  *  -1.42430116  *  -1.05820613  *
     9       O         -0.40112014  *  -2.49213354  *  -0.49689370  *
    10       H         -2.24008375  *  -0.87439784  *  -0.74130520  *
    11       H         -2.06376630  *   1.50519079  *  -1.45729524  *
    12       H          0.14968586  *   2.45317015  *  -2.06391723  *
    13       O          2.90952576  *  -1.93940558  *  -2.10700798  *
    14       C          3.04186408     -1.41278157      0.16555042   
    15       O          6.83749855     -2.23824470      0.39411247   
    16       H          7.00325102  *  -2.38859361  *   1.34397790  *
    17       H          7.20692070  *  -3.73619171  *  -0.33421975  *
    18       O          7.42294601  *  -4.58868552  *  -0.75120722  *
    19       H          8.02957707  *  -4.35847912  *  -1.46076351  *
    20       H          3.98723648  *  -1.86649985  *   0.34343760  *
    21       H          2.60675439  *  -0.96109918  *   1.02210794  *
    22       H          5.85969557     -2.21493297  *   0.37079241  *
    23       C          0.55931263  *  -3.51759991  *  -0.70870573  *
    24       H         -0.02031967  *  -4.42992800  *  -0.51423194  *
    25       H          1.38286139  *  -3.41651671  *   0.00867513  *
    26       H          0.93702370  *  -3.50786704  *  -1.73664967  *

                             CARTESIAN COORDINATES

   1    C        1.216366340     0.631464802    -1.636168966
   2    C        1.138434850    -0.695811986    -1.211016786
   3    C       -0.114629756    -1.229692039    -0.918593573
   4    C       -1.275692035    -0.441157037    -0.996778745
   5    C       -1.170337918     0.882743871    -1.399413553
   6    C        0.074070410     1.419201451    -1.733694178
   7    H        2.191402663     1.054845772    -1.887173905
   8    C        2.443494560    -1.424301156    -1.058206134
   9    O       -0.401120142    -2.492133541    -0.496893697
  10    H       -2.240083753    -0.874397839    -0.741305201
  11    H       -2.063766300     1.505190789    -1.457295242
  12    H        0.149685858     2.453170148    -2.063917227
  13    O        2.909525759    -1.939405582    -2.107007975
  14    C        3.041864080    -1.412781570     0.165550420
  15    O        6.837498550    -2.238244700     0.394112470
  16    H        7.003251020    -2.388593607     1.343977898
  17    H        7.206920698    -3.736191706    -0.334219754
  18    O        7.422946006    -4.588685523    -0.751207216
  19    H        8.029577073    -4.358479116    -1.460763507
  20    H        3.987236476    -1.866499848     0.343437596
  21    H        2.606754386    -0.961099180     1.022107942
  22    H        5.859695570    -2.214932970     0.370792412
  23    C        0.559312628    -3.517599905    -0.708705734
  24    H       -0.020319668    -4.429928004    -0.514231936
  25    H        1.382861388    -3.416516708     0.008675134
  26    H        0.937023700    -3.507867039    -1.736649671


           Empirical Formula: C9 H13 O4  =    26 atoms



      MOLECULAR POINT GROUP   :   C1  


                  EIGENVALUES  
 -30.88241 -30.05325 -29.75891 -28.78125 -28.56711 -26.11524 -25.74687 -24.44403
 -23.70982 -21.04973 -20.93300 -18.83109 -17.69347 -17.64395 -17.16951 -16.34941
 -16.00619 -15.79390 -15.08555 -14.95639 -14.49913 -14.39296 -14.24165 -14.09175
 -13.29479 -13.10784 -12.91382 -12.58419 -12.46862 -12.28885 -11.88603 -11.84082
 -11.51745  -9.92832  -9.61370  -9.09907  -8.25157   0.07163   0.23380   1.78787
   2.25286   2.46022   3.63229   3.82251   4.47221   4.51088   4.82108   4.87077
   5.00994   5.07149   5.26873   5.70687   5.71358   5.81619   5.90053   5.97199
   6.11011   6.17525   6.28892   6.31618   6.36482   6.53038   6.83606   7.27975
   8.06938


              NET ATOMIC CHARGES AND DIPOLE CONTRIBUTIONS

  ATOM NO.   TYPE          CHARGE      No. of ELECS.   s-Pop       p-Pop       
    1          C          -0.103341        4.1033     1.08652     3.01682
    2          C          -0.212284        4.2123     1.08695     3.12533
    3          C           0.244186        3.7558     1.08251     2.67330
    4          C          -0.273238        4.2732     1.07995     3.19329
    5          C          -0.106114        4.1061     1.08607     3.02005
    6          C          -0.229404        4.2294     1.08000     3.14941
    7          H           0.163513        0.8365     0.83649
    8          C           0.548568        3.4514     1.05942     2.39201
    9          O          -0.384219        6.3842     1.85958     4.52464
   10          H           0.173635        0.8264     0.82636
   11          H           0.157511        0.8425     0.84249
   12          H           0.162694        0.8373     0.83731
   13          O          -0.886381        6.8864     1.88376     5.00262
   14          C          -0.793110        4.7931     1.05546     3.73765
   15          O          -0.719715        6.7197     1.82572     4.89400
   16          H           0.380849        0.6192     0.61915
   17          H           0.377875        0.6221     0.62212
   18          O          -0.777660        6.7777     1.81630     4.96136
   19          H           0.370777        0.6292     0.62922
   20          H           0.137901        0.8621     0.86210
   21          H           0.141695        0.8583     0.85831
   22          H           0.363996        0.6360     0.63600
   23          C          -0.198956        4.1990     1.09231     3.10665
   24          H           0.154343        0.8457     0.84566
   25          H           0.154730        0.8453     0.84527
   26          H           0.152150        0.8479     0.84785
 DIPOLE           X         Y         Z       TOTAL
 POINT-CHG.    -3.731     3.267     3.480     6.058
 HYBRID        -0.397     0.044     0.049     0.402
 SUM           -4.128     3.310     3.529     6.360


          ATOMIC ORBITAL ELECTRON POPULATIONS

     Atom    s        px        py        pz   
    1  C   1.08652   1.06391   0.98456   0.96835
    2  C   1.08695   1.03244   1.02622   1.06667
    3  C   1.08251   0.95990   0.80242   0.91098
    4  C   1.07995   1.07241   1.01743   1.10344
    5  C   1.08607   1.05387   1.00504   0.96114
    6  C   1.08000   0.99000   1.08888   1.07053
    7  H   0.83649
    8  C   1.05942   0.81136   0.74457   0.83609
    9  O   1.85958   1.48243   1.24912   1.79309
   10  H   0.82636
   11  H   0.84249
   12  H   0.83731
   13  O   1.88376   1.80954   1.69406   1.49902
   14  C   1.05546   1.21081   1.43269   1.09414
   15  O   1.82572   1.44727   1.96145   1.48528
   16  H   0.61915
   17  H   0.62212
   18  O   1.81630   1.77374   1.54010   1.64753
   19  H   0.62922
   20  H   0.86210
   21  H   0.85831
   22  H   0.63600
   23  C   1.09231   1.02194   0.91937   1.16533
   24  H   0.84566
   25  H   0.84527
   26  H   0.84785

          BONDING CONTRIBUTION OF EACH M.O.

  1.6565  1.4043  1.1324  1.1065  1.5206  1.7109  1.7748  1.7519  1.7629  1.9227
  1.8298  1.7910  1.6487  1.5986  1.6764  1.9057  1.7735  1.3444  1.6695  0.8708
  1.8785  0.7699  1.5682  1.6082  1.8404  1.4679  1.7915  1.7977  0.1536  0.0001
  1.6063  1.5793  1.3911  1.9127  0.7400  1.5483  0.9741 -2.0490 -2.0493 -1.9101
 -2.1014 -2.0455 -1.7675 -1.9198 -1.9533 -2.0157 -1.9207 -1.8152 -1.9934 -1.9352
 -2.0025 -1.9726 -1.9700 -1.9632 -1.9781 -1.9626 -1.7567 -1.9647 -1.9530 -1.9627
 -1.9616 -1.9591 -1.7235 -1.9449 -1.9285





            (VALENCIES)   BOND ORDERS

     1  C     (3.970)     6  C 1.452     2  C 1.414     7  H 0.960     4  C 0.108

     2  C     (3.971)     1  C 1.414     3  C 1.387     8  C 0.931     5  C 0.105     9  O 0.047    13  O 0.044
                         14  C 0.012

     3  C     (3.931)     2  C 1.387     4  C 1.360     9  O 1.028     6  C 0.101    24  H 0.011

     4  C     (3.959)     5  C 1.464     3  C 1.360    10  H 0.955     1  C 0.108     9  O 0.035    23  C 0.015

     5  C     (3.972)     4  C 1.464     6  C 1.419    11  H 0.962     2  C 0.105

     6  C     (3.969)     1  C 1.452     5  C 1.419    12  H 0.961     3  C 0.101     9  O 0.014

     7  H     (0.973)     1  C 0.960

     8  C     (3.850)    14  C 1.570    13  O 1.322     2  C 0.931

     9  O     (2.087)     3  C 1.028    23  C 0.928     2  C 0.047     4  C 0.035     6  C 0.014

    10  H     (0.970)     4  C 0.955

    11  H     (0.975)     5  C 0.962

    12  H     (0.974)     6  C 0.961

    13  O     (1.534)     8  C 1.322    14  C 0.142     2  C 0.044

    14  C     (3.686)     8  C 1.570    21  H 0.969    20  H 0.963    13  O 0.142     2  C 0.012

    15  O     (1.777)    22  H 0.857    16  H 0.851    17  H 0.043    18  O 0.020

    16  H     (0.855)    15  O 0.851

    17  H     (0.857)    18  O 0.812    15  O 0.043

    18  O     (1.696)    19  H 0.861    17  H 0.812    15  O 0.020

    19  H     (0.863)    18  O 0.861

    20  H     (0.981)    14  C 0.963

    21  H     (0.980)    14  C 0.969

    22  H     (0.868)    15  O 0.857

    23  C     (3.855)    26  H 0.968    25  H 0.965    24  H 0.962     9  O 0.928     4  C 0.015

    24  H     (0.976)    23  C 0.962     3  C 0.011

    25  H     (0.976)    23  C 0.965

    26  H     (0.977)    23  C 0.968


 **********************
 *                    *
 * JOB ENDED NORMALLY *
 *                    *
 **********************



 TOTAL JOB TIME:             0.41 SECONDS

 == MOPAC DONE ==
